default_name
118869
  34.6398587  83.0276187  22.9003707  34.3271732  83.8923517  23.3181812
  34.6805147  82.3169718  23.6169100  34.1092479  82.8642714  22.0566472
  36.0886038  83.2190492  22.4370812  36.7304611  82.5024077  22.9494710
  36.2222523  83.0033153  20.9270828  35.4395698  83.5844837  20.4394860
  37.1929388  83.2916701  20.5236982  36.0031134  81.5786186  20.5359392
  37.0407664  80.7225230  20.2270564  36.5486453  79.5232207  19.9605686
  37.2095671  78.7055981  19.6728625  35.2329922  79.5653592  20.1117716
  34.5955202  78.7920536  19.9863611  34.8650335  80.8401966  20.4702112
  33.8146611  81.0768989  20.6398905  36.9844516  84.4290371  22.8753117
  38.2390461  84.3604087  22.7397659  36.3791044  85.5173731  23.3662164
  35.3717453  85.5891754  23.3793077  37.1720410  86.6780086  23.8337662
  38.2298286  86.4894960  23.6503334  36.7646096  87.9791805  23.0932526
  36.3982726  87.6580482  22.1181779  35.9403825  88.3981271  23.6705163
  37.9198907  89.1138140  22.8930866  38.6129147  88.6905628  22.1659849
  37.4074189  89.9682994  22.4511259  38.8828888  89.6847009  24.4061854
  40.5083583  90.3247595  23.8954804  40.3710576  91.1665646  23.2167966
  41.0622991  90.6540670  24.7745748  41.0665636  89.5375074  23.3887830
  36.9793978  86.7964809  25.3699143  35.8451269  86.9661764  25.8244846
  38.0549302  86.6765604  26.1630789  38.9539840  86.4577832  25.7581862
  37.9599578  86.8046449  27.6414427  36.9968280  87.2410130  27.9061367
  38.0838058  85.4433834  28.3251172  39.0885144  85.0723709  28.1226089
  37.9187709  85.4745350  29.4021005  37.1353055  84.4290280  27.7768021
  37.3538162  83.8593182  26.5083413  38.2548301  84.1441070  25.9650466
  36.4535216  82.9514943  25.9421025  36.6526234  82.5268939  24.9581443
  35.3115088  82.5930209  26.6305076  34.6031457  81.8800071  26.2086866
  35.0651175  83.1703420  27.9115676  34.1659988  82.8954620  28.4630445
  35.9847719  84.0995148  28.4694148  35.7822521  84.5504130  29.4408964
  39.0272111  87.7429174  28.1791212  40.0572668  87.9131586  27.5147838
  38.7910777  88.3474947  29.3603771  37.8607881  88.4187833  29.7471310
  39.9041643  88.9882396  30.0905593  40.3383276  89.7603297  29.4553599
  39.4593269  89.6311367  31.4079777  39.0930913  88.8318086  32.0522178
  40.3276840  90.1005854  31.8702264  38.3670963  90.6664991  31.2166637
  38.4990281  91.4438728  30.2145075  37.4143671  90.6915075  32.0686183
  41.0420725  88.0036869  30.3859114  42.1968797  88.2425381  29.9811096
  40.7238957  86.8880962  31.0493643  39.7914797  86.6857023  31.3806293
  41.7838803  85.9867937  31.4060540  42.7293151  86.3298548  30.9858621
  41.9409812  85.8605488  32.9339216  41.0412364  85.4130028  33.3561314
  43.1602515  84.9664949  33.2552771  44.0605087  85.4136607  32.8337553
  43.2712717  84.8772710  34.3359316  43.0100003  83.9771872  32.8230774
  42.1204545  87.2676720  33.5784026  41.2465156  87.8816714  33.3608303
  42.2301748  87.1622138  34.6577263  43.0104087  87.7449384  33.1681599
  41.5977168  84.6157828  30.7578122  40.4840163  84.1100636  30.7889608
  42.6546833  84.0215045  30.1595254  43.1823977  84.5251402  29.4609783
  42.6656465  82.5314657  30.1153651  41.9885775  82.0830348  30.8424046
  42.4449727  81.8393089  28.7361218  41.6916259  81.0609761  28.8576363
  41.9814186  82.8340777  27.6772036  42.7345147  83.6125135  27.5547908
  41.8379176  82.3157828  26.7291117  41.0400325  83.2859464  27.9897875
  43.5790479  81.0312915  28.3155956  43.7612498  80.2486973  29.0521082
  43.3632106  80.5765095  27.3488033  44.4637111  81.6623209  28.2303097
  43.5956171  81.7708164  31.0174528  44.7911031  82.1109191  31.1432001
  43.0345700  80.7527427  31.6764932  42.0564265  80.5315231  31.5565083
  43.8126888  79.9271503  32.5364806  44.7870612  80.3410717  32.7960318
  43.0828499  79.5790303  33.8086412  42.1162185  79.1457914  33.5516840
  43.8818018  78.5815235  34.6368260  44.8484475  79.0142612  34.8945763
  43.3347944  78.3458152  35.5496924  44.0348196  77.6695227  34.0598150
  42.6590823  80.8169165  34.6518138  41.9950562  81.4488413  34.0620322
  42.1398688  80.4844345  35.5506867  43.5451529  81.3855548  34.9340022
  44.0692517  78.6336460  31.7534347  43.1530722  78.0492578  31.1997674
  45.3233060  78.2151164  31.7313959  46.0168615  78.7389275  32.2458879
  45.7282813  77.0405107  31.0724743  44.9776145  76.7560076  30.3351436
  47.0951430  77.2256519  30.3713853  47.8365735  77.4798596  31.1288546
  47.5356689  75.9519477  29.6304294  46.7949115  75.6973541  28.8724312
  48.4997961  76.1243413  29.1520573  47.6249512  75.1301640  30.3409216
  47.0430771  78.3785357  29.3733527  46.4390633  78.0899900  28.5131147
  46.6016033  79.2541002  29.8493645  48.4597486  78.7108317  28.9115407
  48.9017357  77.8358251  28.4349793  48.4261534  79.5343264  28.1982195
  49.0642766  78.9999332  29.7712301  45.8899744  76.0091760  32.1869701
  46.8774011  76.0162655  32.9062303  44.9326232  75.0905884  32.2753867
  44.1306643  75.1118090  31.6617818  45.0161383  74.0367033  33.2539205
  44.9339625  73.0542070  32.7891116  45.9449499  74.0929744  33.8215842
  43.8731802  74.2302165  34.1784016  43.6390891  75.3358704  34.7370123
  43.1148797  73.1516949  34.3273732  43.2197923  72.3388850  33.7370914
  42.1110508  73.1229038  35.3529724  42.0744796  74.0846062  35.8647244
  41.1367592  72.9082891  34.9138873  42.4469291  72.0426447  36.3581570
  41.6492455  71.1371153  36.6054123  43.6610373  72.1290740  36.9212291
  44.3756484  72.6787876  36.4659871  43.9930433  71.4654764  38.1589481
  43.5137187  70.4893172  38.2328412  45.0705162  71.3504613  38.2769447
  43.4694430  72.3555010  39.2631872  42.8161282  73.3722074  39.0032375
  43.6738341  71.9591885  40.5142134  43.9308250  71.0082451  40.7372867
  43.3419884  72.8339031  41.5804953  42.2860171  73.1041313  41.5812227
  43.7099479  72.1789056  42.9418685  44.7557474  71.8721152  42.9250323
  43.4821044  73.2322405  44.1261050  42.4363599  73.5391661  44.1438688
  43.7408479  72.7701945  45.0788201  44.1137813  74.1054285  43.9629295
  42.8526536  70.9048377  43.0614994  41.8144691  71.2352535  43.0946532
  43.0226042  70.3335221  42.1489126  43.1344297  70.0574627  44.2293983
  42.9642414  70.6279913  45.1424333  42.4758803  69.1889943  44.2161874
  44.1723778  69.7262616  44.1966937  43.9298102  74.2734426  41.3700256
  43.2830993  75.2520096  41.5739463  45.1338953  74.3987062  40.8712048
  45.7025556  73.6315549  40.5422617  45.7136610  75.7349088  40.8774875
  45.6304085  76.1944381  41.8623737  47.1532499  75.6074568  40.5332365
  47.6092077  74.8666057  41.1900023  47.2409976  75.2775808  39.4980639
  47.8085638  76.8346807  40.6887174  48.7359289  76.7331796  40.4622419
  44.8893017  76.6093132  39.8861638  44.5332241  77.7171669  40.2082676
  44.5418547  76.0402549  38.7157873  44.7119548  75.0527122  38.5895942
  43.9379969  76.7731421  37.6325402  44.4767196  77.7022755  37.4465616
  43.9222843  76.1743425  36.7218857  42.5096329  77.1014869  38.0330587
  42.0838950  78.2652147  37.9490707  41.7901136  76.0947313  38.5309424
  42.1415044  75.1481208  38.5544448  40.4371635  76.3418622  39.0140626
  39.8395805  76.7628677  38.2055157  39.7714832  75.0681758  39.4958122
  40.4362240  74.5994286  40.2214118  38.7700403  75.1466814  39.9189541
  39.7231508  74.2262460  38.2387143  40.7241976  74.1361869  37.8169377
  39.2115769  72.8871007  38.5787728  38.2103116  72.9763135  39.0002082
  39.1731334  72.2730070  37.6790441  39.8722706  72.4198348  39.3090103
  38.9436239  74.8450900  37.0860374  39.3973458  75.7967810  36.8094150
  38.9638697  74.1709916  36.2297181  37.9109326  75.0110524  37.3928016
  40.4319946  77.3347059  40.1096997  39.5847481  78.1578408  40.1390830
  41.2971147  77.2082163  41.0928419  41.9869894  76.4713714  41.1279385
  41.3333121  78.2505665  42.1363739  40.4616446  78.1549802  42.7837981
  42.5735441  78.1128849  42.9765342  43.4608399  78.3725090  42.3991255
  42.5146314  78.7513702  43.8579909  42.6517938  76.7811241  43.3731399
  43.4346632  76.6537881  43.9139734  41.4473893  79.6091926  41.5524326
  40.9204478  80.5614147  42.1662012  42.2810243  79.7350342  40.5019286
  42.6668716  78.9070079  40.0711228  42.6402402  81.0346344  39.9465511
  42.9543882  81.7785670  40.6786539  43.7336609  80.8998833  38.8871105
  43.4295731  80.1649113  38.1418275  43.8918520  81.8635241  38.4028873
  44.6604321  80.5749801  39.3600082  41.3415659  81.5336819  39.3280847
  40.8664574  82.6737091  39.5893486  40.7229235  80.6387147  38.5483236
  41.0834792  79.6982107  38.4738179  39.5324147  80.9818072  37.7903821
  39.6798505  81.8520739  37.1508527  39.1109452  79.8281101  36.9376439
  38.9505861  78.9513541  37.5650863  38.1850128  80.0777483  36.4195414
  39.8895617  79.6130226  36.2058018  38.4472610  81.3214246  38.7750732
  37.7151660  82.2762315  38.5724832  38.3460774  80.5776638  39.8721912
  38.9503328  79.7871167  40.0454251  37.3032467  80.8679109  40.8332109
  36.3349163  80.8791674  40.3329023  37.2728758  79.8193171  41.9199665
  37.1451891  78.8546194  41.4288924  38.2422022  79.8476053  42.4176674
  36.1841289  80.0116974  42.9346965  36.3247155  80.9451293  43.4797113
  35.2053807  80.0155446  42.4549682  36.2702470  78.8267516  43.9155396
  36.2072173  77.9020727  43.3418715  37.2329111  78.8729318  44.4247003
  35.1297205  78.8626053  44.9637404  34.1462272  78.9321612  44.4989788
  35.1561194  78.0001111  45.6297029  35.3967425  80.0972514  45.7429652
  35.3718994  80.8966224  45.1261278  34.6921815  80.2024431  46.4589460
  36.3078457  80.0328208  46.1740554  37.4928695  82.2473712  41.4474139
  36.5364869  82.9936498  41.5756275  38.7174120  82.5869504  41.8328676
  39.4886372  81.9371620  41.7773155  38.9645254  83.9126133  42.4140001
  38.3143113  84.0621817  43.2759456  40.4337488  84.0439026  42.8750290
  40.7031003  82.9926202  42.9767855  40.9625495  84.4731951  42.0240426
  40.8260694  84.8001623  44.1571015  41.1265622  84.0675767  44.9061830
  41.9029002  85.7213650  43.9304431  41.6029680  86.4545880  43.1817618
  42.1464811  86.2326179  44.8617806  42.7782916  85.1775573  43.5753888
  39.7009072  85.6072728  44.8833133  38.9000880  84.9295764  45.1791439
  40.1134108  86.0900950  45.7692167  39.3037385  86.3655961  44.2085528
  38.6076919  85.0246922  41.3767159  37.9911453  86.0458839  41.7174367
  38.9944584  84.8246050  40.1173677  39.3930466  83.9523792  39.8004312
  38.8633254  85.9171181  39.1546589  39.3631276  86.7963758  39.5611105
  39.4711212  85.5964920  37.7964858  39.0402174  84.6300772  37.5348303
  39.2026628  86.3309850  37.0371767  41.0012614  85.4718181  37.8698384
  41.2580104  84.8770176  38.7464188  41.5708098  84.8019177  36.6131817
  41.3148454  85.3964279  35.7361762  42.6550501  84.7299468  36.6988779
  41.1478776  83.8026129  36.5101341  41.6630764  86.7827267  38.1222554
  41.3118577  87.1911466  39.0698513  42.7431699  86.6426573  38.1656134
  41.4190260  87.4747068  37.3162146  37.4015730  86.2114752  38.9885390
  37.0484974  87.3525953  38.8897837  36.5883924  85.1392028  39.0045139
  37.0248610  84.2349504  39.1137025  35.1666485  85.1900208  38.8143513
  35.0284179  85.7059828  37.8642068  34.5706071  83.7812596  38.6984177
  34.7453830  83.2592519  39.6391948  33.0450571  83.8156801  38.4009173
  32.8695202  84.3371632  37.4599913  32.6656522  82.7965092  38.3271485
  32.5288926  84.3375372  39.2067336  35.1435390  83.1692291  37.5619967
  34.7885853  82.2827920  37.4628129  34.5423539  85.9456808  39.9359927
  33.5957982  86.6745100  39.7015481  35.0480357  85.7892790  41.1452839
  35.7920109  85.1387830  41.3537430  34.4822560  86.5444385  42.2258307
  33.4140868  86.3342909  42.2801609  35.1058468  86.2068562  43.5500791
  36.0610280  86.7244571  43.6384945  34.4420093  86.5309548  44.3515652
  35.3262858  84.7387924  43.6522027  34.5886083  84.2357717  43.0269804
  36.3261063  84.5355159  43.2686187  35.2173886  84.2271175  45.0699351
  35.7986121  84.9329552  45.9726590  34.5399254  83.1436932  45.2293130
  34.6264539  88.0213713  41.9835241  33.8143090  88.7886902  42.4828952
  35.6229368  88.4174325  41.2020535  36.2008542  87.7327515  40.7358746
  35.9179550  89.8262633  40.9926303  35.5632985  90.4183765  41.8362652
  37.4146549  90.0097942  40.8683406  37.8168683  89.1268161  40.3716784
  37.6101153  90.8906749  40.2568307  38.0696272  90.1732141  42.1990751
  38.4020394  89.0621593  43.0011327  38.2029927  88.0550772  42.6347101
  38.9738088  89.2430397  44.2383182  39.2318194  88.3972383  44.8756190
  39.2428730  90.5638157  44.6715206  39.8266495  90.8606992  45.8953597
  40.0277047  90.0786715  46.4145987  38.9121082  91.6341725  43.8815029
  39.1054446  92.6475169  44.2334328  38.3447718  91.4347765  42.6628518
  38.0981152  92.2875762  42.0304016  35.2509954  90.3544154  39.7186538
  35.4274656  91.4979325  39.3422485  34.5043861  89.4866219  39.0490883
  34.4625525  88.5137816  39.3172878  33.7260138  89.9175498  37.9092261
  32.8404779  89.2853351  37.8441877  33.4225025  90.9509983  38.0764511
  34.4849636  89.8334869  36.6102423  33.9810057  90.2675951  35.5871047
  35.6852609  89.2540277  36.6472615  35.9871815  88.8403176  37.5177713
  36.5427225  89.1407832  35.5102464  36.5630961  90.0357075  34.8883182
  37.9476332  88.8590179  35.9986387  37.9398409  87.9210607  36.5538637
  38.9347211  88.7527906  34.8305623  38.9434095  89.6906012  34.2751014
  39.9339789  88.5500752  35.2159073  38.6296246  87.9420562  34.1689526
  38.3351685  89.9695411  36.9795193  37.6380916  89.9744570  37.8174702
  39.3452844  89.7925686  37.3489055  38.2983308  90.9330936  36.4712768
  36.0389594  87.9532566  34.7170426  35.5500593  86.9815292  35.3303464
  36.1119967  88.0422004  33.3724644  36.3346223  88.9127573  32.9113050
  35.7918693  86.8565854  32.5275374  35.0689103  86.2347901  33.0555526
  35.2087988  87.2412044  31.1821546  35.2416124  86.3958861  30.4947977
  34.1782670  87.5783489  31.2936800  36.0038676  88.3064234  30.6637454
  35.6603162  88.5752406  29.8085790  37.0223767  86.0022108  32.3249948
  38.0880517  86.4973561  32.0198211  36.8654824  84.7076488  32.5260256
  35.9398295  84.3044518  32.5524524  37.9899067  83.8240235  32.5176988
  38.8807678  84.2575830  32.0632852  38.3848352  83.2099330  33.9133253
  37.8029546  82.3035590  34.0806586  39.8710486  82.8719340  33.9428618
  40.4536259  83.7779574  33.7760500  40.1286748  82.4485268  34.9136633
  40.0950195  82.1472997  33.1600183  37.9631208  84.0028916  35.0670461
  36.8778423  84.1041135  35.0618796  38.2767422  83.5053414  35.9847525
  38.4199364  84.9912225  35.0158388  37.4895691  82.6365960  31.7751926
  36.3456705  82.2210143  31.9276191  38.3806748  82.0515747  30.9950089
  39.3068231  82.4315984  30.8611037  38.0721403  80.8002513  30.3943298
  37.0528683  80.4896741  30.6239502  38.1992117  80.9802365  28.8788341
  37.3158188  81.5530518  28.5967015  39.0946007  81.5588834  28.6517961
  38.2276036  79.6788708  28.0999380  39.0382416  79.0398452  28.4500998
  36.8986152  78.9845443  28.3356359  36.0874644  79.6228090  27.9852771
  36.8792861  78.0409995  27.7902458  36.7733592  78.7905035  29.4008868
  38.4975481  79.9295711  26.6373159  39.4620774  80.4247123  26.5249863
  38.5126093  78.9801178  26.1021404  37.7133151  80.5653141  26.2263313
  39.1911603  79.9139923  30.9055883  40.3525220  80.3204383  30.8675671
  38.8279261  78.7242626  31.3744307  37.8472984  78.5496566  31.5417066
  39.7682796  77.6924804  31.7041119  40.7975292  78.0420811  31.7848823
  39.3715370  76.9785951  33.0522963  38.3692195  76.5654880  32.9391530
  40.3571338  75.8457446  33.4132224  41.3596562  76.2581839  33.5269921
  40.0484330  75.3791994  34.3487115  40.3599361  75.0991474  32.6190647
  39.2351620  78.0368570  34.2112690  38.4639062  78.7623686  33.9526192
  38.9608292  77.5299548  35.1364129  40.1862579  78.5515141  34.3478177
  39.8560660  76.6827833  30.5847196  38.8455070  76.1279259  30.1535898
  41.0745667  76.3964231  30.1589876  41.8923346  76.8374883  30.5549882
  41.2506360  75.5175718  29.0516985  40.2806947  75.2045130  28.6652955
  42.0134059  76.2284038  27.9369658  42.8566875  76.7031822  28.4385243
  42.3814153  75.4598551  27.2572586  41.2293779  77.2865608  27.1386614
  40.7173415  77.9682347  27.8178081  42.2204782  78.0651154  26.2930363
  42.7326107  77.3841366  25.6132664  41.6902405  78.8228886  25.7162100
  42.9513828  78.5482564  26.9414604  40.0964107  76.7218375  26.1929183
  39.3620886  76.1795003  26.7885195  39.6068148  77.5483984  25.6779483
  40.5377003  76.0475150  25.4589894  41.9329886  74.3033465  29.6019792
  43.0961443  74.3200727  30.0144814  41.1780303  73.2200361  29.7027440
  40.2115757  73.1899451  29.4109234  41.7421076  72.0414109  30.3455264
  42.7061551  72.2869750  30.7909587  40.8024506  71.5381648  31.4540922
  40.9830703  72.1686549  32.3247000  39.7854668  71.6972966  31.0955938
  40.9860334  70.0353769  31.8515289  40.2429979  69.8051383  32.6150661
  40.7709416  69.4603480  30.9508756  42.3820549  69.6690629  32.3702940
  43.0895281  70.5073135  32.9372117  42.7692883  68.4972718  32.2193344
  41.9989204  71.0194858  29.2882514  41.0918252  70.6866257  28.5435289
  43.2187284  70.4829643  29.2463105  43.9014859  70.7977047  29.9207584
  43.6310731  69.4982912  28.2533091  43.5383259  69.9831157  27.2814849
  45.0935089  69.1212055  28.4725846  45.2008979  68.6264683  29.4378839
  45.4178205  68.4459835  27.6807528  45.7078198  70.0214526  28.4559553
  42.8158427  68.2093847  28.2351306  42.6386189  67.5846835  27.1566993
  42.4571308  67.7198991  29.4070639  42.4913735  68.3273047  30.2132805
  41.9211971  66.3120917  29.5892899  42.3806314  65.6375493  28.8667860
  42.2493659  65.8147220  31.0010535  41.9477493  66.6111008  31.6814265
  41.6228305  64.9384877  31.1676875  43.7609456  65.4392884  31.2673625
  44.1550747  64.7865925  30.4884202  44.3867317  66.3282069  31.3468469
  43.7607348  64.7185285  32.5618037  43.5525572  65.4708968  33.3225291
  42.9303964  64.0141927  32.5113185  44.9724355  63.9890041  32.9425036
  45.0538522  63.0380021  32.6122523  45.9570670  64.4879267  33.7125316
  45.9303604  65.7549668  34.0713421  45.1707550  66.3469476  33.7669436
  46.6696113  66.1286925  34.6492149  46.9865261  63.7181501  34.1027045
  47.0263645  62.7503851  33.8164462  47.7160064  64.1106559  34.6805422
  40.4279167  66.3772664  29.4743897  39.8858163  67.4785941  29.5236384
  39.7662319  65.2052479  29.3474179  40.2867609  64.3702690  29.1194726
  38.2906885  65.0955053  29.5057764  37.8040054  65.9151549  28.9771809
  37.7713477  63.7550323  28.9266164  36.6906974  63.6775552  29.0461625
  38.0185948  63.7729655  27.8651799  38.4685899  62.5075071  29.6098084
  38.8397653  61.5583554  28.8569659  38.7074191  62.4743467  30.8756879
  37.7911338  65.1759125  30.9514295  36.6671287  64.7817630  31.2290634
  38.5899120  65.6836151  31.8840443  39.5281325  65.9622462  31.6346324
  38.1393835  65.9133487  33.2596400  37.0780906  66.1614618  33.2736609
  38.3563703  64.6397712  34.0885924  38.0055798  64.8354579  35.1018801
  37.7574841  63.8446276  33.6445407  39.8917395  64.1892026  34.1335492
  40.1449241  63.8541577  33.1276947  40.4687373  65.0819999  34.3745648
  40.2337581  63.0421954  35.1742302  39.8196178  63.3252025  36.1419563
  39.7620539  62.1206178  34.8332182  41.7073073  62.7980318  35.3341489
  42.1107521  62.0584336  34.7770796  42.4979335  63.4557251  36.1923236
  41.9695975  64.3776067  36.9876149  40.9802031  64.5747802  36.9394347
  42.5593645  64.8777351  37.6373426  43.8127856  63.2403219  36.2281493
  44.2287917  62.5690573  35.5985122  44.3871041  63.7493463  36.8847703
  38.9977444  67.0191419  33.8813650  40.1030223  67.3155507  33.4031468
  38.5511166  67.5219126  35.0245352  37.6175470  67.2764981  35.3217201
  39.3027420  68.4713291  35.8281251  40.1348047  68.8879324  35.2604875
  38.4180770  69.6566302  36.3672411  39.0013003  70.2689930  37.0549632
  37.9588964  70.5181063  35.1767634  37.3751788  69.9064993  34.4887869
  37.3450145  71.3424991  35.5395664  38.8309362  70.9161112  34.6578797
  37.2477558  69.1649571  37.1519657  37.5995671  68.5860832  38.0059188
  36.6638085  70.0147406  37.5054813  36.6238978  68.5344247  36.5184588
  40.0068923  67.8365470  36.9865771  39.7445850  66.6731780  37.3476564
  40.9354341  68.5934694  37.5689350  41.2549632  69.4686494  37.1789857
  41.5150592  68.1463461  38.8156348  41.4727973  68.9898379  39.5047172
  40.8816957  67.3413192  39.1883033  42.9490311  67.6485351  38.7303889
  43.6381542  67.6366192  39.7478231  43.3843515  67.2334947  37.5406295
  42.6995955  66.9781574  36.8434843  44.8010728  67.1285876  37.1921594
  44.8909911  66.9187430  36.1263361  45.2944104  68.0737770  37.4187301
  45.4678667  66.0364892  37.9600474  45.1904897  64.8669882  37.7298616
  46.3431603  66.4047027  38.8854375  46.6586710  67.3605592  38.9684485
  46.9936658  65.3985011  39.6862714  47.0883629  64.4845536  39.0998998
  48.3978084  65.8391031  40.1412896  48.3168399  66.8819863  40.4477827
  48.6558994  65.2261385  41.0048655  49.4845763  65.7044715  39.0796749
  49.7682855  64.6565804  38.9820322  49.1055950  66.0682506  38.1246146
  50.7064618  66.5268174  39.4892173  50.7712567  66.4908061  40.5766931
  51.5822401  66.0424680  39.0573405  50.6894535  67.9197569  39.0691027
  49.9568354  68.1853738  38.4265937  51.5255931  68.8677682  39.5123533
  52.4300315  68.5195210  40.4292262  52.4648344  67.5670838  40.7635198
  53.0757796  69.2099165  40.7848428  51.5057555  70.1561758  38.9962591
  50.8480862  70.3950655  38.2679028  52.1490783  70.8490952  39.3513608
  46.1418995  64.9039270  40.8722581  46.6008088  64.0275335  41.6455651
  44.9285678  65.4647052  41.0061048  44.7371499  66.3313192  40.5239858
  43.9025230  64.9176102  41.8669723  44.3109313  64.1108055  42.4755510
  43.2432316  65.9308599  42.7842127  42.5752039  65.4139584  43.4731626
  44.3430627  66.7019792  43.6007594  45.0112389  67.2195446  42.9124526
  43.8655898  67.4285746  44.2581618  44.9160797  65.9932795  44.1986698
  42.4307025  66.8176855  42.0025287  42.0118818  67.4603300  42.5797613
  42.8940283  64.2637899  40.9259523  42.6475736  64.7530190  39.8469236
  42.4270636  63.0712768  41.2723357  42.6408306  62.6706117  42.1744834
  41.5650304  62.3288390  40.3791695  40.8821371  63.0173847  39.8815141
  42.3626522  61.5936483  39.3257607  43.0252512  62.3135798  38.8453853
  42.9564761  60.8728050  39.8877733  41.5483803  60.8616983  38.2603451
  40.1904857  61.1012061  38.0985975  39.6937465  61.8201692  38.7500895
  39.4549301  60.4256315  37.1045020  38.3876690  60.6149548  36.9895574
  40.1013441  59.5167129  36.2544790  39.3738450  58.8597585  35.2735509
  38.4451713  59.1029564  35.2691346  41.4606433  59.2629902  36.3968884
  41.9714063  58.5414576  35.7592268  42.1791462  59.9591982  37.3886439
  43.2528263  59.8036733  37.4941106  40.8995556  61.3581665  41.3180455
  41.5589741  60.4837795  41.8012594  39.6104412  61.5789782  41.6034632
  39.1808862  62.4299111  41.2695543  38.7815304  60.6210278  42.3053776
  39.3835808  60.0118062  42.9795315  37.6937667  61.3121077  43.1149935
  37.0356052  61.8608076  42.4413081  36.8932570  60.2858942  43.8729752
  37.5507052  59.7370680  44.5472535  36.1157830  60.7853446  44.4510605
  36.4331286  59.5915381  43.1699446  38.2722756  62.2757852  44.0388177
  37.5713464  62.7000593  44.5391077  38.0699499  59.7731819  41.2795045
  37.2192230  60.2865946  40.5288647  38.3945517  58.4749324  41.2746084
  39.0953710  58.1569979  41.9287255  37.7280595  57.4857312  40.4438244
  37.6193834  57.9535721  39.4653492  38.5962107  56.2315706  40.3157408
  39.3412023  56.2208900  41.1113374  37.7248347  55.0066999  40.4273509
  36.9798353  55.0164416  39.6317494  38.3410968  54.1122447  40.3364022
  37.2225555  55.0044120  41.3947233  39.2280938  56.1312345  38.9543851
  39.7708549  55.1866421  38.9189380  38.4196527  56.1127975  38.2235072
  40.1366618  57.2240424  38.6444365  40.9456797  57.2428332  39.3746671
  40.5516394  57.0803766  37.6468129  39.5944774  58.1689894  38.6792387
  36.4726868  57.0896032  41.2015236  36.4734662  57.0827639  42.4411068
  35.4075967  56.7849734  40.4763369  35.4541098  56.9048865  39.4745601
  34.1334857  56.3187343  41.0690412  34.3171146  56.0153473  42.0997380
  33.0510857  57.4004554  41.0631544  32.8831037  57.7051947  40.0301901
  32.1364593  56.9658990  41.4665392  33.4438868  58.6139111  41.8919128
  33.5535173  58.2874182  42.9260716  34.4041895  58.9718717  41.5207187
  32.4318715  59.7279695  41.8219145  32.3263910  60.0578021  40.7883849
  31.4702802  59.3680373  42.1878249  32.8486721  60.8746979  42.6421006
  32.4766765  60.8963161  43.5808504  33.6709421  61.8690556  42.2532012
  34.1951207  61.8790788  41.0425822  33.9796633  61.1335741  40.3961297
  34.8094503  62.6322091  40.7678212  33.9682281  62.8722200  43.0848599
  33.5737648  62.8871528  44.0145243  34.5859817  63.6107675  42.7798569
  33.7128804  55.0991889  40.2477555  33.5791930  55.1762256  39.0337419
  33.6394281  53.9668150  40.9148447  34.1273595  53.8666974  41.7934793
  32.9358100  52.8441384  40.4037480  32.1481520  53.1886178  39.7336525
  33.8572834  51.9077001  39.6313716  33.2936718  51.0298475  39.3154349
  34.2173923  52.4431518  38.7528996  35.0591204  51.4470509  40.4475376
  34.9134628  50.8017282  41.4593971  36.2580598  51.7732638  39.9833281
  37.0857968  51.4909635  40.4885586  36.3377365  52.3024565  39.1267608
  32.3136888  52.2017640  41.6185131  32.4198253  52.7259771  42.7567001
  31.6499413  51.0750845  41.3982348  31.5934035  50.6565190  40.4807895
  30.8988530  50.4726536  42.4721418  30.5432874  51.2300359  43.1707435
  29.6878485  49.7576429  41.8677796  28.8045545  50.1397114  42.3795556
  29.6462384  50.0366681  40.8149199  29.7276809  48.2447727  41.9888413
  30.0662634  48.0066270  42.9971812  28.7114216  47.8756700  41.8507131
  30.6355432  47.5929704  40.9904271  30.8239060  48.2521342  39.9291441
  31.1362303  46.4530041  41.2732190  31.8299874  49.5454489  43.2911395
  31.5015994  49.1227366  44.4052300  32.9973197  49.2263064  42.7488052
  33.2067524  49.4054329  41.7771309  33.9902379  48.4946390  43.5536991
  33.5133647  47.6380923  44.0301640  35.1234164  47.9981604  42.6940047
  35.5492689  48.8345346  42.1397239  35.9033316  47.5220493  43.2882693
  34.6859593  46.9952128  41.6827547  34.3511842  45.7024801  42.0252743
  33.9935159  45.0382106  40.9402755  33.7025002  43.9894045  40.9987096
  34.0696056  45.8625280  39.9064340  33.8490811  45.6336404  38.9477478
  34.5011249  47.0952405  40.3454796  34.6271297  47.9130253  39.6359360
  34.5392045  49.3141682  44.7320218  34.7764957  48.7782140  45.8158244
  34.6824433  50.6200173  44.5283215  34.3151789  51.0379523  43.6853823
  35.4098006  51.4620969  45.4494862  35.8128242  50.8777565  46.2766606
  36.6036329  52.1574270  44.6964646  37.1825605  52.7505030  45.4044215
  37.4924214  51.1063943  44.0757583  36.9142673  50.5131719  43.3672910
  38.3186475  51.5900819  43.5547044  37.8868676  50.4561193  44.8565632
  36.0738875  53.1145622  43.5795255  35.4457817  53.8843841  44.0278105
  36.9169768  53.5839341  43.0725836  35.4890421  52.5436212  42.8583576
  34.4560706  52.4821535  46.0698873  34.7783157  53.0636950  47.0664708
  33.2599346  52.6292756  45.5014555  32.9141025  51.8769573  44.9230814
  32.4302515  53.8258638  45.6530892  31.4919046  53.6824148  45.1173405
  32.1187545  54.1082893  47.1070419  31.6977642  53.2072961  47.5532230
  33.0587567  54.3529348  47.6016573  31.1392358  55.2647473  47.2770836
  30.8122002  55.9972851  46.2777017  30.6815413  55.4346107  48.4197196
  33.1927196  55.0260134  45.0380937  32.8855976  55.4528884  43.9338370
  34.1898747  55.5465523  45.7429305  34.3119426  55.2591934  46.7034635
  35.1207512  56.5272241  45.1897499  35.1469781  56.4407253  44.1035044
  34.6829799  57.9417329  45.5556119  35.4379174  58.5889833  45.1092540
  33.7084168  58.1697625  45.1239530  34.6390013  58.1758635  47.0585490
  35.7528871  58.6850760  47.7312198  36.6434613  58.9356105  47.1548435
  35.7402141  58.8759750  49.1231073  36.6293728  59.2633382  49.6205491
  34.6260815  58.5616458  49.8574143  34.6538472  58.8106199  51.2359229
  35.4843437  59.1905076  51.5318291  33.5094001  58.0305655  49.2238329
  32.6226567  57.7774711  49.8049782  33.5228735  57.8181742  47.8246351
  32.6585291  57.3719922  47.3327709  36.5211728  56.2328052  45.7813349
  36.6041844  55.6379493  46.8542559  37.5984121  56.6001654  45.0805032
  37.4791424  56.8939349  44.1215593  38.9409400  56.5002330  45.6041963
  38.9435683  56.8035386  46.6511433  39.5960258  55.0974339  45.4925356
  39.0149484  54.3984092  46.0940444  39.6398077  54.6323995  44.1182546
  40.2211470  55.3307216  43.5161817  40.1052460  53.6474327  44.0820865
  38.6259529  54.5693295  43.7230050  41.0466796  55.0657602  46.0810016
  41.0175697  55.3396260  47.1356353  41.4592677  54.0621334  45.9780261
  41.6744903  55.7734443  45.5395797  39.7812791  57.5802212  44.8878187
  39.6261726  57.8147360  43.6932687  40.6787606  58.1938691  45.6083999
  40.7603729  57.9866227  46.5935333  41.5929027  59.1766654  45.0288101
  41.0992161  59.7785782  44.2658725  42.0388020  60.0910255  46.1542440
  42.0921312  59.4819870  47.0566449  43.0269310  60.4916747  45.9280109
  41.0736028  61.2284177  46.3723321  40.7950650  61.9500663  45.3623964
  40.6125438  61.4414105  47.5133753  42.7406794  58.4368426  44.4601767
  43.3831884  57.7159154  45.1778925  43.0107988  58.5662811  43.1642175
  42.3762924  58.9987397  42.5081074  44.1913719  57.8885872  42.6403098
  44.6626741  57.2205219  43.3611859  43.9098176  57.0946919  41.3401162
  44.8614411  56.8165381  40.8871897  43.0494794  55.7595356  41.6496864
  42.0974535  56.0369312  42.1022341  42.8660112  55.2211715  40.7198455
  43.6046451  55.1198928  42.3357985  43.2715175  57.9349892  40.2784744
  43.9308150  58.7656188  40.0265154  43.0968332  57.3280556  39.3900957
  42.3214402  58.3240618  40.6446389  45.3595247  58.9068232  42.5208467
  46.4866327  58.5755125  42.1395650  45.0835072  60.1509641  42.8860341
  44.1784818  60.3915366  43.2643900  46.0722185  61.1995940  42.7525008
  47.0652372  60.8368479  42.4871171  45.7807434  61.9942920  42.0657718
  46.1101340  61.7492531  44.1468369  45.9013143  61.0290415  45.1082165
  46.3808519  63.0451616  44.2585415  46.5115602  63.6073269  43.4296960
  46.4969762  63.6907476  45.5531410  47.3672791  63.2808700  46.0656568
  46.6398894  64.7594882  45.3935518  45.2704936  63.4809523  46.4189627
  44.1442577  63.4639913  45.9233710  45.4907360  63.3201923  47.7195247
  46.4037910  63.5170000  48.1038379  44.4621021  62.8002229  48.6128036
  43.4900251  62.9245351  48.1356118  44.6884239  61.3196265  48.8760803
  45.6540516  61.1799211  49.3620285  43.8980489  60.9402613  49.5237604
  44.6756189  60.7759726  47.9314239  44.4277947  63.5769103  49.9246289
  43.3575217  63.9371936  50.4160032  45.6042268  63.8304576  50.4879870
  46.4430524  63.8304670  49.9254295  45.7338571  64.0583080  51.9225169
  44.8365534  63.7104307  52.4343047  46.9394261  63.2983312  52.4785309
  47.8237376  63.6719248  51.9622750  47.0106753  63.5373898  53.5396033
  46.8506499  61.7981154  52.3048118  47.7053945  61.1279703  51.4398707
  48.4464987  61.7016327  50.8832960  47.6283970  59.7575450  51.2781795
  48.3055103  59.2436791  50.5958590  46.6880328  59.0404978  51.9857333
  46.6071893  57.6757094  51.8278414  47.2503969  57.3315477  51.2037930
  45.8277893  59.6818769  52.8512008  45.0842380  59.1150455  53.4114991
  45.9125726  61.0531235  53.0061314  45.2356484  61.5674023  53.6883272
  45.8627461  65.5459556  52.2349768  46.3527660  66.3224158  51.4147902
  45.4200414  65.9352748  53.4256800  45.0401528  65.2547925  54.0681189
  45.5473310  67.2776795  53.8656778  46.3633543  67.7534672  53.3217741
  44.2271881  68.1163750  53.6314668  44.2805706  69.0379961  54.2110047
  44.0779652  68.4531609  52.1582198  44.0240467  67.5319714  51.5780443
  43.1659188  69.0307240  52.0075788  44.9366731  69.0388647  51.8300835
  42.9933385  67.3628802  54.0649442  43.0638100  67.1298859  55.1274175
  42.1105341  67.9766308  53.8858733  42.9133427  66.4371870  53.4950375
  45.7393980  67.1611013  55.3372167  45.4059757  66.1257902  55.9427235
  46.2779851  68.2094324  55.9278967  46.5937891  69.0127050  55.4033776
  46.4250201  68.2267777  57.3307142  45.5017686  67.8904587  57.8025145
  47.2429559  67.5686984  57.6239924  46.7309108  69.6245809  57.7948295
  46.7688335  70.5609205  56.9957056  46.9242133  69.7682287  59.1057885
  46.8492002  68.6408551  60.0792003  47.5628452  67.8649212  59.8021845
  45.8425304  68.2228952  60.0841512  47.2036446  69.3183950  61.3978731
  47.8880511  68.6617569  61.9350073  46.2837217  69.4311267  61.9715758
  47.8413625  70.6794051  61.1159576  48.9265185  70.6176682  61.0339581
  47.5760102  71.4234396  61.8670238  47.2293885  71.0709835  59.7425719
  46.2815228  71.5978273  59.8525016  48.1956169  71.9334381  58.9799660
  49.2494579  71.4631837  58.4642946  47.8725114  73.2117593  58.9525105
  46.9607731  73.4783279  59.2956925  48.7494910  74.2824330  58.3378420
  48.4235776  75.2769911  58.6423644  50.2856964  74.1667540  58.5766524
  50.7374287  75.1195386  58.3005372  50.6440546  73.8325964  60.0434561
  50.1930256  72.8796521  60.3201682  51.7270141  73.7651307  60.1471205
  50.2650619  74.6171480  60.6983942  50.9079080  73.2218291  57.6547421
  51.8505772  73.1767270  57.8306424  48.4757376  74.3516736  56.8570031
  48.9738289  75.2770530  56.1872689  47.7187628  73.3687503  56.3264364
  47.5150322  72.5424488  56.8703290  47.2689367  73.4072348  54.8951302
  47.9854138  73.9941622  54.3204338  47.1632614  72.0150542  54.2689680
  46.5871156  71.3904623  54.9516393  46.6229691  72.1180433  53.3279168
  48.4927951  71.3787299  54.0131915  49.0674823  72.0301110  53.3547554
  49.0175063  71.2679010  54.9621368  48.3794980  70.0680518  53.3881542
  47.2633479  69.5935600  53.0941261  49.5359130  69.4169009  53.1581085
  49.5205738  68.5037282  52.7268525  50.4131498  69.8447591  53.4179052
  45.9449928  74.1936868  54.7924874  44.9179132  73.7047789  54.2991666
  46.0194587  75.4492158  55.1915675  46.9241491  75.8099552  55.4589651
  44.8272458  76.3032461  55.4162778  44.0600404  75.7433453  55.9510732
  45.2219867  77.5495759  56.2703450  46.0046219  78.1540408  55.8118655
  44.3097266  78.1401919  56.3543347  45.6715345  77.1501134  57.6647214
  45.1233327  76.1980793  58.2522092  46.7193538  77.7833597  58.1715072
  47.0497835  77.5469022  59.0961714  47.1827772  78.4995787  57.6307949
  44.0736248  76.6926580  54.1735575  42.8412827  76.8089738  54.1934973
  44.7779303  76.9169141  53.0619515  45.7878533  76.9102455  53.0514454
  44.0891644  77.2920404  51.8642283  43.4062722  78.1152960  52.0740080
  45.0504930  77.7276825  50.8268387  45.9090775  77.0562472  50.8371651
  44.5640684  77.6796816  49.8525764  45.5030979  79.1079484  51.0825257
  44.6860167  79.7826620  50.8271033  45.7281742  79.1967321  52.1453334
  46.6732985  79.4566524  50.3123892  47.4778000  78.7380467  50.4688573
  46.4426693  79.5171956  49.2487896  47.1263486  80.7795711  50.7728422
  46.5635848  81.5725053  50.4996178  48.2035052  80.9941551  51.5361883
  49.0054447  79.9833332  51.8807433  48.7981645  79.0473480  51.5628334
  49.8155327  80.1594938  52.4576527  48.4999290  82.2287344  51.9407272
  47.9088798  83.0014052  51.6691746  49.3142912  82.3861420  52.5170395
  43.2031982  76.1456386  51.4116746  42.0417869  76.3579915  51.1687918
  43.7292782  74.9147649  51.3270539  44.6986277  74.7429046  51.5527196
  42.9587252  73.8371962  50.7523412  42.3291204  74.1037956  49.9034468
  43.8051882  72.5749704  50.3958073  44.4956534  72.8703920  49.6058172
  44.5806030  71.9927427  51.5479014  43.8907283  71.6966391  52.3381521
  45.1381614  71.1202669  51.2072914  45.2749969  72.7392798  51.9333863
  42.9776683  71.5215239  49.6057741  43.5810045  70.6182695  49.5151228
  42.0777698  71.3006457  50.1797906  42.5742187  72.0272194  48.1741487
  43.4736675  72.2478746  47.5993417  41.9982339  71.2548967  47.6643857
  41.9704343  72.9302528  48.2640097  41.7853060  73.5006676  51.6203878
  40.7113538  73.2112840  51.1057599  41.9629984  73.5742649  52.9334064
  42.8790171  73.7944266  53.2974640  40.8709193  73.3242173  53.8926167
  40.4342604  72.3437238  53.7027199  41.3902716  73.3573837  55.3285332
  41.9105587  74.3151610  55.3364732  40.5868983  73.3747881  56.0650035
  42.3717791  72.2434918  55.6740370  43.0430462  72.1072854  54.8261283
  43.2255926  72.5781968  56.9793045  42.5549952  72.7140913  57.8277918
  43.9108871  71.7562765  57.1864740  43.7951261  73.4932495  56.8167908
  41.6248133  70.9004493  55.7434271  41.1639137  70.6901624  54.7783103
  42.3281698  70.1052657  55.9905581  40.8523411  70.9529551  56.5106486
  39.7755969  74.3658779  53.7396273  38.6209064  74.0245922  53.7493176
  40.1585087  75.6365191  53.5912645  41.1401801  75.8648369  53.6567740
  39.1940536  76.7391747  53.4215616  38.4053536  76.6452265  54.1680368
  39.8780451  78.1302725  53.5916687  40.1978925  78.2020653  54.6312084
  40.7530053  78.1357243  52.9416572  38.9962169  79.3042343  53.2558417
  37.9649090  78.9923710  53.4209052  39.2478231  80.1070653  53.9488487
  39.1534134  79.8028200  51.8211429  38.9241643  78.9941370  51.1271864
  38.4705028  80.6344365  51.6475154  40.5201094  80.2594111  51.5733617
  41.0085727  80.6787477  52.3516031  41.1478057  80.1641592  50.4099999
  40.5656449  79.6506827  49.3312155  39.6135302  79.3179879  49.3849908
  41.0780253  79.5955218  48.4625826  42.3833510  80.5874973  50.3298902
  42.8347983  80.9757702  51.1456962  42.8798116  80.5240105  49.4526246
  38.5104571  76.6011907  52.0514866  37.2949193  76.6369765  51.9705031
  39.2946959  76.4614320  50.9783888  40.2915306  76.6092482  51.0459923
  38.7221873  76.2097994  49.6646031  38.0792880  77.0486090  49.3978106
  39.7827122  76.0442778  48.5804027  40.2258910  77.0401028  48.5754733
  40.5480018  75.3077827  48.8253654  39.2018275  75.7361310  47.1930100
  38.7359724  74.7544535  47.2789694  38.1763949  76.7448627  46.6279477
  38.6416922  77.7267397  46.5412605  37.8435174  76.4130128  45.6445001
  37.3197016  76.8073130  47.2989746  40.2430534  75.4494942  46.0857733
  40.8442103  74.5847426  46.3666907  39.7286876  75.2442577  45.1469405
  40.8910850  76.3171945  45.9622814  37.7856166  75.0231090  49.6751541
  36.6602442  75.0993302  49.2009007  38.2264621  73.8982014  50.2127209
  39.1905049  73.7761075  50.4880640  37.3351026  72.7215363  50.2441631
  36.8412271  72.6174972  49.2780564  38.1064163  71.4483721  50.5337041
  37.4397499  70.5913521  50.4379335  38.9261376  71.3517198  49.8217945
  38.6242508  71.4955737  51.8411889  39.1118614  70.6885410  52.0215605
  36.1355957  72.8638651  51.1452267  35.0405539  72.5230266  50.7861354
  36.3153491  73.3729792  52.3355920  37.2373377  73.5213049  52.7203463
  35.1499003  73.6439465  53.1924046  34.6313347  72.7155764  53.4318161
  35.6175541  74.2914366  54.4941767  36.1158988  73.5081248  55.0652936
  36.3439726  75.0543709  54.2142707  34.5570750  74.9015066  55.3184199
  34.3873020  75.9326415  55.0085188  33.6311106  74.3353061  55.2178769
  34.9858755  74.8782506  56.6897927  35.0366778  73.8448223  57.0326397
  35.9729435  75.3344495  56.7651500  34.0072159  75.6481232  57.5516486
  33.9855764  76.6921984  57.2393361  33.0108735  75.2180889  57.4493177
  34.4380904  75.5650599  58.9685822  35.3611272  75.9638781  59.0636974
  33.7887147  76.0770404  59.5484849  34.4577972  74.5977066  59.2583032
  34.0964347  74.5004626  52.4586783  32.9188681  74.1048481  52.3684182
  34.5290967  75.6247741  51.8510654  35.4670349  75.9758792  51.9818188
  33.5521268  76.4816678  51.1486802  32.7129350  76.6630356  51.8202172
  34.1293829  77.8397135  50.7038856  33.2753437  78.5153322  50.7513793
  34.8375068  78.0940610  51.4925351  34.7988493  77.9741119  49.3692172
  35.4152206  77.1046819  49.1405717  33.9895777  78.0463340  48.6426069
  35.7023355  79.3053485  49.2999653  35.3550032  80.2707969  50.0488176
  36.7788412  79.3787897  48.5764828  32.8456192  75.7616574  50.0301392
  31.8125471  76.1919583  49.5293306  33.4008678  74.6735576  49.5987162
  34.2996680  74.3588480  49.9351913  32.7462858  73.9012885  48.5281519
  32.0786505  74.5291173  47.9380729  33.8324021  73.3713431  47.6257244
  34.5402831  72.8973030  48.3056432  33.3690621  72.6113316  46.9965992
  34.5890396  74.4073856  46.7224168  35.0393509  75.1967719  47.3242389
  35.6407612  73.6596721  46.0337744  35.1911603  72.8703474  45.4313423
  36.2028641  74.3337925  45.3874751  36.3131269  73.2168795  46.7685938
  33.7218692  75.1085267  45.7187224  32.9349373  75.6561763  46.2372952
  34.3270436  75.8052426  45.1386775  33.2727241  74.3742700  45.0499663
  31.8621867  72.7767886  49.0696559  31.3553188  71.9224501  48.3019681
  31.6809638  72.7644758  50.3847455  32.0958567  73.4829052  50.9607859
  30.8848007  71.7243654  51.0385112  30.6400148  72.0813255  52.0388903
  29.9678002  71.6044626  50.4615945  31.5820947  70.3698806  51.1508375
  30.9090945  69.3300313  51.3311510  32.9297859  70.3648717  51.0627847
  33.3882394  71.1927241  50.7098256  33.7515209  69.1161012  51.2439947
  33.1257263  68.2248955  51.1967429  34.8527183  69.0219700  50.1869078
  35.5155373  69.8782424  50.3116834  35.6706391  67.7157407  50.3076370
  35.0085303  66.8589716  50.1824999  36.4399752  67.6955221  49.5357471
  36.1409402  67.6704054  51.2899102  34.1735037  69.1427534  48.8392666
  33.8723048  68.1402815  48.5352435  33.2870753  69.7622415  48.9755700
  35.0377353  69.7397997  47.7886536  35.9242057  69.1205699  47.6514511
  34.4850014  69.7949685  46.8508152  35.3389782  70.7425297  48.0917790
  34.2245667  68.9301168  52.6918121  34.7853342  69.8421021  53.3087762
  33.9219787  67.7714084  53.2610374  33.4441942  67.0507950  52.7389860
  34.3475631  67.4704717  54.6334269  34.4897108  68.3908160  55.1998717
  33.2655425  66.6367827  55.3195757  33.1388443  65.7551109  54.6913229
  33.6931943  66.3411993  56.2776177  31.9375526  67.2817880  55.5453479
  32.0305795  68.1012529  56.2580358  31.5676956  67.6674340  54.5953047
  30.9327560  66.2166352  56.1029783  30.6187172  65.2208720  55.3620861
  30.4783198  66.3730576  57.2841204  35.6077859  66.6013749  54.6054617
  35.7747511  65.7962152  53.6933665  36.4612780  66.7467866  55.6106142
  36.3075686  67.4776533  56.2905456  37.6262627  65.8740958  55.7800465
  37.8614915  65.4050464  54.8246621  38.8655996  66.6180566  56.2772258
  39.7100721  65.9290081  56.2638553  39.1878031  67.8484085  55.3865205
  38.3439165  68.5381763  55.3997654  40.0747577  68.3528417  55.7698712
  39.3712400  67.5191359  54.3637640  38.6116220  67.0433652  57.6218994
  39.3772497  67.5147028  57.9584338  37.3163674  64.7972778  56.7946947
  36.3944708  64.9445115  57.5962774  38.1135340  63.7301119  56.7763522
  38.7120736  63.5460170  55.9839137  38.0670966  62.7594791  57.8351441
  37.6692605  63.2250039  58.7368715  37.1735837  61.5745962  57.4615223
  37.0505274  60.9838833  58.3692749  36.2159591  62.0136895  57.1817861
  37.6604181  60.6912491  56.3533241  38.4272514  59.5397067  56.6218640
  38.6735426  59.2959611  57.6553185  38.8700259  58.7163124  55.5864696
  39.4791543  57.8340744  55.7832452  38.5212819  59.0500321  54.2645465
  38.8959748  58.2618250  53.1680393  39.4052750  57.4877544  53.4190924
  37.7595697  60.2102678  53.9964522  37.5035524  60.4808623  52.9720821
  37.3467973  60.9892133  55.0268293  36.7502342  61.8803017  54.8314478
  39.4905027  62.3569996  58.1568150  40.3801709  62.4863006  57.3126659
  39.7151271  61.8839110  59.3693051  38.9556724  61.8146840  60.0315252
  41.0464433  61.5139875  59.8089741  41.7733440  62.2524923  59.4708539
  41.0859307  61.4532751  61.3337527  40.1635806  60.9700640  61.6560515
  41.9368055  60.8281196  61.6044788  41.2160872  62.8275000  62.0266027
  41.9658489  63.4073831  61.4883705  40.2517971  63.3314297  61.9610166
  41.6387107  62.6980743  63.5384490  42.0501755  61.7025854  63.7051749
  42.4003557  63.4466793  63.7565933  40.4505388  62.9098695  64.4463628
  39.5436208  62.8409756  63.8456515  40.4486386  62.1205637  65.1980887
  40.5010191  64.2805826  65.1427294  40.5023526  65.0121221  64.4463474
  39.6927433  64.3850879  65.7392768  41.3411038  64.3444619  65.6997537
  41.5293481  60.1759594  59.2231969  40.7893202  59.1973276  59.2219349
  42.7908291  60.1422091  58.7612448  43.2794035  61.0161650  58.6285967
  43.4519455  58.9113703  58.3471303  42.8614396  58.3192798  57.6479660
  44.8109716  59.2327433  57.6949851  45.3415926  59.9071425  58.3670910
  45.6733220  57.9988777  57.4261625  45.1435200  57.3241749  56.7537140
  46.6131850  58.3049196  56.9667103  45.8788258  57.4867746  58.3661733
  44.6267993  60.0118773  56.4068129  44.1115547  60.9487422  56.6187310
  45.6015279  60.2250809  55.9680098  44.0347641  59.4225455  55.7066106
  43.5915625  57.9321657  59.5398635  43.7770020  58.3568808  60.6911716
  43.4934137  56.6166906  59.3010289  43.3303195  56.2210826  58.3861551
  43.5292301  55.7074685  60.4583095  42.9716239  56.1536817  61.2817585
  42.9120877  54.3502019  60.1301212  41.9161671  54.5057544  59.7153383
  43.5295469  53.8226201  59.4031400  42.7909276  53.4991616  61.3661817
  41.9596629  53.7652100  62.2327330  43.6211221  52.4821098  61.4716889
  43.5788984  51.8817604  62.2827978  44.2961171  52.3072645  60.7409963
  44.9270770  55.4754777  61.0644243  45.7985166  54.9681444  60.4241220
  45.1445565  55.8826923  62.2988719  44.5087922  56.5251663  62.7495718
  46.3769714  55.5551400  62.9722121  46.8351571  54.6202559  62.6494787
  47.4478508  56.6942397  62.8829127  48.1645017  56.5749968  63.6954961
  48.1816234  56.6265684  61.5422825  47.4656388  56.7462049  60.7291686
  48.9233456  57.4237522  61.4928199  48.6794508  55.6614601  61.4482844
  46.8899007  58.0858779  63.1865815  46.4823225  58.1018649  64.1973863
  47.6882213  58.8235912  63.1055701  46.1010336  58.3251692  62.4734691
  46.0814805  55.1160831  64.3973213  46.9081684  55.2643176  65.2919272
  44.8785084  54.5916104  64.6196554  44.1643561  54.6299454  63.9064821
  44.5221542  54.0484130  65.9281481  44.7163346  54.7965363  66.6967212
  43.0494905  53.6652830  65.9830944  42.4749538  54.5393509  65.6764803
  42.8964438  52.8601487  65.2644600  42.6138871  53.2387017  67.2760225
  41.6814020  53.0131793  67.2412225  45.4261184  52.8853428  66.2773306
  45.8328145  52.7655413  67.4097634  45.8232417  52.0789716  65.3020710
  45.4861548  52.1636070  64.3537522  46.6548568  50.9173379  65.6445805
  46.6278007  50.7608081  66.7229429  46.1606676  49.6563184  64.9587876
  46.3232958  49.7616552  63.8861482  46.7398734  48.8118890  65.3323646
  44.6846083  49.4151331  65.2255692  44.4815662  48.3470047  65.1482623
  44.4832155  49.7500138  66.2431128  43.7774029  50.1828233  64.2431685
  44.3207909  50.7288661  63.2677092  42.5388549  50.2352794  64.4110557
  48.1272021  51.1722244  65.4000359  48.5478369  52.3391935  65.1912572
  48.9125448  50.1018224  65.4213762  48.5220943  49.2031588  65.6664303
  50.3694031  50.2140848  65.2872152  50.7072521  51.1356310  65.7612509
  51.0837885  49.0268050  65.9557577  50.6199626  48.1199249  65.5677714
  52.1258195  49.0657316  65.6383367  51.0151346  49.0196800  67.5163393
  51.6383169  49.8333111  67.8874849  49.9800864  49.1917109  67.8116065
  51.4912280  47.7205344  68.0969954  52.5717385  47.6482799  67.9729977
  51.2451299  47.6919695  69.1584657  50.8573271  46.5562410  67.4305328
  49.9855278  46.7005814  66.9414201  51.3723671  45.3180842  67.4689856
  52.5109008  45.1069086  68.1223062  52.9761181  45.8766365  68.5818623
  52.9053494  44.1777307  68.1560470  50.7808275  44.2970221  66.8426765
  49.9266169  44.4517964  66.3264700  51.1905273  43.3749765  66.8882476
  50.8420068  50.4600756  63.8472224  50.3738892  49.8460054  62.8794157
  51.7151252  51.4455573  63.7001032  51.8848962  52.1016600  64.4489733
  52.4622760  51.6086790  62.4517314  51.7749648  51.6052534  61.6057463
  53.2232591  52.9318367  62.4565648  53.6168430  53.0001217  63.4707285
  54.0495034  52.9365060  61.7456509  52.3021124  54.1365634  62.1811081
  51.6037206  53.8336791  61.4009729  51.5215367  54.6217392  63.4031911
  52.2193058  54.9252526  64.1836377  50.8984265  55.4711293  63.1232429
  50.8896668  53.8151759  63.7750732  53.1585042  55.1870059  61.5850898
  53.6016364  54.8145339  60.6615110  52.5552933  56.0686217  61.3683146
  53.9499601  55.4523029  62.2860278  53.4152344  50.4294434  62.4141463
  53.5711498  49.7883711  63.4251877  53.9709074  50.1061214  61.2475168
  53.5777566  50.4733025  60.3927011  55.0577479  49.1543138  61.1499059
  55.5897967  49.1039906  62.0999011  54.6482276  47.7364130  60.7428342
  55.5150581  47.0780428  60.7998661  53.6022843  47.2470586  61.6484461
  52.7348909  47.9047060  61.5916165  53.3119355  46.2376027  61.3572473
  53.9820437  47.2348821  62.6700802  54.1717755  47.6488339  59.2986814
  54.9726393  47.9672968  58.6313729  53.8953337  46.6199028  59.0685066
  53.3059285  48.2965468  59.1612844  56.1664109  49.5791625  60.2410896
  55.9707394  50.2977387  59.2924869  57.3593063  49.0930562  60.5795643
  57.4543736  48.5930847  61.4519691  58.5353179  49.2856775  59.7715676
  58.2885617  49.9365363  58.9327628  59.6778720  49.9242419  60.5669258
  59.3140384  50.8159484  61.0774002  60.0533097  49.2128433  61.3024926
  60.7910357  50.3049174  59.6221308  61.0033145  49.4576218  58.9701119
  60.4187851  51.1376245  59.0253642  62.0566959  50.7234565  60.2858087
  62.3255886  50.4406881  61.4910497  62.8911540  51.3906411  59.4971216
  63.7755214  51.7146976  59.8617902  62.6376074  51.5709499  58.5362344
  58.9419784  47.9327455  59.2352138  59.0690445  46.9911671  59.9840859
  59.1001141  47.8098766  57.9322843  58.8314562  48.5307867  57.2779061
  59.5852366  46.5429923  57.4029663  59.6090155  45.8043306  58.2041608
  58.6795255  46.0159572  56.2744494  57.6674400  45.9336328  56.6706880
  58.6941595  46.7463953  55.4655329  59.1276993  44.6617845  55.7430056
  58.7992114  43.4575858  56.3977225  58.2074776  43.5002640  57.3121235
  59.2197093  42.2202873  55.8925366  58.9733158  41.2808522  56.3873635
  59.9912021  42.2164816  54.7619644  60.4775125  41.0664173  54.1908170
  60.2197670  40.2733694  54.6664660  60.3025423  43.3840951  54.1002129
  60.8899638  43.3407039  53.1830686  59.8833116  44.5832907  54.5824084
  60.1400666  45.5023847  54.0556797  61.0350009  46.7906969  56.9746079
  61.2444456  47.5532762  56.0591803  62.0125529  46.2409703  57.7077353
  61.7630335  45.6810500  58.5104362  63.4271570  46.3345938  57.3389401
  63.5706788  46.6431847  56.3034343  64.2779256  47.2744261  58.2650076
  64.9489748  46.6516813  58.8565996  65.0971786  48.2859381  57.4617428
  64.4267388  48.9093940  56.8702073  65.6694951  48.9144376  58.1440496
  65.7799504  47.7558327  56.7977304  63.4728232  47.9351912  59.2765013
  62.9947465  47.1860390  59.9076238  64.1099607  48.5728006  59.8893714
  62.7084622  48.5435129  58.7929748  64.1214985  44.9556655  57.5132325
  63.8974039  44.2244460  58.5170680  64.9893996  44.6352887  56.5472267
  65.0640741  45.2309012  55.7349651  65.8018802  43.4273489  56.5947945
  66.2807103  43.2378011  55.6341215  66.8936914  43.6376691  57.6543518
  66.4018105  43.9336133  58.5809420  67.3996284  42.6833912  57.8009171
  67.9271412  44.7112717  57.2555848  68.4363798  44.3744120  56.3526439
  67.3918987  45.6374279  57.0461757  68.9381741  44.9519148  58.3399895
  68.4437459  45.4564321  59.1701112  69.3216584  43.9889539  58.6772513
  70.1061419  45.8207814  57.8334169  71.0198050  45.4386699  58.2887311
  70.1607218  45.6974126  56.7517975  69.9503361  47.3144509  58.1719654
  69.9001750  47.4290267  59.1741909  70.7446240  47.8254045  57.8140086
  69.1039947  47.6688233  57.7497978  64.9408004  42.1927424  56.9126209
  65.2417575  41.4598831  57.8252802  63.8235360  42.0084257  56.2216921
  63.4994276  42.7232393  55.5860078  63.0312855  40.7837461  56.3515265
  62.4727976  40.6691085  55.4225223  63.7378323  39.9601138  56.4540971
  62.0614691  40.7504743  57.5179591  61.1681171  39.8841271  57.5886547
  62.2269489  41.7232025  58.4003209  62.8880121  42.4496371  58.1649752
  61.6120370  41.7490270  59.7254274  60.9704638  40.8769391  59.8517038
  62.7029325  41.7276182  60.8325433  63.6522026  41.9437387  60.3423622
  62.4616297  42.5324620  61.5268772  62.8172427  40.3737700  61.6203238
  62.8303432  39.5586470  60.8967883  63.7550641  40.3809518  62.1757890
  61.5741936  40.1617216  62.6553835  60.6642551  40.4007863  62.1049665
  61.5681534  39.1056544  62.9251704  61.6427473  41.0523762  63.9862106
  62.6761164  40.9765929  64.3245979  61.4431538  42.0715710  63.6552974
  60.7004060  40.6968687  65.1405486  60.8854834  39.7526457  65.4476138
  60.8516943  41.3361470  65.9077091  59.7428014  40.7674440  64.8273208
  60.6365408  42.9460283  59.8886089  60.9333467  44.1093521  59.5111941
  59.4643847  42.6411796  60.4114037  59.1574678  41.6806083  60.4680090
  58.5034242  43.6692795  60.6169530  58.8460110  44.6198519  60.2081186
  57.1011670  43.3347899  60.0000935  56.9622889  43.9627419  59.1200427
  56.9741760  41.8691129  59.6030009  57.1124849  41.2405168  60.4826811
  55.9849199  41.6907345  59.1815125  57.7341585  41.6261836  58.8603620
  56.0581681  43.6924492  60.9046193  55.2078723  43.4814121  60.5121135
  58.5467488  44.1451506  62.0780730  58.4328210  43.3472400  63.0046906
  58.7563390  45.4543807  62.2621097  58.9266729  46.0321911  61.4514182
  58.7646039  46.0844462  63.5708324  58.7116537  45.3350079  64.3605398
  60.0614546  46.8623518  63.7255429  60.0817768  47.6222694  62.9443826
  60.0561424  47.3461326  64.7022865  61.3021944  45.9720410  63.6037833
  61.9848761  45.8644091  62.3933755  61.6225988  46.4242254  61.5311341
  63.1099251  45.0598704  62.2757147  63.6384391  44.9878179  61.3251447
  63.5636086  44.3483494  63.3776472  64.6687049  43.5599930  63.2386786
  65.0348171  43.5803268  62.3514650  62.9149956  44.4233926  64.6011429
  63.2741913  43.8694360  65.4684440  61.7776290  45.2308680  64.7088211
  61.2429527  45.2956326  65.6564639  57.6038922  47.0424242  63.8000753
  57.6211799  48.1547535  63.2651101  56.6126902  46.6406039  64.6354435
  56.4986246  45.3493449  65.3389619  57.1684777  45.3395215  66.1987877
  56.7653843  44.5378233  64.6619308  55.0900289  45.3126245  65.7246961
  55.0094499  44.7689949  66.6660107  54.5387455  44.7799998  64.9497775
  54.6157672  46.6611575  65.8559231  54.7970631  46.9047247  66.9027783
  53.5663658  46.8365503  65.6190824  55.4981498  47.5190249  64.9660268
  55.0422241  47.8964793  64.0507354  56.0134972  48.6787665  65.7866495
  57.0222382  48.5382728  66.4808714  55.3345238  49.8211241  65.7041130
  54.5543993  49.9003670  65.0675396  55.7149747  50.9980937  66.4844850
  55.8956521  50.6985277  67.5168198  56.9873204  51.6621021  65.9361109
  57.4344497  52.3609840  66.6430330  57.6896140  50.8540433  65.7313557
  56.8030076  52.4268545  64.6204405  56.6418719  53.8130733  64.6166049
  56.6183316  54.3412961  65.5697714  56.5118957  54.5238100  63.4205498
  56.3709001  55.6044594  63.4409872  56.5624629  53.8521702  62.2041112
  56.4550554  54.4004100  61.2681642  56.7525223  52.4640023  62.1851078
  56.8053194  51.9210831  61.2414175  56.8747751  51.7758795  63.3945405
  57.0313098  50.6971780  63.3944307  54.5708810  52.0112719  66.4938875
  53.5549616  51.8391683  65.8003082  54.7594009  53.0388173  67.3032408
  55.6408691  53.0643337  67.7956453  53.8714993  54.1428232  67.4503892
  53.0255305  54.0293832  66.7724752  53.3458891  54.2165304  68.8751324
  54.1952771  54.5017709  69.4958392  52.6059053  55.0168207  68.8828501
  52.7307063  52.9629340  69.4168852  53.1550406  52.0944954  68.9130442
  52.9208026  52.8899436  70.4876970  51.2850245  53.0070357  69.1795542
  50.8546885  53.8436691  69.7299673  51.0985213  53.1395424  68.1138347
  50.6399379  51.7825656  69.6157115  51.1947979  51.0819236  70.0861693
  49.3426848  51.5517748  69.4403321  48.5860865  52.4772850  68.8207969
  49.0084305  53.3352944  68.4959195  47.5996223  52.3093379  68.6837502
  48.8218714  50.3950383  69.8646858  49.4156471  49.7113294  70.3119806
  47.8372393  50.2106437  69.7358566  54.7056046  55.3968947  67.2400918
  55.9446671  55.3996717  67.4742892  54.0175363  56.4781555  66.8697160
  53.0127335  56.4420756  66.7739621  54.6879928  57.7300052  66.5952303
  54.0428875  58.5652147  66.8679271  55.6160320  57.7876052  67.1640228
  55.0068149  57.8167049  65.1290347  54.7303032  56.8833946  64.3632155
  55.6095707  58.9308372  64.7579286  55.8971678  59.5954093  65.4620104
  55.8017757  59.2853229  63.3466306  54.8997623  58.9873486  62.8121381
  55.9793273  60.8274933  63.2031703  56.8835365  61.1398078  63.7256311
  56.0618585  61.0876378  62.1478913  55.1169045  61.3348208  63.6355418
  56.9675486  58.5506081  62.7094111  56.8753069  58.0978845  61.5652932
  58.0668415  58.4072596  63.4621583  58.1067307  58.7821521  64.3991555
  59.2680313  57.7667640  62.9181450  59.1358874  57.5568658  61.8567403
  60.4501438  58.6869406  63.0835844  60.6160962  58.9624656  64.1250473
  61.3240855  58.1569858  62.7048050  60.3570680  59.9681684  62.3105474
  59.6752151  61.0564415  62.8156950  59.1705026  60.9901394  63.7795255
  59.6334000  62.2537055  62.0817274  59.0704667  63.1045987  62.4653779
  60.3054332  62.3550783  60.8726166  60.3028003  63.2881770  60.3092164
  60.9638911  61.2871724  60.3983209  61.4704892  61.3600923  59.4359586
  61.0048492  60.1169505  61.1060399  61.5635443  59.2649854  60.7185930
  59.5601035  56.3988405  63.5645870  59.3446181  56.2116676  64.7306699
  60.0601235  55.4305633  62.7857776  60.4517997  55.3691092  61.3686202
  61.4254521  55.8426209  61.2425723  59.7114858  55.8959166  60.7665336
  60.4848493  53.8821453  61.0735222  61.3228323  53.6808336  60.4061713
  59.5531729  53.6068153  60.5792815  60.6377745  53.1415829  62.3991757
  61.6843797  52.8546289  62.5010282  60.0089207  52.2550001  62.4804997
  60.2621114  54.1570420  63.5010241  59.3317365  53.8740271  63.9933688
  61.3629265  54.3024639  64.5428013  62.3022563  55.0690404  64.3102915
  61.2114542  53.6223339  65.7080675  60.0305365  52.8140016  66.0667114
  60.0996568  51.8287180  65.6056921  59.1219356  53.3108091  65.7265264
  60.1279948  52.7567776  67.5955153  59.5526171  51.9340823  68.0200290
  59.8263638  53.6919110  68.0673688  61.5967406  52.5315278  67.7490941
  61.8323198  51.5351640  67.3751148  62.0024801  52.6471372  68.7541361
  62.1946256  53.5914842  66.8191076  62.2685280  54.5936346  67.2414005
  63.5608859  53.1426228  66.3439642  63.6341644  52.2463489  65.5056389
  64.6106524  53.8310963  66.7944724  64.4878957  54.7537162  67.1866491
  65.9552440  53.3405721  66.6068837  65.9086072  52.3980467  66.0613838
  66.8699817  54.3017704  65.8449009  66.9389709  55.2438118  66.3888659
  68.2674313  53.6862826  65.7103979  68.1993085  52.7443713  65.1660970
  68.9167364  54.3730021  65.1673329  68.6813494  53.5031940  66.7019886
  66.3096303  54.5970299  64.4490037  65.3230748  55.0511746  64.5415397
  66.9769882  55.2824122  63.9265249  66.2298012  53.6677534  63.8849350
  66.5648381  52.9318889  67.9553343  66.8940772  53.7829341  68.7999842
  66.7278458  51.6154810  68.1196440  66.4167468  50.9895690  67.3905686
  67.1395118  51.0396395  69.3980832  66.8153726  51.6885614  70.2116761
  66.5110670  49.6344044  69.6036563  66.3972499  49.1724376  68.6229772
  67.0120709  48.9385119  70.2765819  65.1294471  49.8350111  70.1457304
  63.9366533  49.6621579  69.4708298  63.9919950  49.2911329  68.4474151
  62.8727319  50.0205036  70.2949891  61.8966906  49.9585085  70.0427997
  63.3594975  50.4572540  71.5073769  62.6642573  50.9160216  72.6678852
  61.5753767  50.9528223  72.6349689  63.4251825  51.2906281  73.7775468
  62.9278836  51.6494172  74.6786928  64.8614647  51.2129179  73.7575393
  65.4610348  51.4972843  74.6222652  65.5438934  50.7557381  72.5898656
  66.6313354  50.6917323  72.6282589  64.7854610  50.3702183  71.4512785
  68.6407429  51.1008513  69.5972522  69.1157043  51.5036561  70.6493330
  69.3983767  50.8108421  68.5632692  69.0292696  50.3939892  67.7205991
  70.8485257  50.9550895  68.6878145  71.2219372  50.3390281  69.5058190
  71.5119660  50.5043673  67.3992163  71.2045861  49.4739666  67.2206348
  71.1821144  51.1302730  66.5700361  73.0057167  50.5523127  67.4696800
  73.6007305  51.5060941  67.9795493  73.6355927  49.5301499  66.9206941
  74.6450028  49.4976434  66.9322786  73.1051414  48.7854003  66.4916601
  71.2622311  52.3839351  69.1249976  70.9104837  53.3458338  68.4635978
  71.9805236  52.5231909  70.2735244  72.5425764  51.4714668  71.1410578
  73.4246664  51.0390788  70.6687676  71.7979916  50.6917692  71.3015699
  72.8709040  52.2176325  72.4017528  73.7615742  51.7724887  72.8452080
  72.0331126  52.1171251  73.0917566  73.0996063  53.6623956  72.0403030
  74.1491584  53.8699621  71.8318431  72.7517400  54.3179056  72.8386733
  72.2663382  53.8874313  70.7815885  71.3024057  54.3396025  71.0149840
  73.0245423  54.7827816  69.8335566  72.7726778  55.9864379  69.8268588
  73.9561364  54.2429760  69.0501740  74.1599026  53.2539000  69.0677097
  74.7408052  55.1001211  68.1506085  74.9794718  56.0735216  68.5791281
  76.0527512  54.4223046  67.6340579  75.8094732  53.4244631  67.2690531
  76.6973634  55.2506560  66.4867223  76.9413592  56.2485430  66.8511235
  77.6073481  54.7557172  66.1475111  75.9958722  55.3291755  65.6561538
  77.0218255  54.1155962  68.7795107  76.4424883  53.6235108  69.5607412
  77.7653350  53.4215944  68.3875227  77.7054587  55.3043895  69.3457362
  76.9625631  55.9986856  69.7383670  78.3713685  54.9923371  70.1502774
  78.2854084  55.7967707  68.5651474  73.9023974  55.5014535  66.9338707
  73.9162109  56.6754239  66.4750193  73.2125924  54.5149425  66.3902910
  73.3609967  53.5620981  66.6905629  72.2804409  54.7563898  65.3127110
  72.8188491  55.1417879  64.4468680  71.5984140  53.4961951  64.9248481
  71.0474170  53.1028606  65.7791258  70.9061145  53.6941278  64.1065301
  72.3402108  52.7649667  64.6036912  71.2609580  55.8331933  65.7276119
  70.9325691  56.7072067  64.9167713  70.8273441  55.7973329  66.9871745
  71.1325909  55.0338225  67.5736688  69.8900127  56.7317819  67.5250928
  69.0038225  56.7352872  66.8904640  69.4603250  56.3988896  68.9711136
  69.0773841  55.3943271  69.1508626  70.3590450  56.5566559  69.5673621
  68.4095442  57.4170840  69.3631145  68.7781404  58.6670813  69.9165407
  69.8268616  58.8484466  70.1518915  67.8292077  59.6552818  70.1608246
  68.1283477  60.6174321  70.5766176  66.5021298  59.4116091  69.8703994
  65.5341759  60.3762413  70.1288160  65.8969411  61.1786527  70.5110946
  66.1031691  58.1939753  69.3150758  65.0526895  58.0092851  69.0903922
  67.0598943  57.2082663  69.0470839  66.7584771  56.2666761  68.5881115
  70.4511440  58.1451266  67.4546497  69.7891572  59.0704504  66.9811749
  71.6647248  58.3441753  67.9316951  72.2057126  57.6184506  68.3797523
  72.2405091  59.6630163  67.8309977  71.6163279  60.3713238  68.3757889
  73.6392861  59.7036963  68.4119986  74.2156788  58.9916541  67.8213493
  73.9666974  60.7170225  68.1794649  73.8592362  59.4251237  69.9070602
  73.5374854  58.4189833  70.1758700  75.3610181  59.5545730  70.1308328
  75.6834561  60.5606624  69.8626600  75.5899892  59.3677727  71.1800128
  75.8853382  58.8280085  69.5101132  73.1209856  60.4677584  70.7276209
  72.0556928  60.4212069  70.5016041  73.2756468  60.2720590  71.7886972
  73.5008883  61.4595599  70.4824623  72.2792249  60.0578590  66.3663202
  72.0297477  61.2210200  66.0428394  72.5255314  59.0898936  65.4789274
  72.6220282  58.1233900  65.7558001  72.7239015  59.4314197  64.0678299
  73.4631279  60.2249990  63.9588552  73.2297945  58.1968973  63.3507053
  73.8563176  57.5876307  64.0021363  72.3193183  57.6493346  63.1071723
  73.9856796  58.5134379  62.0743810  74.6992279  59.5298092  61.9825809
  73.9172776  57.6584094  61.1912064  71.4174192  59.9679863  63.4063245
  71.3883168  61.0284686  62.7620852  70.3764624  59.1877483  63.5764939
  70.5910317  58.3247187  64.0552833  69.0177824  59.4228984  63.1722131
  68.8820920  59.4192707  62.0906983  68.2737295  58.2343924  63.7590961
  68.9661905  57.4238801  63.5317926  68.2498917  58.3998831  64.8361962
  66.9053674  57.8690225  63.2810586  65.7526176  58.1683023  64.1060885
  65.9263954  58.6838773  65.0505901  64.4145423  57.8097026  63.7178890
  63.5482814  58.0774472  64.3228738  64.2383628  57.1003139  62.5000592
  62.9417234  56.7146903  62.1583655  62.2874991  56.9813650  62.8083462
  65.3746329  56.7810079  61.6604218  65.2240006  56.2477299  60.7217925
  66.7082604  57.1689368  62.0661434  67.5629472  56.9222955  61.4362397
  68.5229224  60.7759485  63.7549223  68.1094620  61.6924988  63.0425319
  68.6046981  60.9087845  65.0482496  68.9567586  60.1579290  65.6247639
  68.1955980  62.0780721  65.6698254  67.1195373  62.2093789  65.5560226
  68.5193647  62.0084572  67.1397311  67.9685816  61.1387311  67.4979404
  69.5778598  61.8877594  67.3702095  68.0136245  63.2155780  67.8466026
  66.7863933  63.3446592  68.0457069  68.9119975  64.1812472  68.1210895
  68.6167098  65.0201454  68.5997905  69.8767261  64.0619356  67.8469286
  68.8817079  63.3073718  65.0674671  68.2736988  64.3725211  64.8049335
  70.1582195  63.1605895  64.8223833  70.6321375  62.2729277  64.9093184
  70.8977397  64.2710113  64.3701862  70.7120301  65.1376413  65.0046651
  72.3830921  63.9357165  64.4264237  72.7898407  63.6770290  65.4040410
  72.4494998  63.0714419  63.7655762  73.1866332  65.0243186  63.8571574
  73.6993124  64.9399465  62.7441513  73.1591543  66.1388186  64.5346761
  73.6859572  66.9369176  64.2096890  72.6112045  66.1983481  65.3810259
  70.5315241  64.5482723  62.9187788  70.6380659  65.6742355  62.4407768
  70.1264795  63.5009941  62.2000937  70.0725001  62.5823834  62.6164348
  69.7874935  63.6406434  60.8022266  70.6096818  64.1139016  60.2654471
  69.5280732  62.2771263  60.1876787  70.5231271  61.8863174  59.9749927
  69.0704155  61.6903426  60.9841298  68.6777752  62.1880691  58.9463314
  67.8037639  62.8339354  59.0303652  69.5175245  62.6393932  57.8131370
  70.3915568  61.9936780  57.7281772  68.9396579  62.5910901  56.8901864
  69.8403362  63.6660818  57.9857742  68.2265471  60.7605855  58.7634084
  67.6447977  60.4488822  59.6308806  67.6103697  60.6857437  57.8674032
  69.0979084  60.1140229  58.6595557  68.5514815  64.5313876  60.6570266
  68.5675469  65.4621508  59.8453661  67.5145638  64.2850601  61.4573080
  67.5430058  63.5442159  62.1431946  66.2888101  65.0421479  61.3152267
  66.0174448  65.0953521  60.2608883  65.1479675  64.3964707  62.0771749
  65.2907672  64.4563848  63.1561178  64.2258240  64.9095354  61.8041987
  64.9457693  62.9518439  61.7522264  64.8783384  61.9408656  62.6343222
  64.9997579  62.2193822  63.6811201  64.6599113  60.7148377  61.9902058
  64.5341455  59.8173145  62.4360025  64.5937637  60.9488009  60.6480617
  64.3784365  60.0483815  59.5832180  64.2593414  58.9877470  59.8045084
  64.3324868  60.5801960  58.3133905  64.1704862  59.9174832  57.4632919
  64.4926731  61.9882215  58.0781663  64.4856502  62.3891447  57.0646029
  64.6644599  62.8983381  59.1535073  64.7445082  63.9636251  58.9370436
  64.7369271  62.3727514  60.4593630  66.4912801  66.4941772  61.7910762
  65.9810394  67.3861810  61.2111170  67.2604386  66.6908359  62.8464442
  67.6962578  65.8836663  63.2691003  67.4811151  67.9785495  63.4484320
  66.5368560  68.4893023  63.6371265  68.2031969  67.7564091  64.8019159
  67.4810305  67.2883204  65.4708464  69.0231091  67.0639364  64.6113231
  68.7566507  69.0412497  65.4594555  69.4583592  69.5073185  64.7677287
  67.9239080  69.7199888  65.6437237  69.4800868  68.7321541  66.8017156
  69.6727370  69.6729871  67.3172911  68.8265165  68.1103673  67.4135378
  70.7653418  68.0243786  66.6108091  71.2937901  68.1976189  65.7677020
  71.2477172  67.1742890  67.4899199  70.5597008  66.9610150  68.6309378
  69.6921392  67.4520461  68.7931882  70.9153973  66.3113156  69.3175747
  72.4066404  66.5390130  67.2512315  72.9084722  66.7159123  66.3927610
  72.7710994  65.8872458  67.9312815  68.3108287  68.7879461  62.4465824
  68.1031195  69.9982719  62.2264840  69.2568388  68.1112268  61.8167017
  69.4319545  67.1397915  62.0305878  70.0992828  68.7578821  60.8520436
  70.4690357  69.7425739  61.1379876  71.3167202  67.8398736  60.5443302
  70.9526908  66.8995348  60.1303909  72.2545574  68.5030880  59.5471772
  72.6193845  69.4433285  59.9606366  73.0985651  67.8430433  59.3469494
  71.7187246  68.6988249  58.6183765  71.9704966  67.4539372  61.7850519
  72.7205827  66.8878317  61.5888486  69.3820335  69.1154310  59.5436510
  69.5608898  70.1827263  59.0200671  68.6083496  68.2072216  58.9795489
  68.6944803  67.2258333  59.2021644  67.6639745  68.6010558  57.9330308
  68.2264395  68.8713195  57.0393362  66.7290004  67.5004407  57.6127185
  66.3140004  67.0990702  58.5372600  65.6042932  68.0195564  56.7376147
  66.0185050  68.4206946  55.8126189  64.9187152  67.2047663  56.5048045
  65.0661994  68.8068209  57.2656003  67.5255646  66.4278932  56.8760908
  67.8898160  66.8669589  55.9473050  68.3728385  66.1555697  57.5054288
  66.7644865  65.2714711  56.5840411  65.9172335  65.5429458  55.9543082
  67.3888079  64.5477459  56.0600719  66.4002539  64.8315577  57.5124326
  66.8612934  69.8948925  58.2782997  66.8540010  70.8636678  57.4647702
  66.2651669  69.9206831  59.4824472  66.2799967  69.0937245  60.0621185
  65.4565142  71.0473034  59.9113103  64.8423413  71.3749406  59.0725346
  64.5309760  70.7016153  61.0938837  65.1594802  70.2465963  61.8594158
  64.0997919  71.6251508  61.4802287  63.3910148  69.7196300  60.7095928
  62.8601622  69.7604958  59.5346360  63.0252871  68.9209100  61.6307196
  66.2869376  72.3121336  60.1953657  65.9084304  73.4062031  59.7427044
  67.4315485  72.1698051  60.8674516  67.6875854  71.3049981  61.3220431
  68.3119250  73.3580778  61.0611375  67.6992950  74.1827876  61.4253318
  69.4518737  73.1163301  62.0589350  69.9942478  72.2179970  61.7641008
  70.1277526  73.9712454  62.0387480  68.9499744  72.9348384  63.4614894
  67.8354489  73.3075459  63.7725075  69.7799418  72.3557947  64.3240203
  69.4891821  72.2109170  65.2803513  70.6973060  72.0635077  64.0188779
  68.8823483  73.8940465  59.7852974  68.9012744  75.0910692  59.5719443
  69.3704583  72.9995900  58.9172824  69.5614461  72.0395933  59.1663394
  69.7821402  73.4725658  57.5731556  70.5340358  74.2548424  57.6770577
  70.3721173  72.3376856  56.7509392  69.7104068  71.4743900  56.8213608
  70.4408769  72.6582761  55.7114230  71.7331462  71.9644285  57.2485309
  72.4421282  72.7827020  57.1225395  71.7065758  71.6654992  58.2964037
  72.2511185  70.5905620  56.2655449  72.8598583  71.4303540  54.7911874
  73.6747279  72.1006829  55.0645840  73.2218275  70.6923131  54.0753839
  72.0516248  72.0065831  54.3408321  68.6377182  74.1866295  56.8376283
  68.8429914  75.2238293  56.2048775  67.4329726  73.6588588  56.9561983
  67.2896254  72.7748150  57.4231218  66.2536207  74.3583353  56.4017266
  66.3766663  74.3928535  55.3192445  65.3764952  73.7600361  56.6482790
  66.0491843  75.7786268  56.9241467  65.6182529  76.6687986  56.1910939
  66.4149250  76.0103234  58.1800652  66.8279376  75.2742299  58.7347600
  66.1166251  77.2857989  58.8317987  65.0469774  77.4876093  58.7750049
  66.5253682  77.2462619  60.2912489  67.4958724  76.7564221  60.3704809
  66.6036297  78.2685210  60.6613319  65.5034124  76.4835759  61.1213136
  64.6562342  77.1419220  61.3135902  65.1687473  75.6201492  60.5463389
  66.0856700  76.0192378  62.4312251  66.6331047  75.0936723  62.2530602
  66.7739653  76.7845770  62.7898405  65.0124179  75.7781775  63.4722265
  64.2063258  76.5048167  63.3706804  64.6063044  74.7707357  63.3814965
  65.6693172  75.9381768  64.8318329  66.0453194  76.8717675  64.9162752
  64.9835379  75.7845201  65.5572268  66.4160122  75.2646622  64.9262986
  66.7200511  78.4747818  58.1260675  66.1636938  79.5593335  58.1278683
  67.8491824  78.2160767  57.4877696  68.1862263  77.2645971  57.5222279
  68.5935766  79.1736664  56.7229440  68.7236129  80.1107337  57.2643263
  69.9432896  78.5676418  56.4834379  70.4874882  78.5857858  57.4276930
  69.7924046  77.5342053  56.1714400  70.7362983  79.2971110  55.4340448
  70.2665211  79.1930620  54.4559937  70.7520601  80.3491129  55.7189005
  72.1330096  78.7783062  55.3719700  72.7682225  78.6197010  56.4708717
  72.5518276  78.4982523  54.2226492  68.0037766  79.4940277  55.3463255
  68.3812681  80.5076655  54.6930885  67.1099421  78.6297882  54.8698846
  66.7879275  77.8298284  55.3956890  66.6549395  78.7808088  53.4951012
  67.3832008  79.3583578  52.9257403  66.4528815  77.4315231  52.8345964
  65.6463486  76.8952708  53.3346348  66.0987680  77.6373754  51.4029458
  66.9050864  78.1731977  50.9021007  65.9519952  76.6704100  50.9217635
  65.1796473  78.2194158  51.3355274  67.7517844  76.6383451  52.9881971
  68.4655420  77.0368871  52.2672150  68.1224347  76.8103251  53.9987121
  67.5835048  75.1715031  52.7629181  67.2132963  74.9986977  51.7523817
  68.5440426  74.6716450  52.8878512  66.8701867  74.7721361  53.4838779
  65.4018646  79.6313417  53.4799354  64.3924723  79.2446760  54.0985838
  65.4816547  80.8450367  52.8567975  66.7068928  81.5409735  52.4041911
  67.1081710  81.0005324  51.5468699  67.4312840  81.5190341  53.2183625
  66.2704333  82.9640229  52.0498953  66.8001028  83.3145309  51.1640661
  66.4678768  83.6399975  52.8818662  64.7255064  82.8383838  51.7831112
  64.5560427  82.6383812  50.7251036  64.1877213  83.7412815  52.0723560
  64.2381383  81.6414112  52.6281826  63.8609283  81.9484767  53.6036423
  63.1445892  80.8630489  51.8784870  63.3951008  80.3241030  50.7865496
  61.9385919  80.8065882  52.4393762  61.7112705  81.3366031  53.2685376
  60.8865844  79.9752713  51.8324080  61.2097936  78.9344103  51.8480064
  59.5677863  80.0799047  52.5486185  58.9061104  80.7452055  51.9939473
  58.9245098  78.6882660  52.6526773  59.5854431  78.0224887  53.2076613
  57.9693398  78.7668465  53.1718829  58.7618003  78.2869187  51.6524040
  59.8070843  80.6077589  53.8425224  58.9755858  80.6823335  54.3164943
  60.6008710  80.3852193  50.3972357  60.3412914  79.5348189  49.5271272
  60.6063475  81.6829987  50.1523837  60.7704132  82.3753854  50.8691699
  60.1852753  82.1256835  48.8756295  59.7709130  81.2863468  48.3171343
  59.1097281  83.2122501  48.9971459  58.7906914  83.4648979  47.9859664
  58.2698134  82.7879128  49.5472197  59.5889509  84.4515894  49.6944268
  60.8296371  84.6995137  49.7839654  58.7028493  85.1967427  50.1723478
  61.3546031  82.5226394  47.9843279  61.1318789  82.8670728  46.8564620
  62.5836742  82.4304619  48.4779975  62.7163957  82.1931413  49.4507068
  63.7536630  82.7218705  47.6768421  63.5171745  82.5635316  46.6246533
  64.1415936  84.1333023  47.8658288  64.3901744  84.3052310  48.9130863
  65.0090119  84.3584481  47.2453490  63.3124974  84.7800832  47.5788216
  64.9399733  81.7670814  48.0336219  66.0639713  82.1990310  48.3739702
  64.6854339  80.4574254  47.9323703  63.4602335  79.8394235  47.4163358
  63.0481960  80.4459052  46.6097967  62.7238101  79.7489243  48.2148278
  63.9501816  78.5152849  46.9431573  64.3190384  78.6006107  45.9210208
  63.1397902  77.7871137  46.9768315  65.0654479  78.1322470  47.9066054
  65.8262545  77.5546672  47.3815589  64.7008139  77.5607397  48.7601398
  65.6554458  79.4569470  48.3809189  65.7084417  79.5101586  49.4683279
  67.0264961  79.6679669  47.8022830  67.9823113  79.3685477  48.4799964
  67.1113675  80.1512146  46.5576969  66.2557041  80.3260435  46.0503761
  68.4019923  80.4087215  45.8707896  69.0024893  79.4993168  45.8487520
  68.1464435  80.8575368  44.4392825  69.0715605  81.2383213  44.0065459
  67.7647378  80.0445091  43.8217173  67.1236861  81.9906734  44.3516877
  67.3695180  83.3370617  44.4714843  68.4075029  83.6342694  44.6209992
  66.2188768  84.0327996  44.3735426  66.1332195  85.0364849  44.4468794
  65.1815559  83.1566816  44.1598099  63.8146813  83.4104757  43.9706715
  63.4757991  84.4464481  43.9750040  62.9755905  82.3203496  43.7889752
  61.9102398  82.4808097  43.6235052  63.4794182  80.9825113  43.8139419
  62.8272644  80.1166307  43.6997237  64.8540476  80.7540401  43.9899422
  65.2021818  79.7211832  44.0004210  65.7177908  81.8584491  44.1572421
  69.2105355  81.4710759  46.6131307  70.3970248  81.6143228  46.4211976
  68.5596869  82.2141493  47.4933647  67.5996631  82.0131740  47.7343265
  69.2432907  83.3172945  48.2003184  70.0231033  83.7423368  47.5683924
  68.2398889  84.4125987  48.5385113  67.2916138  83.8987796  48.6961931
  68.5826153  84.8390578  49.4812579  68.0548580  85.4963528  47.5447655
  69.0190534  85.9892794  47.4204617  67.7269597  85.0937752  46.5863745
  67.0287120  86.5067917  48.0495404  66.7002487  86.4637297  49.2712022
  66.5189684  87.3106846  47.2304783  69.7968389  82.8189771  49.5134197
  70.3167141  83.6297966  50.3051473  69.6233946  81.5047165  49.7929875
  69.0764275  80.9153999  49.1817328  70.1935048  80.9118759  50.9959386
  69.6695615  81.2700687  51.8820992  70.1099430  79.3637675  50.9627760
  70.6380026  78.9895887  50.0857108  70.5678573  78.9552905  51.8636430
  69.0651506  79.0567085  50.9156301  71.6470291  81.3541884  51.1104418
  72.3497424  81.4480329  50.0972699  72.0888708  81.6071929  52.3462450
  71.4301316  81.6127234  53.1118373  73.4745339  81.9262334  52.6294281
  73.7028043  82.9196043  52.2431559  73.7581135  81.9100930  54.1530318
  72.8200293  82.1222986  54.6659316  74.0964371  80.9077207  54.4154950
  74.8194775  82.9373060  54.5806926  75.3791542  83.1880554  53.6795890
  74.3223833  83.8304057  54.9593382  75.8328696  82.4204335  55.6769522
  75.4493444  81.7505210  56.6729581  77.1187770  82.7759465  55.4997218
  77.8181133  82.4782018  56.1648371  77.3786074  83.3388687  54.7024087
  74.3578144  80.9285917  51.9034029  75.1865085  81.3204049  51.1089374
  74.1387442  79.6333872  52.1493085  73.4662209  79.3788628  52.8585539
  74.8946121  78.5457009  51.4710643  75.8790709  78.9091790  51.1764058
  75.0739621  77.3598978  52.4025307  74.1161862  76.9646446  52.7409673
  75.6239239  76.5785897  51.8779359  75.8575103  77.6839154  53.6264681
  75.2639743  77.9243360  54.8482860  76.2019647  78.1807848  55.7389667
  75.9380867  78.3888709  56.7758695  77.3790388  78.1281621  55.1363969
  78.2766883  78.2765101  55.5749379  77.1902077  77.8377743  53.8092090
  78.0467063  77.7738906  53.1380681  74.3273233  77.9948109  50.1501538
  74.6924918  76.8936430  49.7412649  73.4768846  78.7484505  49.4716316
  73.2640404  79.6923429  49.7612241  72.7457326  78.1926663  48.3542768
  72.1007153  77.4143730  48.7620896  71.8848796  79.2410643  47.7114061
  72.5169876  80.0228729  47.2903187  71.2911154  78.7877670  46.9176392
  71.2205786  79.6748823  48.4588051  73.6494132  77.5335741  47.3374406
  73.3497582  76.4451920  46.7861608  74.7796718  78.1613051  47.0875480
  75.0702067  78.9912834  47.5843626  75.5964869  77.7048760  45.9608344
  74.9592617  77.5249937  45.0949905  76.6357009  78.7499426  45.5902360
  76.9318122  79.2855530  46.4921999  77.4980734  78.2234436  45.1813198
  76.1109554  79.7431117  44.5588689  75.7957856  79.2883201  43.4027160
  76.0039238  80.9556073  44.9143965  76.2300347  76.3531884  46.2439985
  76.1256304  75.4252241  45.4044267  76.8279538  76.2508387  47.4325133
  76.9770455  77.1059834  47.9488451  77.3534646  75.0039959  47.9890172
  78.1430546  74.5980520  47.3566752  77.9449966  75.3082844  49.3831737
  78.9285958  75.7407032  49.1997457  77.2932172  76.0629940  49.8232841
  78.0812976  74.1081971  50.3609515  77.1588308  74.0218442  50.9351457
  78.2315638  73.2001249  49.7770620  79.2777672  74.3033351  51.3307807
  80.1398374  74.6470780  50.7591385  79.0094848  75.0569537  52.0711745
  79.6343384  72.9624662  52.0568590  79.0444642  72.9331829  52.9729875
  79.3205739  72.1533742  51.3972977  81.1321290  72.7935196  52.4029302
  81.4229639  73.5429038  53.0144349  81.2726948  71.9071282  52.8662354
  81.6788567  72.8201972  51.5541215  76.3223060  73.8468332  48.0684685
  76.5726012  72.7520232  47.5878184  75.1639378  74.1173794  48.6703935
  75.0013502  75.0408119  49.0458094  74.1413925  73.0929782  48.8816523
  74.6193630  72.1918188  49.2657813  73.0715611  73.5371295  49.8725793
  72.6600809  74.4927411  49.5476336  72.2703824  72.8011173  49.9396521
  73.5817841  73.7417146  51.2626018  74.8124834  73.3874034  51.7304401
  75.4849565  72.9049383  51.0211396  74.9403785  73.7396406  53.0786863
  75.7636630  73.6040539  53.6478246  73.7643882  74.3103675  53.5003586
  73.4077302  74.8239424  54.7699002  74.1471375  74.7836933  55.5697473
  72.1463530  75.3436969  54.9165018  71.8359841  75.7487181  55.8796887
  71.2435865  75.3654077  53.8496151  70.2415683  75.7762320  53.9732374
  71.6027041  74.8532520  52.5712454  70.8586699  74.8911499  51.7755836
  72.8791270  74.3263309  52.3915490  73.4816543  72.6678491  47.5745732
  73.0846131  71.5100345  47.4301656  73.3480558  73.5982423  46.6477539
  73.6556123  74.5479725  46.8011188  72.6917430  73.2974062  45.4437356
  71.7960638  72.7162937  45.6632039  72.2820129  74.5572735  44.6826878
  71.9227096  75.2751389  45.4200274  73.1602124  74.9623460  44.1799137
  71.1862471  74.2920314  43.6561299  70.2283086  73.5199135  43.9480368
  71.2668113  74.8302690  42.5372162  73.5619798  72.4074810  44.5749623
  73.0383803  71.6586753  43.7764220  74.8745466  72.5398562  44.7012921
  75.2261534  73.3489975  45.1929854  75.8426610  71.6219377  44.0907849
  75.6140191  71.5164221  43.0302716  77.2721989  72.1267959  44.2324484
  77.3514995  72.6428208  45.1892811  77.9344399  71.2610388  44.2311613
  77.6806547  73.0901338  43.0916530  77.4796537  72.5806576  42.1492447
  77.0458634  73.9727895  43.1695051  79.2033495  73.5287652  43.1405599
  79.7106150  72.8426942  43.8188572  79.6026950  73.4052062  42.1339041
  79.4421415  75.0323472  43.6272277  80.1856166  75.4634961  42.9568130
  78.4941326  75.5555754  43.5022854  79.9263207  75.1790452  45.1038804
  80.8049704  74.6946422  45.2197608  80.0499233  76.1574321  45.3220119
  79.2373426  74.7799770  45.7252924  75.7716393  70.2068274  44.6176055
  76.0355727  69.2988886  43.8511387  75.4134923  70.0099922  45.8949687
  75.2876404  70.7850433  46.5302296  75.2237419  68.6391535  46.4154245
  76.0467657  68.0061251  46.0837528  75.1879481  68.6328828  47.9385162
  74.3469074  69.2450271  48.2641376  75.0406720  67.6062061  48.2736949
  76.4526005  69.1716721  48.5254161  77.2811027  68.5233036  48.2402789
  76.6260932  70.1747132  48.1356587  76.3498034  69.2436818  50.3056746
  77.0022103  67.6807307  50.8424074  78.0304697  67.5773378  50.4958654
  76.9795565  67.6315271  51.9310609  76.3974299  66.8730758  50.4300537
  73.9698947  67.9569700  45.9435043  72.9413332  68.6174864  45.7602985
  74.0474254  66.6423087  45.7568046  74.9350903  66.2091393  45.5458200
  72.8635142  65.8042760  45.7890471  72.0045073  66.3398500  45.3848604
  73.0063510  64.4385760  45.0285215  72.0230362  63.9687504  45.0071650
  73.5315220  64.5979533  43.5857379  74.5150718  65.0673210  43.6063124
  73.6071929  63.6174323  43.1156830  72.8436639  65.2218088  43.0149875
  73.8479323  63.5485713  45.7537886  73.9245371  62.7196186  45.2756991
  72.4895113  65.5347789  47.2613405  73.3081993  65.5995662  48.1703194
  71.2198590  65.2891727  47.4841040  70.5308894  65.4735512  46.7689642
  70.7689314  64.8126874  48.7508068  71.0389898  65.5263057  49.5292133
  69.2397927  64.6376097  48.7531241  68.9114466  64.5711670  47.7158809
  69.0132093  63.7028778  49.2659947  68.5523978  65.7210433  49.4051317
  68.8487534  66.6260565  48.8748250  67.4893050  65.5395490  49.2470318
  68.8639839  65.9416774  51.1872203  69.1263311  67.6212393  51.1073705
  68.2339952  68.1107422  50.7172132  69.3430574  68.0034784  52.1048792
  69.9702145  67.8267828  50.4488010  71.4088589  63.4939472  49.1818452
  71.5094255  63.2718668  50.4082822  71.7283092  62.5945042  48.2399855
  71.3303655  62.6086452  47.3117936  72.5870945  61.4476701  48.6188371
  72.0990183  60.8955502  49.4219836  72.8436620  60.4824178  47.4416990
  71.8700728  60.1981184  47.0424534  73.3973108  61.0391760  46.6856611
  73.6193179  59.2340532  47.8191271  74.6810299  59.4806243  47.8275581
  73.3099056  58.9283136  48.8185716  73.3672559  58.0768191  46.8254365
  72.3269791  58.1038203  46.5010999  74.0200595  58.1987318  45.9610962
  73.6570292  56.7325078  47.4976890  72.8160712  56.4731944  48.1408427
  73.7715841  55.9715181  46.7257622  74.9135508  56.8043228  48.3206775
  74.8074487  57.5091169  49.0362943  75.0840983  55.9079067  48.7536345
  75.6929962  57.0441771  47.7248303  73.9314507  61.8413785  49.2776802
  74.2867439  61.2859723  50.2937027  74.6385967  62.8236660  48.7059235
  74.2587862  63.2519167  47.8737909  75.8890308  63.3548099  49.2508187
  76.6467044  62.5712195  49.2548220  76.3932123  64.5076497  48.4227063
  75.5731491  65.2204769  48.3362596  77.2133432  64.9636283  48.9772952
  76.8683036  64.1247282  47.0536798  77.6534585  63.3736100  47.1400171
  76.0160123  63.6994104  46.5237709  77.4135451  65.3611948  46.2586075
  78.1573747  66.2301513  46.8544104  77.1142463  65.4320723  45.0505886
  75.6733109  63.9013667  50.5977789  76.4948070  63.6479707  51.4926334
  74.6045804  64.6994314  50.7846878  73.9850433  64.9497153  50.0273035
  74.3534253  65.2831215  52.1151719  75.2493640  65.7951173  52.4662464
  73.2006066  66.2959570  52.0565027  73.3766762  66.9614426  51.2113828
  72.3007753  65.7084098  51.8743162  73.0181582  67.1277005  53.3325080
  72.6674576  66.4475983  54.1087624  74.2562357  67.8192026  53.7993805
  74.6072981  68.4998673  53.0237843  74.0378580  68.3837375  54.7058640
  75.0287393  67.0795758  54.0098341  71.9975776  68.2119272  53.0341027
  71.0530621  67.7523452  52.7429425  71.8448134  68.8226530  53.9239220
  72.3612818  68.8401059  52.2209547  74.0409491  64.2265852  53.1834484
  74.5483415  64.2589567  54.3123301  73.1428097  63.3165897  52.8344942
  72.6859821  63.3621779  51.9348668  72.7633178  62.2719659  53.7359265
  72.2968095  62.6822431  54.6315502  71.7817143  61.3199584  53.0384372
  72.1315175  61.1381042  52.0222349  71.6822690  59.9709687  53.8002944
  71.3320596  60.1519764  54.8165080  70.9807556  59.3137515  53.2864411
  72.6640700  59.4986806  53.8336105  70.3915903  61.9987889  52.9571440
  69.9763447  61.9123462  53.9612353  70.6014238  63.0461762  52.7402354
  69.3642418  61.4497374  51.9213504  69.1535444  60.4024516  52.1379121
  68.4411438  62.0259987  51.9838978  69.7786249  61.5362796  50.9169118
  74.0546930  61.6062229  54.1334466  74.3540091  61.5555016  55.3071038
  74.8357287  61.1234425  53.1667437  74.5481875  61.2518042  52.2070861
  76.0847041  60.3664967  53.4318768  75.8751004  59.5059724  54.0672219
  76.6627907  59.8787851  52.1425498  76.8172538  60.7055461  51.4492197
  77.6259712  59.4426629  52.4074664  75.7806831  58.8072818  51.4748650
  75.9853711  58.4968677  50.2841128  74.9126631  58.2122115  52.1512752
  77.1096374  61.2354758  54.1784966  77.9840258  60.7431548  54.8965285
  77.0170416  62.5485429  53.9972458  76.4335296  62.9897310  53.3008507
  77.9214135  63.3831954  54.7659256  78.8820559  62.8752472  54.8510961
  78.1447479  64.7358176  54.1251440  78.9182547  64.6329534  53.3640886
  77.2134881  65.0524731  53.6554797  78.5703635  65.7633707  55.1358047
  77.7485337  66.4624826  55.2905275  78.7976872  65.2572815  56.0740476
  79.7803486  66.5115944  54.6665125  80.1772449  66.0136510  53.7818517
  79.4836688  67.5281492  54.4082549  80.8879253  66.5565427  55.7841866
  80.7809904  67.4862427  56.3430458  80.7396563  65.7106296  56.4554142
  82.2866939  66.4856426  55.1783700  82.4244421  67.2696339  54.5566926
  82.9752596  66.5163330  55.9166350  82.3861340  65.6240371  54.6608309
  77.4253937  63.4913058  56.2027448  78.2257241  63.5727441  57.0965994
  76.1088169  63.4995520  56.3861884  75.4894092  63.3991602  55.5947625
  75.5196877  63.6874619  57.7043244  76.0880003  64.4183221  58.2796185
  74.0515819  64.1408982  57.6068662  73.5575172  63.5750650  56.8170351
  73.3321079  63.9041437  58.9256454  73.8253542  64.4700588  59.7159294
  72.2957511  64.2304205  58.8384168  73.3588228  62.8420238  59.1691341
  73.9740402  65.6159107  57.2058496  74.4331692  66.1941370  58.0076948
  74.5576934  65.7344895  56.2929490  72.5643473  66.1115935  56.9706084
  71.9801746  65.9937573  57.8832730  72.5909493  67.1645919  56.6902764
  72.1046979  65.5341078  56.1685282  75.5917036  62.3999510  58.5143210
  75.9531454  62.4144871  59.6914244  75.2442224  61.2852771  57.8788842
  75.1471536  61.2785395  56.8735825  74.9444790  60.0593744  58.6109555
  74.6871813  60.2997092  59.6425253  73.7576287  59.3216808  57.9673116
  73.9773020  59.1520284  56.9132428  73.6239376  58.3632235  58.4688954
  72.1248693  60.1545850  58.0187637  71.4594276  59.1955455  57.3813243
  76.1453185  59.1062125  58.6860276  76.6910409  58.7703949  57.6710485
  76.5312542  58.6329085  59.8620947  76.1580002  58.9979158  60.7267047
  77.5762798  57.5855267  59.9350185  78.2397255  57.7166302  59.0801789
  78.4338062  57.6167768  61.2426010  79.0169724  58.5372726  61.2691322
  77.8146722  57.5536028  62.1374654  79.4696454  56.4217732  61.3231012
  80.6273601  56.2791274  60.5494436  80.8410821  57.0692836  59.8296688
  81.2841644  55.0996099  60.8868167  82.1496271  54.7834579  60.4731480
  80.5735284  54.4344004  61.8610871  80.8484319  53.1782725  62.5008963
  81.7408421  52.6354434  62.1893849  79.9686080  52.7298463  63.4726235
  80.1633473  51.7941904  63.9967652  78.8122703  53.4698149  63.8002265
  78.1036502  53.1073749  64.5449374  78.5299655  54.7468641  63.1492587
  77.6224222  55.2790235  63.4343417  79.4246942  55.2254974  62.1754395
  76.8813499  56.2347552  59.7950798  77.3103488  55.3915943  59.0477488
  75.8025406  55.9987928  60.4886202  75.4517435  56.5952704  61.2243208
  75.2609184  54.6848978  60.3673053  76.0747179  53.9635358  60.2933693
  74.4135178  54.3367031  61.5737374  74.2705274  53.2577451  61.6329285
  75.1467834  54.8257748  62.8327431  75.2897339  55.9047886  62.7744856
  74.5541461  54.5854354  63.7154192  76.1172689  54.3344612  62.9025236
  73.1334612  54.9858405  61.4755184  72.6012651  54.7615511  62.2423704
  74.6097801  54.3741535  59.0121411  74.1684832  55.2583527  58.2566632
  74.5565814  53.0910664  58.7065344  74.9776305  52.4101500  59.3223021
  73.9070468  52.6130341  57.4816936  74.2127411  53.2357985  56.6409708
  74.2961685  51.1558636  57.1809406  74.7713409  50.7771246  58.0858534
  73.3609429  50.6222027  57.0116508  75.2269062  50.9413747  55.9898408
  74.7432437  51.3344897  55.0956193  76.1535847  51.4861506  56.1703630
  75.5485155  49.4120359  55.7836172  76.0419378  49.0559085  56.6879439
  74.5991126  48.8912096  55.6592247  76.4777748  49.1265990  54.5259877
  76.0919944  49.7034306  53.6854288  77.4845536  49.4670513  54.7680370
  76.5176459  47.6407841  54.1502848  75.5849018  47.3252218  53.9255434
  77.1188086  47.5121855  53.3489324  76.8754918  47.1061503  54.9288810
  72.4076271  52.6790411  57.5893864  71.7556838  52.8735057  56.5845867
  71.8666574  52.4189007  58.7806024  72.4551054  52.1253586  59.5471931
  70.4145004  52.4715840  58.9977562  69.9247951  51.8087292  58.2843759
  69.9995803  52.0320960  60.4663220  69.0758579  52.5527148  60.7188952
  69.7778697  50.4514033  60.6098630  70.7013652  49.9300960  60.3578821
  69.4962911  50.2151881  61.6360282  68.9849441  50.1323009  59.9334435
  71.0325349  52.4230769  61.3819813  70.7874773  52.1600052  62.2721164
  69.9005290  53.8990315  58.6877047  68.9919005  54.0652371  57.8987548
  70.5235716  54.9044948  59.2921910  71.2637978  54.6768580  59.9405319
  70.1287827  56.3034395  59.1558665  69.1007252  56.3682997  59.5122232
  70.9917921  57.1703184  60.0225289  72.0229613  57.1229501  59.6724627
  70.6388043  58.2003931  59.9730711  70.9419916  56.8188093  61.0530921
  70.1323000  56.7928620  57.7047438  69.1412311  57.3842864  57.2245505
  71.2536368  56.5806558  57.0298384  72.0744965  56.3136350  57.5542321
  71.3769464  56.7382112  55.5867151  71.3466390  57.7944723  55.3193332
  72.6986196  56.1580145  55.1207389  72.9263966  55.3048057  55.7596846
  72.5640338  55.8168995  54.0942754  73.7788491  57.0951943  55.1738718
  73.6969826  57.8059908  54.3515780  73.7598824  57.6331353  56.1216913
  75.0536357  56.3479905  55.0556071  75.1683746  55.6542010  55.8884277
  75.0870861  55.7960011  54.1163051  76.1538620  57.2883030  55.0803796
  75.9089149  58.2639480  54.9897320  77.4379986  56.9639128  55.1807451
  77.8066935  55.6808529  55.2905969  77.1039457  54.9554548  55.2971628
  78.7857601  55.4446581  55.3663617  78.3532705  57.9429892  55.2037172
  78.0584321  58.9072087  55.1449713  79.3335665  57.7120123  55.2796654
  70.2688837  56.0791306  54.7637990  69.6548177  56.7220220  53.9579786
  70.0732777  54.7830246  54.9281962  70.6511398  54.2802761  55.5865416
  69.0534153  54.0409912  54.1960355  69.2905235  54.0683330  53.1324889
  68.9703630  52.5567326  54.6482387  69.3285643  52.5348910  55.6774685
  67.9127441  52.2939209  54.6265065  69.7799438  51.5288256  53.7932818
  69.5124408  50.5243952  54.1214015  69.4986757  51.6559582  52.7478978
  71.2922716  51.7291258  53.9431428  71.5949973  52.5745189  53.3252701
  71.5134646  51.9459366  54.9882103  72.0600304  50.5522123  53.5359191
  72.5418349  50.6217612  52.6509746  72.1814549  49.4179621  54.2440876
  71.5675743  49.2503660  55.4394969  70.9988894  49.9931578  55.8202301
  71.6811923  48.3833369  55.9449186  72.9194126  48.4334640  53.7288907
  73.3653805  48.5574417  52.8312036  73.0288348  47.5685471  54.2388360
  67.7262907  54.6596320  54.4167907  66.9547058  54.7756871  53.4890678
  67.4569074  55.0347959  55.6623423  68.1260573  54.9018997  56.4071082
  66.1423222  55.5926841  55.9996131  65.3736767  54.9581576  55.5584107
  65.8971437  55.6810366  57.5085794  66.2131911  54.7411465  57.9611498
  66.4288493  56.5075755  57.9799844  64.4755269  55.8510473  57.8415718
  63.6159359  54.7275573  57.8394405  64.0212625  53.7389110  57.6240599
  62.2145891  54.8845524  58.1193507  61.5574030  54.0149519  58.1207685
  61.6876508  56.1716585  58.3936716  60.6260506  56.3043516  58.6022320
  62.5532469  57.2891196  58.3950342  62.1610838  58.2808673  58.6203001
  63.9446318  57.1190606  58.1007332  64.6063239  57.9848945  58.0763403
  65.9607185  56.9577700  55.3889294  64.8564899  57.3217546  54.9642254
  67.0552700  57.7064642  55.3124436  67.9632030  57.3531361  55.5787447
  66.9584603  59.0358600  54.8947682  66.1292016  59.5802860  55.3464644
  68.2526280  59.7732766  55.2081684  69.0913587  59.2450511  54.7547275
  68.2012436  60.7852337  54.8064189  68.3933579  59.8183616  56.2881044
  66.6551405  58.9664477  53.3909899  65.8946024  59.7707029  52.8955140
  67.1709640  57.9473221  52.6999342  67.6432323  57.2159982  53.2120157
  67.0115510  57.7899316  51.2541618  67.3663252  58.6830381  50.7397736
  67.8344314  56.5737632  50.7593615  67.4856494  55.7366686  51.3641119
  67.5192452  56.4308061  49.7257654  69.3609025  56.6457830  50.8211765
  70.1068784  55.4637391  50.7172038  69.5736971  54.5221846  50.5857033
  71.4878267  55.4733812  50.7779473  72.0442190  54.5362883  50.7582921
  72.1894401  56.7270932  50.9325756  73.5798775  56.7205060  50.9293537
  73.9505675  55.8418036  50.8194867  71.4877176  57.9136385  51.0191306
  71.9939992  58.8739016  51.1174887  70.0573172  57.8593789  50.9766290
  69.4742621  58.7759947  51.0658611  65.5448048  57.4637855  50.9799822
  64.9522837  57.9649969  50.0447919  64.9811097  56.5885300  51.8095217
  65.5557742  56.0346001  52.4284091  63.5791479  56.3707375  51.8186556
  63.2430499  55.9859894  50.8557920  63.2567597  55.3607163  52.8765833
  63.9018476  54.5055676  52.6748867  63.4776590  55.7559491  53.8680945
  61.8098866  54.9249163  52.8188987  61.1599512  55.7620837  53.0735267
  61.5067412  54.4651714  51.4416963  62.1560102  53.6276597  51.1865044
  60.4655998  54.1474967  51.3850560  61.6755204  55.2820173  50.7400007
  61.5473825  53.8279051  53.8691039  61.7649896  54.2169147  54.8637989
  60.5028909  53.5200604  53.8204186  62.1883487  52.9697815  53.6669032
  62.8501020  57.6978362  52.0646194  62.0875216  58.1017811  51.2337176
  63.1196152  58.4003394  53.1744752  63.7218180  58.0187161  53.8898875
  62.5196613  59.7249681  53.4010700  61.4807749  59.6221247  53.7144985
  63.2751641  60.4334534  54.4776033  63.4544515  59.7941479  55.3420359
  64.2293205  60.7427406  54.0509571  62.6076756  61.6856534  54.9970226
  61.6160063  61.6081085  55.9588157  61.3172095  60.6192659  56.3066816
  61.0262324  62.7027345  56.4622068  60.2241646  62.6267899  57.1963868
  61.4446631  63.9166967  56.0419764  60.9852924  64.8120668  56.4607735
  62.4352103  64.0305878  55.0998734  62.7588797  65.0182960  54.7715890
  63.0141260  62.9144867  54.5747126  63.7967868  63.0092617  53.8220110
  62.5118952  60.5948932  52.1180797  61.4746779  61.1503389  51.7637826
  63.6318217  60.6793457  51.4145817  64.5120163  60.3383621  51.7738684
  63.6328025  61.3682782  50.1689300  63.3284913  62.3864959  50.4112661
  65.0178400  61.4154874  49.4947933  65.4625888  60.4203512  49.4960583
  64.8467175  61.9117428  48.0099324  64.4024187  62.9070796  48.0078690
  65.8216989  61.9486244  47.5239784  64.1974296  61.2234711  47.4688142
  65.8663037  62.4421854  50.1912108  65.9778201  62.1706357  51.2409379
  66.8486096  62.4823359  49.7205063  65.3886762  63.4192257  50.1179646
  62.6240971  60.8208402  49.2127846  61.8329000  61.6197158  48.6539834
  62.6533010  59.4825077  49.0020186  63.3103187  58.8963753  49.4968679
  61.7376234  58.8493898  48.0513334  61.9676925  59.2401203  47.0601235
  61.8196144  57.3008214  48.0050920  61.5321835  56.9100766  48.9812074
  61.0975950  56.9743183  47.2566377  63.2148832  56.7278304  47.6321414
  63.5198144  55.6165220  48.0459004  64.0217068  57.4334354  46.8648133
  64.9298036  57.0657781  46.6192770  63.7280568  58.3384557  46.5259791
  60.3030029  59.2039294  48.4121821  59.4916720  59.4620904  47.5476585
  60.0010175  59.1184808  49.7008983  60.7198716  58.8837669  50.3704187
  58.6591803  59.2407422  50.1652270  58.0814213  58.5721606  49.5270325
  58.4857634  58.8136747  51.6590107  59.2871602  59.2330501  52.2672771
  57.1317081  59.3544166  52.1515333  56.3297274  58.9350942  51.5440003
  56.9838531  59.0706511  53.1935106  57.1211499  60.4410367  52.0664199
  58.4204924  57.2585372  51.7861323  57.3898537  56.9745541  51.5734392
  59.0744382  56.8579204  51.0115612  58.8378182  56.6884953  53.1556612
  58.1839838  57.0883278  53.9307317  58.7565098  55.6016845  53.1374815
  59.8685682  56.9716963  53.3688547  58.1773744  60.6646054  49.9212173
  57.0186738  60.9005701  49.5949851  59.0845463  61.6245476  50.0088599
  60.0492636  61.4650363  50.2617947  58.6089742  62.9975152  49.9343194
  57.5375663  63.0198774  50.1335284  59.3187205  63.8938313  50.9624899
  60.4025420  63.7783436  50.9528636  59.0608223  64.9197580  50.6996917
  58.8257791  63.6178396  52.3305986  57.6411408  63.8132207  52.6026357
  59.6917812  63.0787161  53.1940685  59.3974966  62.8739909  54.1383057
  60.6365553  62.8784825  52.8984180  58.6224902  63.5750414  48.5636937
  57.7129239  64.3419024  48.2236727  59.6580511  63.2507387  47.7895519
  60.4224744  62.6915788  48.1404032  59.8092741  63.8926472  46.4707017
  58.9139710  64.4478753  46.1909638  61.0322539  64.8432824  46.3756951
  61.1617226  65.1500967  45.3378116  60.8163559  66.1133857  47.2735791
  60.6872645  65.8073812  48.3117494  61.6845737  66.7675045  47.1934112
  59.9271547  66.6481269  46.9397006  62.3434410  64.1281745  46.7388552
  62.5050729  63.2950880  46.0547909  63.1742936  64.8292358  46.6595038
  62.2821169  63.7523502  47.7601761  59.7494755  62.8903520  45.3254269
  60.0824518  63.2332001  44.1749679  59.2823135  61.6814852  45.6632359
  58.9896926  61.5444807  46.6201591  59.2191240  60.5660055  44.7677326
  59.3263455  59.6138788  45.2874030  57.9035268  60.5584838  44.0066994
  57.9057788  59.7082717  43.3246183  56.6922677  60.4497442  44.9612003
  56.6890816  61.2999154  45.6433281  55.7701199  60.4474054  44.3800488
  56.7623829  59.5251351  45.5341597  57.8353923  61.7329190  43.2149465
  57.0084810  61.7425998  42.7273768  60.3238017  60.4561370  43.7285685
  60.0920350  60.1591662  42.5429793  61.5212592  60.6718974  44.1905554
  61.6433241  61.0098921  45.1344618  62.6867715  60.4751284  43.3845425
  62.5128424  59.6527775  42.6905779  63.0253665  61.7405143  42.5734734
  64.0245698  61.6440187  42.1487612  62.2995982  61.8624504  41.7694262
  62.9815736  62.8720792  43.4241991  63.1925362  63.6606241  42.9189352
  63.8247699  60.1114641  44.2877749  63.6836633  60.0752014  45.5395077
  64.9338171  59.7611235  43.6258641  64.9253025  59.8624783  42.6209989
  66.1037212  59.1904151  44.2453013  65.8095888  58.5567070  45.0819609
  66.8808007  58.3328792  43.2273280  66.9873703  58.9450052  42.3317589
  67.8632975  58.1560875  43.6649862  66.2118754  56.9358675  42.8401493
  65.3972476  57.1800836  42.1583569  66.9665514  56.3546519  42.3102891
  65.6587496  56.1034023  44.0306628  66.0348303  56.3108405  45.2011728
  64.8290329  55.1926097  43.7905834  66.9832132  60.2861281  44.8275691
  67.1896628  61.3285401  44.2411804  67.5060984  60.0638828  46.0150960
  67.3634771  58.8843174  46.9009056  67.5643176  57.9770137  46.3312010
  66.3478857  58.8478928  47.2950457  68.3902101  59.1310128  47.9785371
  69.1991105  58.4176985  47.8205437  67.9083427  58.9271900  48.9347596
  68.8745042  60.5077078  47.9217996  69.9630564  60.5526446  47.9554716
  68.4624973  61.0498180  48.7729556  68.3612647  61.1331216  46.5967514
  67.6966280  61.9723373  46.8018692  69.5475512  61.6159034  45.7189888
  69.9685583  62.7597996  45.8527703  70.1127487  60.7652457  44.8677120
  69.8492942  59.7904415  44.8888747  71.1841378  61.1732821  43.9634788
  71.8810919  61.7992722  44.5206956  71.9710622  59.9768209  43.3493479
  72.9190478  60.2973238  42.9172595  72.1606252  59.2631552  44.1511254
  71.2344402  59.2238846  42.2654914  70.4604614  58.0934485  42.5235183
  69.9500293  57.6385835  41.3866934  69.3062515  56.7590655  41.3768266
  70.3672784  58.4213333  40.4027056  70.1270317  58.3203762  39.4269039
  71.1903303  59.4078662  40.9203189  71.6539283  60.1356893  40.2543973
  70.6869941  62.0829686  42.8320228  71.4911733  62.7515756  42.1885017
  69.3684943  62.1519347  42.6452240  68.7487030  61.6160436  43.2357991
  68.7814398  62.9670797  41.5840743  69.4614857  63.0418189  40.7355162
  67.4858128  62.3039550  41.1150187  66.8364415  62.1459831  41.9761000
  66.9889817  62.9615719  40.4017173  67.7618341  61.0559541  40.4952511
  68.3593042  61.2577089  39.6061924  68.3295050  60.4238566  41.1781140
  66.5384389  60.3762724  40.1115092  65.6138899  60.1781657  40.9574199
  66.5275392  60.0052799  38.9111018  68.4640806  64.3933340  41.9841265
  68.2005331  65.2328029  41.1311993  68.4302307  64.6795084  43.2777077
  68.7016379  64.0191653  43.9921197  67.8215014  65.9517302  43.6984584
  67.5539124  66.4959352  42.7927343  66.5788729  65.7245489  44.5055602
  66.1150094  66.6848307  44.7309235  65.5946805  64.8551868  43.7133659
  66.0577008  63.8944939  43.4880164  64.6937878  64.6937790  44.3053460
  65.3320571  65.3585214  42.7828903  66.9263518  64.9885595  45.7255303
  67.6412216  65.5685478  46.3092054  66.0267225  64.8199031  46.3174102
  67.3697443  64.0294286  45.4580012  68.8513508  66.8330544  44.4035760
  69.7801275  66.3246281  44.9768339  68.7317936  68.1444863  44.2274640
  67.9779181  68.4930108  43.6527452  69.5677910  69.0997845  44.9116479
  70.6170587  68.9809559  44.6414327  69.1110266  70.4673390  44.4775271
  69.3579158  70.6136297  43.4259835  68.0322313  70.5471614  44.6114274
  69.7600337  71.4616582  45.2590661  69.4658198  72.3314274  44.9788169
  69.2812490  68.9861294  46.4160326  68.1229442  68.9874896  46.8088647
  70.3162582  68.8935954  47.2528303  71.2133342  68.5892528  46.9025024
  70.1705560  69.1171156  48.7090692  69.4759609  68.3500153  49.0514053
  71.5193366  68.9242922  49.4403415  72.2225947  69.6907821  49.1147325
  71.3650033  69.0069702  50.5161881  71.9225106  67.9390120  49.2063055
  69.5697332  70.4682112  49.0621264  68.8140832  70.5544999  50.0195064
  69.8731061  71.5099649  48.2858287  70.4720440  71.3966365  47.4805156
  69.3211468  72.8546324  48.5662841  69.6033078  73.1455641  49.5781355
  69.8424682  73.9285898  47.5788174  70.9255033  73.9810484  47.6900933
  69.5972487  73.5824735  46.5747403  69.2337811  75.3302761  47.8027943
  68.1515805  75.2691979  47.6878504  69.5561631  75.8227842  49.1500714
  70.6382583  75.8845753  49.2656163  69.1192695  76.8115095  49.2902392
  69.1503055  75.1379158  49.8946084  69.7470481  76.4034217  46.8160114
  69.5030057  76.1063169  45.7960744  69.2727431  77.3591879  47.0388273
  70.8278849  76.5026570  46.9162276  67.7761787  72.8243659  48.4253773
  67.0456593  73.2034054  49.3228706  67.3162295  72.3966471  47.2514772
  67.9788637  72.1961525  46.5160745  65.9170594  72.2225072  46.9738941
  65.3847161  73.1648955  47.1027894  65.7434083  71.7617150  45.5471927
  65.9972771  72.6025125  44.9016623  66.3259184  70.8889487  45.2521316
  64.3536136  71.4413260  45.2839373  63.3507982  72.3262431  45.0678613
  63.6443563  73.3742670  45.0081172  62.1478355  71.6895403  44.9684666
  61.2432286  72.1311753  44.8863430  62.3695593  70.3408849  45.0534446
  61.4612330  69.2649514  44.9753775  60.4064842  69.4718409  44.7942689
  61.9819169  67.9982842  45.1371198  61.3128709  67.1401850  45.0727525
  63.3819474  67.7745732  45.3883605  63.7766335  66.7693260  45.5360106
  64.2739629  68.8430285  45.4496934  65.3385880  68.6286752  45.5431104
  63.7609140  70.1557272  45.3052947  65.3194391  71.2050021  47.9164429
  64.2142771  71.3772478  48.4288074  66.0014673  70.1261765  48.2010249
  66.8801116  69.8245533  47.8046576  65.3043557  69.2176684  49.1232968
  64.2749779  69.0908748  48.7880297  65.9644063  67.8567064  49.1841063
  66.0085835  67.4575706  48.1707760  66.9670347  67.8737752  49.6113591
  65.1940254  66.9100003  49.9701743  64.0580701  66.2692350  49.3932207
  63.8363816  66.4209056  48.3368353  63.2365316  65.4568671  50.1661307
  62.3234271  65.0279747  49.7533449  63.5888686  65.1979462  51.4641529
  62.9930253  64.5060291  52.0594020  64.7305553  65.8300299  52.0368898
  64.9940743  65.6406754  53.0774679  65.5023920  66.6818705  51.2738095
  66.3666756  67.1775229  51.7158981  65.1390651  69.7911720  50.5566036
  64.0914652  69.6655454  51.1827869  66.1784141  70.4132041  51.0877718
  67.0729663  70.4178888  50.6188861  66.0691368  71.0924388  52.3909079
  65.8200200  70.3709811  53.1690717  67.4147876  71.7623961  52.7509638
  67.6888491  72.4228194  51.9282666  67.3164419  72.3452414  53.6667801
  68.5075797  70.6952032  52.9374300  68.5930384  70.0611982  52.0549135
  69.7429971  71.4170398  53.1326157  69.6584608  72.0509590  54.0152815
  70.5600677  70.7090413  53.2713042  69.9442816  72.0367375  52.2587966
  68.1939266  69.7614058  54.1448422  67.2433279  69.2554311  53.9761677
  68.9864344  69.0200496  54.2469382  68.1323063  70.3546217  55.0572000
  64.9745055  72.1611989  52.4171367  64.3441344  72.3681552  53.4315387
  64.7906718  72.8289564  51.2961295  65.3756997  72.6089107  50.5027686
  63.8172001  73.8285002  51.1478893  63.8865678  74.5323213  51.9773007
  64.0196482  74.6067985  49.8177763  64.8933731  75.2571539  49.8595103
  64.1070344  73.9361745  48.9629505  62.8275426  75.4998283  49.5475483
  62.5609093  76.7583111  50.0973089  63.2994928  77.1590937  50.7915477
  61.3351395  77.2525014  49.6064369  60.8930870  78.1240735  49.8614884
  60.8276410  76.3286923  48.7269303  59.6607728  76.3519967  47.9935998
  59.0030065  77.2177100  48.0709475  59.4032974  75.2592493  47.1998621
  58.5059507  75.2578712  46.5810996  60.2484858  74.1595255  47.1615726
  59.9761034  73.2813814  46.5761067  61.4207170  74.1344670  47.8360799
  62.0749793  73.2715424  47.7119721  61.7354471  75.2184890  48.6694000
  62.4294068  73.1843104  51.1307052  61.5114535  73.6474467  51.8258171
  62.3000329  72.1147027  50.3275566  63.0815884  71.8058883  49.7672852
  61.0512807  71.4278934  50.1879791  60.2886485  72.1038622  49.8012525
  61.2138335  70.2830750  49.2228794  61.7101247  70.6933721  48.3434189
  61.8421807  69.5110061  49.6669395  59.8934775  69.6842850  48.8196913
  59.3056737  68.6534027  49.5783008  59.8141457  68.2994631  50.4751187
  58.0929773  68.0877265  49.1970649  57.6164733  67.3038704  49.7858054
  57.4799838  68.5622612  48.0548982  56.2927410  68.0213376  47.6679688
  55.9857378  67.3292791  48.2582261  58.0629147  69.5681510  47.2721095
  57.5672215  69.9111040  46.3639399  59.2555290  70.1192774  47.6496023
  59.7127594  70.8989230  47.0403461  60.5268236  70.9345737  51.5352487
  59.3872895  71.1320666  51.8087510  61.3406475  70.3023149  52.3872185
  62.2834251  70.0483812  52.1287860  60.8476864  69.9102804  53.7416495
  59.8889340  69.3981506  53.8229888  61.8887998  69.0662686  54.3666741
  62.8590247  69.4481022  54.0489225  61.8175230  69.0610003  55.9234252
  60.8476872  68.6788298  56.2419613  62.6071677  68.4238406  56.3216578
  61.9477879  70.0766427  56.2970604  61.9107606  67.6404076  53.7386009
  62.1194589  67.7160651  52.6714444  62.6861952  67.0433350  54.2185022
  60.9420086  67.1629880  53.8858798  60.5210182  71.1419260  54.6521032
  59.4494086  71.2018957  55.3444798  61.4401331  72.1248721  54.6474301
  62.3322083  71.9840142  54.1952573  61.1930347  73.4095180  55.3150163
  61.1727395  73.2486748  56.3928924  62.2575641  74.4347662  54.9997114
  63.2327483  74.0140750  55.2449337  62.2187230  74.6640350  53.9348042
  62.0467396  75.6680349  55.7747154  61.0184221  75.7202405  56.1324003
  62.7286426  75.7034599  56.6243362  62.3224792  76.8432125  54.8561910
  63.3626726  76.8093022  54.5322359  61.6692011  76.7796857  53.9859660
  62.0641713  78.1428642  55.5865001  61.8155108  78.9304673  54.8751985
  61.2435102  78.0199366  56.2932557  63.2444953  78.4965722  56.2897213
  64.0049613  78.6109487  55.6349625  63.0939095  79.3634712  56.7856145
  63.4748457  77.7670885  56.9491841  59.8514210  74.0149998  54.9313049
  59.1036109  74.3770194  55.8389155  59.5304315  74.1230383  53.6201377
  60.1710933  73.8643182  52.8834453  58.2981204  74.8038732  53.2547528
  58.1256216  75.6414816  53.9305897  58.3822492  75.3331503  51.8411053
  57.4243323  75.8163242  51.6486546  59.1717195  76.0846109  51.8530922
  58.6602023  74.3394245  50.7694467  59.3207024  74.7852970  50.0257813
  59.1456062  73.4687195  51.2103072  57.3781605  73.8836547  50.0733572
  56.4859350  74.6847562  49.8422210  57.2880090  72.6093777  49.7378026
  56.4564838  72.2695133  49.2761106  58.0510137  71.9807107  49.9444497
  57.0098219  73.9564632  53.5116112  55.9104482  74.4344343  53.3027764
  57.1738190  72.7160743  53.8757737  58.0850105  72.2870138  53.8000339
  56.0760830  71.9125862  54.3688139  55.1212469  72.3110019  54.0258093
  56.2321285  70.5054577  53.8360474  57.2219064  70.0889219  54.0229616
  55.4730712  69.8218024  54.2162414  56.0361635  70.5296089  52.0963013
  56.2158890  69.2239247  51.9180156  56.0444586  71.8904720  55.9017343
  55.3694137  71.0543491  56.5249636  56.7588223  72.7700137  56.5915037
  57.3639559  73.4962109  56.2357646  56.6168697  72.6277636  58.0759573
  56.5256725  73.6328355  58.4877979  55.6951085  72.0755892  58.2591491
  57.7684684  71.9121031  58.7668982  57.8321168  71.8746184  60.0276792
  58.6804387  71.3404593  57.9953579  58.6724556  71.4025651  56.9873011
  59.7380623  70.5917254  58.6252348  60.6747435  70.8174518  58.1155534
  59.8089246  70.9005769  59.6681579  59.4954453  69.1071882  58.5694191
  58.4486399  68.6997453  58.0779227  60.4528979  68.3110866  59.0731529
  61.2531843  68.7576906  59.4976360  60.4440369  66.8360000  58.9741070
  60.3131902  66.5731960  57.9243869  61.7693112  66.1693540  59.4978255
  61.6277495  65.0891103  59.5315018  62.9514740  66.5009487  58.5806749
  63.0939530  67.5810671  58.5468597  63.8547029  66.0277253  58.9658194
  62.7477683  66.1302355  57.5760972  62.0791503  66.6578007  60.8036879
  62.8884981  66.2463280  61.1155319  59.3298854  66.1224037  59.6524874
  58.7086120  65.1382591  59.0897550  59.0443845  66.6025416  60.8620571
  59.6212208  67.2927047  61.3214415  57.9262056  66.0423719  61.5961517
  58.0045622  64.9555740  61.5673435  57.8846807  66.4879274  63.0484677
  57.6447360  67.5501413  63.0956744  56.8056124  65.6824394  63.8057852
  57.0451428  64.6200958  63.7594080  56.7765753  66.0026873  64.8472732
  55.8327039  65.8554171  63.3457545  59.1657582  66.2524927  63.6409792
  59.1495361  66.5310664  64.5595291  56.5887810  66.3397519  60.9297094
  55.7953428  65.4150813  60.7319415  56.3419894  67.5912904  60.5702119
  56.9883795  68.3422461  60.7660300  55.0795212  67.9178663  59.9000089
  54.2368205  67.6028212  60.5153962  54.9853464  69.3964901  59.6802553
  55.1825438  69.8652921  60.6443285  55.7802889  69.6561837  58.9811662
  53.6741604  69.8838933  59.1477300  53.8521972  70.8197463  58.6180291
  53.2956377  69.1378407  58.4489967  52.6671093  70.1082531  60.2311412
  51.7026762  70.3295445  59.7739784  52.5856177  69.2002062  60.8285602
  53.0335251  71.2162703  61.1109244  53.7882832  71.8199348  60.8176179
  52.4206940  71.4784678  62.2687933  51.4593081  70.7191516  62.6961410
  51.1693866  69.9208825  62.1495042  51.0053825  70.9299215  63.5734251
  52.7761650  72.4971900  63.0101943  53.5272632  73.1006414  62.7072125
  52.2976561  72.6749293  63.8817084  54.8765280  67.2322979  58.5525773
  53.7618830  66.8166335  58.2291202  55.9410991  67.1479399  57.7571296
  56.7868791  67.6150271  58.0513832  55.9010387  66.5728159  56.4286716
  54.9968368  66.9157176  55.9257437  57.1448363  66.9644521  55.5819565
  57.3883724  68.0015655  55.8125782  58.3909827  66.0606161  55.8660698
  58.1483445  65.0233417  55.6352251  59.2252316  66.3851407  55.2441266
  58.6683002  66.1431260  56.9169676  56.8003156  66.8544264  54.1164672
  56.5191507  65.8177665  53.9310400  55.9402589  67.5005987  53.9407878
  57.8908579  67.2348183  53.2105204  58.7511659  66.5887367  53.3853023
  57.5600782  67.1270157  52.1775332  58.1722757  68.2715690  53.3950520
  55.6582105  65.0610633  56.4506588  55.0459794  64.4840956  55.5243331
  56.0600066  64.3977703  57.5222144  56.3927475  64.8818600  58.3438226
  56.1130012  62.9409451  57.5094900  55.9953212  62.5730592  56.4902203
  57.4605029  62.4573086  58.0516060  58.2706580  63.0855049  57.6813123
  57.4479122  62.4862544  59.1411489  57.7980227  61.0497118  57.6640217
  58.0309803  60.7260118  56.3313000  57.9603786  61.4976193  55.5646598
  58.3499298  59.4349189  55.9802669  58.5299061  59.1905219  54.9333766
  58.4462123  58.4137686  56.9813267  58.6985296  57.3956016  56.6850634
  58.2214604  58.7118711  58.3174298  58.2894633  57.9570804  59.1008626
  57.8968302  60.0382701  58.6463901  57.7125953  60.3127156  59.6850609
  54.9687475  62.3417502  58.2835112  54.6208466  61.1706537  58.0937956
  54.3706054  63.1528214  59.1501690  54.5933825  64.1378766  59.1385102
  53.4136541  62.6712590  60.1422026  53.7169592  61.6913965  60.5109503
  53.3559336  63.6570680  61.3416850  53.2200428  64.6670085  60.9548347
  52.5050377  63.3912591  61.9689184  54.5484941  63.6020556  62.1133236
  54.4846931  64.2197553  62.8454277  51.9931504  62.5155050  59.5693843
  51.5909892  63.1987774  58.6283725  51.2302994  61.6614444  60.2119352
  51.6705396  60.9670913  60.7985882  49.7934475  61.5717999  59.9958875
  49.4802283  62.0027681  59.0449620  49.2729555  60.1048231  60.0733349
  49.5202103  59.6808676  61.0465903  47.7726668  60.0947854  59.8860540
  47.5246479  60.5181981  58.9127558  47.4061303  59.0696706  59.9398218
  47.3040998  60.6892436  60.6703792  50.0378452  59.2226714  59.0361142
  51.1045454  59.2406957  59.2595596  49.6728593  58.1970825  59.0913632
  49.8707352  59.6136790  58.0324767  49.1571585  62.5479015  60.9717871
  48.8680938  63.7117570  60.5937780  49.0322497  62.1595103  62.2419906
  49.1379270  61.1873648  62.4947056  48.6073143  63.1096306  63.2840387
  47.5913806  63.4308466  63.0542602  48.6120507  62.4529101  64.6703521
  49.6422828  62.2046237  64.9254517  48.0057457  63.4086402  65.7865797
  46.9753074  63.6570032  65.5323900  48.0294213  62.9020104  66.7513931
  48.5961823  64.3231711  65.8424240  47.7806297  61.2806936  64.5926815
  47.7620154  60.8443797  65.4475991  49.4232970  64.3889118  63.2704086
  50.6495750  64.3294007  63.3429808  48.7548762  65.5369915  63.1434773
  47.7659998  65.5293389  62.9381376  49.4532909  66.8446080  63.1898879
  48.7119965  67.6270453  63.0274880  50.1934589  67.1290336  64.5402518
  49.6040582  66.6861784  65.3431125  51.1820677  66.6703826  64.5204514
  50.3574082  68.6572438  64.8253904  49.5518371  69.5079406  64.3722962
  51.4259737  69.0159123  65.5649907  51.5828249  69.9900111  65.7809285
  52.0648260  68.3088942  65.8997952  50.4268131  66.9952165  62.0323644
  51.3148661  67.8914002  62.0531166  50.1855906  66.2185215  60.9877867
  49.4239066  65.5552579  60.9835355  51.0155306  66.3066719  59.8241690
  51.5722659  67.2417565  59.8855034  51.7111380  65.4678909  59.8501722
  50.2613829  66.2733268  58.5340643  49.0108035  66.2858317  58.5245306
  51.0210540  66.1655392  57.4449891  51.9923714  65.9098790  57.5511950
  50.5135207  66.4001351  56.1049146  49.9785845  67.3497669  56.0929990
  51.3551330  66.4491108  55.4139808  49.5869972  65.3151279  55.6657706
  48.7973407  65.4736201  54.7349646  49.6343495  64.2093981  56.3703474
  50.2801262  64.1288148  57.1427322  48.8239269  63.0313155  56.0110004
  48.3720588  63.1541183  55.0267068  49.7479422  61.8104247  55.9764386
  50.4636132  61.9065759  56.7929367  49.1370275  60.9212686  56.1322743
  50.5154241  61.6829333  54.6255013  50.9122943  60.6811515  54.4610991
  49.7746251  61.9100326  53.8588562  51.6439250  62.6718993  54.5116939
  51.6625918  63.5337535  53.6298709  52.5355714  62.6191141  55.4531345
  53.3200518  63.2550811  55.4377162  52.4408392  61.9423157  56.1968221
  47.6566998  62.8239806  56.9444736  47.0345347  61.7418419  56.9728879
  47.3188006  63.8681066  57.7106419  47.7562453  64.7729556  57.6106932
  46.3520240  63.6862323  58.7745121  46.6790095  62.8733534  59.4229005
  46.1984906  64.9670145  59.6270352  47.1886941  65.3192744  59.9160148
  45.7016817  65.7312264  59.0293220  45.3678561  64.6834329  60.8882857
  44.4069456  64.3011338  60.5439031  45.8772661  63.9143938  61.4689573
  45.1458727  65.8915330  61.7461874  45.9951466  66.1531295  62.6202280
  44.1010233  66.5918304  61.5777525  44.9591347  63.2480572  58.2999114
  44.2615237  62.5519701  58.9975902  44.5586468  63.7110758  57.1259522
  45.2466521  64.0693767  56.4791381  43.1760967  63.7397780  56.7350691
  42.6173216  62.9594356  57.2517268  42.5936378  65.0627314  57.0984599
  43.3473770  65.8371177  56.9559735  41.7380668  65.2663225  56.4545274
  42.1615127  65.0551459  58.4939280  41.4622052  64.2300497  58.6291546
  43.0384682  64.8939346  59.1208746  41.5285841  66.2818550  58.8666373
  41.9424745  67.1208495  58.3072788  40.4522037  66.2319202  58.7022864
  41.7777684  66.5033695  60.3052521  42.7305557  66.5661936  60.6344159
  40.7874944  66.6179605  61.1942247  39.5482441  66.5627956  60.7567209
  39.3691677  66.4366146  59.7707645  38.7815259  66.6468767  61.4087739
  41.0380293  66.7912235  62.4949665  41.9930498  66.8375062  62.8203799
  40.2712747  66.8751377  63.1469975  43.0100544  63.5187337  55.2541082
  43.9533995  63.6374146  54.5119002  41.7982776  63.1479651  54.8591542
  41.1073936  63.0004683  55.5809737  41.4064463  62.9652519  53.5017817
  42.1353325  63.4163001  52.8284470  41.3287563  61.4558049  53.2034798
  41.0528143  60.9473350  54.1272837  40.5481391  61.3031588  52.4582041
  42.6128932  60.9009518  52.6969114  42.8560175  61.4123609  51.7655403
  43.3848317  61.1096579  53.4376238  42.5403806  59.3814872  52.4447706
  43.5284066  58.9800646  52.6700781  41.8158472  58.9814739  53.1540944
  42.1147605  58.9553357  50.9400714  41.5808610  58.0096386  51.0333934
  41.4284059  59.7264811  50.5902838  43.2945993  58.7929332  49.9049063
  43.9304770  58.0781156  50.2286271  42.9192671  58.5274955  49.0055907
  43.7891868  59.6692457  49.8179648  40.0193069  63.6167093  53.3748945
  39.4518604  63.9944989  54.3593052  39.5130831  63.7836294  52.1439220
  40.0542445  63.4834958  51.3456968  38.2061567  64.3492222  51.9108315
  37.9245935  64.9847518  52.7504287  38.2057063  65.1792869  50.6593790
  38.6140330  64.5723841  49.8512716  37.2048568  65.5165059  50.3897798
  39.0612751  66.4052283  50.7489032  40.1469454  66.5535993  49.9035252
  40.3621753  65.7538966  49.1948281  40.9611372  67.6946294  49.9415906
  41.7853531  67.8236407  49.2400744  40.7081891  68.6463639  50.8718721
  41.3366705  69.5342452  50.9409945  39.6026850  68.4784232  51.7704257
  39.3903820  69.2443525  52.5163345  38.8179850  67.3645605  51.6937448
  37.9888191  67.2331189  52.3889475  37.1848135  63.2539952  51.7217151
  37.4574714  62.2128014  51.1162483  36.0293263  63.4985494  52.3106358
  35.9389415  64.3341458  52.8707327  34.9000331  62.6221098  52.2108942
  35.2164005  61.5868749  52.3385640  33.7739573  62.9264290  53.2346931
  33.4279235  63.9514733  53.1018629  32.5742827  61.9338319  53.0031035
  32.9194613  60.9085364  53.1362266  31.7824415  62.1462276  53.7214183
  32.1890893  62.0584627  51.9910784  34.3004960  62.8240862  54.6733675
  35.1081666  63.5417903  54.8171418  33.4931363  63.0415469  55.3726390
  34.6745137  61.8161632  54.8530976  34.4318903  62.8359000  50.7836387
  34.1209306  63.9520940  50.3573183  34.4259510  61.7391124  50.0391686
  34.7707880  60.8559428  50.3873039  33.9164422  61.7904815  48.6923075
  33.4588820  60.8372682  48.4275013  33.1767250  62.5858228  48.6009286
  35.0512334  62.0673195  47.7473785  34.8337808  62.0468883  46.5497484
  36.2519117  62.3649088  48.2523034  36.3984255  62.5426600  49.2356841
  37.4088165  62.4388269  47.3518216  38.2236112  61.8877205  47.8213856
  37.1287396  61.9481198  46.4196935  37.8810366  63.8568989  47.0440718
  37.1214149  64.7864841  47.1000300  39.1582472  64.0136032  46.7229197
  39.7861602  63.2299238  46.6148866  39.6956582  65.3766789  46.5166961
  39.2446541  66.0716992  47.2249625  41.2209504  65.3682760  46.7382227
  41.6214138  66.3781201  46.6490983  41.4574114  64.9699728  47.7249044
  41.7896551  64.5565592  45.7624457  42.7422522  64.5350159  45.8794696
  39.3768021  65.8172788  45.0843541  39.4656129  67.0050257  44.7559963
  38.9599798  64.8594074  44.2424185  38.9235051  63.8895577  44.5219904
  38.5410545  65.2080105  42.8734308  39.3873419  65.6182792  42.3224531
  38.1728761  64.3180632  42.3630016  37.4364889  66.2411899  42.9202829
  37.3870230  67.1690019  42.1024638  36.6357848  66.1515947  43.9893005
  36.8212462  65.4402635  44.6819126  35.5437580  67.0440612  44.2112889
  34.8368311  66.9913659  43.3832933  34.8355132  66.6580739  45.4691053
  35.5019043  66.9381012  46.2849526  33.9370066  67.2739954  45.5068749
  34.4616962  65.2312211  45.6049692  33.7924808  65.0000858  44.7762184
  35.2802313  64.5116265  45.6218793  33.6920504  65.1136940  46.8911048
  32.4599919  65.1006324  46.8690280  34.4110976  65.1482183  48.0499634
  33.9358898  65.0726564  48.9379777  35.4154203  65.2491831  48.0147023
  35.8957641  68.4807787  44.3961444  34.9823180  69.3211221  44.2716560
  37.1665083  68.7991340  44.7522051  37.8733070  68.1180527  44.9902452
  37.4822063  70.2064398  44.9205172  36.7102775  70.6279786  45.5643573
  38.8584774  70.4520597  45.5747518  39.5967796  69.8084528  45.0964429
  39.2681946  71.8797984  45.4196943  38.5305620  72.5240357  45.8981892
  40.2408297  72.0320865  45.8875510  39.3326531  72.1268082  44.3600090
  38.7888203  70.1727007  47.0562849  38.4976809  69.1347521  47.2175379
  39.7657325  70.3495961  47.5062296  38.0526649  70.8317092  47.5165935
  37.3296809  70.8525385  43.5166944  36.7251063  71.9429051  43.3420886
  37.8599224  70.1603337  42.5207569  38.2408821  69.2391100  42.6829788
  37.9167579  70.7031441  41.1702119  38.1622324  71.7645728  41.2050041
  38.9776212  69.9887409  40.3684950  38.9106487  68.9148270  40.5426293
  38.8380353  70.1935832  39.3070547  40.2360214  70.4482294  40.7700862
  40.9171375  69.9985430  40.2646530  36.6055503  70.5523990  40.4531879
  36.2270531  71.4288454  39.6546044  35.9364473  69.4319018  40.7123541
  36.3419679  68.6819261  41.2538232  34.6309977  69.2161140  40.1029232
  34.7315626  69.2925483  39.0202674  34.0489911  67.8508588  40.4422689
  34.0070269  67.7700631  41.5284596  33.0381719  67.8121837  40.0362531
  34.8545118  66.7130016  39.8871444  34.5355161  66.5086224  38.8651015
  35.9067698  66.9973424  39.8887965  34.6613291  65.4372657  40.7549598
  33.5953095  65.3161340  41.4400541  35.5623548  64.5513668  40.7507453
  33.6240473  70.3340124  40.4495369  32.8830588  70.7951962  39.5621505
  33.5892793  70.7281942  41.7201276  34.1888161  70.2883314  42.4036301
  32.6542737  71.7049885  42.1704648  31.6824247  71.5150237  41.7149188
  32.4988996  71.6597792  43.6866033  33.4827949  71.7111726  44.1528737
  31.8974360  72.5077467  44.0141591  31.8175042  70.3739353  44.0902041
  30.9118786  70.2719972  43.4922477  32.4951352  69.5502148  43.8656984
  31.4587104  70.3442654  45.5539789  32.3513758  70.3701693  46.1789401
  30.8074497  71.1778400  45.8168713  30.7401995  69.0855509  45.8100080
  30.5791320  68.4881722  45.0117002  30.2691564  68.7084839  46.9841238
  30.4617567  69.4679984  48.0541910  30.9702253  70.3364440  47.9683893
  30.0990739  69.1744469  48.9499524  29.6287958  67.5334376  47.0930060
  29.5122661  66.9479227  46.2783323  29.2665237  67.2403660  47.9890901
  32.9965173  73.1045331  41.7341505  32.0929372  73.9280368  41.6093638
  34.2738085  73.4129870  41.5282636  35.0303141  72.7588409  41.6693007
  34.5953377  74.7407826  41.0713581  33.9997009  75.5194518  41.5477931
  36.1267017  75.0911926  41.2112366  36.7174621  74.2600517  40.8261296
  36.4608401  76.3664291  40.4207856  35.8707638  77.1981669  40.8056530
  37.5214568  76.5936919  40.5282309  36.2275818  76.2130197  39.3671466
  36.5773378  75.1475732  42.6944942  36.3213345  76.1406816  43.0636810
  35.9924483  74.3995959  43.2297826  38.1272050  74.8774004  42.9313030
  38.7127687  75.6253129  42.3966612  38.3483194  74.9372956  43.9969578
  38.3838830  73.8842274  42.5627604  34.1900104  74.7233384  39.6093624
  33.7074890  75.6993717  39.1046674  34.3739047  73.6069276  38.9264072
  34.8231794  72.7863695  39.3071118  34.0225055  73.6066955  37.5321574
  34.4843237  74.4614951  37.0380515  34.5117224  72.3141180  36.8421718
  35.5787622  72.4090405  36.6408882  34.3429361  71.4741526  37.5160184
  33.7766515  72.0758366  35.5495811  32.7590546  71.8122707  35.8379047
  33.7708435  73.0375850  35.0366402  34.4105393  70.8377463  34.4566979
  33.8191973  69.2749664  35.1886169  32.7297246  69.2782937  35.2223404
  34.1608371  68.4366402  34.5814990  34.2131869  69.1748366  36.1999761
  32.5022065  73.8348153  37.3787229  32.0308028  74.5136916  36.4373093
  31.7477438  73.2664315  38.3231602  32.1698929  72.6410383  38.9945564
  30.3109261  73.5510801  38.4435730  29.7985577  73.1539540  37.5672918
  29.6967295  72.9249011  39.6933940  30.3095603  73.2007544  40.5515564
  28.7003941  73.3521875  39.8067163  29.5930808  71.4263792  39.6126531
  29.7424401  70.8427954  38.5163945  29.3731266  70.8458201  40.6861541
  30.0540508  75.0191602  38.5601145  29.2078605  75.5239555  37.8760717
  30.7312704  75.6961893  39.4669415  31.4237330  75.2430016  40.0459197
  30.4947087  77.1075273  39.6603315  29.4384604  77.2716981  39.8736077
  31.3060334  77.6455044  40.8073549  32.3496150  77.4787448  40.5404694
  31.1079964  78.7166856  40.8454615  31.0314460  77.0398452  42.1478431
  31.1249036  75.9539877  42.1311133  32.0794213  77.6145012  43.0372948
  31.9863028  78.7003731  43.0548995  31.9543421  77.2232104  44.0469222
  33.0654355  77.3409513  42.6617328  29.6029967  77.4273290  42.6029287
  28.8772707  77.0554011  41.8796786  29.4003086  76.9873438  43.5793671
  29.5244559  78.5123906  42.6705428  30.8595744  77.9043112  38.4211457
  30.2108776  78.8900827  38.1393854  31.8836862  77.4934367  37.6901578
  32.4437866  76.7099519  37.9943589  32.2828127  78.1988846  36.4814013
  32.1513675  79.2738037  36.6053787  33.7636654  77.9152916  36.2023827
  33.8623175  76.8487582  36.0002111  34.0442385  78.4805150  35.3136188
  34.6727615  78.2969325  37.3502657  34.4064168  77.7453139  38.2518633
  36.0502924  77.9468501  36.9481749  36.3175367  78.4984681  36.0468443
  36.7406989  78.2066437  37.7506379  36.1106117  76.8767330  36.7499037
  34.5504574  79.7571013  37.6005570  33.5180564  79.9975256  37.8544152
  35.2026492  80.0405411  38.4266375  34.8408571  80.3054489  36.7044086
  31.4506312  77.8740370  35.2378905  31.6308191  78.5211355  34.1917601
  30.5784086  76.8725261  35.3238930  30.4618764  76.3912835  36.2041913
  29.7620906  76.4300185  34.1670395  29.2598691  75.5078540  34.4594185
  29.0183988  77.2048100  33.9807062  30.5424391  76.1834672  32.8994341
  31.5574695  75.4936334  32.8855551  30.1163374  76.8177744  31.8289068
  29.2701806  77.3669158  31.8795221  30.7483035  76.6442483  30.5322675
  31.1526182  75.6349000  30.4558151  29.7211858  76.8594310  29.3754120
  30.2268254  76.6198292  28.4399875  28.9009738  76.1593198  29.5341463
  29.1568993  78.3146318  29.3041012  28.1678153  78.5414299  28.5314755
  29.6749807  79.2432191  30.0024610  31.9985151  77.5305999  30.3775361
  32.6304349  77.5796172  29.3020922  32.3828499  78.2105169  31.4544695
  31.7782459  78.3645415  32.2487174  33.6526926  78.9158266  31.4081790
  33.8242600  79.2981098  30.4019368  33.6530802  80.0861673  32.3792812
  33.5900420  79.7037315  33.3980394  34.5792750  80.6482083  32.2593927
  32.4726637  80.9951545  32.1077391  31.5531400  80.4119449  32.1571709
  32.4563899  81.7643441  32.8798690  32.5476612  81.6893210  30.7149985
  33.4499404  82.4819123  30.4703449  31.6111477  81.3749792  29.8124767
  31.6293283  81.8060853  28.8992853  30.8903434  80.7080351  30.0485445
  34.8651258  77.9787986  31.5760696  35.9652963  78.4654804  31.7329224
  34.6480476  76.6489857  31.5587010  33.7016672  76.3065496  31.4738427
  35.7370346  75.6698884  31.6411448  36.7083291  76.1598209  31.5729366
  35.7163455  74.7843095  32.9169755  34.7099205  74.3908354  33.0597553
  36.7161755  73.6069385  32.7756234  37.7229573  73.9996544  32.6332657
  36.6891686  72.9963118  33.6781233  36.4400188  72.9962888  31.9160036
  35.9964254  75.5965114  34.1440343  35.2382914  76.3728161  34.2474073
  35.9753559  74.9497125  35.0211358  36.9797256  76.0588665  34.0577252
  35.5742008  74.7830458  30.4532153  34.5208628  74.1555003  30.2800805
  36.5957957  74.7150459  29.6126293  37.4217138  75.2819074  29.7415742
  36.5133154  73.8865538  28.4386839  35.5002937  73.5037528  28.3147904
  36.8761730  74.7165975  27.2065513  37.6907008  75.3914186  27.4697247
  37.2054484  74.0410010  26.4170913  35.6829512  75.5282064  26.7154039
  34.9627354  74.8319994  26.2856531  35.2391166  76.0216477  27.5800591
  36.0638853  76.5781423  25.6691038  37.0396736  76.9815280  25.9396888
  36.1332124  76.0780707  24.7030698  35.0251019  77.7437405  25.5789780
  35.0105079  78.2148114  26.5618207  35.4197578  78.4468255  24.8454813
  33.6055189  77.3425146  25.1862503  33.2394791  76.6913524  25.8660315
  33.0191557  78.1643744  25.1575334  33.6187627  76.9063756  24.2753681
  37.4085703  72.6737333  28.6130807  38.6032597  72.8075143  28.7740798
  36.8415530  71.4715381  28.5972325  35.8376755  71.3623641  28.5769727
  37.6697969  70.2657710  28.6546387  38.5509986  70.4373806  29.2728078
  36.8700293  69.1484115  29.2590728  36.1106888  68.8197474  28.5495088
  37.6025469  68.3537474  29.4005893  36.2157211  69.4718461  30.5831034
  35.5331586  70.3171258  30.4952877  35.4519601  68.2570102  30.9519513
  36.1339602  67.4113451  31.0404117  34.9491249  68.4188698  31.9053971
  34.7101122  68.0458133  30.1817838  37.2859759  69.6915626  31.6061089
  37.9217499  70.5205781  31.2952645  36.8281222  69.9259874  32.5671064
  37.8885718  68.7883575  31.7020131  38.1534769  69.8931483  27.2732362
  37.7013993  70.4551899  26.3154782  39.0629427  68.9450940  27.1615858
  39.4299332  68.5215442  28.0018375  39.6887640  68.6098241  25.8886573
  40.6250433  68.0820772  26.0702157  38.7680630  67.7042958  25.0409397
  37.9539132  68.2788041  24.5991257  39.3753829  67.2670978  24.2483992
  38.1752307  66.5836937  25.8707186  38.8680469  65.6471070  26.1894429
  36.9156477  66.6986918  26.2540565  36.4909806  65.9688273  26.8081823
  36.3835605  67.5159077  25.9911074  40.2201993  69.7785941  25.0626566
  40.0842340  69.7844997  23.8397443  40.8650793  70.7385076  25.7123464
  40.8929315  70.7518556  26.7218737  41.4970220  71.8029020  25.0044981
  41.5476541  71.5661240  23.9417320  40.7003648  73.0929550  25.1793399
  40.4172194  73.1676213  26.2292699  41.2569689  73.9841510  24.8894062
  39.4310405  73.1071232  24.3924345  39.2527883  73.8970089  23.2730206
  38.0573130  73.6695130  22.7546479  37.7317854  74.1867577  21.8521022
  37.4443786  72.7758632  23.5103081  36.5052169  72.4297249  23.3751659
  38.2943388  72.3835257  24.5243055  37.9794879  71.6184100  25.2339309
  42.9139019  71.9695181  25.5080497  43.1762633  72.8808045  26.2580035
  43.8198607  71.0710039  25.1053625  43.5773874  69.7852228  24.3907950
  43.4051880  69.9919627  23.3345251  42.6963803  69.3031085  24.8144593
  44.8281091  68.9966969  24.6258508  45.0690811  68.4218102  23.7316826
  44.6773283  68.3169742  25.4645066  45.9114554  70.0133223  24.9401287
  46.4622321  70.2170282  24.0218434  46.6021669  69.6639716  25.7075734
  45.1906692  71.3065017  25.4229686  45.2731909  71.4409818  26.5014878
  45.7421999  72.5561963  24.7059697  45.6515313  72.6447038  23.4492618
  46.2872984  73.5138235  25.4630811  46.3415551  73.4262411  26.4678124
  46.8776941  74.7028238  24.8349400  46.2632637  75.1153453  24.0346897
  47.1155240  75.7822735  25.8669847  47.6243260  75.3408100  26.7239151
  47.9484680  76.8810887  25.3081185  47.4400704  77.3233784  24.4513731
  48.1041233  77.6438056  26.0710962  48.9123201  76.4822520  24.9918592
  45.7703448  76.2913091  26.3913181  45.2221393  75.4669944  26.8474739
  45.9407367  77.0694627  27.1353230  45.1890044  76.7004250  25.5650202
  48.2176864  74.3433578  24.2574274  49.0236309  73.6887855  24.9418590
  48.4716461  74.7540952  23.0070614  47.7948001  75.3105887  22.5047727
  49.7073715  74.4294669  22.3512753  50.3058781  73.7831616  22.9932865
  49.4328169  73.6931876  21.0337497  50.3535301  73.6591572  20.4513157
  48.9256595  72.2118596  21.3097022  48.0046642  72.2450924  21.8917355
  48.7374213  71.7090792  20.3610836  49.6866965  71.6643791  21.8657492
  48.4152349  74.4306801  20.3313242  48.2202186  73.9936305  19.4991243
  50.4860645  75.6981089  22.0335247  51.7044790  75.6393152  21.8257067
  49.8062700  76.8381478  21.9809707  48.8528827  76.9040120  22.3077945
  50.5002207  78.0862698  21.5810334  51.5777878  77.9512060  21.6743402
  50.1747900  78.4530189  20.1210539  49.0940391  78.4544453  19.9793689
  50.5757400  79.4333842  19.8637160  50.7307793  77.4949620  19.1347452
  51.7972015  77.8103913  18.3326112  52.1115130  76.7597801  17.5982479
  52.9468020  76.8019509  16.8992394  51.2707304  75.7803874  17.8877726
  51.2706917  74.8532186  17.4872006  50.3838256  76.2290678  18.8334299
  49.5885051  75.5739844  19.1890031  49.9282081  79.1651599  22.3465808
  48.6886097  79.2451206  22.4791778  50.7914659  80.0449437  22.7679540
  51.7795934  79.9136588  22.6052654  50.3533334  81.2741762  23.4536059
  49.2976223  81.5057645  23.3123970  50.6476189  81.2015195  24.9850389
  51.6910714  80.9204669  25.1275715  50.3837062  82.5632527  25.6659977
  49.3402675  82.8447713  25.5242794  50.5966119  82.4842768  26.7320814
  51.0278088  83.3226544  25.2226663  49.8723566  80.0880308  25.6048519
  50.1578716  79.1437560  25.1412483  50.0854413  80.0468353  26.6730267
  48.8064424  80.2586838  25.4538372  51.1543919  82.4326540  22.8736996
  52.4017033  82.3877891  22.8721361  50.4569901  83.4706776  22.4195775
  49.4610245  83.5086334  22.5830130  51.0807157  84.5582191  21.6351154
  52.1607318  84.5268809  21.7789288  50.7777613  84.4264690  20.1157532
  51.2365396  83.5030933  19.7622011  49.6957693  84.3610037  20.0012646
  51.3206361  85.6360095  19.2740076  51.6604193  86.7160533  19.8230066
  51.4198198  85.5199037  18.0363921  50.5947138  85.8829643  22.1408678
  49.4422673  86.2583966  21.8988356  51.5057852  86.5843110  22.8053666
  52.4202507  86.1691023  22.9123896  51.2505406  87.8682190  23.4463239
  50.1925961  88.1180496  23.3660920  51.6306648  87.8087824  24.9384385
  51.2457013  88.7288788  25.3781258  51.0882361  86.9564765  25.3476399
  53.1401449  87.6689545  25.2710391  53.4925324  86.6715995  25.0079672
  53.7050760  88.4131449  24.7096698  53.3827198  87.8948599  26.7627767
  52.6750188  88.6979616  27.4058560  54.3704816  87.1876242  27.3253764
  54.5713811  87.3003034  28.3087605  54.9102499  86.5446261  26.7638562
  52.0033743  89.0045192  22.7312713  52.4012993  89.9923317  23.3364656
  52.1726751  88.8341683  21.4274435  51.8472514  87.9757423  21.0063692
  52.8442790  89.8249995  20.5656717  53.8339897  90.0485292  20.9639260
  53.0009287  89.2823638  19.1388847  52.0160723  89.2097143  18.6774964
  53.6208835  89.9705737  18.5643211  53.6108865  87.9986212  19.1576004
  53.7013094  87.6741840  18.2586209  52.0922729  91.1220786  20.5099774
  52.6837221  92.1855867  20.3565094  50.7873505  91.0297738  20.6338334
  50.3719997  90.1358223  20.8539099  49.9074063  92.1536852  20.3865411
  50.4723608  93.0592827  20.1655916  49.0459799  91.7995247  19.1600742
  49.4555476  92.2993408  18.2822716  49.0713573  90.7204792  19.0080322
  47.7220503  92.2119719  19.3564989  47.1982496  91.9846832  18.5847655
  49.0946054  92.4222684  21.6870471  49.2955263  91.7092734  22.6953263
  48.1900311  93.3956782  21.7460270  48.0796970  94.1396736  21.0719376
  47.5883701  93.5631762  23.0678112  48.3035943  93.1877928  23.7996860
  47.2095384  95.0183447  23.4464365  46.9043346  95.5262989  22.5315964
  46.3723888  94.9931946  24.1440381  48.4095316  95.7910374  24.0977831
  48.5066151  97.0423190  23.9159480  49.2695875  95.1366106  24.7836079
  46.5321599  92.5219139  23.3889762  46.2460301  92.2569752  24.5636532
  45.9616749  91.9081401  22.3710614  46.1137062  92.1601355  21.4048916
  45.1187254  90.7637916  22.6586092  44.6884080  90.8978841  23.6510533
  43.9839212  90.5741136  21.6567711  44.3885464  90.6296593  20.6461810
  43.5549901  89.5857786  21.8220345  42.8781926  91.6148179  21.7968274
  42.0961647  91.8251933  20.8478297  42.7855391  92.2634410  22.9742791
  42.0669527  92.9604321  23.1082069  43.4350970  92.0496825  23.7175709
  46.0492939  89.6164981  22.5312277  46.6380262  89.4636654  21.4825493
  46.2017549  88.8435628  23.6141246  45.7885336  89.1656685  24.4776032
  46.9245443  87.5689747  23.6229302  47.8627893  87.5868192  23.0684240
  47.1877500  87.1034100  25.0530848  46.2430393  87.0472542  25.5938884
  47.8488882  85.7213091  25.0358114  48.7939446  85.7767731  24.4955404
  48.0344585  85.3939299  26.0587910  47.1892660  85.0085979  24.5407957
  47.9845247  88.1786538  25.8183468  48.9003356  88.3590392  25.2554503
  47.3772389  89.0837959  25.8229354  48.3415917  87.7902165  27.2727792
  48.9493052  86.8853576  27.2689740  48.9011752  88.6011306  27.7390238
  47.4262079  87.6101120  27.8364587  46.0963083  86.5089540  22.9087803
  44.9109807  86.4428921  23.0963418  46.7100783  85.6939758  22.0621601
  47.7133986  85.7127191  21.9477202  45.9404580  84.7196581  21.2846683
  44.8707801  84.8616191  21.4387315  46.2577769  84.8133369  19.7871193
  47.3407523  84.8002502  19.6642639  45.6308990  83.6316070  18.9896580
  44.5478227  83.6443107  19.1116620  45.8782099  83.7339453  17.9330290
  46.0272881  82.6882980  19.3653482  45.7657673  86.1433511  19.2472038
  44.7337302  86.0290614  18.9156348  45.8107148  86.8855939  20.0441699
  46.6178028  86.5974393  18.0894450  46.5729832  85.8558720  17.2918430
  46.2473990  87.5528371  17.7178062  47.6499688  86.7124022  18.4203780
  46.3526160  83.3794358  21.7946918  47.5340674  83.0926515  21.8971881
  45.3952366  82.5557966  22.1607084  44.4114947  82.7717226  22.0850305
  45.7757991  81.2642017  22.6955735  46.8552882  81.2115284  22.8370943
  45.0595199  80.9454474  24.0423852  43.9845756  80.8942381  23.8692590
  45.5440760  79.6238837  24.5995932  46.6189353  79.6744811  24.7734266
  45.0337881  79.4165715  25.5401933  45.3288874  78.8277070  23.8869251
  45.2823523  82.0813559  25.0452328  44.8560043  82.9879053  24.6157024
  44.7446487  81.8247081  25.9579794  46.7478528  82.3160251  25.3701708
  47.2861547  82.5731926  24.4579231  46.8354861  83.1334831  26.0858398
  47.1747998  81.4099940  25.8001983  45.3756099  80.3027190  21.6723748
  44.3078737  80.4626232  21.1091483  46.2074859  79.2994422  21.4046081
  47.1783507  79.2867551  21.6827448  45.7196246  78.2254582  20.5137917
  44.6583584  78.3828255  20.3213112  46.4641424  78.1960011  19.1681396
  46.3390414  79.1732901  18.7019260  47.5199574  78.0277429  19.3803754
  45.9555518  77.1090796  18.2181547  45.9059160  76.1687108  18.7671024
  44.9574139  77.3826535  17.8761355  46.8565497  76.9505211  17.0429398
  47.6114384  77.9137294  16.7973390  46.8289861  75.8944270  16.3567572
  45.7086788  76.8537213  21.1489389  46.6398179  76.4664375  21.8338566
  44.6450879  76.1197465  20.9056564  43.8823608  76.4614430  20.3385671
  44.5504880  74.8032294  21.4428915  45.2353968  74.7298765  22.2876510
  43.1456686  74.5297307  21.9342231  43.1232843  73.5431034  22.3970035
  42.7025783  75.5879566  22.9609544  42.7242639  76.5748608  22.4987322
  41.6895480  75.3669584  23.2971515  43.3797803  75.5723193  23.8149179
  42.2660139  74.6086962  20.8200000  41.3667671  74.4380222  21.1095268
  44.8977065  73.7962422  20.3567953  45.0355391  74.1456234  19.1851879
  44.9800461  72.5311223  20.7505286  44.7582814  72.3095315  21.7106418
  45.4118647  71.4813858  19.9008818  46.3771839  71.7177911  19.4532540
  45.5581462  70.2241691  20.7295300  46.3006993  70.5401452  21.4622464
  44.6001550  70.0713981  21.2265349  46.0075114  68.9199149  20.0812755
  45.3592909  68.7422135  19.2231769  47.4590516  68.9346988  19.6254802
  48.1079514  69.1119002  20.4831675  47.7084744  67.9744235  19.1740819
  47.6020952  69.7283801  18.8921938  45.7700116  67.7602294  21.0547427
  44.7089233  67.6997714  21.2966849  46.0906940  66.8262820  20.5932168
  46.3412664  67.9286916  21.9676433  44.4631477  71.2313264  18.7306048
  44.8980860  70.7699933  17.6875758  43.1798043  71.5400690  18.9061459
  42.8592885  71.8320062  19.8183639  42.1634404  71.3697999  17.8161648
  42.5040281  70.5931161  17.1314302  40.7714455  70.9644558  18.3736955
  40.1255843  70.6622809  17.5492848  40.9334564  70.1153617  19.0376922
  40.0489127  72.1113771  19.1873095  38.8525249  71.9737449  19.5427678
  40.7629690  73.1944727  19.5023848  40.3322344  73.9460685  20.0216837
  41.7306551  73.2573343  19.2200147  42.0465985  72.6360736  16.9370262
  41.0280151  72.8726282  16.2906208  43.0748060  73.4620110  17.0204215
  43.7221634  73.2645876  17.7701226  43.1880335  74.7383167  16.3287646
  44.0291232  75.2958060  16.7409212  43.4163730  74.5490692  14.8161036
  42.5588683  74.2135626  14.2328196  43.7475673  75.5203113  14.4485450
  44.5221459  73.5888390  14.5395887  44.2909819  72.3074499  14.1052672
  45.4411644  71.6600796  13.9920114  45.4758640  70.6327192  13.6294848
  46.4051778  72.4747084  14.3806873  47.3909917  72.2566235  14.4073289
  45.8530644  73.6812178  14.7483108  46.4914831  74.4808223  15.1240174
  42.1881183  75.8007528  16.6397633  42.1106589  76.7641941  15.8884040
  41.4934673  75.6989938  17.7662769  41.3787063  74.8125138  18.2364710
  40.7160150  76.8609516  18.2579954  40.2372169  77.3548372  17.4124609
  39.6628970  76.4502797  19.2280634  40.1198962  75.8835866  20.0393031
  39.1789455  77.3386865  19.6338027  38.6292953  75.5866874  18.5275831
  38.2621824  76.1348503  17.6599159  39.1308835  74.6773056  18.1966252
  37.4729168  75.2251930  19.4175458  37.3766873  74.0438508  19.8094327
  36.6623042  76.1191789  19.7329083  41.5417893  78.0109018  18.8056982
  42.6453594  77.8003530  19.2629292  41.0279989  79.2387973  18.7039829
  40.1394800  79.3549174  18.2379898  41.7335060  80.4232432  19.1395615
  42.6005725  80.1226531  19.7277286  42.2131819  81.2768259  17.9615438
  41.3119805  81.6771254  17.4971134  42.8837717  82.0967972  18.2185580
  42.9053323  80.4714589  16.9220657  44.2823383  80.3674771  16.8570790
  44.6120958  79.5341864  15.8840962  45.6578401  79.3284542  15.6556406
  43.4958383  79.0772208  15.3347041  43.4413161  78.4172582  14.5720924
  42.4158842  79.6423141  15.9653915  41.4046117  79.3823900  15.6525518
  40.8711924  81.2174415  20.0859980  39.6648272  81.3805902  19.9103544
  41.5139736  81.5999928  21.1574512  42.4835008  81.3391109  21.2672553
  40.8984737  82.3905047  22.1915425  39.8808054  82.6522550  21.9018233
  40.8462387  81.5999708  23.5084133  41.8943516  81.3795009  23.7107783
  40.4189061  82.1385492  24.3542385  40.0933898  80.3118194  23.3016904
  40.7724629  79.1748291  22.8902227  41.8526419  79.2118609  22.7490080
  40.1128602  78.0453165  22.6686047  40.6590948  77.1340675  22.4249762
  38.7624880  78.0107262  22.8082201  38.1656970  76.8185162  22.5179018
  38.7907964  76.1424491  22.2462703  38.0369534  79.1178724  23.1532373
  36.9523262  79.0715376  23.2508960  38.6794585  80.2703788  23.3718629
  38.1149632  81.1736811  23.6031423  41.7823981  83.5910199  22.3143303
  42.9557612  83.5576285  21.9716305  41.1865935  84.6670834  22.7509826
  40.2017544  84.6779039  22.9747549  41.9409899  85.8546559  22.9676798
  43.0084855  85.6770052  22.8373245  41.4944523  86.8562701  21.9476792
  40.4086609  86.8042398  21.8673724  41.7857394  87.8490958  22.2905336
  42.1069050  86.5919178  20.6073269  43.1835989  86.4971847  20.7482408
  41.7066619  85.6520256  20.2271858  41.8240975  87.6976301  19.6154699
  41.7547448  88.9113325  20.0126130  41.6689608  87.3027160  18.4411478
  41.6033265  86.3502821  24.3533551  40.5029772  86.1006309  24.8793168
  42.5455045  87.0579526  24.9588930  43.3828026  87.3546373  24.4782586
  42.3842800  87.4278832  26.3359105  41.3664819  87.7773518  26.5092828
  42.6502921  86.2217899  27.2462348  42.4826445  86.4971399  28.2874725
  41.9877402  85.3991097  26.9773069  44.3311688  85.5584230  27.1672542
  44.1388646  84.5864496  28.0544886  43.3902277  88.4952091  26.5416253
  44.1694459  88.7519044  25.6372313  43.3349195  89.1442812  27.7119963
  42.5924804  88.9343041  28.3637579  44.3176079  90.1420581  28.0876316
  44.7455171  90.5826813  27.1871628  43.7045078  91.2360341  28.9121215
  43.0126182  90.7795403  29.6199361  44.5037955  91.7372974  29.4579916
  42.9689599  92.2387052  28.0691292  43.2476007  93.2367246  28.4073856
  43.2814250  92.1062848  27.0333047  41.4027544  92.0666116  28.1721548
  40.9740159  92.5038112  27.2704127  41.2000730  90.9957369  28.1878787
  40.7575680  92.7410545  29.4397321  40.1329979  91.9894301  29.9225091
  41.5728968  93.0187611  30.1077270  39.9215612  93.9669437  29.1261524
  39.1657487  93.7097457  28.5075277  39.5419986  94.3437360  29.9829253
  40.5002137  94.6637055  28.6791812  45.4166234  89.5492574  28.9002338
  46.4912519  90.1297120  28.9260588  45.1574848  88.4166454  29.5807969
  44.3079206  87.9068863  29.3846195  46.1158315  87.8378519  30.5518576
  47.1212070  88.1764808  30.3015582  45.8054693  88.2519415  31.9824376
  44.7647036  87.9914733  32.1749534  46.4539923  87.6479171  32.6170024
  46.0192759  89.6906095  32.2834959  44.9617085  90.5937002  32.2074411
  43.9778197  90.2241755  31.9184539  45.1428266  91.9508378  32.4931942
  44.3197471  92.6609741  32.4135168  46.4250309  92.3986914  32.8571824
  46.6250565  93.7161762  33.1606317  45.8249905  94.2423821  33.0927983
  47.4991743  91.4994144  32.9443587  48.4963199  91.8365762  33.2274188
  47.2729006  90.1540167  32.6612787  48.0904495  89.4367848  32.7340277
  45.9514513  86.3787268  30.5059532  44.8637806  85.8880776  30.2020834
  47.0342547  85.6850542  30.8382680  47.8675473  86.1766873  31.1281293
  47.0482079  84.2596619  30.8607251  46.0511794  83.8307676  30.7603110
  47.9468144  83.7164815  29.6965230  48.9495114  84.1227516  29.8293478
  48.0158305  82.1784164  29.6707836  47.0134933  81.7714020  29.5375153
  48.6508520  81.8564549  28.8454419  48.4320696  81.8170894  30.6111503
  47.4558125  84.2206828  28.3666785  47.4869785  85.3101913  28.3565893
  48.0931509  83.8321147  27.5723774  46.4310922  83.8855330  28.2062924
  47.6798020  83.9499045  32.1762714  48.6888470  84.6061695  32.5651730
  47.0855074  82.9780174  32.8728936  46.1608626  82.6975791  32.5788092
  47.6834728  82.2936972  33.9897195  48.6082113  82.7669924  34.3197948
  46.6936342  82.2383410  35.1573312  45.8089961  81.6926361  34.8291207
  47.2817448  81.5601494  36.3598444  48.1662206  82.1055847  36.6889396
  46.5460736  81.5428890  37.1639530  47.5607341  80.5386579  36.1013503
  46.1961512  83.6374882  35.5284413  47.0728351  84.2255255  35.7999891
  45.7384616  84.0603132  34.6341043  45.1657692  83.6656675  36.7037378
  45.6229245  83.2433953  37.5986094  44.8663674  84.6950998  36.9005294
  44.2885514  83.0781806  36.4327252  47.9972893  80.8484658  33.4844755
  47.1006434  80.1246808  33.1255489  49.2767149  80.4874027  33.4141779
  49.9484496  81.2284907  33.5543930  49.7656096  79.1673137  33.1702842
  49.1728615  78.6912886  32.3891640  51.2238102  79.2156104  32.7157288
  51.2867673  79.7908441  31.7920180  51.7983841  79.7164481  33.4949120
  51.8244321  77.8482637  32.4755426  51.9567028  77.4332283  31.3327499
  52.2054896  77.1450330  33.5435083  52.6107543  76.2279055  33.4221097
  52.0869281  77.5330607  34.4684291  49.6628843  78.3828005  34.4787002
  50.2664598  78.7568193  35.4760109  48.8294174  77.3372316  34.5053234
  48.3084948  77.0312601  33.6959284  48.6084869  76.6416285  35.7787891
  49.2723368  77.0178842  36.5571426  47.1721622  76.8551806  36.2212750
  46.4953596  76.4750713  35.4560592  46.9968920  76.3241383  37.1568896
  46.9914373  77.9198877  36.3690472  48.9550589  75.1261870  35.5935352
  48.2126628  74.2354123  36.0620067  50.0734423  74.8462959  34.8839306
  50.6763910  75.5891239  34.5602661  50.4308876  73.4694741  34.5511356
  49.8387747  72.7385207  35.1017794  50.3305316  73.1768711  33.0335869
  50.6427995  72.1481876  32.8535888  48.9415418  73.3636315  32.5482890
  48.6287119  74.3922755  32.7275359  48.8978620  73.1520612  31.4799114
  48.2757874  72.6840103  33.0802526  51.3405033  74.0025288  32.2482541
  51.2176148  75.0392049  32.5617855  52.3316483  73.6516237  32.5356505
  51.1821768  73.9049519  30.6800965  50.1913733  74.2561477  30.3918781
  51.9403106  74.5226922  30.1987140  51.3054047  72.8685654  30.3657433
  51.8592617  73.2846785  35.0346955  52.5424332  74.2660394  35.1401732
  52.3299782  72.0536269  35.2643627  51.7261373  70.6943417  35.1547768
  51.3581837  70.5579039  34.1378721  50.8929985  70.6260740  35.8542896
  52.8714894  69.7204540  35.5065898  53.2786809  69.2850359  34.5940630
  52.4950645  68.9260528  36.1510526  53.9360870  70.5825594  36.2501288
  54.9373732  70.2406146  35.9882150  53.8073909  70.5340266  37.3314157
  53.7311082  72.0360574  35.7586085  53.7983801  72.7498797  36.5796021
  54.7527117  72.3949611  34.6907862  54.4312149  72.3242366  33.5314101
  56.0158089  72.7278689  35.0954241  56.4086748  72.7302134  36.5082496
  56.3099934  71.7192976  36.9037386  55.7476774  73.4007639  37.0573793
  57.7979953  73.1982577  36.4995791  58.3604047  72.6200356  37.2326915
  57.8085454  74.2509038  36.7822915  58.3455979  73.0101306  35.1176191
  58.7876365  72.0248584  34.9694985  59.0840271  73.7776531  34.8858191
  57.1398368  73.1702837  34.2261091  56.9188619  74.2049718  33.9640236
  57.3878390  72.3699498  32.9595979  57.6563530  72.9498937  31.8943166
  57.3895023  71.0604504  33.1401018  57.3020356  70.7164215  34.0856668
  57.5801232  70.1119244  32.0893254  58.5421009  70.2934738  31.6100157
  57.5844032  68.6643015  32.6879693  58.3129032  68.6399092  33.4983969
  56.2280912  68.2460013  33.2160914  55.4991118  68.2697025  32.4060748
  56.2903885  67.2349871  33.6186686  55.9171820  68.9318177  34.0041852
  57.9378766  67.7638274  31.6557417  57.9466744  66.8682806  32.0014567
  56.5275177  70.2102865  30.9483856  56.8532987  69.9776331  29.7685310
  55.2657127  70.5337103  31.3058239  55.0160784  70.5249806  32.2844484
  54.2266494  70.8247528  30.3322785  54.3437735  70.2041677  29.4438781
  52.8731301  70.5196623  30.9647881  52.6867418  71.2604611  31.7423328
  52.0872392  70.5784477  30.2117810  52.8812242  69.1238587  31.5835867
  53.4643022  69.1334723  32.5044714  51.4823903  68.7188914  31.8870110
  50.8987707  68.7085969  30.9664780  51.4798220  67.7227012  32.3293901
  51.0421252  69.4282156  32.5878149  53.4991199  68.0846117  30.6977557
  54.5336922  68.3550386  30.4865002  53.4720940  67.1168717  31.1986052
  52.9415642  68.0250804  29.7630436  54.3354448  72.2982884  29.8517679
  54.0941352  72.6214049  28.6756508  54.7278536  73.1985776  30.7399451
  54.7733715  73.0018262  31.7295492  54.9613483  74.5758607  30.2934278
  54.0446362  74.9716822  29.8563197  55.3720061  75.4788936  31.4860609
  56.3501268  75.1508812  31.8378963  55.4395366  76.9542895  31.0978853
  54.4615943  77.2831662  30.7463622  55.7309203  77.5458906  31.9657580
  56.1743647  77.0884048  30.3040708  54.3860147  75.3275510  32.5207146
  54.6214216  75.8792792  33.2702345  55.9681332  74.5621939  29.1308813
  55.7948188  75.2517636  28.1187115  56.9590969  73.6852782  29.2709736
  56.9989878  73.1577618  30.1313424  58.0272626  73.5448930  28.3446173
  58.4464999  74.5462655  28.2466760  59.0788302  72.6400905  28.8685371
  58.6767210  71.6314340  28.9635130  59.9253512  72.6300440  28.1819502
  59.4084749  72.9927689  29.8458045  57.5670686  73.1164519  26.9520271
  58.3416126  73.2261609  25.9775033  56.3149502  72.7183946  26.7967664
  55.6323681  72.6371555  27.5367537  55.9233506  72.3401956  25.4601362
  56.8151192  72.2283309  24.8434238  55.1599134  71.0314423  25.4493456
  54.1391950  71.2576652  25.7576577  55.1572028  70.6748629  24.4193243
  55.7218444  69.9826183  26.3335095  56.7564742  69.7493340  26.0820729
  55.6578094  70.2597099  27.3857556  54.8243797  68.7257855  26.0692156
  53.7908047  69.0554422  25.9636310  55.1520102  68.2562940  25.1416728
  54.9194601  67.7491452  27.1762113  55.7524766  68.0233018  27.8235306
  53.9927386  67.7683273  27.7497255  55.1386855  66.3909459  26.6413880
  55.9975795  66.3728496  26.1102821  55.2017779  65.7341524  27.4060719
  54.3666955  66.1365457  26.0418791  55.0623808  73.3885165  24.7909410
  54.8622181  73.3587826  23.6075067  54.4878339  74.2877031  25.5502258
  54.4250166  74.1955308  26.5540473  53.7801151  75.3709285  24.9185781
  53.0657337  75.0502408  24.1603448  53.0610192  76.2146098  25.9713212
  53.7636984  76.4771495  26.7621532  52.5286337  77.4525893  25.3525744
  51.8254793  77.1908437  24.5619015  52.0180144  78.0473615  26.1099479
  53.3505112  78.0308538  24.9304055  51.9740380  75.3248205  26.6801446
  51.3505380  74.9010213  25.8929072  52.5067939  74.5233903  27.1919846
  51.0907151  76.0725614  27.6837154  50.5572499  76.8739065  27.1724808
  50.3719564  75.3803245  28.1222278  51.7135067  76.4962776  28.4715575
  54.7619013  76.1498503  24.0090224  55.9492797  76.2631127  24.3154538
  54.2619148  76.5753190  22.8440096  53.3249049  76.2927510  22.5944762
  54.9826427  77.4404805  21.9349415  56.0533641  77.2591688  22.0286490
  54.5606677  77.1721548  20.4645608  53.4728735  77.2374451  20.4413197
  54.9814811  77.8677663  19.7385162  54.9150901  75.8041783  19.9984555
  56.2032516  75.4487896  19.6722195  56.2295521  74.1635106  19.3440061
  57.1612841  73.6909991  19.0330280  55.0078509  73.6721229  19.4727635
  54.7295147  72.7174155  19.2962342  54.1662882  74.6733932  19.8887298
  53.1111894  74.4616604  20.0620412  54.6129320  78.8439890  22.3099547
  53.5200934  79.2841618  22.0206303  55.5134360  79.5391479  22.9742526
  56.4121142  79.1527451  23.2255884  55.2162303  80.9043117  23.3695318
  54.1405777  81.0469024  23.4731590  55.8723553  81.1847152  24.7050091
  56.9011693  80.8253657  24.6824487  55.8659346  82.2533734  24.9195517
  55.2129585  80.5152417  25.8580235  55.7043325  79.3097266  26.3349742
  56.5772405  78.8604281  25.8614108  55.0924454  78.6746642  27.4084354
  55.4836449  77.7259336  27.7758234  53.9553520  79.2627136  28.0280268
  53.4912811  78.7693576  28.8820397  53.4379057  80.4545338  27.5523714
  52.5539759  80.9061029  28.0027642  54.0781274  81.0883568  26.4602123
  53.6925338  82.0325648  26.0756492  55.7277490  81.9263123  22.3526304
  56.8570648  81.7831390  21.8594853  54.9211890  82.9370993  22.0281913
  53.9430168  82.7524576  21.8573524  55.5056866  84.1456814  21.4605709
  56.4967755  84.2668990  21.8977761  55.6400684  84.1457886  19.9390353
  56.2087616  85.0382310  19.6778193  56.2172152  83.2586066  19.6784401
  54.4289278  84.1397881  19.2314765  53.7808714  83.3535238  19.6186616
  53.9341231  85.1047588  19.3414854  54.7120159  83.8844716  17.7748734
  55.6258103  83.2981453  17.6784358  53.8804887  83.3357501  17.3326441
  54.8836093  85.1452176  17.0458896  55.5646380  85.8114877  17.3811260
  54.1750600  85.4530780  15.9739993  53.2532694  84.5828355  15.5252789
  53.1120619  83.7074333  16.0088401  52.7063428  84.8085827  14.7067380
  54.3877699  86.6065478  15.3460416  55.0911599  87.2437954  15.6913793
  53.8448806  86.8396570  14.5268774  55.1593248  85.5067358  22.0543363
  54.0659122  85.7617249  22.4713621  56.1610338  86.3625279  22.1740017
  55.9623524  87.7715237  22.5724005  55.3316014  87.8083251  23.4606004
  55.4755160  88.3097432  21.7591299  57.3607919  88.2688536  22.8345680
  57.4569567  88.4220268  23.9094583  57.4703240  89.2238945  22.3207577
  58.3982972  87.2367929  22.3136233  59.0859620  87.0000318  23.1255102
  58.9627495  87.5965113  21.4533351  57.5883780  85.9741446  21.9241696
  57.6798516  85.6967674  20.8740302  58.0531073  84.7927126  22.8119257
  57.4142516  84.5118898  23.8507751  59.1676157  84.1514612  22.4305431
  59.5109988  84.3119183  21.4943589  59.8405708  83.1537809  23.2514618
  59.2287209  82.2541259  23.3174900  61.1987174  82.7803232  22.6328073
  61.6950580  83.7009462  22.3258894  61.7946822  82.2850014  23.3993464
  61.0484202  81.8384770  21.4044127  60.3131162  81.0783025  21.6681617
  60.6615433  82.4501444  20.5893737  62.3695364  81.1478965  20.9529312
  63.4623571  81.4402520  21.5383132  62.3215584  80.2975742  20.0102779
  59.9769235  83.6164107  24.7119041  59.9891102  84.7983644  24.9686430
  59.9522492  82.6816175  25.6674349  59.8114399  81.7097030  25.4315235
  60.1538083  83.0342037  27.0823631  59.5126681  83.8801783  27.3300835
  59.8183528  81.8729642  28.0247777  60.5181567  81.1215514  27.6590557
  60.0875710  82.1545102  29.0427922  58.3981168  81.2966074  28.0130852
  58.2223586  80.8079907  27.0547201  58.2219421  80.2867061  29.1364622
  58.3970996  80.7747303  30.0952380  57.2075758  79.8885066  29.1119877
  58.9347053  79.4720397  29.0084481  57.3440422  82.4093660  28.0500977
  57.4635730  83.0529074  27.1785093  56.3477681  81.9672661  28.0407759
  57.4703408  83.0001498  28.9573585  61.6054325  83.3774598  27.2616291
  62.4643458  82.9210581  26.4830732  61.9173491  84.1597841  28.3017742
  61.1192740  84.9092859  29.2966426  60.8239632  84.2507603  30.1134876
  60.2285526  85.3255323  28.8260541  62.0425185  85.9246460  29.7139342
  61.7725216  86.3231867  30.6918739  62.0847135  86.7381347  28.9896711
  63.3933428  85.1583893  29.7667112  63.4881820  84.4919197  30.6239876
  64.2407969  85.8435306  29.7442959  63.3496134  84.3499757  28.4895514
  63.6956428  84.9830240  27.6724763  64.1802038  83.0306513  28.5114574
  63.6799057  81.9190234  28.8814941  65.4113344  83.1182044  27.9954189
  65.7216534  83.9601817  27.5318719  66.2694605  81.9254158  27.9230036
  65.6758030  81.2390631  27.3191908  67.5372999  82.2207518  27.1998087
  68.1466613  82.8998176  27.7961713  68.0852966  81.2934752  27.0326020
  67.3092542  82.6854411  26.2405600  66.5274804  81.2132817  29.2860193
  66.6616973  79.9830900  29.2998504  66.5652682  81.9551703  30.4010800
  66.4015590  82.9478952  30.3127846  66.6971719  81.3896473  31.7468657
  67.6484907  80.8653418  31.8373935  66.6501724  82.4953618  32.7908851
  66.1590903  83.3300584  32.2906659  65.9999797  82.1095999  33.5760839
  67.9355453  82.9626933  33.3937049  68.6493294  82.1423905  33.4693126
  68.3419369  83.7386170  32.7449465  67.6762774  83.5502317  34.7984411
  66.6765310  84.2987500  34.9683987  68.4498058  83.2335971  35.7390883
  65.4739656  80.5392824  32.0605772  65.5788392  79.4512496  32.5891935
  64.3153267  81.0894284  31.7307282  64.3197304  82.0241390  31.3481109
  63.0523152  80.4573848  31.9634441  63.0042124  80.1035662  32.9932973
  61.9138274  81.4272892  31.7316144  62.1153631  82.3302374  32.3079538
  61.8886819  81.6726187  30.6698794  60.5740674  80.8498639  32.1488256
  59.7787657  81.5546273  31.9061229  60.3993437  79.9107553  31.6238030
  60.5863317  80.6057251  33.5973372  61.0673636  79.6430428  33.7703983
  61.1753209  81.3948533  34.0647428  59.2632455  80.5841225  34.2111802
  58.8221762  79.6870684  34.3555797  58.6247534  81.6740229  34.6104119
  57.4334409  81.5361586  35.2037634  57.0427947  80.6143653  35.3371527
  56.9302698  82.3545147  35.5155514  59.1908673  82.8972160  34.4402164
  60.1005850  82.9735530  34.0081441  58.6994768  83.7247479  34.7465252
  62.8592761  79.2196224  31.1218669  62.4309588  78.1953210  31.6112929
  63.2084027  79.2965297  29.8664335  63.4731600  80.1715021  29.4369848
  63.1122484  78.1364533  29.0371531  62.1086007  77.7142806  29.0877560
  63.4032662  78.5266103  27.5963661  62.7672887  79.3697712  27.3267154
  64.4496888  78.8192744  27.5100669  63.1438135  77.4200629  26.6547546
  61.9908765  76.9321950  26.5125745  64.2195194  76.9796201  25.9772247
  64.1204317  76.2241132  25.3142837  65.1212427  77.4064928  26.1346276
  64.0274067  77.0247037  29.5513050  63.6191546  75.8405288  29.5988986
  65.2386892  77.3866018  30.0015588  65.5688265  78.3369319  29.9122206
  66.1245464  76.3997233  30.6200545  66.2898263  75.5688276  29.9342017
  67.4755191  77.0334658  30.9544753  67.2833937  78.0095798  31.3998835
  67.9713894  76.3930665  31.6839282  68.3698547  77.1999318  29.7356410
  68.0542058  78.0301031  29.1037531  69.3782790  77.3876360  30.1043544
  68.3871396  75.9282267  28.8962314  68.7417641  74.8416845  29.3777710
  67.9397648  76.0492883  27.6546856  67.9247026  75.2436190  27.0457755
  67.6159292  76.9466634  27.3230989  65.4935840  75.8519259  31.8955899
  65.4034091  74.6234976  32.0952575  65.0396958  76.7588305  32.7603017
  65.1404996  77.7492661  32.5900803  64.4377371  76.3307535  34.0194414
  65.2132496  75.8874813  34.6440927  63.7852380  77.4947376  34.7949355
  64.6207614  78.1639363  35.0002960  63.0679642  77.9982321  34.1467753
  63.1048056  77.1136354  36.1068222  62.3343636  76.3782983  35.8748754
  64.0657385  76.5341414  37.1426040  64.8362520  77.2691279  37.3754183
  63.5156735  76.2852645  38.0501224  64.5321507  75.6338183  36.7426311
  62.4078908  78.2340424  36.6832829  61.6451913  78.5849121  35.9880999
  61.9349726  77.9274545  37.6162639  63.1151953  79.0391127  36.8824844
  63.4161658  75.2455566  33.7225644  63.5800945  74.1362183  34.1654335
  62.3841930  75.5772156  32.9567737  62.3796496  76.4629076  32.4713580
  61.1622919  74.7007598  32.8556954  60.8723830  74.3321645  33.8396616
  59.9640261  75.4401012  32.2076660  59.0934827  74.7842139  32.1995076
  59.6494092  76.6828708  33.0027420  60.5193882  77.3395058  33.0109637
  58.8067384  77.2027692  32.5469873  59.3944472  76.4056003  34.0255883
  60.2925007  75.7632051  30.7424072  61.2203982  76.3351010  30.7488917
  60.4577075  74.8093355  30.2414691  59.2336650  76.5360876  30.0099370
  59.0682256  77.4903468  30.5100560  59.5575718  76.7151377  28.9846933
  58.3055337  75.9645818  30.0026355  61.3404815  73.3955569  32.1154252
  60.4902507  72.5054553  32.1876325  62.4032151  73.3023767  31.3448931
  62.9942545  74.1060715  31.1872660  62.7968623  72.0119767  30.7368079
  61.9004182  71.4258194  30.5345535  63.5550985  72.2044613  29.4345109
  64.5653720  72.5041945  29.7130907  63.5862508  71.2265037  28.9541688
  62.9770896  73.2158810  28.4774400  62.0342538  72.8053451  28.1160238
  62.8051313  74.2092486  28.8918713  63.9181766  73.3362392  27.3245934
  64.1238918  72.3601586  26.6221371  64.5852597  74.4969429  27.1727088
  65.2289485  74.6088643  26.4024882  64.4386102  75.2498571  27.8297595
  63.7250008  71.2526893  31.6086998  64.0999533  70.1250371  31.2719071
  64.2113458  71.8579705  32.6798531  64.1649281  72.8556345  32.8302232
  65.1135949  71.0603998  33.5391701  65.2822592  70.0845430  33.0838077
  66.4665804  71.7595408  33.7146412  66.2882221  72.7467777  34.1408464
  67.0689209  71.1695539  34.4054388  67.2196929  71.9067226  32.3698776
  67.6901578  70.9592923  32.1069342  66.5187458  72.1936163  31.5859981
  68.2664847  72.9591232  32.5095849  67.7905806  73.9108571  32.7458406
  68.9477234  72.6843406  33.3148847  69.0380720  73.1141715  31.2747659
  68.7414982  73.8166228  30.6124174  70.1089100  72.3719250  30.9800659
  70.7473544  72.5556505  29.8474457  70.4264400  73.2603114  29.1989343
  71.5563745  71.9914517  29.6300387  70.5437678  71.4368733  31.8186857
  70.0607584  71.2820602  32.6920899  71.3552137  70.8854693  31.5786691
  64.5183477  70.5259078  34.8358570  65.2010165  69.9282967  35.6260457
  63.2333151  70.7552879  35.0508409  62.7076596  71.3106925  34.3910596
  62.5341947  70.2563785  36.2703900  63.2630883  70.0061585  37.0412359
  61.5973410  71.3300582  36.8154203  60.8650957  71.5569700  36.0405480
  61.0884400  70.9136861  37.6847615  62.3308970  72.6191941  37.2201403
  62.8508642  73.0285136  36.3540037  61.3477874  73.6132622  37.7224930
  60.8277140  73.2048093  38.5889736  61.8683796  74.5269625  38.0092615
  60.6249279  73.8384053  36.9383468  63.3568672  72.3564890  38.3231599
  64.0946916  71.6362050  37.9697403  63.8566771  73.2891373  38.5848056
  62.8516022  71.9565972  39.2023031  61.7566107  68.9697393  35.9145199
  60.6682778  69.0193774  35.2863691  62.3450284  67.8340965  36.1931114
  63.7189844  67.5346415  36.6395647  63.7728960  67.5477354  37.7281520
  64.4155939  68.2677913  36.2329623  63.9375648  66.1365860  36.0571487
  64.5943609  65.5777484  36.7237959  64.4100955  66.2335965  35.0797005
  62.5615398  65.4682276  35.9363915  62.4299692  64.8889204  36.8502796
  62.4260714  64.8181066  35.0720476  61.5489210  66.6069707  35.8944343
  61.0245905  66.7461533  34.9490222  60.5604087  66.3498210  36.9756015
  60.7393750  66.7520521  38.1395019  59.5405703  65.6004101  36.6136875
  59.3955095  65.3465640  35.6469306  58.5897335  65.1460624  37.5857470
  58.3767123  65.9156849  38.3276381  57.3231118  64.8312594  36.8437816
  57.5563517  64.0713859  36.0979327  56.6099840  64.4274181  37.5624339
  56.7282308  66.0250628  36.1691440  57.4403535  66.3425166  35.4074320
  55.8092303  65.6888550  35.6890351  56.3574001  67.4149210  37.2473489
  54.7552353  66.9577237  37.9980656  54.8649129  66.0235933  38.5489470
  54.4348732  67.7455318  38.6798479  54.0089270  66.8309566  37.2138110
  59.1101505  63.9310440  38.3159726  59.9369637  63.2089242  37.7783409
  58.5818836  63.6623948  39.5092466  57.9994396  64.3628988  39.9453113
  58.8014159  62.4110577  40.2161831  59.8638955  62.1736678  40.1624959
  58.5141193  62.5555727  41.2576606  58.0108993  61.2587467  39.6437150
  57.2951124  61.4233399  38.6762475  58.1851725  60.0704106  40.2184717
  58.7478523  60.0133541  41.0552723  57.6191835  58.8376991  39.6798876
  56.9087418  59.0481354  38.8804576  58.7264963  57.9079347  39.1257409
  59.4406971  57.6808287  39.9172205  58.2777261  56.9822584  38.7654230
  59.2416479  58.4052950  38.3039436  56.8413344  58.1275655  40.8196428
  57.4201162  57.7663441  41.8790831  55.5240600  57.9734514  40.6149915
  55.0401402  58.4516180  39.8684812  54.7422942  57.2298050  41.5694077
  55.3847543  56.4919651  42.0499661  54.1022452  58.1344865  42.6779951
  54.8925321  58.6513163  43.2224515  53.2539570  59.0705273  42.0921506
  52.4630872  58.5544137  41.5478596  52.8119975  59.6964663  42.8673748
  53.8218186  59.6944596  41.4019743  53.2934940  57.3081014  43.6828404
  53.9470664  56.5821901  44.1665736  52.8649455  57.9690778  44.4362036
  52.4921953  56.7841927  43.1617445  53.6963312  56.3573562  40.8561304
  53.0902034  56.7601164  39.8660928  53.4899378  55.1663997  41.3955452
  54.1301534  54.7512479  42.0572644  52.3143637  54.4454307  41.0522446
  51.8714126  55.0725883  40.2785735  52.6135225  53.0939228  40.4870752
  53.0867566  52.4780632  41.2518409  51.3406939  52.4424251  40.0385876
  50.8670873  53.0575155  39.2734331  51.5614373  51.4575274  39.6270666
  50.6664277  52.3376827  40.8885836  53.4066535  53.1920011  39.2117188
  52.7076533  53.3021760  38.3826464  54.0410266  54.0763703  39.2713949
  54.2810592  51.9493568  38.9823374  53.6473037  51.0645837  38.9220847
  54.8363173  52.0620171  38.0511578  54.9806758  51.8387768  39.8108351
  51.6007478  54.3183112  42.3595846  52.1871128  53.8608171  43.3721306
  50.3727950  54.8399413  42.3727348  50.0172860  55.3459757  41.5742100
  49.5425996  54.7476190  43.5488636  50.1613954  54.6091900  44.4354460
  48.7460303  56.0151424  43.7111592  49.4116520  56.8501147  43.4923712
  47.9403997  55.9914595  42.9773347  48.1645911  56.1852493  45.0884976
  47.6365631  55.2742010  45.3700619  48.9709850  56.3712009  45.7979007
  47.1778554  57.3794063  45.1042322  47.4916962  58.0989327  44.3480015
  46.1815660  57.0095978  44.8618514  47.1497991  58.0547980  46.4644942
  47.3182338  57.3228865  47.2544536  47.9145751  58.8295775  46.5186574
  45.8316982  58.6596665  46.6348025  45.1229232  57.9418469  46.5850762
  45.7849295  59.1172876  47.5339664  45.6755975  59.3382123  45.9031555
  48.6479575  53.4694541  43.3451335  48.0723861  53.2692847  42.2698476
  48.6458873  52.5797050  44.3425222  49.0588554  52.8448529  45.2252755
  47.9983061  51.2420706  44.2391829  47.4855106  51.1503939  43.2817199
  49.0490484  50.1375436  44.3379280  49.5643140  50.1369323  45.2984489
  48.6328383  49.1480395  44.1488495  50.2994475  50.3867630  43.1103968
  51.0277484  49.3225164  43.4357510  47.0714593  51.0665769  45.4153380
  47.4977723  51.2272132  46.5647931  45.8109470  50.7584013  45.1582353
  45.4481139  50.7081457  44.2169989  44.8878566  50.5302365  46.2707850
  45.3983842  50.7216467  47.2146191  43.6872115  51.4499813  46.1744229
  43.5559243  51.7173287  45.1259058  42.8145228  50.8955014  46.5194833
  43.8447551  52.7192502  47.0067584  42.9086569  53.2730918  47.0780364
  44.2142404  52.5007631  48.0086796  45.0691700  53.7281710  46.1263375
  45.8786746  54.6632250  47.4088477  46.3477928  53.9797172  48.1165512
  46.6398238  55.3053885  46.9657017  45.1443441  55.2774271  47.9300153
  44.4328614  49.0814181  46.2959981  43.9067910  48.5752551  45.3118360
  44.6525686  48.4153880  47.4131183  45.0970227  48.8444179  48.2121761
  44.2746907  47.0056601  47.5039351  44.0607282  46.6019931  46.5143028
  45.4369418  46.2182475  48.1123402  46.3615797  46.6849555  47.7727410
  45.3616104  46.3086394  49.1959705  45.4402362  44.7030307  47.7140172
  46.2420282  44.2532710  48.2996336  44.4804614  44.3140098  48.0540127
  45.6668665  44.2845404  45.9851645  47.4168379  44.3970462  45.7765012
  47.9092046  43.6920549  46.4463231  47.6763054  44.1590982  44.7449208
  47.7466749  45.4095287  46.0092839  43.0273436  46.9142029  48.3609939
  43.0452947  47.3364813  49.4874484  41.9274366  46.3872541  47.8377554
  41.9032989  46.1138556  46.8657627  40.6977145  46.2693409  48.6224095
  40.7303478  46.9600841  49.4649700  39.4799623  46.6037103  47.7642897
  39.5787572  45.9893282  46.8693744  38.5347006  46.3770513  48.2574490
  39.5078269  48.0276953  47.3874948  40.2699083  48.4535269  46.3314159
  40.8286259  47.7268924  45.7415546  40.3322891  49.7959873  46.0128652
  40.8987751  50.1363430  45.1460588  39.6458920  50.7002083  46.7812164
  39.7677864  52.0153541  46.4731561  40.3439772  52.1727257  45.7215991
  38.8921764  50.3142868  47.8355079  38.3317995  51.0355761  48.4303356
  38.8426975  48.9786787  48.1503725  38.2718429  48.6436844  49.0164002
  40.5675354  44.9164010  49.2310974  40.8918300  43.9327448  48.5972745
  40.0988415  44.8500111  50.4638579  39.9273491  45.7013749  50.9794832
  39.8052602  43.5557386  51.1259392  39.8834656  42.7371708  50.4104465
  40.8090086  43.3224800  52.2420009  40.7460031  44.2000074  52.8854876
  40.5349472  42.4344683  52.8115846  42.2032830  43.1769868  51.7359874
  43.0872843  44.2527686  51.7891291  42.7520030  45.1973548  52.2174314
  44.4103931  44.1287556  51.2937010  45.0911881  44.9772287  51.3623544
  44.8414248  42.9448141  50.7463361  46.1480419  42.8613592  50.3022214
  46.6398581  43.6761008  50.4283665  43.9624941  41.8529833  50.6271208
  44.2848604  40.9288200  50.1474307  42.6450799  41.9638313  51.1388968
  41.9629667  41.1159457  51.0763530  38.3977838  43.5852931  51.7161127
  37.7938911  44.6757589  51.7763037  37.8559942  42.4234040  52.1431956
  38.3684655  41.5609371  52.0264767  36.5343888  42.3720036  52.8253826
  35.7910719  42.8741475  52.2061647  36.0761527  40.9238212  53.0661486
  36.9851346  40.3320362  53.1740444  35.5333214  40.9306245  54.0113407
  35.1864343  40.3042187  51.9663982  34.3959510  41.0136270  51.7214966
  35.8012918  40.1272435  51.0839402  34.5421866  38.9413109  52.4411342
  34.5794549  38.2474009  51.6013730  35.1507220  38.5546175  53.2586012
  33.0678493  39.0973786  52.9204248  32.5003428  39.5448029  52.1044294
  32.6801108  38.1000186  53.1278642  32.9346324  39.9562426  54.1562836
  33.2934690  40.8805907  53.9641468  31.9613043  40.0206456  54.4181701
  33.4600759  39.5415989  54.9126425  36.6155657  43.0195650  54.1801133
  35.7186242  43.7360846  54.6118977  37.7065684  42.7257267  54.8671636
  38.4638991  42.2294531  54.4196572  37.8486466  43.0801335  56.2636605
  37.0890898  43.8114760  56.5399046  37.6773585  41.8332584  57.1516176
  38.0677146  40.9710977  56.6108772  38.2544076  41.9806553  58.0645188
  36.1856488  41.5844405  57.5160046  35.9736076  42.0969212  58.4543557
  35.6098033  42.0446673  56.7130771  35.7907470  40.0862370  57.6434717
  36.2992468  39.3921467  58.5855251  34.9432482  39.6303140  56.8126516
  39.2146611  43.6673349  56.4041491  40.1403235  43.2111992  55.7598857
  39.3149556  44.7165228  57.2105254  38.4628999  45.1090646  57.5847064
  40.5772128  45.3337375  57.5786269  41.2091790  45.5246207  56.7112853
  40.2878469  46.6246022  58.2471042  39.6632840  46.4488169  59.1229585
  41.2228325  47.0919559  58.5561071  39.7643237  47.2836751  57.5545397
  41.3520970  44.4210941  58.5223798  41.5482341  44.7293380  59.7067644
  41.8028331  43.2909069  57.9857486  41.6067725  43.0859875  57.0163841
  42.4850135  42.2721478  58.7864788  41.8223175  41.9316768  59.5820997
  42.8803287  41.0627389  57.9256849  43.3440908  40.2673071  58.5090477
  41.9789473  40.6821011  57.4453448  43.8530634  41.4084895  56.8121151
  43.3948839  41.6973858  55.5240854  42.3283805  41.6456456  55.3050114
  44.2892555  42.0480420  54.5286856  43.9199950  42.2716208  53.5278061
  45.6628146  42.1167755  54.8006508  46.3707392  42.3765344  54.0135879
  46.1153682  41.8529883  56.0741588  47.1810808  41.9223446  56.2922105
  45.2340386  41.5047652  57.0652010  45.5992337  41.2966406  58.0708931
  43.6987895  42.8724031  59.5241584  44.1462793  42.3497495  60.5404359
  44.2485266  43.9622738  59.0306211  43.9164043  44.4100414  58.1884226
  45.4519898  44.5229115  59.6992493  46.1754596  43.7212125  59.8474701
  46.1206871  45.6449768  58.8756636  46.7601167  46.2341411  59.5330177
  46.7145450  45.2476101  58.0525399  45.1211168  46.6091155  58.2639686
  44.7188143  47.8188853  58.7694583  45.1706842  48.1425314  59.7070972
  43.7827813  48.3850771  57.9336467  43.3432628  49.2835399  58.0739589
  43.5576844  47.5445621  56.8716340  42.7031709  47.6957740  55.7488447
  42.1198379  48.6126422  55.6641455  42.6633963  46.6759697  54.8361672
  42.0094896  46.7534875  53.9675494  43.4495325  45.5268856  54.9942610
  43.4135741  44.7149685  54.2679022  44.3217902  45.3859042  56.1129909
  44.9036381  44.4682949  56.1998629  44.3798846  46.4118890  57.0513625
  45.0961442  45.0362453  61.0628828  45.8769352  44.9335851  61.9847897
  43.9093923  45.6154075  61.1587223  43.4088723  45.8229501  60.3063696
  43.3650463  46.0855963  62.3976557  44.0608002  46.7817890  62.8659946
  42.0433267  46.8037497  62.1611833  41.4615175  46.2305630  61.4393425
  41.5018757  46.8535946  63.1058771  42.2642860  48.2049640  61.6319911
  42.8356299  48.7590151  62.3767691  42.8445087  48.1290323  60.7123835
  40.9773671  48.9238911  61.3530062  40.3472337  48.3171306  60.7027197
  40.4519120  49.1195843  62.2877257  41.2952074  50.2448628  60.6632363
  41.8547644  50.8561946  61.3712404  41.9240775  50.0200077  59.8018062
  40.0856080  50.9880590  60.2138439  39.5029576  51.1968892  61.0119719
  40.3662942  51.8494109  59.7673149  39.5671939  50.4219292  59.5574576
  43.2640895  44.9545768  63.4194372  43.7061153  45.1575602  64.5585562
  42.7782810  43.7546092  63.0305660  42.4136479  43.6217405  62.0981026
  42.7474505  42.6019844  63.9708827  42.0467619  42.8578261  64.7656656
  42.3270575  41.2308239  63.3581727  43.2533271  40.8253487  62.9510932
  42.0186001  40.6373984  64.2188702  41.2291368  41.1813044  62.2815335
  41.7236834  41.4136662  61.3383832  40.8754950  40.1504622  62.2614371
  40.0282566  42.1338428  62.4816061  39.4214437  41.7763655  63.3135239
  40.3975306  43.1346178  62.7056271  39.1598061  42.1782213  61.1863106
  38.1095095  42.1882293  61.4776479  39.3953703  43.0954605  60.6466061
  39.4298787  40.9580213  60.2721237  39.2112525  40.1080014  60.7718921
  38.8515775  41.0213901  59.4465014  40.4029598  40.9488010  60.0017033
  44.0988589  42.3930481  64.5823783  44.1922384  42.2152377  65.7840258
  45.1479122  42.3778029  63.7637008  45.0011343  42.4353823  62.7660835
  46.5372567  42.2287728  64.2628660  46.5767926  41.4610303  65.0355934
  47.4565574  41.8191300  63.1236330  47.3525112  42.5879754  62.3580284
  48.4689831  41.8432054  63.5267640  47.1881499  40.4550678  62.5107980
  46.6925129  39.8226421  63.2473321  46.5419621  40.5739122  61.6410742
  48.5456306  39.7827096  62.0690926  48.3544966  38.7252613  61.8864183
  48.8718099  40.2575831  61.1437810  49.6674067  39.9309362  63.1563535
  49.4598769  40.8611513  63.6852504  49.5447144  39.0902043  63.8391534
  51.0920677  39.9537295  62.6333023  51.2060863  40.7329527  62.0009173
  51.7333644  40.0517227  63.4074056  51.2847112  39.0916801  62.1435489
  47.1129293  43.4993130  64.9238438  48.3110841  43.5670108  65.2256122
  46.2701113  44.5223426  65.0891112  45.3579648  44.4730741  64.6582277
  46.6550228  45.7674371  65.7616078  45.8027121  46.4465562  65.7831202
  47.1071439  45.5031713  67.2019977  46.4352195  44.7620421  67.6348309
  48.1189902  45.0993331  67.1676202  47.0924115  46.7620680  68.0577301
  46.0635017  47.5144756  68.0292075  48.1205249  46.9887650  68.7579332
  47.6976680  46.5480836  64.9874302  48.6265267  47.1096583  65.5419818
  47.5286613  46.5598122  63.6805813  46.8152561  45.9578199  63.2948903
  48.2662258  47.4356217  62.7674946  49.0692035  47.9515731  63.2939166
  48.8799187  46.5817061  61.6558746  48.0487082  46.1132043  61.1289074
  49.3755802  47.2914301  60.9935216  49.8669438  45.5195016  62.0853068
  49.7738976  44.2396786  61.5950206  48.9732245  43.9789961  60.9028741
  50.7008738  43.2762541  61.9813523  50.6255053  42.2617619  61.5899102
  51.7290913  43.6078459  62.8847845  52.6326223  42.6588473  63.2636185
  52.4732527  41.8048774  62.8550399  51.8437237  44.8622851  63.3798357
  52.6356270  45.1391981  64.0757587  50.9105415  45.8117301  62.9740089
  50.9733302  46.8329692  63.3498123  47.2504351  48.4007225  62.1282139
  46.0928573  48.0169667  61.8955677  47.6490829  49.6330186  61.8155220
  48.5956545  49.9362347  61.9948584  46.6952395  50.6106672  61.2495494
  45.6934006  50.3523799  61.5926320  46.9967633  52.0615977  61.6609541
  46.3577325  52.7529907  61.1116684  46.8386497  52.1938135  62.7312901
  48.6589467  52.5733508  61.3440834  48.5156849  53.8095158  61.8134132
  46.6728364  50.5264913  59.7496209  45.6895927  50.9594402  59.1047634
  47.7446827  49.9679087  59.1905566  48.5370861  49.7298525  59.7698022
  47.8230514  49.6788138  57.7408102  48.1032433  48.6394913  57.5693446
  46.8688497  49.8822563  57.2547962  48.8845197  50.5814650  57.1415799
  49.1023508  50.6231186  55.9239837  49.5252439  51.3366080  58.0300683
  49.1919275  51.3828341  58.9823616  50.6260469  52.1562052  57.6609962
  50.5692244  52.4013079  56.6004327  50.6061856  53.4207744  58.4425833
  49.7785232  54.0885690  58.2035759  50.6642159  53.2871128  59.5227995
  52.0780970  54.2783565  57.9753803  51.8754669  55.3369912  58.7545671
  51.9359374  51.3615969  57.8531095  52.3901531  51.0886567  58.9876411
  52.5128431  50.9666469  56.7155419  52.0430569  51.2113777  55.8555959
  53.7521629  50.2011178  56.6330443  54.0659476  49.8878496  57.6287858
  53.5368141  48.9504148  55.7707108  53.3616308  49.2887757  54.7494753
  54.4588859  48.3703076  55.8075783  52.3664685  48.0766122  56.2258735
  52.6264796  47.6418467  57.1910025  51.4924068  48.7177079  56.3403921
  51.9832131  46.7557846  55.0662508  50.5307907  47.4670759  54.3204734
  50.7894707  48.4180409  53.8548027  50.1401474  46.7868634  53.5636315
  49.7725389  47.6322856  55.0858890  54.8054583  51.1038726  56.0224917
  54.5838966  51.6872867  54.9989564  55.9383885  51.2558113  56.6825620
  56.0470389  50.8632342  57.6067793  57.0654051  51.9830556  56.1017123
  56.7302838  52.6328596  55.2932893  57.7652631  52.8141154  57.1611533
  57.9712161  52.1859456  58.0278057  59.0300299  53.3541041  56.6351325
  58.8248300  53.9827975  55.7686810  59.5207676  53.9479654  57.4062395
  59.6821251  52.5318700  56.3405105  56.8401627  53.9280776  57.6043594
  56.6802653  54.5617010  56.7319747  55.8997438  53.4543698  57.8859847
  57.3549040  54.7907811  58.7803143  58.2951256  55.2652128  58.4992491
  56.6182649  55.5581071  59.0183747  57.5146063  54.1578807  59.6532589
  57.9806235  50.9071428  55.5638881  58.5969600  50.1775563  56.3271783
  58.0226761  50.7365929  54.2497228  57.5538372  51.3637115  53.6117482
  58.6444361  49.5311526  53.7049180  58.8635578  48.8343909  54.5139964
  57.6939140  48.8741887  52.7132788  57.3935896  49.6106258  51.9679158
  58.3741232  47.7023171  52.0222829  58.6743400  46.9651953  52.7670124
  57.6811679  47.2438310  51.3168014  59.2550171  48.0569264  51.4871404
  56.4787456  48.3835832  53.4697086  56.8238648  47.6976949  54.2433692
  56.0064093  49.2482860  53.9358490  55.5118519  47.7041105  52.6138609
  55.9833621  46.8389672  52.1477008  54.6629667  47.3755025  53.2134524
  55.1659081  48.3895583  51.8401788  60.0278386  49.7851879  53.1078674
  60.1710694  50.2737639  52.0042061  61.0435181  49.4125693  53.8568699
  60.8554701  48.8595003  54.6807946  62.4174140  49.7962684  53.5839704
  62.4611946  50.5610245  52.8085153  63.0080588  50.3581367  54.8464346
  62.4284395  51.2367683  55.1295377  62.9233903  49.6010106  55.6259802
  64.4375357  50.7398131  54.6788615  64.9877645  49.8240587  54.4626603
  64.5437380  51.4325654  53.8440474  64.9889718  51.3732117  55.9300080
  66.2212094  51.6007784  55.9909252  64.1803156  51.6013669  56.8540828
  63.1087284  48.5402089  53.0949227  63.7447999  47.8210743  53.8471544
  62.9692587  48.2784766  51.8128269  62.5617973  48.9088171  51.1369976
  63.5887361  47.0829604  51.3362665  64.5292622  46.8208553  51.8208394
  62.5311587  46.0904765  51.7650271  62.1371821  46.4532682  52.7143762
  61.7266893  46.0481979  51.0307645  63.1161441  44.6971551  51.9576246
  63.4355985  44.3327258  53.1628043  63.2971807  44.0059077  50.9034027
  63.5915102  47.1677460  49.8435573  62.5181041  47.2628883  49.2288066
  64.7898174  47.1159337  49.2639114  65.6141384  47.0836057  49.8466198
  64.9667095  47.2799711  47.8190879  64.6265395  48.2739471  47.5285792
  66.4343522  47.1225166  47.4011428  67.0120136  46.7771398  48.2585350
  66.4978202  46.3857598  46.6003548  67.0048070  48.4731442  46.9054590
  66.8383501  49.2012350  47.6993587  68.0753556  48.3638434  46.7320284
  66.3121900  48.9660417  45.5930663  65.4744130  49.9240930  45.6777023
  66.5964696  48.3738948  44.4979059  64.0657531  46.4306959  46.9329028
  63.5617680  46.9117613  45.9432468  63.8014400  45.1998409  47.3028496
  64.1768463  44.7938065  48.1480156  63.0993433  44.3425003  46.3891010
  63.1747144  44.7346629  45.3748886  63.7105660  42.9360473  46.4174392
  63.5948944  42.5579391  47.4331918  63.1631837  42.2944305  45.7269317
  65.2314565  42.9414654  46.0317923  66.0674141  42.7360304  46.9535653
  65.5937976  43.1743635  44.8217707  61.5944556  44.3533574  46.5965064
  60.8551888  43.7506516  45.8279732  61.1190808  45.0858530  47.5918928
  61.7475411  45.5223969  48.2511093  59.6673909  45.2536412  47.7932468
  59.1642359  44.2968043  47.6539725  59.3845463  45.7477877  49.1881802
  59.8743329  46.7096809  49.3397404  58.3089911  45.8631959  49.3222035
  59.7653990  45.0284886  49.9132038  59.0994410  46.2233184  46.7764233
  59.7105661  47.2662188  46.5363171  57.9575080  45.8586933  46.1322102
  57.2987556  44.5376738  46.1495197  57.4006996  44.0864881  47.1365046
  57.7557099  43.8867961  45.4041004  55.8943665  44.8744670  45.8203212
  55.3455050  45.0925244  46.7364550  55.4263610  44.0336294  45.3083991
  55.9633358  46.0692951  44.9289055  55.1145846  46.7148777  45.1546119
  55.9510420  45.8107340  43.8700880  57.2638903  46.7839341  45.2744055
  57.8839532  46.9655232  44.3965412  56.9773867  48.1020813  45.9724203
  57.3834950  49.1328468  45.4864547  56.3178422  48.0892874  47.1164480
  56.2122227  47.2273839  47.6322641  55.6980666  49.3064403  47.6590445
  55.4698144  50.0212165  46.8684149  54.3869076  48.9197442  48.4026043
  54.6002626  48.1045528  49.0940109  53.8590048  50.0631772  49.1457345
  53.6449593  50.8786650  48.4548909  52.9422790  49.7720069  49.6585057
  54.5957206  50.3923823  49.8785189  53.3410135  48.4149091  47.4085117
  53.8008144  47.6654771  46.7642791  52.5188323  47.9619247  47.9625178
  52.7996244  49.5785565  46.5413949  53.6212149  50.0317690  45.9866991
  52.0568922  49.1957413  45.8414659  52.3392345  50.3282181  47.1849386
  56.7105337  49.9412249  48.5891623  57.5300559  49.2157451  49.0759028
  56.6923124  51.2698250  48.8007438  56.0493509  51.8554115  48.2871404
  57.5724535  51.8999885  49.7753753  58.3672369  51.1996787  50.0322501
  58.2037107  53.1816947  49.2545139  57.5056287  54.0046006  49.4081588
  59.1198568  53.3740454  49.8128844  58.5029312  53.0721397  47.8904058
  58.8996642  53.8905348  47.5831077  56.8641958  52.2765138  50.9978734
  57.4468637  52.2866180  52.0685937  55.6059439  52.6440465  50.8602291
  55.1288790  52.5512777  49.9748465  54.8695853  53.2035609  51.9865122
  55.1119584  52.7123615  52.9288908  55.1288139  54.7218281  52.1156990
  56.2051954  54.8803506  52.1818353  54.5643355  55.5095372  50.9062266
  53.4878521  55.3518672  50.8397100  54.7679556  56.5723188  51.0371269
  55.0396303  55.1592151  49.9900016  54.5723154  55.2612416  53.4296607
  54.0091095  56.1535602  53.1564075  53.8853450  54.4934273  53.7855150
  55.5870605  55.6133697  54.5585098  56.2741195  56.3815093  54.2035291
  55.0475548  55.9838942  55.4301430  56.1503569  54.7213762  54.8326351
  53.4002478  52.9460091  51.7369111  52.9860621  52.9051076  50.6121235
  52.6299164  52.7522896  52.7826985  53.0022761  52.8012024  53.7202779
  51.2011672  52.5386752  52.6187544  50.8788591  52.8714692  51.6321112
  50.8343410  51.0238839  52.7808281  49.7844107  50.9066034  52.5125149
  51.7003635  50.0928855  51.8955552  52.7504546  50.2092766  52.1636249
  51.3984777  49.0573468  52.0524741  51.5622941  50.3561232  50.8468687
  51.0180509  50.6846024  54.1645071  50.8008664  49.7591579  54.2986106
  50.4235419  53.2751163  53.7366115  51.0231144  53.6521962  54.7605981
  49.0969286  53.3827673  53.5615875  48.7195483  53.0843216  52.6735484
  48.1558278  53.7963274  54.6168777  48.6220687  53.6556828  55.5920380
  47.7657930  55.2616562  54.4705751  47.4585593  55.4498269  53.4418388
  46.9234188  55.4394142  55.1390868  48.9310678  56.2135363  54.8438255
  49.8410565  55.9387155  54.3104448  48.5120776  57.5934003  54.4378398
  47.6023463  57.8691230  54.9711922  49.3044459  58.3009128  54.6821334
  48.3241602  57.6155440  53.3643888  49.1236628  56.1292157  56.3891152
  49.3631699  55.1037638  56.6705121  49.9380946  56.7878639  56.6907519
  48.2045257  56.4370006  56.8876674  46.8840255  53.0456187  54.4224316
  46.5297059  52.7470545  53.2962331  46.1782564  52.8101574  55.5181222
  46.6163962  52.8579959  56.4268820  44.7941397  52.3736123  55.4426873
  44.7480161  51.4298726  54.8992472  44.1809886  52.1698079  56.8288960
  44.6428814  51.3035347  57.3025256  44.4062298  53.0641011  57.4099348
  42.7003192  51.9743957  56.7696322  42.0100715  52.9738364  56.9432571
  42.2057256  50.8559336  56.5275726  43.9733464  53.3330538  54.6162303
  44.1569902  54.5258328  54.6796190  43.0988833  52.7720874  53.7949921
  43.1121857  51.7704929  53.6656443  42.2789016  53.5638527  52.9135985
  42.1656486  54.5647486  53.3301080  42.9027379  53.6816902  51.5175653
  43.9527810  53.9043074  51.7071709  42.8253716  52.7563308  50.9467550
  42.2752229  54.8261246  50.7202137  42.3838319  56.0231951  51.1537299
  41.5819997  54.5158049  49.6989922  40.8150894  53.0971101  52.9428428
  40.0445971  53.2652449  52.0210785  40.4316286  52.6039144  54.0923322
  41.1354974  52.5072928  54.8101987  39.0999416  52.2130169  54.3975827
  38.6916472  51.5271738  53.6552795  39.0900320  51.5282764  55.7448400
  39.5142260  52.2192561  56.4733362  37.6284674  51.1006476  56.2081558
  37.2037772  50.4092572  55.4803391  37.6832930  50.6139133  57.1819028
  36.9960616  51.9855262  56.2799429  39.9275920  50.3841911  55.6722595
  39.9324752  49.9367994  56.5216223  38.2426277  53.4479228  54.4491300
  38.7138150  54.4939455  54.8384026  36.9854105  53.2992241  54.0545634
  36.6576332  52.3936649  53.7502217  36.0948988  54.3727071  54.0148388
  36.5064784  55.2016899  53.4390880  34.8264507  53.9010158  53.3429715
  34.5487483  52.9450453  53.7869321  34.0473572  54.6356094  53.5466517
  34.9816856  53.7379762  51.8719263  35.8054221  53.0572397  51.6570845
  34.0619434  53.3417903  51.4415624  35.2722192  55.0691410  51.2791535
  34.5066969  55.7773781  51.5961311  36.2478405  55.4103624  51.6253190
  35.2777668  54.9751444  49.7662900  34.4402589  54.3689123  49.4210889
  35.2123465  55.9694384  49.3244769  36.5207620  54.3514604  49.3675718
  36.5813824  53.4299436  49.7765116  36.5516925  54.2757747  48.3608867
  37.2969360  54.9132735  49.6869759  35.8243718  54.8639169  55.4197548
  35.9036713  54.0870197  56.3615607  35.4314509  56.1286212  55.5716074
  35.0116683  57.0828771  54.5531463  34.0263818  56.8036747  54.1798410
  35.7273247  57.0729638  53.7310535  35.0004167  58.3947175  55.2875285
  34.1976523  59.0161375  54.8906586  35.9564436  58.8952355  55.1339197
  34.7931072  58.0944168  56.6905296  33.7232399  58.1398001  56.8940569
  35.3174614  58.7864855  57.3494630  35.3026240  56.6777096  56.9140722
  36.2835529  56.6370113  57.3875914  34.2938218  55.9148712  57.7687328
  34.4049430  55.9665913  58.9765437  33.3298384  55.2065734  57.1746897
  33.2633978  55.1304616  56.1697559  32.3359723  54.5162395  57.9871718
  32.2430741  55.0040309  58.9574958  30.9827656  54.5495349  57.2951711
  30.2433609  54.2344975  58.0314668  30.7718555  55.5726726  56.9840340
  30.9174343  53.6192805  56.0737352  29.7874301  53.3891090  55.5687555
  31.9773443  53.1042808  55.6363839  32.7303662  53.0827054  58.1991562
  31.8943737  52.2833305  58.6154666  33.9751557  52.7364003  57.8934472
  34.5991443  53.4086975  57.4706540  34.4798504  51.3918814  58.1531918
  35.5232130  51.4760234  58.4571881  33.8974175  50.9647229  58.9695292
  34.3895988  50.4793159  56.9560887  35.0470625  49.4634381  56.9076358
  33.6052298  50.8670702  55.9531720  33.1331255  51.7589135  55.9959791
  33.3680803  50.0145483  54.7949119  33.3008634  48.9668898  55.0881572
  32.0682706  50.4224079  54.1776670  31.7766588  49.7089753  53.4069040
  31.2892561  50.4733289  54.9383532  32.2410636  51.6876273  53.6011842
  31.4172167  51.9706479  53.1977297  34.4757575  50.0631254  53.7203224
  35.3232732  50.9532754  53.7097805  34.4371052  49.0850530  52.8221430
  33.7312000  48.3719044  52.9371047  35.4296456  48.9093092  51.7761474
  35.4125122  47.8713770  51.4437285  35.1675890  49.8127863  50.5707692
  35.4114442  50.8064722  50.9465645  35.8391028  49.5603661  49.7501272
  33.7316409  49.7981466  50.0727455  33.0600403  49.7100968  50.9267365
  33.4220328  51.0740073  49.3166771  34.0929717  51.1625280  48.4622160
  32.3901189  51.0481722  48.9665526  33.5599419  51.9305558  49.9765302
  33.4287589  48.5594736  49.2231869  33.5901808  47.6611909  49.8191152
  32.3916298  48.5919171  48.8894025  34.0886985  48.5429032  48.3558322
  36.8744443  49.0586439  52.2443735  37.5521409  49.9192744  51.7969803
  37.3338884  48.1625404  53.1087916  36.5921570  46.9807627  53.5803909
  36.6681664  46.1753134  52.8499292  35.5430854  47.2340624  53.7333186
  37.2707395  46.6729468  54.8184948  37.1298870  45.6218126  55.0702415
  36.8787546  47.2945138  55.6235437  38.6901679  46.9793790  54.5602446
  39.0781506  46.1191816  54.0146909  39.3189025  47.1712753  55.4297090
  38.6711222  48.2023822  53.6526883  38.8309826  49.1516407  54.1640112
  39.6899643  48.0603901  52.5032275  39.4232932  47.3857987  51.5140774
  40.8111416  48.7591917  52.6474764  40.9911358  49.1298248  53.5696112
  41.8070031  48.9829492  51.6059192  42.0197958  48.0718225  51.0467531
  41.3942028  50.0395816  50.6508324  41.1864510  50.9609112  51.1949748
  42.1958161  50.2148556  49.9333399  40.4964875  49.7207441  50.1211635
  43.0392875  49.4507870  52.2479480  42.9751475  50.1584019  53.2843573
  44.1607427  49.0523123  51.6194760  44.0581060  48.2903255  50.9645400
  45.5179832  49.6284729  51.8248423  45.5001244  50.2983455  52.6845230
  46.5808896  48.5333674  52.0487884  46.6105695  47.8924860  51.1676014
  47.9170558  49.1215802  52.2746881  47.8882796  49.7622706  53.1560441
  48.6441545  48.3243718  52.4292425  48.2060146  49.7127246  51.4056943
  46.2451166  47.6286280  53.2509714  45.2620616  47.2021240  53.0514773
  46.9909809  46.8338025  53.2571776  46.2314611  48.3275530  54.6172167
  45.4854610  49.1222579  54.6119292  45.9848307  47.6035729  55.3938283
  47.2143804  48.7539386  54.8176284  45.9025532  50.4733715  50.5560641
  45.7694806  50.0201126  49.4158896  46.3280013  51.7161020  50.7819600
  46.3176553  52.0494065  51.7353227  46.8563789  52.5862163  49.7584766
  46.4061105  52.3793735  48.7876143  46.5071946  54.0241224  50.1645619
  45.4198630  54.0693973  50.1032464  46.8150829  54.0963085  51.2076793
  47.1288507  55.2202496  49.3500850  46.8617456  54.9747164  48.3222382
  46.5367197  56.0717866  49.6852978  48.9086899  55.6575734  49.4225091
  49.0699798  56.4416143  51.0156539  48.7806175  55.7395734  51.7976430
  50.1051091  56.7474568  51.1675366  48.4229562  57.3178224  51.0571407
  48.3733966  52.3779159  49.8075923  48.9742894  52.4630581  50.8588666
  49.0138017  52.0641495  48.6880813  48.5303899  51.8561491  47.8260208
  50.4938022  52.0144081  48.6926798  50.8669992  52.4815197  49.6040688
  50.8192957  50.9747086  48.6583536  51.0518225  52.7366463  47.5137874
  50.3942225  52.8621674  46.4760515  52.2560904  53.2700563  47.6945816
  52.7403303  53.1110598  48.5665513  52.9538430  53.9287765  46.6471476
  52.2691023  54.1875953  45.8395325  53.5761253  55.2028610  47.1813342
  54.0960457  55.0223102  48.1221761  54.2845189  55.5741726  46.4407897
  52.6174941  56.2938797  47.4319701  53.0170981  57.4319257  48.1299764
  54.0368611  57.5073173  48.5074674  52.1117477  58.4768521  48.3465881
  52.4218976  59.3799367  48.8722743  50.8312945  58.3576257  47.8931959
  50.0964437  59.1360895  48.0983504  50.4799782  57.2745965  47.1916615
  49.4660150  57.2312073  46.7940482  51.3481289  56.2406256  46.9666735
  51.0189536  55.3642967  46.4082908  54.1460745  53.1306289  46.2184712
  54.8454679  52.5980067  47.0341890  54.4088994  53.1571866  44.9308988
  53.7718826  53.6748771  44.3424215  55.5915116  52.6014447  44.3315622
  56.1160852  51.9965019  45.0711336  55.2298468  51.7339950  43.1294147
  54.5931944  52.3070374  42.4553254  56.4547939  51.3129289  42.4120772
  57.0917782  50.7393974  43.0854368  56.1813538  50.6947986  41.5569478
  56.9942867  52.1941783  42.0650238  54.4614655  50.4654866  43.5526861
  55.0460684  49.9385714  44.3068086  53.5036154  50.7635284  43.9790588
  54.2137045  49.5112663  42.3168965  55.1711793  49.2124117  41.8902492
  53.6701328  48.6251473  42.6446499  53.6287278  50.0373700  41.5624981
  56.2366400  53.8866983  43.8379038  55.5966813  54.7012027  43.1750225
  57.4957755  54.0736572  44.1776481  58.0763387  53.2752849  44.3913006
  58.1047264  55.3930695  44.1962722  57.4388432  56.1442997  43.7715935
  58.3738458  55.7504373  45.6682858  58.3277323  54.7464151  46.0900824
  59.3954590  56.1248047  45.7335202  57.4425774  56.6741905  46.4506195
  57.8854348  57.6673672  46.3759323  56.0247554  56.7311106  46.0155929
  55.5810600  55.7383216  46.0904474  55.4756917  57.4229960  46.6542825
  55.9747479  57.0738767  44.9820984  57.5932101  56.2665751  47.8958809
  58.6311131  56.3938547  48.2035444  56.9512088  56.8897144  48.5184827
  57.3062579  55.2213384  48.0109359  59.4297973  55.3689898  43.4813937
  60.1224217  54.3519199  43.5166266  59.7955563  56.4922321  42.8668630
  59.1102474  57.2190800  42.7180568  61.1316320  56.6872680  42.3354954
  61.1506972  57.6256425  41.7812491  62.1060381  56.7721312  43.4397019
  62.1050749  55.8362915  43.9985428  63.1015624  56.9511307  43.0335113
  61.8325183  57.5917675  44.1041434  61.5093401  55.5931523  41.3734717
  60.6660765  55.1541155  40.6111127  62.7759560  55.1903263  41.3966502
  63.4011658  55.7211394  41.9860986  63.3389975  54.0859239  40.5945975
  63.4504768  54.4037425  39.5579380  64.7387552  53.6675682  41.1409252
  64.9786449  54.3751326  41.9345907  64.6129544  52.6725354  41.5677554
  65.9095238  53.6427274  40.0891012  65.8016976  52.7535268  39.4679759
  65.8361161  54.5328351  39.4642639  67.3693814  53.6160370  40.8313608
  67.3650659  54.4167702  41.5708922  67.4511654  52.6545079  41.3381868
  68.5535322  53.7908073  39.9459619  69.1534218  52.9835580  39.8533307
  68.8771757  54.9145422  39.2717485  68.1105886  56.0102948  39.3346968
  67.2710436  56.0039596  39.8961449  68.3752983  56.8382916  38.8204500
  69.9820687  54.9587386  38.5232679  70.5791574  54.1464949  38.4612573
  70.2156625  55.8042096  38.0225571  62.4060789  52.8752584  40.5641381
  62.0649265  52.4001685  39.5033941  61.9730296  52.4179577  41.7380922
  62.4377647  52.7464708  42.5724781  61.0178162  51.3302901  41.8644876
  61.4107233  50.4359665  41.3808468  60.7553653  51.0124787  43.3474062
  60.8404995  51.9348517  43.9219315  59.7447681  50.6159950  43.4453558
  61.7843643  49.9608328  43.8918371  61.3641237  48.9798199  43.6702238
  62.6988521  50.1023337  43.3158236  62.1132278  50.0559163  45.4315529
  62.8431104  49.2873749  45.6859432  62.5327574  51.0392479  45.6440460
  60.8377532  49.8500218  46.2704195  60.4675355  50.8397579  46.5377427
  60.1104926  49.3515017  45.6295850  61.0437119  49.0410720  47.5151248
  61.7172539  49.5030583  48.1092708  60.1663165  48.9512477  48.0072720
  61.3863570  48.1237768  47.2676112  59.7336372  51.4999062  41.0432705
  59.2015213  50.5324465  40.5531437  59.2707897  52.7253880  40.8250949
  59.7088409  53.5278398  41.2543751  58.0928506  52.9418670  40.0005724
  57.3106330  52.2464449  40.3049124  57.5687899  54.3790398  40.1754462
  58.3377683  55.0868978  39.8660772  56.6788325  54.5189875  39.5618578
  57.3182443  54.5500975  41.2223777  58.3980726  52.6796337  38.5434735
  57.5728336  52.1290743  37.8040014  59.5787218  53.1135120  38.1144722
  60.1924149  53.6346804  38.7242784  59.9694006  52.9442820  36.7243397
  59.1614297  53.2821207  36.0753811  61.2416148  53.7657791  36.3993650
  62.0376885  53.4313827  37.0646056  61.5181338  53.5525553  35.3668086
  61.0290344  55.3029015  36.5741226  60.1263744  55.9111364  35.9034371
  61.7756076  55.8923842  37.3954646  60.1427249  51.4463232  36.4027824
  59.6892173  50.9969089  35.3491853  60.8102661  50.7333194  37.3267495
  61.1741821  51.3019321  38.0779780  61.0110129  49.2882722  37.3924252
  61.7057774  48.9424614  36.6270387  61.6173478  48.9909013  38.7790457
  62.4332042  49.7076462  38.8726106  60.8233145  49.2516340  39.4787811
  62.1397760  47.5713278  39.0986095  61.7706322  47.2844379  40.0832556
  61.7456605  46.8848942  38.3492204  63.6871314  47.5112189  39.0901759
  63.9844788  46.6769540  39.7255384  64.0002418  47.3157666  38.0645738
  64.3656898  48.7359638  39.5676561  64.6583690  49.3760454  38.8432710
  64.6258265  49.0540898  40.8492796  64.2517606  48.2578596  41.8535526
  63.7626815  47.3965807  41.6558147  64.4595685  48.5204344  42.8064271
  65.2641513  50.1964318  41.1279735  65.5455491  50.8103094  40.3769279
  65.4617069  50.4396827  42.0881295  59.6660145  48.5751244  37.2929344
  59.3784181  47.8683674  36.3145317  58.8344026  48.7871948  38.3121266
  59.1249586  49.3829627  39.0741877  57.6002804  48.0498550  38.4515735
  57.7885138  46.9871247  38.2990227  57.0054012  48.2460834  39.8507758
  57.0735683  49.2904688  40.1552618  55.9657220  47.9219360  39.8965550
  57.8545814  47.3797088  40.7974066  58.8616559  47.7964397  40.7820086
  57.3737765  47.3153690  42.1809488  56.3668645  46.8982802  42.1971989
  58.0384971  46.6816808  42.7680489  57.3579992  48.3182451  42.6076702
  57.9099376  45.9594325  40.2914504  58.3559914  45.9445670  39.2970086
  58.5133436  45.3551375  40.9688204  56.9005275  45.5510322  40.2424655
  56.6016103  48.3119760  37.3491563  55.7433539  47.4653515  37.0918453
  56.7434945  49.4649135  36.6950370  57.5543231  50.0314544  36.8992126
  55.7799546  49.9601376  35.7039967  54.7678287  49.8926185  36.1029221
  56.0636854  51.3836308  35.3629543  57.0705629  51.4659943  34.9536694
  55.3420205  51.7315064  34.6238450  55.9861883  51.9955057  36.2616770
  55.8443975  49.1385517  34.4437559  54.9389913  49.1889615  33.6372006
  56.9419149  48.4115286  34.2927134  57.6225894  48.4719279  35.0364429
  57.2477232  47.5765929  33.1468471  56.8055368  47.9927162  32.2416334
  58.7540429  47.5158429  32.9672742  59.1980211  47.4367245  33.9596062
  58.9785272  46.6147914  32.3964738  59.3500972  48.7690368  32.2246160
  59.3313313  48.5817623  31.1509881  58.7323676  49.6377755  32.4522241
  60.7848107  49.0352761  32.6689546  61.3953125  49.2858135  31.8014192
  60.8003234  49.8652109  33.3754014  61.3500922  47.7744297  33.3467687
  60.6623447  47.4924030  34.1439920  61.3810894  46.9833143  32.5975860
  62.7435456  47.9783930  33.9272775  62.7149567  48.7111243  34.6218185
  63.0584899  47.1199715  34.3562561  63.3810727  48.2393149  33.1886449
  56.6714823  46.1592511  33.3387386  56.6627426  45.3456049  32.4279793
  56.1582777  45.8829084  34.5291952  56.3006514  46.5210865  35.2989729
  55.4738613  44.6773558  34.7790294  55.9143503  43.8510385  34.2211151
  55.5932222  44.3805995  36.2566222  55.6440319  45.4117474  36.6062673
  54.6698201  43.9224441  36.6109134  56.8034075  43.5906803  36.8051439
  56.6243171  42.5492105  36.5379956  58.2139280  44.0248757  36.2909422
  58.3939393  45.0661727  36.5581413  58.9774935  43.3957167  36.7483560
  58.2555096  43.9159964  35.2071910  56.7736160  43.5342496  38.3379286
  55.8577792  43.0427404  38.6661985  57.6357708  42.9729978  38.6981880
  56.8061001  44.5468592  38.7400052  54.0209778  44.8283033  34.2927142
  53.5558532  45.9384204  33.9546561  53.3254946  43.6935111  34.1847391
  53.7947212  42.8078757  34.3095417  51.8842749  43.6843089  33.9059860
  51.6555483  44.4028774  33.1189392  51.4330816  42.2821013  33.4405526
  51.8692476  41.5201371  34.0865162  50.3461760  42.2069889  33.4736359
  51.8434138  41.9433689  32.0412182  51.3423906  42.6075937  30.9338979
  51.8857058  42.0993566  29.8409141  51.6211050  42.4857822  28.8566576
  52.7181870  41.1343134  30.2003187  53.2756350  40.5708653  29.5743172
  52.7074547  41.0155850  31.5692476  53.3315837  40.2663027  32.0562182
  51.1445165  44.0406041  35.1984659  51.6728571  43.8372139  36.2898433
  49.9171890  44.5359277  35.0780886  49.5357352  44.7441255  34.1663616
  49.1241267  44.8741373  36.2521092  49.6293276  45.6489071  36.8288266
  47.7625540  45.3887384  35.8398438  47.9308778  46.1172963  35.0467676
  47.2145346  44.5360868  35.4388949  46.9630840  46.0241823  36.9417207
  46.5869820  45.2602772  37.6222332  47.5811688  46.7308772  37.4954855
  45.7930191  46.7608519  36.3112001  46.1758673  47.6955974  35.9015939
  45.4116164  46.1390693  35.5012509  44.6645890  47.0613784  37.2969193
  44.1882400  46.1325225  37.6106369  45.0621896  47.5782310  38.1703472
  43.6497922  47.9396076  36.6130253  43.2809279  47.4606915  35.8039034
  42.8971444  48.1464415  37.2539940  44.0908850  48.8005406  36.3226279
  48.9835857  43.6881901  37.2250333  49.1352852  43.8396819  38.4369688
  48.7102822  42.5059036  36.7015663  48.5888252  42.3615598  35.7093403
  48.3935039  41.4214267  37.5924285  47.8653439  41.8235799  38.4569624
  47.5035920  40.3374598  36.9277019  47.5666278  40.5248964  35.8557908
  47.9816719  39.3854230  37.1582782  45.9527250  40.2825278  37.3738366
  45.4480443  39.5697230  36.7216805  45.9927966  39.8821440  38.3868451
  45.1587299  41.6428963  37.3783533  44.9466971  42.2643352  36.3001526
  44.6962985  42.0704393  38.4742156  49.6592757  40.8899387  38.2030824
  49.6130747  40.3399367  39.2755335  50.7964223  41.1046533  37.5543226
  50.8035024  41.3719414  36.5803584  52.0786972  40.7853274  38.1988130
  51.9575652  39.8935662  38.8137832  53.2631049  40.5700127  37.1941344
  53.5377029  41.5363544  36.7711924  54.4907212  39.9469680  37.8930524
  54.2170035  38.9803231  38.3158727  55.2927362  39.8115835  37.1674190
  54.8303438  40.6085055  38.6899989  52.8549372  39.6900134  36.0172256
  52.0152887  40.1849769  35.5292684  53.7048404  39.6606090  35.3353902
  52.4459945  38.2293453  36.4040611  51.5957965  38.2579254  37.0855642
  52.1716820  37.6780211  35.5046761  53.2853481  37.7335581  36.8916884
  52.4295627  41.8307960  39.2993650  52.9669904  41.4911996  40.3448701
  52.1030798  43.0877540  39.0722493  51.7688571  43.3531456  38.1568468
  52.2299508  44.1130701  40.0770238  53.2498455  44.1726467  40.4569773
  51.8804205  45.4312191  39.4215234  51.9942561  45.3099794  38.3442854
  50.8390890  45.6546963  39.6534431  52.7374771  46.5424339  39.8851727
  52.2487496  46.9726123  40.7593539  53.6896010  46.1023601  40.1816472
  52.9816912  47.6285563  38.8581388  53.2717358  48.5488890  39.3650517
  53.7804160  47.3181773  38.1844897  51.7950413  47.8837524  38.0807979
  50.9367191  48.0966124  38.5687253  51.7843185  47.8778908  36.7499742
  52.9227113  47.6487061  36.0890982  53.7765172  47.4828696  36.6025317
  52.9242319  47.6423478  35.0791196  50.6498073  48.0703326  36.0837748
  49.7895626  48.2221204  36.5907656  50.6534930  48.0638370  35.0738031
  51.2900674  43.8248910  41.2831966  51.7156147  43.8676187  42.4459919
  50.0184198  43.5482099  40.9952053  49.6977537  43.6576655  40.0437370
  49.0427871  43.1452605  42.0169879  48.8741835  43.9745231  42.7040073
  47.7029962  42.7542623  41.3829604  47.2823021  43.6287975  40.8866702
  47.8797816  41.9696239  40.6473046  46.7360360  42.2554672  42.4267517
  46.9914911  41.2191816  42.6480109  46.8720011  42.8618087  43.3222770
  45.3142484  42.3330930  41.9856802  44.7425264  42.8291852  42.7699796
  45.2739948  42.9300064  41.0745416  44.7270423  40.9748438  41.7208389
  44.8236903  40.7175270  40.6660651  45.2278204  40.2191426  42.3260135
  43.2662350  41.0295125  42.0928999  42.8019304  41.7294031  41.5319416
  42.8422513  40.1282235  41.9255201  43.1764687  41.2675141  43.0703436
  49.5602837  41.9913372  42.8657584  49.6805753  42.0970921  44.0921742
  49.8613514  40.8844402  42.1922844  49.6769647  40.8536308  41.1997363
  50.3457389  39.6933234  42.8321519  49.5742252  39.2798372  43.4816863
  50.7186425  38.6341573  41.7731414  49.7699482  38.2391698  41.4097362
  51.2130865  39.1843558  40.9725750  51.6035631  37.4896168  42.2197919
  52.5771637  37.8773751  42.5195356  51.1405966  36.9792915  43.0643817
  51.7872278  36.4727096  41.0278573  51.8479005  37.0425908  40.1006825
  52.7206894  35.9316935  41.1829394  50.6225633  35.4704931  40.9383654
  50.7486586  34.8213999  41.8048979  49.7255195  36.0763281  41.0663327
  50.4821964  34.6010490  39.6555068  51.3131350  34.0392728  39.5369814
  49.6774370  33.9972645  39.7444260  50.3649153  35.2023117  38.8524953
  51.4992668  40.0693258  43.7404826  51.4397786  39.7795926  44.9171141
  52.5191553  40.7400914  43.2171023  52.5494498  40.8998856  42.2202837
  53.6836201  41.1379191  44.0227927  54.1410599  40.2604922  44.4799250
  54.7247596  41.8240186  43.1288962  54.2005871  42.1872247  42.2449145
  55.1216437  42.6707987  43.6888485  55.8868828  40.9033760  42.6959254
  56.5768899  40.8161235  43.5351978  55.4705293  39.9228321  42.4650887
  56.6333243  41.4379392  41.4779614  55.9064074  41.9329035  40.8339885
  57.3627460  42.1676223  41.8295377  57.3594238  40.3261817  40.6779042
  56.5935919  39.8360151  40.0767895  58.0644345  40.8363703  40.0215759
  58.1095639  39.2694959  41.5160514  57.4563899  38.7963302  42.1239805
  58.5436633  38.5972220  40.8998489  58.8195320  39.7234368  42.0728118
  53.4068192  41.9945944  45.2728941  54.1216334  41.9002075  46.2844537
  52.3860765  42.8383497  45.2018640  51.8112617  42.8517125  44.3714974
  52.0654347  43.7471514  46.2665529  52.9501055  44.2076633  46.7063091
  51.1131251  44.8655112  45.7160405  50.4450632  44.4050798  44.9881692
  50.2916853  45.5309186  46.8067589  50.9590987  45.9920046  47.5348108
  49.6522978  46.2954883  46.3654908  49.6733538  44.7834413  47.3037930
  51.9014301  45.9315597  44.9405602  52.4473014  46.5285184  45.6711529
  52.6093954  45.4091570  44.2971475  51.0162775  46.8520057  44.0862780
  50.3083116  47.3751349  44.7290999  51.6412479  47.5790494  43.5677042
  50.4704036  46.2557727  43.3550956  51.3751882  42.9315389  47.3711659
  51.6360337  43.1040526  48.5658034  50.4714276  42.0305141  46.9768915
  50.2591020  41.9138143  45.9963823  49.7533036  41.2036093  47.9444887
  49.2042885  41.8406107  48.6379660  48.7890603  40.3125279  47.2547215
  49.2221917  39.8501228  46.3677729  48.4035448  39.5370515  47.9166235
  47.4298488  41.1920188  46.7140822  46.7996654  40.1541977  46.1712245
  50.7177189  40.3552404  48.7460138  50.6004280  40.2392369  49.9467053
  51.7047141  39.8228543  48.0653476  51.7300785  39.9561468  47.0645034
  52.7032562  39.0332327  48.6571249  52.3021938  38.1657455  49.1812566
  53.5194568  38.5585616  47.5073710  52.7853266  38.0808552  46.8585655
  53.8644113  39.4836304  47.0454683  54.6716989  37.6457651  47.7057716
  55.5403789  38.0158208  48.2503400  54.2679628  36.7720351  48.2173302
  55.0880418  37.2575505  46.2848645  54.2404186  36.5326850  45.6305237
  56.1511036  37.7965961  45.8153165  53.5424861  39.7839394  49.6936565
  53.7235699  39.3036292  50.7956654  54.0167325  40.9706001  49.3485875
  53.9357724  41.2697040  48.3872958  54.6728613  41.8568405  50.2918956
  55.6026087  41.4154337  50.6508231  54.9941101  43.1596371  49.5943763
  55.7675526  42.9246730  48.8631596  54.0873244  43.4711981  49.0759465
  55.4748395  44.2864949  50.4961239  54.7033110  44.5178156  51.2305185
  56.7347270  43.8616465  51.2079183  57.5069157  43.6305893  50.4741362
  57.0780288  44.6699229  51.8536224  56.5311132  42.9769306  51.8111759
  55.7272120  45.4726843  49.6313091  54.8046816  45.7567007  49.1249774
  56.0745575  46.3034710  50.2455125  56.4873415  45.2271501  48.8896790
  53.7624866  42.1090030  51.5014087  54.1906223  41.9797282  52.6440686
  52.4978836  42.4530337  51.2669174  52.1388850  42.5730260  50.3305301
  51.6219109  42.7693613  52.3889471  52.1096762  43.5112801  53.0211976
  50.2708135  43.3307003  51.9274188  49.9005525  42.5861665  51.2226668
  49.6202874  43.3579093  52.8015902  50.2814639  44.6976488  51.2611753
  49.1093419  45.1953312  50.6780877  48.2140650  44.5758195  50.7308521
  49.0621511  46.4229712  50.0528509  48.1280546  46.8017708  49.6380298
  50.2238932  47.1975283  49.9810058  50.1612038  48.4005303  49.3121484
  49.2903744  48.5848716  48.9526014  51.4183319  46.7276178  50.5557458
  52.3224845  47.3355398  50.5235052  51.4415573  45.4677804  51.1734337
  52.3719721  45.0822749  51.5903437  51.4162052  41.5576088  53.3036592
  51.4455295  41.6746169  54.5234179  51.2133122  40.3804956  52.7250870
  51.0651569  40.3053941  51.7288395  51.1310931  39.1371154  53.5490480
  50.2791524  39.2169652  54.2242667  50.9322834  37.8744635  52.6377484
  51.7819764  37.7759044  51.9621687  50.8593598  36.9834808  53.2613927
  50.0172741  37.9860302  52.0560180  52.3830583  38.9867081  54.4128596
  52.3049893  38.7893531  55.6031307  53.5372670  39.1005147  53.7794764
  53.5210635  39.1767259  52.7724865  54.8128378  39.0454298  54.4378485
  54.9809333  38.0553583  54.8616426  55.9228006  39.3361254  53.4114302
  55.9374486  38.4791557  52.7380153  55.5983637  40.2215905  52.8648112
  57.3030695  39.5647426  53.9609655  57.7429480  40.3924897  53.4046900
  57.1948175  39.8480918  55.0079119  58.2206204  38.3295672  53.8552478
  57.6071649  37.4369475  53.7327681  58.8744790  38.4419103  52.9904082
  59.0957844  38.1909426  55.1616157  59.3917725  39.2021672  55.4407511
  58.4387082  37.7805380  55.9283738  60.3266433  37.3226454  55.0358848
  60.9358397  37.7030044  54.3257394  60.8139314  37.2993051  55.9202521
  60.0525618  36.3854712  54.7776545  54.7545117  40.0268358  55.5708685
  54.7556372  39.5988679  56.7167900  54.5956319  41.3240187  55.2539633
  54.4412988  41.5542236  54.2827340  54.7485790  42.4334834  56.2226677
  55.6783015  42.3496986  56.7854245  54.6983430  43.8437823  55.5473364
  53.7883336  43.9147046  54.9515577  54.7068986  44.9633590  56.6070236
  55.6168922  44.8933650  57.2029375  54.6713996  45.9335917  56.1115554
  53.8384609  44.8558626  57.2569176  55.8491398  44.0662297  54.5348021
  55.7889183  43.3172108  53.7452160  55.7625023  45.0612696  54.0983516
  56.8070067  43.9769714  55.0472715  53.7361956  42.3716645  57.3715186
  54.1029124  42.5311700  58.5547083  52.4651894  42.1791829  57.0447969
  52.1615885  42.0633614  56.0884961  51.4533043  42.2098495  58.0914167
  51.7982215  42.8685962  58.8884012  50.0851590  42.7164062  57.5907314
  49.7500106  41.9160755  56.9310001  49.4502515  42.7464840  58.4762187
  49.9971620  44.0452973  56.8595085  50.7946271  44.1001473  56.1184674
  48.6443082  44.1709529  56.1613858  47.8463068  44.1166533  56.9018884
  48.5912090  45.1268001  55.6401973  48.5286851  43.3591953  55.4432067
  50.1842142  45.1727726  57.8389113  51.1616038  45.0843135  58.3132361
  50.1209034  46.1255758  57.3133077  49.4057898  45.1260954  58.6004726
  51.3193281  40.8177248  58.6980708  50.4565909  40.6148072  59.5468364
  52.1676970  39.8745331  58.2557310  52.8568722  40.1342823  57.5645963
  52.1437693  38.4834315  58.7266970  52.8210468  37.8974096  58.1054300
  52.4902284  38.4632549  59.7599725  50.7588169  37.8719102  58.6589194
  50.2400932  37.4093996  59.6467507  50.1211361  37.8985850  57.5074223
  50.5401742  38.2709377  56.6672676  48.7790693  37.3695406  57.4270193
  48.7082598  36.4709636  58.0399177  47.7579473  38.3729231  57.9197125
  47.8508910  38.4876303  58.9996676  47.9292441  39.3348827  57.4366069
  46.4457509  37.9080444  57.6019479  45.7970022  38.5432664  57.9137458
  48.4690430  37.0441392  55.9922452  48.6646937  37.8863491  55.1068457
  47.9796312  35.8270826  55.7716861  47.8020545  35.2276304  56.5649218
  47.7352391  35.3028548  54.4498734  48.5530928  35.5834132  53.7861705
  47.6335210  33.7565692  54.4843276  47.0054773  33.5150882  55.3418515
  47.1211238  33.4679242  53.5665949  49.0056760  32.9663963  54.5947068
  49.0655970  32.5181028  55.5864443  48.9687171  32.1787535  53.8421413
  50.2886602  33.8243764  54.3565308  50.8242433  34.4471689  55.2899381
  50.7856855  33.8322345  53.1276906  51.6145563  34.3725738  52.9249395
  50.3332261  33.2978451  52.3998103  46.4615270  35.9268322  53.9168962
  46.0940982  35.7258132  52.7506216  45.7820893  36.7008174  54.7515437
  46.0261978  36.8194355  55.7243953  44.5437035  37.2732186  54.2824175
  43.9889753  36.5165713  53.7275657  43.6703119  37.7715364  55.4373701
  44.1287431  37.4400895  56.3690799  43.6632172  38.8610016  55.4039741
  42.2179617  37.2441893  55.3615159  42.0448856  36.8645144  54.3545440
  42.1576549  36.4220193  56.0746069  41.1382018  38.3093665  55.7063275
  41.1275472  39.4209151  55.0723793  40.2847780  38.0148425  56.5969920
  44.8438694  38.3531626  53.2153808  43.9832461  38.6783297  52.3821053
  46.0860743  38.8542471  53.2474947  46.6629659  38.6046346  54.0380572
  46.6083937  39.8101511  52.2895813  45.9487046  40.6755992  52.3521045
  48.0324328  40.2476423  52.6798658  48.7065172  39.3936646  52.6132899
  48.3711180  41.0309393  52.0017520  48.0290196  40.6284149  53.7011884
  46.5691332  39.3151703  50.8448718  46.5695852  40.0960322  49.8965847
  46.5022609  38.0081706  50.6759224  46.3724035  37.3877958  51.4622884
  46.5958811  37.4344300  49.3662411  47.1897029  38.0821497  48.7213115
  47.2637473  36.0639416  49.4288293  46.5518921  35.4873632  50.0195228
  47.2763935  35.6866436  48.4062901  48.6632770  35.9284441  50.0406183
  48.6852952  36.3587485  51.0418446  48.9881136  34.4308419  50.1206365
  48.9667390  33.9999056  49.1196691  49.9798065  34.2962013  50.5525136
  48.2488609  33.9311244  50.7466464  49.7319501  36.6790303  49.2463179
  49.4838914  37.7399648  49.2149429  50.7016781  36.5472008  49.7262658
  49.7734469  36.2859384  48.2305149  45.2285141  37.2719423  48.8190382
  45.0702685  36.6909784  47.7396730  44.2141489  37.7534845  49.5337454
  44.3219586  38.0546497  50.4917516  42.8523183  37.6562085  48.9814647
  42.9074053  37.3797784  47.9285397  42.0196101  36.5922745  49.7278095
  41.8566895  37.0351990  50.7103439  41.0616130  36.2981581  49.2990471
  42.7920473  35.3354093  49.9490345  42.8032484  34.3046160  49.0329342
  43.6570972  33.3794174  49.4353951  43.8113991  32.4757577  48.8457433
  44.2003043  33.7757212  50.5772603  44.8738519  33.2619836  51.1272668
  43.6979414  35.0108509  50.9009320  44.0529006  35.5268909  51.7930126
  42.1781106  38.9878368  48.8814109  41.1335366  39.2032855  49.5152438
  42.7750252  39.8968175  48.0781026  44.0820677  39.7877307  47.4155575
  44.3062393  38.7418944  47.2056201  44.8594431  40.2038622  48.0563546
  43.8808857  40.5786082  46.1924987  43.2650870  40.0562227  45.4603755
  44.8244804  40.8699326  45.7311307  43.1492616  41.8054426  46.7701694
  42.6243523  42.2373695  45.9181082  43.7166596  42.5843210  47.2795884
  42.1384169  41.1729067  47.7408132  41.9002168  41.7253746  48.6497347
  40.8654268  40.8793622  46.9827073  40.8442004  39.8745092  46.2316541
  39.8448886  41.7213410  47.1795686  39.9569409  42.4697098  47.8485138
  38.6159750  41.6288659  46.4715059  38.4468177  40.6214671  46.0911998
  37.4040260  42.0443294  47.3148064  36.5584600  42.2131001  46.6479976
  37.0425774  40.9703815  48.3295988  37.8875527  40.8013750  48.9970974
  36.1799144  41.2951023  48.9113801  36.8008918  40.0440035  47.8085292
  37.5986081  43.3792470  48.0295944  37.7720062  44.1642362  47.2935053
  36.7057879  43.6155258  48.6085107  38.4571557  43.3124167  48.6978238
  38.6109096  42.5396361  45.2717285  37.7119468  42.4318852  44.4381425
  39.5759834  43.4685643  45.2002658  40.2570499  43.5109652  45.9448797
  39.6873746  44.4283899  44.1040277  39.6460576  43.8948019  43.1544616
  38.5533213  45.4587397  44.1365458  37.5935584  44.9438761  44.1797863
  38.6491712  46.1204632  44.9973796  38.5145857  46.3330678  42.9283252
  38.7427992  47.6906634  42.9826008  38.6518248  48.2027982  41.7703535
  38.7993838  49.2699310  41.6043626  38.3743476  47.2246922  40.9268334
  38.2436785  47.3207816  39.9299421  38.2897793  46.0413411  41.6232954
  38.0749356  45.1123155  41.0952282  41.0139641  45.1720405  44.1925325
  41.6249131  45.2362257  45.2408605  41.4535264  45.7117189  43.0556121
  40.8505109  45.7118659  42.2453827  42.7338459  46.3310585  42.9458598
  43.0566956  46.6697489  43.9303170  43.7804668  45.3575900  42.3956429
  43.8977199  44.5547446  43.1235099  43.3963215  44.9473534  41.4617059
  45.1230901  46.0111787  42.1449608  45.9090486  46.4181560  43.2106172
  45.5318072  46.2503464  44.2193928  47.1698672  47.0366016  43.0192811
  47.7605052  47.3626333  43.8754072  47.6368544  47.2368237  41.7512641
  48.8543212  47.8138436  41.6567295  49.2424645  48.0129742  42.5118853
  46.8873171  46.8444012  40.6361340  47.2569981  46.9993000  39.6225055
  45.6079836  46.2268695  40.8473789  45.0031112  45.9205158  39.9939289
  42.5757208  47.4595993  41.9697557  42.1316581  47.2729087  40.8391453
  42.9673705  48.6360383  42.4163983  43.3446241  48.6973449  43.3512890
  42.8858820  49.8686954  41.6139738  42.4882210  49.6749794  40.6177615
  41.9297518  50.8054777  42.3470720  41.2072639  50.1597724  42.8462465
  42.5339947  51.3196422  43.0944844  41.1991350  51.8209595  41.5071733
  40.6268239  52.4497366  42.1892292  41.9496916  52.4263838  40.9990145
  40.2735233  51.2134202  40.4903213  40.7317341  51.1326410  39.3542220
  39.1234547  50.8306938  40.8064806  44.3359508  50.3692546  41.5946062
  45.0200132  50.2357178  42.5923234  44.8295037  50.8197469  40.4393594
  44.3339284  50.6216248  39.5818909  46.1094211  51.5101022  40.3535991
  46.3302063  52.0112581  41.2960405  47.1973024  50.5235898  40.0705927
  48.1582925  51.0110549  40.2348335  47.0930073  49.6856801  40.7598893
  47.1285243  50.0342451  38.6958184  46.2432295  49.4022997  38.6251144
  47.0226876  50.8837895  38.0211539  48.3394125  49.2410511  38.3128956
  48.5020210  48.9742072  37.1125536  49.1058147  48.8689202  39.1973255
  46.1384331  52.6617895  39.3088658  45.4215509  52.6116177  38.3338644
  46.9780125  53.6838032  39.5368379  47.5092456  53.6754393  40.3958029
  47.2066819  54.7787205  38.5886711  46.7745542  54.5166028  37.6229283
  46.5599242  56.0908635  39.0783068  45.5014355  55.8906252  39.2444559
  47.0323103  56.3540370  40.0247164  46.7056094  57.2142090  38.1252964
  46.9212045  58.1231551  38.6869339  47.5361961  56.9971242  37.4536552
  45.4709535  57.4045575  37.3358224  44.9877829  56.4382848  37.1910395
  44.7988492  58.0684339  37.8795535  45.7898755  57.9961581  36.0226436
  45.6982887  59.0811605  36.0724642  46.8067146  57.7307906  35.7333040
  44.8063296  57.4488910  34.9872203  43.8640745  57.6950485  35.2549169
  45.0140767  57.8466719  34.0823935  44.8913366  56.4435559  34.9405925
  48.7028543  55.0193511  38.5054710  49.3405359  55.3247884  39.5174562
  49.2501354  54.9279132  37.3032137  48.6831106  54.7839967  36.4798850
  50.6856212  55.1293843  37.1285059  51.2255377  54.8652640  38.0378077
  51.1741420  54.2219916  35.9853082  50.9301310  53.1943989  36.2547728
  50.6501080  54.4907610  35.0681106  52.6163813  54.3129143  35.7443020
  53.2706831  55.3302611  35.9911534  53.1529256  53.2448893  35.2304706
  54.1433602  53.2257549  35.0335624  52.5765062  52.4398991  35.0308905
  50.8531563  56.5294573  36.6969535  50.4447001  56.8496906  35.6062221
  51.4301528  57.3969178  37.5180062  51.6301296  57.1618353  38.4796947
  51.5031810  58.7966792  37.1194290  50.7039839  58.9901635  36.4039243
  51.3572414  59.7926396  38.3111436  52.0390976  59.4691144  39.0975932
  51.5614698  60.8333024  38.0593266  49.9545371  59.7553434  38.9074176
  49.5095688  58.8998433  39.8967935  50.2400751  58.2105952  40.3203468
  48.1652452  59.1194049  40.1431807  47.6366446  58.7125552  40.9015700
  47.7145415  60.0906373  39.2924834  46.4821712  60.7055691  39.2327482
  45.6846427  60.3575057  39.8891770  46.3428818  61.7308602  38.3354586
  45.3837210  62.2395723  38.2389053  47.4065884  62.1404516  37.5385313
  47.2597309  62.9494902  36.8229972  48.6142514  61.5807111  37.6111302
  49.4154243  61.9988689  37.0017316  48.8119480  60.5263230  38.5125385
  52.6626370  59.1109334  36.1686971  52.5540077  60.0662911  35.4193611
  53.7206857  58.2933332  36.1647260  53.7977168  57.5813118  36.8768995
  54.7975919  58.4077904  35.1773372  55.3689476  59.3172969  35.3629441
  55.7443040  57.2101944  35.2622669  55.2955171  56.3794378  34.7177185
  56.6879040  57.4853361  34.7910812  56.1867707  56.5402002  36.9642525
  56.9822591  55.5675616  36.5282818  54.2754148  58.5023414  33.7193687
  54.8682864  59.2227738  32.8932299  53.1607003  57.8037801  33.4468071
  52.7884605  57.2528115  34.2070507  52.4987752  57.7111069  32.1196192
  53.2072074  57.9851775  31.3378850  52.0054485  56.2911108  31.8548082
  51.0445873  56.1784369  32.3569532  51.8668332  56.1871057  30.7786721
  52.9890267  55.1899526  32.3611801  53.9228718  55.3000525  31.8098978
  53.1699049  55.3699568  33.4208880  52.4470664  53.7672443  32.1696045
  51.1890892  53.5596951  32.1890103  53.2925454  52.8512422  31.9974783
  51.3325120  58.6918887  31.8938069  50.5897568  58.5916277  30.8558558
  51.1620817  59.6449669  32.8324556  51.5654998  59.5559543  33.7541008
  50.2593373  60.7582436  32.5789137  49.4142565  60.4180410  31.9804157
  49.7328411  61.3256467  33.8817201  50.5703166  61.5814464  34.5307968
  49.1460640  62.2210478  33.6766603  48.8704481  60.3093283  34.5586922
  49.5148634  59.4704539  34.8215983  48.4598688  60.7500624  35.4671399
  47.7531161  59.8260857  33.6905535  47.0681008  60.6727269  33.0688803
  47.5522713  58.5984043  33.6507434  50.8762033  61.8392696  31.6839957
  51.7580594  62.5931940  32.0916754  50.3283276  61.9440583  30.4809306
  49.5522407  61.3576952  30.2089622  50.9008330  62.8103976  29.4974533
  51.9852762  62.7004952  29.4993793  50.3807600  62.4716088  28.1099565
  51.1317936  62.8168835  27.3994404  50.3051542  61.3854378  28.0588076
  49.0705060  63.0735354  27.7740565  48.3492056  62.5924142  28.4346237
  49.0870417  64.1449516  27.9737961  48.6312237  62.8536332  26.3298602
  49.1899236  63.4320861  25.4123589  47.5943372  62.0644765  26.1425762
  47.2625418  61.8854838  25.2055731  47.1354168  61.6416664  26.9367582
  50.6648113  64.2752443  29.8659961  51.5151543  65.1016081  29.5907802
  49.5215168  64.5885455  30.4637025  48.8082353  63.8786183  30.5493300
  49.2202319  65.9168336  30.9250918  49.8429258  66.6488086  30.4107338
  47.7397903  66.2336132  30.6283505  47.1448051  65.4378386  31.0764964
  47.4621579  67.1889566  31.0737035  47.4885974  66.2768275  29.1805367
  46.6106246  65.3994381  28.6033214  46.0943733  64.6887689  29.2487154
  46.3729343  65.3976077  27.2552205  45.6543229  64.7030057  26.8202176
  47.0574522  66.2923487  26.4388017  46.8362527  66.2829148  25.0697189
  46.1949679  65.6222546  24.7979070  47.9675233  67.2012154  26.9912807
  48.5065134  67.9065884  26.3587942  48.1788794  67.1966701  28.3579788
  48.8790151  67.9033435  28.8035379  49.5404216  66.1219165  32.4449607
  49.0265421  67.0796997  33.0963386  50.3771327  65.2341317  33.0146086
  50.6231358  64.3652236  32.5623029  50.8760102  65.4768402  34.3747497
  50.6080732  66.4949685  34.6571034  50.3118484  64.5146777  35.4217195
  50.5368000  63.4909462  35.1226043  50.7787389  64.7222524  36.3845414
  48.9167344  64.6754139  35.5323573  48.5757897  64.0666448  36.1917181
  52.3828623  65.4359666  34.3712638  52.9987971  66.2771394  35.0041071
  52.9340573  64.4297032  33.6982475  52.3077861  63.8077271  33.2073000
  54.3621403  64.1694671  33.6238427  54.5688334  63.7024301  32.6609026
  54.8814570  65.1260344  33.6820540  54.8653264  63.2713965  34.7218090
  55.9162591  62.7799707  34.6278346  54.0921035  63.0202662  35.7516706
  53.1306553  63.3264544  35.7073353  54.5410817  62.3273730  36.9504373
  54.2032674  61.2910452  36.9481021  55.6278903  62.3545301  37.0292333
  53.9343347  63.0477128  38.1622482  53.1553367  64.0063558  38.0288781
  54.3365918  62.6003731  39.3376352  55.0902118  61.9279522  39.3401348
  53.7574249  62.9998613  40.6235784  53.4636441  64.0491688  40.5962716
  52.5086371  62.1466566  40.9119221  52.4801656  61.2495483  40.2934682
  52.4452149  61.8649171  41.9629694  50.9890443  63.0581611  40.5441352
  50.1544004  62.0810104  40.8868369  54.7616018  62.8189394  41.7527046
  55.7762894  62.1512276  41.5782657  54.5461090  63.4157425  42.9090099
  55.1803813  63.1724310  43.6564037  53.5579257  64.4090502  43.1591510
  52.5633166  64.0693988  42.8702066  53.5674566  64.6613789  44.6368778
  54.3772082  65.3835041  44.7414571  52.6286019  65.1220002  44.9442537
  53.8510675  63.4484720  45.5182736  53.0792139  62.2604194  45.4083239
  52.3023194  62.1807102  44.6479419  53.3271259  61.1522346  46.3108825
  52.7543744  60.2292298  46.2207733  54.3087599  61.2696471  47.2917307
  54.5500360  60.2278539  48.1759285  53.9827231  59.4683600  48.0245192
  55.0671578  62.4570331  47.4032615  55.8455346  62.5476630  48.1609002
  54.8119244  63.5224557  46.5304147  55.3722657  64.4523917  46.6270416
  53.9335592  65.7014838  42.4786292  53.0894171  66.5875764  42.1777041
  55.2201285  65.8422990  42.2342167  55.9081263  65.1369492  42.4561175
  55.6907161  67.1660617  41.8260076  55.0964773  67.6067922  41.0255476
  55.6837809  68.1318378  43.0368715  54.7365197  68.0181711  43.5640114
  56.8414973  67.8365471  43.9975952  57.7891717  67.9504711  43.4712549
  56.8057615  68.5329625  44.8353468  56.7538237  66.8159666  44.3701933
  55.7163045  69.4944320  42.5587333  55.7121094  70.0961951  43.3067064
  57.0093262  67.2037906  41.0455245  57.5994679  66.1521102  40.7480497
  57.4540993  68.4229240  40.6682399  56.9010362  69.2606939  40.7794256
  58.7412510  68.5312862  40.0090594  58.8959909  67.6610702  39.3711889
  58.8136288  69.7728561  39.1562390  58.6695790  70.6533171  39.7824483
  59.7895711  69.8264986  38.6737876  58.0341262  69.7374565  38.3951727
  59.8392550  68.5094979  41.0576063  59.6449991  68.9997336  42.1840053
  60.9787877  67.8792565  40.7281233  61.0079386  67.2466053  39.9413566
  62.1766491  68.0069663  41.5611991  61.9225805  68.5447959  42.4745926
  62.7425596  66.6547941  41.9376958  63.5493923  66.8344320  42.6482241
  61.9055722  66.1816215  42.4511740  63.2322067  65.7523119  40.8428367
  64.5555331  65.8462949  40.3513661  65.2322889  66.5939790  40.7649717
  65.0008327  64.9789716  39.3315879  66.0152255  65.0642371  38.9419227
  64.1616870  63.9912809  38.8599382  64.5897846  63.1163702  37.8537441
  65.4872322  63.2914444  37.5612778  62.8391758  63.8706316  39.3483683
  62.1687459  63.0998833  38.9681426  62.4011968  64.7487549  40.3224215
  61.3843359  64.6725575  40.7075033  63.1967466  68.8668524  40.8714116
  63.1228717  69.0510938  39.6702286  64.1149911  69.4406289  41.6532151
  64.0499525  69.2666448  42.6459884  65.2192708  70.2239152  41.1693980
  65.0032205  70.5748697  40.1603131  65.4635353  71.4315150  42.0623092
  65.1866478  71.2062702  43.0922108  66.5165666  71.7101357  42.0223649
  64.6927622  72.6321189  41.6696143  63.3313918  72.7159458  41.9211468
  62.8113442  71.8895703  42.4056609  62.6400826  73.8420830  41.5585554
  61.5639948  73.8836699  41.7270973  63.2923673  74.9184577  40.9846014
  62.7476547  75.8338748  40.7535177  64.6503453  74.8278386  40.7026000
  65.1736701  75.6465156  40.2086370  65.3287594  73.6965192  41.0519301
  66.3960392  73.6155233  40.8458878  66.4761948  69.3638786  41.2449365
  66.8541988  68.9799841  42.3342799  67.0898535  69.0388710  40.0866019
  66.5301661  69.2670746  38.7300629  66.7072661  70.3014499  38.4354385
  65.4577890  69.0723766  38.7441769  67.2842817  68.2798614  37.8667618
  67.3740256  68.6484948  36.8449229  66.7848243  67.3110460  37.8604094
  68.6780389  68.1835014  38.5623001  69.2484632  69.0148920  38.1481687
  69.2348143  67.2567477  38.4236338  68.4208872  68.4201106  40.0521199
  68.4323063  67.5440344  40.7005474  69.4803638  69.4438391  40.5469989
  69.3051414  70.6818426  40.3987375  70.6265537  68.9242851  40.9975756
  71.0319145  67.4984709  40.9823241  71.3222526  67.2099745  39.9720895
  70.1997745  66.8765393  41.3122378  72.1312652  67.4708920  41.8994835
  72.8000574  66.6354845  41.6923356  71.7850707  67.4112731  42.9313248
  72.8237819  68.8329339  41.6251854  73.3015381  68.7304872  40.6508381
  73.5483673  69.2104947  42.3466585  71.6546843  69.7808351  41.5258280
  71.3153996  70.2301595  42.4591509  71.9527127  70.8689464  40.5237353
  71.9143523  70.6052221  39.3056236  72.2662321  72.0740026  40.9980676
  72.2461889  72.2787568  41.9868918  72.6532853  73.1444118  40.0744557
  73.3544181  73.7984256  40.5928936  73.1491398  72.6867083  39.2184562
  71.4780615  73.9714154  39.5810561  71.6285961  75.1806385  39.4012343
  70.2953187  73.3750327  39.3962480  70.1523123  72.3955762  39.5970300
  69.2423668  74.0986706  38.6614647  69.6847097  74.6575164  37.8367688
  68.1247183  73.1643600  38.1140074  67.7441949  72.5766789  38.9494314
  66.9489932  73.9469855  37.4508982  67.3286887  74.5345836  36.6150391
  66.2010703  73.2417359  37.0884965  66.4947116  74.6121446  38.1852624
  68.6929404  72.1458333  37.0874027  69.1322666  71.3378927  37.6724885
  67.8364171  71.7661601  36.5303429  69.6927926  72.6698619  36.1494905
  70.5498778  73.0493192  36.7058330  70.0181026  71.8724229  35.4813860
  69.2540286  73.4775886  35.5636888  68.7105060  75.3020813  39.4379418
  68.3812014  76.3357480  38.8599187  68.6586656  75.1708703  40.7553507
  69.0986633  74.3890595  41.2193263  68.0087462  76.1490129  41.5541316
  66.9920870  76.3286211  41.2044975  67.9475194  75.6299818  42.9557574
  67.2309963  74.8092037  42.9876519  68.9356564  75.2597949  43.2289734
  67.5127168  76.7371714  43.9598201  67.8676963  76.5062300  44.9641889
  67.9001783  77.7085196  43.6524796  65.7588007  76.7915011  43.9661857
  65.7116808  75.7990799  45.4780061  66.2403651  76.3233907  46.2740527
  64.6754721  75.6381010  45.7754252  66.1907753  74.8369408  45.2967385
  68.7977933  77.4587720  41.5606651  68.2386417  78.5515427  41.3916249
  70.0983645  77.3515185  41.8140194  70.5009195  76.4604560  42.0671128
  70.9769192  78.5370811  41.7987906  70.4616132  79.3578662  42.2976602
  72.2866157  78.2716659  42.5260802  72.9667108  79.1071373  42.3600730
  72.0237901  78.1152680  44.0397157  71.3440939  77.2796381  44.2065548
  72.9654555  77.9254255  44.5548131  71.5760378  79.0301893  44.4277072
  72.8258893  77.0591813  42.0074551  73.6560017  76.8638204  42.4483041
  71.2725178  79.0103740  40.3687944  71.5338350  80.1626339  40.1729592
  71.1717580  78.1395991  39.3680484  70.9968658  77.1586660  39.5332221
  71.3603511  78.5854754  37.9949042  72.1455317  79.3411826  37.9726017
  71.7543603  77.4530368  37.0770238  72.1609288  76.6359773  37.6730231
  70.8717466  77.1059686  36.5397746  72.7803598  77.9131353  36.1006634
  72.3983846  78.7625079  35.5343049  73.6656883  78.2178148  36.6587547
  73.1735642  76.8202095  35.1280830  73.2736233  75.6376076  35.5126073
  73.3802363  77.1961216  33.8438779  73.6442501  76.5061246  33.1551820
  73.2694574  78.1648372  33.5804022  70.1094697  79.2360621  37.4524029
  70.1917537  80.3098933  36.9192755  68.9333598  78.6091099  37.5565491
  68.7888133  77.7795143  38.1142020  67.7652616  79.1887017  36.8373230
  68.0311155  80.1464416  36.3899360  67.3386522  78.2442627  35.7381408
  66.9113791  77.3626970  36.2160310  66.5564569  78.7809137  35.2012273
  68.4127090  77.8191945  34.7684502  68.8240998  76.5004171  34.7231525
  68.3746221  75.7766254  35.4030016  69.7900278  76.0984322  33.8321659
  70.1348484  75.0645162  33.8173912  70.3627786  77.0398143  32.9684320
  71.2899173  76.6105024  32.0824077  71.4608544  75.6679491  32.1454431
  69.9765334  78.3422613  32.9805029  70.4218550  79.0774941  32.3102627
  68.9852906  78.7292279  33.8786735  68.6400870  79.7629535  33.8972763
  66.5381094  79.3989626  37.7025263  65.5116241  79.9262477  37.2379487
  66.5927413  78.8839024  38.9204895  67.4656430  78.4873115  39.2380705
  65.4475566  78.8607172  39.8320532  64.7342117  78.2034006  39.3348880
  65.8358119  78.3671498  40.7229787  64.7334515  80.1463037  40.2471161
  63.5607859  80.0541908  40.5909019  65.3850786  81.3252349  40.1775655
  66.3062535  81.3476792  39.7640049  64.7930120  82.5985341  40.6393795
  64.5508438  82.4954434  41.6971253  65.7132112  83.8088383  40.4640427
  65.5914149  84.1084253  39.4231236  65.2960951  84.5779342  41.1141240
  67.1783505  83.6352832  40.7681062  67.3616915  83.9520097  41.7948346
  67.4342993  82.5810404  40.6624443  68.0656606  84.4910273  39.7889619
  68.6896230  85.1630128  40.3782033  68.7007023  83.8180748  39.2128054
  67.2585760  85.2945042  38.8540285  66.3319480  85.5227453  39.1847337
  67.6409097  85.7508273  37.6401874  66.7831388  86.4855769  36.8938316
  65.8593251  86.6905501  37.2468957  67.0708682  86.8254583  35.9873041
  68.8689694  85.5053053  37.1561728  69.5265875  84.9693146  37.7042170
  69.1295697  85.8577209  36.2462336  63.5433872  82.9865024  39.8716162
  62.7225226  83.7081431  40.3749203  63.4468897  82.5598804  38.6352453
  64.2063763  82.0497484  38.2074078  62.3471519  82.9684875  37.8046095
  61.8184869  83.8152473  38.2423428  62.8104486  83.3595102  36.3642716
  61.9381964  83.5698156  35.7453637  63.7201219  84.6375646  36.4378285
  64.5928778  84.4278720  37.0562354  64.0442249  84.9117559  35.4338978
  63.1555333  85.4613827  36.8744808  63.5697424  82.2145281  35.6378978
  62.9190553  81.3443947  35.5508559  63.8650693  82.5477020  34.6429723
  64.4584176  81.9472687  36.2096755  61.1915902  81.9330489  37.8165248
  60.2843715  82.0284250  36.9995893  61.1778628  81.0291634  38.7972921
  61.9474984  80.9802577  39.4494950  60.1510402  79.9638112  38.8423049
  60.1738219  79.3905647  37.9154993  60.3531234  78.9930148  40.0642147
  61.3241786  78.5061112  39.9743420  60.2927508  79.7764781  41.3885577
  59.3217481  80.2633130  41.4793655  60.4342759  79.0906250  42.2238283
  61.0794326  80.5308457  41.4012239  59.2747729  77.8789282  40.0498824
  59.1483123  77.5699694  41.0875013  58.3582541  78.3525596  39.6980785
  59.5738978  76.6724677  39.2002569  60.4900958  76.1980041  39.5517756
  58.7484212  75.9641395  39.2706755  59.7000399  76.9805951  38.1623525
  58.6765841  80.4962640  38.7506837  57.8368024  79.9200611  38.0727007
  58.3803562  81.6292069  39.3877820  59.0378446  82.1087459  39.9859883
  57.0457849  82.1667360  39.2680987  56.4698431  81.6111933  38.5279887
  56.3594208  82.0433777  40.6040253  55.3248219  82.3611011  40.4745797
  56.3828784  80.9923107  40.8917891  56.9871524  82.8462628  41.6462045
  58.0175091  82.5212539  41.7905482  56.9752707  83.8974368  41.3581178
  56.2289283  82.6712720  42.9167688  55.3971032  83.3696222  43.0088173
  55.8642674  81.6529109  43.0511661  57.1775148  82.9546330  43.9393299
  57.2932020  83.9191180  44.2158882  57.9319878  82.0435048  44.5114242
  57.7635547  80.7574554  44.2459580  57.0466944  80.4688574  43.5956331
  58.3526956  80.0708816  44.6949892  58.8257024  82.4523469  45.3817599
  58.9116579  83.4373439  45.5878974  59.4231813  81.7799971  45.8411763
  56.9484432  83.6248895  38.7951951  55.8668284  84.2584268  38.9333730
  58.0587166  84.1550663  38.2657854  58.9201011  83.6314474  38.3285491
  58.0922738  85.4681244  37.6313554  57.7384259  86.2445534  38.3096244
  59.5316637  85.7609341  37.2703387  60.0646549  85.7978859  38.2204199
  59.8669338  84.8948766  36.6996914  59.8201592  87.0482317  36.4684308
  59.4215689  86.8998922  35.4648263  59.3650178  87.9335895  36.9123788
  61.3423382  87.2754672  36.3656290  61.9219153  87.3804944  35.2680687
  61.9945034  87.2790959  37.5292052  62.9942412  87.4219655  37.5438349
  61.4855904  87.1389593  38.3902921  57.1816936  85.4889723  36.3749108
  57.2223582  84.5633762  35.5768167  56.3136323  86.5267430  36.2442873
  55.9772314  87.4689890  37.3268402  56.8216728  88.1362549  37.4993951
  55.7643403  86.9100867  38.2381057  54.8032007  88.1708447  36.8173910
  54.8612280  89.2079945  37.1476215  53.9175668  87.7023963  37.2467043
  54.7884111  88.0712876  35.3011392  55.3012308  88.9404045  34.8891308
  53.7921932  87.9973434  34.8650408  55.5846021  86.8072491  34.9966863
  54.9660150  85.9408277  34.7626728  56.5178775  87.0856654  33.8414744
  57.6187557  87.6488000  34.0403803  56.1012057  86.6104453  32.6705225
  55.3839836  85.9006487  32.7138891  56.6049193  87.0075272  31.3565995
  57.5109598  87.5955074  31.5031229  56.9428093  85.7896488  30.4323423
  56.0156203  85.2778591  30.1744835  57.6257479  86.2393736  29.1846322
  58.5533179  86.7508820  29.4416810  57.8494274  85.3743757  28.5602553
  56.9742079  86.9219322  28.6390031  57.8729179  84.8063820  31.1405474
  57.3899328  84.4353264  32.0445082  58.0917978  83.9700217  30.4767006
  58.8016487  85.3111896  31.4064970  55.4769604  87.8776167  30.7384176
  54.3948289  87.3533156  30.3384756  55.7145009  89.2081053  30.7139073
  56.5975756  89.5474811  31.0676055  54.7497947  90.1860568  30.1972896
  55.0857463  91.1963081  30.4310159  54.6540628  90.0763540  29.1170582
  53.4133958  89.9588692  30.8299892  53.3022116  90.0142796  32.0296962
  52.3959044  89.5851683  30.0570054  52.4439532  89.6294532  29.0491217
  51.0700730  89.3641685  30.6899060  51.1153165  89.6916788  31.7285537
  49.9483357  90.1395527  29.9784865  49.9577903  89.8664924  28.9232861
  48.9955145  89.8478282  30.4202202  50.1353760  91.6842879  30.1179827
  49.8337964  91.9915672  31.1193468  51.1854352  91.9323140  29.9631902
  49.2972315  92.4018922  29.1013476  48.2587900  92.0739133  29.1479120
  49.3437119  93.4811456  29.2467814  49.8345352  92.0814916  27.7657091
  50.8399924  92.1216952  27.6788822  49.1109930  91.7494194  26.6847416
  49.7730629  91.4811757  25.5322562  50.7813372  91.5351458  25.5083742
  49.2549693  91.2286068  24.7028663  47.7425675  91.6851909  26.7505624
  47.2717446  91.8894578  27.6204480  47.2117610  91.4339100  25.9288562
  50.6690882  87.9092453  30.9988912  49.4897254  87.6323841  31.1483339
  51.6774953  87.0219479  31.1186133  52.6088331  87.3726514  30.9462290
  51.5237481  85.6205343  31.4784642  50.4799582  85.3158714  31.4024213
  52.3733365  84.7527490  30.5609419  53.4144114  85.0497218  30.6877124
  52.2246318  83.2185660  30.8723072  51.1838334  82.9207301  30.7452908
  52.8518105  82.6461331  30.1888832  52.5350268  83.0238855  31.8988809
  51.9628794  85.0298411  29.1073760  50.9037908  84.8001313  28.9904761
  52.1317573  86.0842011  28.8885047  52.7652803  84.1871114  28.1580802
  52.5965458  83.1325416  28.3760502  52.4580176  84.3996349  27.1341063
  53.8245131  84.4166100  28.2740807  51.9911009  85.5059997  32.9016339
  53.0834142  85.9583432  33.2351874  51.1299120  84.9841956  33.7644695
  50.2041951  84.7528324  33.4333823  51.4321000  84.7769643  35.1824510
  52.4363335  85.1423254  35.3972197  50.4430810  85.5218514  36.0695737
  49.4471097  85.2112396  35.7538827  50.5621128  85.3296364  37.1358686
  50.5028944  86.9641295  35.8977535  49.7856558  87.5631125  34.9126108
  49.1141575  86.9765172  34.2856373  49.9111756  88.9313205  34.7058435
  49.3320604  89.4050391  33.9131790  50.7588762  89.6913661  35.4920493
  50.8538224  90.7604782  35.3020902  51.4744700  89.1104133  36.5011545
  52.1101186  89.7055250  37.1568168  51.3818586  87.7443538  36.6827738
  51.9920109  87.2526871  37.4404532  51.3964181  83.2816628  35.4044627
  50.7622589  82.5602090  34.6113470  52.1398983  82.7813610  36.3800453
  52.5738102  83.3807184  37.0674975  52.3952249  81.3244959  36.4574415
  51.8557976  80.7989883  35.6694318  53.8672013  81.0763665  36.2797468
  54.4459592  81.6481612  37.0051359  54.0779064  80.0141408  36.4037632
  54.3806260  81.4605624  34.9216012  54.7569315  82.7703286  34.6424385
  54.6802638  83.5299117  35.4204201  55.2321672  83.1157767  33.3705031
  55.5396352  84.1379704  33.1498581  55.3107930  82.1204043  32.3664012
  55.6434719  82.3808635  31.3616198  54.9663482  80.8232630  32.6614543
  55.0595901  80.0464760  31.9025023  54.5019393  80.5049906  33.9206123
  54.2176829  79.4787750  34.1533778  51.9043286  80.7694580  37.7860151
  52.2784926  81.2970708  38.8475225  50.9919453  79.7980218  37.7491044
  50.6668582  79.4359950  36.8640314  50.4286771  79.2583205  38.9527096
  50.8448198  79.6706751  39.8718876  49.0296872  79.4237624  38.9779551
  48.5975862  79.0074269  38.0679807  48.6177521  78.9068282  39.8446666
  48.7899001  80.4852025  39.0407753  50.8370580  77.8294101  38.9137876
  51.8527747  77.5432473  38.3372327  50.0732391  76.8995840  39.4769430
  49.1528741  77.0952499  39.8440160  50.5845226  75.5231057  39.5731022
  49.7726699  74.7959839  39.5561216  51.2856738  75.3029291  38.7681124
  51.3137343  75.4212755  40.9077025  52.0489247  76.3699876  41.3282644
  51.1796974  74.2606325  41.5456649  50.5574546  73.5694834  41.1516775
  51.7872411  73.9853384  42.8557469  51.4744942  74.6935824  43.6230010
  51.4017822  72.5842918  43.3018680  50.3379542  72.4452715  43.1094007
  52.1564706  71.5658164  42.5997603  53.2204350  71.7039152  42.7921350
  51.8495850  70.5799532  42.9490369  51.9678824  71.6463883  41.5292262
  51.6023787  72.5062301  44.6914695  51.3656661  71.6285669  45.0001357
  53.3302418  74.1962403  42.9422298  53.8609108  74.6391432  43.9654176
  54.0164844  73.9150737  41.8470739  53.5319586  73.5026530  41.0626995
  55.4650738  74.1217301  41.7392645  55.9766712  73.5735293  42.5303671
  55.9713701  73.6262922  40.4024144  55.3578108  74.0787025  39.6233321
  57.0032368  73.9592821  40.2907501  55.9115503  72.1099124  40.2785676
  56.6433089  71.8334971  39.5194729  56.2092382  71.6900464  41.2393973
  54.5156441  71.5524124  39.8797724  53.6559363  72.3134556  39.3114330
  54.2797279  70.3324743  40.1569860  55.8627019  75.5762129  41.9239417
  57.0172607  75.8783550  42.0914259  54.9192661  76.4954176  41.8937163
  53.9341731  76.3072748  41.7741611  55.3479941  77.9065562  42.1110135
  56.4290961  77.9647327  41.9847872  54.7090464  78.8115005  41.1330995
  55.1721289  79.7919380  41.2444422  54.8511662  78.3406752  39.6774483
  54.3878766  77.3604375  39.5652148  54.3588298  79.0526546  39.0150365
  55.9077581  78.2744483  39.4179715  53.3174892  78.8392809  41.4582835
  52.8573197  79.4181260  40.8460885  54.9151101  78.4093477  43.4862638
  55.0526799  79.6108346  43.7835678  54.3631800  77.5231875  44.3215191
  54.2448225  76.5653890  44.0236721  53.9091629  77.8884172  45.6296860
  53.4225545  78.8637549  45.6349608  52.9117719  76.8323206  46.1858515
  53.3878259  75.8518191  46.1953130  52.6218357  77.1046772  47.2006712
  52.0257306  76.7993432  45.5518621  55.1341951  77.9904503  46.5212550
  56.1671145  77.3345299  46.2640781  54.9767302  78.7187897  47.6222162
  54.0756353  79.1188754  47.8414392  56.0565177  78.9284305  48.5437446
  56.9782722  78.5813447  48.0768406  56.2065786  80.4385766  48.8763680
  57.0411185  80.5711797  49.5648880  56.4696545  81.2437758  47.5903527
  55.6352661  81.1120287  46.9014853  56.5728665  82.3003937  47.8373446
  57.3873070  80.8896527  47.1206599  54.9942127  80.9039140  49.4449515
  55.0764856  81.8371714  49.6543844  55.7733557  78.2104196  49.8385209
  56.6437496  78.0426634  50.6505513  54.5416978  77.7791868  50.0369293
  53.7785043  78.0420179  49.4298421  54.2455015  76.9569021  51.2021136
  55.1598888  76.5621052  51.6449799  53.5327761  77.8507710  52.2505410
  54.2716098  78.5830442  52.5761172  52.7285425  78.3587772  51.7183399
  52.9582932  77.1267809  53.4732730  52.5680742  76.1740543  53.1153036
  53.7946169  76.9456452  54.1484431  51.7986737  77.9203995  54.2572661
  52.2149446  78.8405408  54.6673361  51.0006672  78.1641790  53.5559412
  51.2211016  77.0445669  55.4213098  50.8301712  76.1134563  55.0110573
  52.0163775  76.8219519  56.1327014  50.1131478  77.7884963  56.1231284
  49.3759321  77.9944952  55.4642071  49.7461229  77.2181641  56.8715360
  50.4752804  78.6511141  56.5037195  53.4042482  75.7779202  50.7052396
  52.3949364  75.9768817  50.0371364  53.8552837  74.5648139  51.0241739
  54.7578081  74.5618489  51.4775394  53.2615592  73.2880767  50.6623312
  53.9453803  72.4938790  50.9618940  51.9042019  73.0410561  51.3258756
  51.2136775  73.8648357  51.1451476  51.5179219  72.1348416  50.8593318
  51.9021695  72.7964434  52.8043100  51.5143892  73.6862135  53.7955808
  51.2391077  74.6928666  53.4809868  51.5663484  73.0597933  55.0399791
  51.3158125  73.4820304  55.9226156  52.0069410  71.7735791  54.8698580
  52.2267516  70.7797024  55.8154744  52.0285690  71.0179172  56.8604988
  52.6816981  69.5533358  55.3765817  52.9113293  68.7615947  56.0896844
  52.8535383  69.3094415  54.0241441  53.1448722  68.3190638  53.6743214
  52.6601557  70.3217889  53.0607682  52.8568453  70.0862730  52.0148494
  52.2226250  71.5659300  53.4846027  53.2049776  73.1308075  49.1746582
  52.3145010  72.4682809  48.5955400  54.2186030  73.6962645  48.5358663
  54.8963929  74.2246446  49.0664457  54.4503379  73.5099423  47.1178462
  53.6404801  73.9452735  46.5324265  55.7624891  74.2171782  46.7430374
  55.5932411  75.2937212  46.7656112  56.5200071  73.9534454  47.4810831
  56.2064107  73.8374522  45.4566865  57.0254028  74.2949440  45.2528407
  54.6611473  72.0061312  46.8813455  55.4159704  71.4104206  47.5906754
  54.1205075  71.4657691  45.8005183  53.6954433  72.0708970  45.1125938
  54.1110881  70.0628867  45.5627235  54.2699410  69.8748630  44.5008798
  54.9090823  69.5931192  46.1377218  52.8082808  69.4710117  45.9695566
  52.5949292  68.2729495  45.7649639  51.9193272  70.2704033  46.5396790
  51.9956349  71.2728257  46.4425927  50.7690580  69.7255499  47.2854192
  50.7350212  68.6456232  47.1415478  50.8583929  70.0187546  48.7967092
  51.1699989  71.0588912  48.8921909  49.8730563  69.8925514  49.2453567
  51.8418530  69.1377023  49.4986045  53.2316749  69.3791788  49.3936130
  53.5843619  70.2191470  48.7951443  54.1811329  68.5248508  50.0703952
  55.2517019  68.7257393  50.0300517  53.6987460  67.4614272  50.8358121
  54.6032129  66.6494075  51.4511305  55.5128582  66.9072277  51.2847761
  52.3155909  67.1826951  50.9312343  51.9475907  66.3384154  51.5142163
  51.4032591  68.0246223  50.2514746  50.3334794  67.8216090  50.3010431
  49.5324636  70.3957260  46.7867487  49.6030927  71.4045551  46.0713717
  48.3892742  69.8796486  47.1747980  48.3149242  69.0586080  47.7582907
  47.1526533  70.5619453  46.7720863  47.1262907  70.6480595  45.6858135
  45.9192955  69.7976305  47.2292213  45.9838068  69.6854894  48.3115161
  45.0465584  70.4005190  46.9783122  45.7895927  68.4222557  46.5827553
  45.7740352  68.5340712  45.4986168  46.6415137  67.8068141  46.8718301
  44.2944792  67.6306942  47.1080266  44.7440504  66.9378647  48.7115842
  45.0505307  67.7408949  49.3818912  43.8856080  66.4179880  49.1369141
  45.5680752  66.2354401  48.5863480  47.0681776  71.9113052  47.4051051
  46.4897589  72.7935493  46.8543093  47.5070898  71.9980148  48.6356719
  47.7956754  71.1571579  49.1150230  47.6148585  73.2422767  49.3273300
  46.6276088  73.6353186  49.5701373  48.3735296  73.0152766  50.6132002
  47.7560210  72.3955631  51.2633830  49.2936372  72.4831559  50.3716439
  48.7104413  74.3082262  51.3211360  49.3220868  73.9971132  52.1680122
  49.3048871  74.9327259  50.6542526  47.5217835  75.0952096  51.8210555
  47.7357826  76.2549406  52.2363596  46.3741395  74.5691963  51.8684827
  48.3819185  74.2975429  48.5081760  47.8888551  75.3775727  48.3712453
  49.5799768  73.9910768  48.0049853  49.9413452  73.0683747  48.2002621
  50.3995325  74.9036543  47.1916761  50.5400068  75.8253632  47.7563165
  51.3667906  74.4300211  47.0237991  49.7713013  75.2380736  45.8455768
  49.9475328  76.3618554  45.2981731  49.0090163  74.2900581  45.2807429
  48.9657075  73.3455093  45.6357799  48.2129011  74.6260456  44.0561075
  48.8773865  74.9185967  43.2431056  47.4265487  73.3997089  43.6232133
  46.7499849  73.1000993  44.4235854  46.8492076  73.6346545  42.7290220
  48.1156616  72.5835662  43.4061106  47.2269093  75.8305758  44.3254123
  47.1961246  76.8096081  43.5705335  46.4331618  75.7463272  45.3964347
  46.5008574  74.9356276  45.9950019  45.5061143  76.8662215  45.8091281
  44.7640351  77.1235813  45.0533613  44.7725376  76.5824147  47.1486967
  45.5227897  76.3913249  47.9159683  43.8794450  77.7786910  47.5840364
  43.1286021  77.9700980  46.8174210  43.3842841  77.5395141  48.5251584
  44.4985567  78.6661720  47.7151089  43.9709247  75.2975309  47.1962402
  44.6330484  74.4490034  47.0239169  43.5007277  75.1980115  48.1745603
  43.2015084  75.3199327  46.4244906  46.3752430  78.1384474  46.0942818
  46.1494583  79.2107234  45.5369216  47.4025348  78.0382352  46.9114967
  47.6912731  77.1944265  47.3855395  48.1706184  79.2812583  47.1592725
  47.5229026  79.9771196  47.6925083  49.4226291  79.0767351  47.9652356
  49.1165229  78.7153085  48.9469530  50.0063834  78.3066737  47.4609179
  50.2797724  80.3442509  48.1299602  50.1370577  80.9579368  47.2405093
  49.9719737  80.9062535  49.0117268  51.7543576  79.9667241  48.2563799
  52.4871398  79.8973406  47.2544547  52.2070349  79.6952870  49.3658041
  48.5509088  79.8801623  45.8376329  48.4219188  81.1204383  45.5917222
  49.0272341  79.0122833  44.9501048  49.1611221  78.0338756  45.1619818
  49.5566925  79.5274833  43.6862453  50.1183381  80.4136864  43.9817066
  50.4997111  78.5481191  43.0728003  49.9504739  77.6588713  42.7634834
  50.9785476  78.9993721  42.2037856  51.2602286  78.2693971  43.8022017
  48.4784003  80.0111218  42.7117785  48.7060226  80.9076049  41.9822066
  47.2987853  79.4016383  42.7061814  47.1413424  78.6202605  43.3264715
  46.2121581  79.8189830  41.8326881  46.5604435  79.8855606  40.8019777
  45.3865753  79.1097276  41.8915874  45.7263207  81.1742966  42.2743035
  45.5721110  82.1002339  41.4737828  45.4898675  81.3091144  43.5507642
  45.6223487  80.5303801  44.1801457  44.9147017  82.5082295  44.0694736
  44.0817968  82.8282102  43.4433898  44.3937049  82.2575932  45.4852687
  45.2100523  81.8696911  46.0945372  44.0470278  83.2029817  45.9025882
  43.2236117  81.2356803  45.4766197  42.4885902  81.6712772  44.7997892
  43.5948315  80.3010238  45.0562480  42.5648005  80.9588640  46.8393884
  43.1824366  81.3116299  47.9258933  41.4375630  80.3393227  46.8275105
  45.9339819  83.6798747  43.9696713  45.5535228  84.8110513  43.7310831
  47.2214951  83.4004052  44.1265677  47.5346651  82.4641996  44.3399755
  48.2044912  84.4440287  44.0396848  47.8770507  85.3178870  44.6029375
  49.5477091  83.9459692  44.6341328  49.3884937  83.8826044  45.7105781
  49.6960651  82.9446864  44.2297526  50.7834048  84.7964388  44.3521230
  50.5586176  85.5085073  43.5580639  51.0638453  85.3374211  45.2558892
  51.9761369  83.8695946  43.9038017  52.9182953  84.1757829  44.3584281
  51.7837727  82.8225262  44.1377743  52.0846520  84.0085111  42.4938855
  51.9992997  84.9542385  42.1497721  52.2805298  83.0436789  41.6289678
  52.5310222  81.7826208  41.9476403  52.5815532  81.5109109  42.9190930
  52.6703362  81.0986005  41.2177036  52.2135092  83.4002076  40.3854641
  52.0217671  84.3632452  40.1490456  52.3533085  82.7134805  39.6581672
  48.3403618  84.8374774  42.5448744  48.5470297  86.0188084  42.2326891
  48.2525182  83.8884208  41.6033326  48.2262875  82.8946635  41.7818200
  48.3550530  84.3430640  40.2111329  49.1827515  85.0518177  40.1850062
  48.6422152  83.2327902  39.2382758  47.8179228  82.5196449  39.2463932
  48.7538580  83.6468839  38.2361967  49.5632943  82.7259728  39.5261104
  47.1057617  85.1325695  39.8507855  47.2156657  86.1750365  39.1992206
  45.9324158  84.6949746  40.3087496  45.8649321  83.8250250  40.8174077
  44.7021625  85.4651632  40.0795068  44.4703271  85.4935984  39.0148270
  43.5224253  84.8425302  40.8186916  43.7358679  84.8154755  41.8872469
  42.6270632  85.4386812  40.6425356  43.3599638  83.8277927  40.4553553
  44.8777085  86.8795645  40.5620816  44.4782432  87.8145707  39.8741151
  45.4307117  87.0222478  41.7727190  45.6082406  86.2065111  42.3411876
  45.6935915  88.3349373  42.3472097  44.7938090  88.9484877  42.3019707
  46.1140973  88.1942487  43.8046625  46.8861644  87.4285838  43.8806155
  46.5121280  89.1468029  44.1543938  44.9478668  87.8068182  44.6428541
  44.0941442  88.4155130  44.3449460  44.7263991  86.7557760  44.4574778
  45.2172207  88.0071917  46.0848221  46.0239295  87.3558715  46.4211283
  45.4804487  89.0452533  46.2878950  44.0119015  87.6781047  46.8287316
  43.2984964  88.3903781  46.8905307  43.7637809  86.4782016  47.3647109
  44.6833242  85.4925251  47.2495931  45.5494052  85.6686380  46.7607291
  44.4995626  84.5850199  47.6530353  42.6335316  86.3008086  48.0790491
  41.9908268  87.0703292  48.2009857  42.4350000  85.3992568  48.4887910
  46.7211870  89.1595719  41.5722863  46.6231423  90.3886551  41.5167019
  47.7009281  88.4844453  40.9657655  47.8007541  87.4883044  41.0993224
  48.6746089  89.1691321  40.1296473  49.1311109  89.9918493  40.6799577
  49.7696609  88.1943962  39.7140366  49.3279016  87.1979285  39.7141573
  50.0659206  88.4598034  38.6992020  50.9879111  88.2065396  40.6149777
  51.5174563  89.1508614  40.4887281  50.6255991  88.1279655  41.6399925
  51.9347821  87.0510101  40.3218090  53.0565430  87.0849803  40.8623859
  51.5647791  86.0919294  39.5780187  47.9652478  89.7481865  38.9109435
  48.2078774  90.9162369  38.5298425  47.0776210  88.9524538  38.3125631
  47.0171817  87.9761015  38.5639245  46.2315463  89.4414066  37.2294325
  46.7813114  89.9755972  36.4545144  45.4082314  88.2759570  36.5519233
  44.9690934  87.6582512  37.3353111  44.2632722  88.8489275  35.6309009
  44.7017030  89.4664086  34.8469389  43.7134800  88.0238623  35.1780252
  43.5822192  89.4530608  36.2303101  46.3648450  87.3163979  35.7930962
  47.0808006  86.8870634  36.4939397  45.7863544  86.5169902  35.3300676
  46.8997728  87.8706820  35.0219139  45.2627582  90.5490142  37.6725850
  45.0432459  91.4826532  36.9090272  44.6807498  90.4444913  38.8824834
  44.8578424  89.6344956  39.4592368  43.7486485  91.4613536  39.3794909
  43.0030125  91.6854234  38.6166548  43.0322294  90.9579079  40.6282664
  43.8344251  90.5936009  41.2700309  42.5158853  91.7798917  41.1240803
  42.0735544  89.8600251  40.3654502  42.5293070  89.1180586  39.7098008
  41.7010364  89.1993252  41.7082052  41.2447740  89.9406170  42.3642615
  40.9949552  88.3880569  41.5310221  42.5997119  88.8016573  42.1797378
  40.8519015  90.4717772  39.5961482  41.1945128  90.9093849  38.6584828
  40.1244800  89.6876435  39.3861634  40.3862472  91.2441804  40.2082415
  44.4680212  92.8019575  39.7016524  43.8625293  93.9174968  39.6411672
  45.7368833  92.6913894  40.0923296  46.1086762  91.7780402  40.3106471
  46.5892214  93.8527354  40.3054782  46.0687107  94.5606147  40.9505168
  47.9129231  93.4812676  40.9592444  47.6755637  93.1263495  41.9621367
  48.4212466  92.6917047  40.4058027  48.8461780  94.6700232  41.0744024
  48.5691079  95.6443864  41.8000865  49.9140523  94.6291407  40.3241317
  50.5773700  95.3902344  40.3532147  50.0717522  93.8366141  39.7182166
  46.7845870  94.5393326  38.9965960  46.4302065  95.6764704  38.8850564
  47.2542527  93.8383374  37.9684356  47.6283310  92.9160783  38.1404907
  47.2546832  94.3423602  36.5933346  48.0731909  95.0576819  36.5129640
  47.4498819  93.4926479  35.9391284  45.9453527  95.0261771  36.1505603
  45.9800907  96.1354342  35.6186036  44.7913578  94.3787837  36.3432167
  44.7918890  93.4436866  36.7249136  43.5006282  94.9789901  35.9690959
  43.5812820  95.3954708  34.9650351  42.3559777  93.9501823  35.9843242
  42.4371051  93.5308070  36.9871412  41.3952803  94.4541139  35.8784302
  42.4570966  92.8377693  34.9629149  43.4477124  92.3883499  35.0322214
  41.3782157  91.7516878  35.2139209  40.3872513  92.2002893  35.1443141
  41.4734739  90.9645029  34.4660128  41.5147865  91.3260702  36.2080529
  42.3926925  93.3667275  33.5323009  43.2170425  94.0594781  33.3630585
  42.4689148  92.5342649  32.8328029  41.4460709  93.8846484  33.3781436
  43.1583794  96.1170759  36.9023050  42.1317297  96.7661844  36.7558580
  44.0052482  96.3651740  37.8855337  44.8157826  95.7846609  38.0472062
  43.7800543  97.5080493  38.7758918  44.7302533  97.7567330  39.2485199
  43.4477025  98.3477374  38.1655103  42.7585635  97.2453213  39.8422165
  42.3753619  98.1741029  40.5359875  42.3397850  95.9802623  40.0178452
  42.6783024  95.2358908  39.4250413  41.3263456  95.6629357  41.0132955
  40.7328049  96.5498359  41.2351441  40.4047331  94.5819715  40.4949522
  41.0417014  93.8102617  40.0627087  39.8811468  94.1771618  41.3610276
  39.4056507  95.0339772  39.4741479  38.6259042  95.6323004  39.9454287
  39.8955706  95.6224952  38.6984373  38.7937570  93.8093669  38.8607566
  39.5468123  93.0213604  38.8535209  37.9532331  93.5022673  39.4830981
  38.3204005  94.0531318  37.4764004  38.9007996  94.8412140  36.9966463
  38.3771941  93.1445580  36.8769279  36.9035417  94.4822987  37.5910595
  36.8507387  95.3244313  38.1461489  36.5307245  94.6623568  36.6698177
  36.3654732  93.7520100  38.0351989  41.8232863  95.2366481  42.3885845
  41.0345470  95.1016361  43.3062642  43.1182827  94.9976573  42.5427461
  43.7365935  95.0864936  41.7490842  43.6888948  94.5827925  43.8224785
  43.1807212  94.9192003  44.7261868  43.7484163  93.0394934  43.8351638
  43.7853926  92.6917338  42.8027902  44.9488589  92.5278276  44.5787395
  44.9123434  92.8748178  45.6113891  44.9499025  91.4379560  44.5620274
  45.8567783  92.8988477  44.1032103  42.4029820  92.4303632  44.3526278
  41.5874350  92.7429607  43.7005021  42.4718381  91.3425410  44.3515008
  42.2112186  92.7807176  45.3668169  45.0794106  95.2106860  43.9445054
  45.7870617  95.3246509  42.9578060  45.4945752  95.6092703  45.1310352
  44.9344188  95.4975944  45.9640134  46.7949876  96.2954834  45.2495683
  46.9776875  96.9139808  44.3708301  46.8497820  97.1818873  46.4893372
  47.8717604  97.2046775  46.8676771  46.3990278  98.6166317  46.1384894
  45.3769049  98.5947013  45.7604903  46.4423297  99.2402209  47.0314399
  47.0592374  99.0291070  45.3755425  45.9996749  96.6283894  47.5064831
  46.0322675  97.1845547  48.2882875  47.9922085  95.3614858  45.2930708
  47.8553447  94.1489630  45.4676754  49.1766152  95.9383260  45.1511231
  49.2399852  96.9164446  44.9074684  50.4086511  95.1758774  45.2672469
  50.4403822  94.4147507  44.4876454  51.6406371  96.0869444  45.1158289
  51.3255173  96.9312332  44.5026609  51.8884170  96.4384245  46.1174111
  52.8457699  95.4452826  44.4998914  52.7086481  94.3665664  44.5751892
  52.8767901  95.7346251  43.4494545  54.1713960  95.8438713  45.1822795
  54.4365371  97.0720694  45.3482630  54.9645791  94.9146033  45.5512126
  50.3821510  94.4520209  46.6212641  50.5775763  93.2417029  46.6659912
  50.0633666  95.1817801  47.6971051  49.8521354  96.1605311  47.5647149
  50.0779344  94.6476210  49.0770902  51.0924332  94.3381736  49.3283542
  49.6119523  95.7009257  50.1105852  49.7611612  95.2330608  51.0836927
  50.3032654  96.5363445  49.9998527  48.0984977  96.2390028  50.0006206
  47.7360629  95.9128308  49.0257597  47.5418293  95.7260144  50.7848815
  47.8906557  97.8157210  50.1451172  46.9012039  98.0510652  49.7530749
  47.9253763  98.0526923  51.2084791  48.9977050  98.6866401  49.3651096
  48.5202465  99.6464882  49.1680674  49.8089889  98.8249042  50.0798128
  49.5685559  98.1101886  48.0387707  48.8170233  97.9823987  47.3762239
  50.2480544  98.7527475  47.6573263  50.0113985  97.2209720  48.2212082
  49.2305192  93.4061695  49.1807031  49.5014129  92.5371753  50.0090682
  48.2405759  93.3082137  48.2815458  48.2192816  93.9822624  47.5296785
  47.1703298  92.3250742  48.3572423  47.0470880  91.9643804  49.3784233
  45.8726307  92.9909143  47.9160645  46.1384497  93.7884020  47.2221965
  45.2586473  92.2518538  47.4013666  45.0948076  93.5717646  49.0779492
  44.1438150  94.3559308  48.7911298  45.4592172  93.2480253  50.2540541
  47.3596302  91.0625465  47.5499022  46.6082835  90.1362332  47.7172393
  48.3553363  91.0418630  46.6784467  48.8646179  91.8959298  46.5015244
  48.6768299  89.8737632  45.8848311  47.8255793  89.5330542  45.2954339
  49.8556638  90.2078472  44.9416666  50.6568152  90.6345107  45.5451691
  50.3813049  88.9739555  44.1917455  49.5807863  88.5469841  43.5876213
  51.2079195  89.2664967  43.5442668  50.7286038  88.2318732  44.9106311
  49.4333717  91.2920975  43.9338906  48.6487721  90.8605531  43.3123813
  49.0240830  92.1210715  44.5112851  50.5615161  91.8003118  43.0463967
  50.9710255  90.9719291  42.4683103  50.1758962  92.5608722  42.3674679
  51.3463379  92.2324456  43.6672148  48.9639753  88.6161210  46.7635311
  48.4837884  87.4909003  46.4944944  49.7523922  88.7884014  47.8106038
  50.1228128  89.6953369  48.0562786  50.0932354  87.6587471  48.6474749
  49.8322331  86.7307239  48.1388003  51.5828057  87.6466480  48.9454494
  51.9202962  88.5861669  49.3830606  51.7692115  86.8325280  49.6458503
  52.4487119  87.3939504  47.7569901  52.9731644  88.3211067  46.9202172
  52.7236698  89.3618424  47.1269087  53.7373972  87.7155922  45.9535682
  54.1719479  88.1878668  45.1736823  53.7629922  86.3650232  46.1800129
  54.4036323  85.3240426  45.4503282  55.0018406  85.5978757  44.5812708
  54.2261546  84.0137871  45.8933239  54.7214746  83.1905185  45.3785552
  53.3967968  83.7266246  47.0235227  53.2314259  82.7038965  47.3623135
  52.7548441  84.7892678  47.7473757  52.1399195  84.5294320  48.6090334
  52.9397909  86.1178609  47.3073702  49.3193904  87.8176812  49.9271599
  49.6121112  88.6939416  50.6816400  48.3382278  86.9664535  50.1689540
  48.2198938  86.1474359  49.5898974  47.3980293  87.1784191  51.2734160
  47.5853952  88.1162001  51.7964457  45.9115029  87.1866900  50.7391576
  45.7717219  86.3076723  50.1099609  44.9175389  87.1664921  51.8472724
  45.0564055  88.0455052  52.4766792  43.9096886  87.1730261  51.4321874
  45.0577351  86.2661344  52.4454385  45.6566693  88.4135583  49.8403850
  46.3350382  88.3870712  48.9876153  44.6263527  88.3965714  49.4850559
  45.8282354  89.3254781  50.4122837  47.6330782  86.0188751  52.2194116
  47.6501691  84.8906204  51.7702455  47.8576225  86.2398431  53.5075552
  48.1624863  87.1163104  53.9062563  47.9099390  85.0254342  54.3565523
  48.2581291  84.2070733  53.7263553  48.8186234  85.1152210  55.5903829
  48.5457789  84.2699652  56.2222040  49.8350628  84.9789419  55.2210877
  48.7425569  86.3939655  56.3980092  49.5040359  87.0794854  56.0261045
  47.7616288  86.8620588  56.3157247  49.0230157  86.1056074  57.8688231
  49.9875105  85.3836716  58.1867402  48.1565819  86.6337191  58.7755240
  48.3006560  86.4702398  59.7617383  47.3733124  87.1868051  58.4582132
  46.5715123  84.4445178  54.7165968  45.6198863  85.1733533  54.9576249
  46.5194180  83.1180827  54.7322575  47.3392722  82.6091059  54.4341282
  45.3468432  82.3673181  55.1039535  44.4440964  82.7876753  54.6607298
  45.5379381  80.9691048  54.5734367  46.0985722  81.0605056  53.6431494
  46.1393976  80.4342265  55.3084549  44.2536510  80.2021529  54.3164904
  44.5151220  79.3304381  53.7166179  43.9163934  79.8773141  55.3007852
  43.1281610  80.9821077  53.6218646  43.3951722  81.7825817  52.6924334
  41.9551215  80.7606623  54.0066010  45.0648885  82.3309473  56.6546643
  45.9155813  81.9164594  57.4214253  43.8652088  82.7770234  57.1143759
  42.8326841  83.5664174  56.4306306  42.4446306  82.9978351  55.5855099
  43.2698885  84.4979235  56.0711205  41.7955164  83.7936803  57.5005674
  40.8174509  83.6316748  57.0475318  41.8788338  84.8317430  57.8224143
  42.0228175  82.8833115  58.6159758  41.3815751  82.0244542  58.4178057
  41.8128844  83.2704522  59.6130464  43.5002389  82.4671166  58.5149515
  44.1800324  82.9833572  59.1927970  43.6042356  80.9466988  58.7437488
  43.2732484  80.1113073  57.8225162  44.0117614  80.6021822  59.9643204
  44.2347066  81.3216819  60.6371614  44.1725731  79.2374424  60.3539326
  44.8146999  78.7195155  59.6415254  44.8155632  79.1589342  61.7374709
  45.8332897  79.5445959  61.6774961  44.2370764  79.7680905  62.4320080
  44.8460655  77.7682703  62.2139303  43.8045948  77.4619569  62.3119702
  45.3318569  77.1627345  61.4487948  45.5604624  77.5722348  63.5459090
  46.4782003  76.7281913  63.5586302  45.1941910  78.2330066  64.5654853
  42.8394391  78.5582273  60.3671885  41.8314961  79.1278676  60.8131904
  42.7985117  77.3329583  59.8653052  43.6376983  76.8673168  59.5505942
  41.5558630  76.5861966  59.8624407  40.8116380  77.0843329  59.2410803
  41.8124480  75.2044716  59.2966368  41.9013789  75.2489799  58.2111832
  42.7256417  74.7847791  59.7185793  40.7290073  74.3986923  59.6409376
  40.8652025  73.5139885  59.2940229  41.1415734  76.3846137  61.2874198
  42.0062260  76.0480224  62.1311954  39.8451002  76.5986560  61.6009626
  39.2212867  77.0473559  60.9455051  39.3547618  76.3176797  62.9309350
  40.1647665  76.4611908  63.6460547  38.2075723  77.2205798  63.3140141
  37.5566225  77.3693063  62.4524782  37.6386700  76.7643151  64.1241207
  38.7591229  78.5730259  63.7764129  39.0835535  78.5104610  64.8151291
  39.6011478  78.8685157  63.1504881  37.6785616  79.5788592  63.6567779
  37.3156490  79.5882329  62.6290106  36.8637060  79.3046496  64.3267920
  38.1931601  80.9607983  64.0245898  38.9206107  81.2881310  63.2817778
  37.3608019  81.6640354  64.0517320  38.8437882  80.9075361  65.3686654
  39.6153669  80.2562770  65.3436127  39.1859850  81.8256763  65.6136550
  38.1697723  80.6046542  66.0571886  38.9968887  74.8430811  63.1013985
  39.0720269  74.3423718  64.1874885  38.6552797  74.1396569  62.0391595
  38.5093027  74.6089252  61.1567892  38.3958525  72.7066648  62.1112092
  37.7762477  72.4678890  62.9756021  37.6535249  72.2890336  60.8507430
  38.2280262  72.5657338  59.9667269  37.5421764  71.2053266  60.8865296
  36.2907368  72.9322796  60.7859572  35.7216051  73.2588018  61.8899958
  35.7954502  73.1492228  59.6539749  39.6391984  71.8338182  62.3099245
  39.6080728  70.8636402  63.0919091  40.7219337  72.1858133  61.6190282
  40.6799905  73.0487524  61.0958875  41.9951483  71.4430415  61.6410449
  41.9172422  70.5603547  62.2757841  42.3614746  70.9922694  60.2133631
  42.6876358  71.8649127  59.6474906  43.4641880  69.9610813  60.2274831
  43.1385705  69.0878890  60.7928232  43.6982945  69.6646940  59.2050110
  44.3529324  70.3851399  60.6948259  41.1088249  70.3965110  59.5452077
  40.3242245  71.1520327  59.5040820  41.3548093  70.0734598  58.5336598
  40.7593529  69.5416688  60.1241852  43.0708988  72.3992085  62.0865520
  43.8642301  72.8512757  61.2366433  43.1063298  72.7581868  63.3919968
  42.3212889  72.3643710  64.5900047  42.3237460  71.2780494  64.6794452
  41.2958856  72.7169498  64.4789404  43.0484729  73.0472463  65.7398263
  43.8043718  72.3892328  66.1684684  42.3480331  73.3505151  66.5179738
  43.6861497  74.2712839  65.0696628  44.5486206  74.6022086  65.6482230
  43.0055487  75.1096373  64.9211850  44.1439049  73.7288263  63.7223770
  44.1512117  74.4941325  62.9462641  45.5367328  73.0832166  63.8179203
  45.7101551  71.8596753  63.9987026  46.5284605  73.9209415  63.6552846
  46.3351903  74.9027720  63.5183366  47.9258311  73.4829348  63.6632471
  48.0289180  72.4850112  63.2370772  48.7805023  74.4446788  62.8583375
  48.6948439  75.4467308  63.2786402  49.8215977  74.1238718  62.8944407
  48.4397722  74.4551521  61.8230150  48.4393846  73.4394079  65.0933737
  48.7249051  74.4789167  65.6833785  48.5836965  72.2575432  65.6460977
  48.1433451  71.4282377  65.2740193  49.3133086  72.1468490  66.8842342
  49.0978693  72.9576379  67.5801555  48.9617221  70.8162973  67.5585310
  48.9627425  70.0277426  66.8060155  49.9516988  70.4888558  68.6214051
  49.9509208  71.2767853  69.3745768  49.6844220  69.5407056  69.0879613
  50.9455093  70.4090302  68.1808712  47.5439927  70.8636165  68.1309199
  46.8328702  71.0511722  67.3264140  47.3113779  69.9105292  68.6059090
  47.4760425  71.6629183  68.8688901  50.8290507  72.3147248  66.5839863
  51.3877128  71.7239373  65.6234861  51.4960524  73.1354308  67.3860109
  51.0064693  73.7293514  68.0399726  52.9288143  73.3118320  67.2357384
  53.1629105  73.5751800  66.2042608  53.4289028  74.4337162  68.1534074
  52.6328505  75.1644097  68.2965404  53.7117469  74.0117289  69.1177859
  54.6351054  75.1150229  67.5250466  55.4582186  74.4004836  67.5294028
  54.3794917  75.3677535  66.4960237  55.0510698  76.3662420  68.2620042
  55.6781981  77.2325496  67.6118140  54.7578601  76.4818345  69.4774232
  53.8195396  72.0613010  67.4012246  53.7011177  71.3092338  68.3468736
  54.7119475  71.8623568  66.4483163  54.7214203  72.4688534  65.6407450
  55.6898076  70.7892631  66.5156111  55.2974168  69.8490329  66.9030334
  56.4075531  70.5310985  65.1505378  56.9351997  71.4345516  64.8448220
  57.4112342  69.3770689  65.2971967  56.8842254  68.4730921  65.6024643
  57.9074245  69.2028593  64.3424470  58.1551060  69.6353864  66.0508717
  55.4013747  70.3649650  63.9997195  54.7012052  71.1981183  64.0607022
  55.9632804  70.4307133  63.0680336  54.6664253  69.1112883  64.0344922
  54.1038668  69.0450248  64.9657477  53.9775880  69.0698220  63.1907607
  55.3659427  68.2776193  63.9730814  56.7448758  71.1795960  67.5622688
  57.3620087  72.2699956  67.4843931  56.9281126  70.2653651  68.5211479
  56.3140382  69.4649290  68.5692536  57.9532845  70.4070274  69.5361486
  58.5961073  71.2595523  69.3168786  57.3333076  70.6020797  70.9527499
  58.1420404  70.6220755  71.6832645  56.5132963  71.9356818  71.0446034
  55.7040440  71.9162258  70.3146500  56.0959516  72.0379326  72.0463355
  57.1691337  72.7811268  70.8367559  56.4827883  69.4849057  71.2594354
  56.1003027  69.6039532  72.1318646  58.8883409  69.1886630  69.5498124
  58.4834165  68.0566356  69.2846784  60.1435734  69.4329243  69.8779720
  60.4946090  70.3798699  69.8909102  61.0762498  68.3423250  70.1731770
  60.5951508  67.3770910  70.0151698  62.2670131  68.4439208  69.2524826
  62.8862803  69.3251800  69.4197835  62.8666944  67.5457527  69.4000509
  61.8768911  68.4641347  67.8168625  61.6270748  69.6380358  67.1307241
  61.2638502  69.3429316  65.8935178  61.0387014  70.1350287  65.1793825
  61.2463433  68.0221265  65.7631750  61.0005780  67.5107964  64.9275669
  61.6188040  67.4509139  66.9553152  61.6568903  66.3658210  67.0513576
  61.5267179  68.3532032  71.6282299  61.8368327  69.4135370  72.1845978
  61.5580527  67.1507794  72.2063209  61.1663355  66.3771688  71.6884565
  62.0834478  66.8935365  73.5383291  61.4534372  67.3776985  74.2845014
  62.1167364  65.4102651  73.8236287  62.2559864  65.2728609  74.8959298
  60.8131005  64.7034919  73.3780606  60.6734053  64.8400739  72.3057126
  60.8813830  63.6390108  73.6023741  59.9655057  65.1331487  73.9119882
  63.2151960  64.8596160  73.1136512  63.2606305  63.9147401  73.2771916
  63.5151012  67.4567659  73.7668795  64.2614395  67.7762778  72.8115443
  63.8596699  67.5991651  75.0490987  63.2053952  67.2697139  75.7444302
  65.1175572  68.1698564  75.5020676  65.1687831  69.2266014  75.2398366
  65.2221335  68.0376176  77.0256652  64.6394602  68.8480170  77.4636649
  64.8569015  67.0827255  77.4036688  66.6265703  68.1932544  77.5363318
  67.1531384  69.4600008  77.7563148  66.5244096  70.3331037  77.5816974
  68.4580230  69.6221289  78.1915811  68.8564442  70.6182330  78.3842934
  69.2648656  68.4980003  78.3833567  70.2937969  68.6231861  78.7205937
  68.7522713  67.2014581  78.1419741  69.3765736  66.3195283  78.2853153
  67.4481565  67.0611401  77.7211897  67.0417468  66.0684256  77.5276727
  66.2768705  67.4216373  74.8838720  67.2895566  68.0138887  74.4646870
  66.0944899  66.1127800  74.8847501  65.2045975  65.7803876  75.2278332
  67.0476603  65.1461198  74.4161828  68.0293889  65.3215244  74.8561162
  66.5704871  63.7761359  74.8323437  65.5130398  63.6297300  74.6121855
  67.1617527  63.0545865  74.2685429  66.7561844  63.4447002  76.2779865
  65.8031310  63.0123301  77.1228097  64.7942916  62.9365849  76.7170936
  66.3320839  62.7538537  78.3504924  65.8131430  62.4233740  79.1514812
  67.6735633  63.0210666  78.3281486  68.6410248  62.9214448  79.3523925
  68.3207230  62.5715486  80.3337579  69.9303681  63.2729848  79.0471410
  70.7073090  63.2126722  79.8092599  70.2737312  63.7142976  77.7571620
  71.2997589  63.9945735  77.5188093  69.3037816  63.8086944  76.7310450
  69.6165252  64.1691785  75.7510739  67.9829399  63.4566148  77.0273208
  67.1861368  65.1430920  72.8952840  68.2984379  64.9384435  72.3832106
  66.0584570  65.3344862  72.1957045  65.1766753  65.2739724  72.6844770
  66.0358540  65.5181734  70.7437688  66.5445761  64.6778022  70.2714583
  64.5865246  65.5974337  70.1879028  63.9376918  65.9931798  70.9692479
  64.5803580  66.2745034  69.3337138  64.0778433  64.2207162  69.7512162
  64.5291665  64.0526062  68.7733884  64.4769503  63.4990222  70.4639367
  62.5521722  64.0491261  69.6479029  61.7689306  65.0278001  69.8524289
  62.1496298  62.8870954  69.3752107  66.8578797  66.7366390  70.3840348
  67.6721192  66.7020580  69.4410968  66.7051678  67.7826314  71.1825015
  66.0740351  67.7344746  71.9695541  67.3640132  69.0631076  70.8959036
  67.2740528  69.3003003  69.8358347  66.7058129  70.1849491  71.7063047
  66.2042172  69.7268134  72.5587204  67.4975092  70.8440787  72.0624861
  65.6956934  70.9946289  70.8967003  66.2652574  71.7696880  70.3838835
  65.2724433  70.3094429  70.1622062  64.5319689  71.6599816  71.7257600
  64.1809060  72.5192085  71.1542857  63.7314557  70.9242842  71.8033963
  64.8927996  72.1105900  73.0827900  65.5635450  72.8621550  73.1559336
  64.3756293  71.5990438  74.2149580  63.4508631  70.6222550  74.1779280
  63.1356694  70.2629187  73.2881919  63.0761390  70.2528653  75.0400375
  64.7909253  72.0461687  75.3977744  65.4944065  72.7695259  75.4421449
  64.4006878  71.6600597  76.2455557  68.8535813  69.0275604  71.1397007
  69.6111388  69.5951760  70.3945718  69.2540250  68.3316759  72.1961247
  68.5587942  67.7883112  72.6875597  70.6115509  68.3794386  72.7427573
  71.2143016  69.0748808  72.1586761  70.6033804  68.8516377  74.2232621
  69.9387904  68.2328787  74.8262187  71.6260838  68.7446470  74.5848292
  70.1798175  70.3202292  74.3761354  70.7886830  71.2585241  73.8083242
  69.1102454  70.5144226  75.0880536  68.7682897  71.4534467  75.2343401
  68.6258918  69.7254238  75.4917655  71.4271971  67.1092507  72.6645270
  72.5964362  67.1664141  72.9700254  70.8745539  65.9662739  72.2887391
  69.8843028  65.8232749  72.1507055  71.7616854  64.8272966  72.1392653
  72.3017070  64.6903987  73.0761403  71.0359030  63.5271279  71.7998435
  70.2239746  63.8252082  71.1365038  71.7282156  62.8821059  71.2587798
  70.4677151  62.7747945  72.9870364  69.9513512  63.4869558  73.6306942
  69.4937780  61.6871617  72.5493259  70.0095700  60.9743186  71.9059659
  69.1074339  61.1698164  73.4275018  68.6668335  62.1384298  72.0010374
  71.5831712  62.1740883  73.7806331  72.2439412  62.9648514  74.1358459
  71.1728670  61.6336442  74.6336699  72.1471638  61.4851600  73.1518332
  72.7960486  65.1796633  71.0545771  72.4809551  65.9126397  70.1203273
  74.0378699  64.6287288  71.1597440  74.5955543  63.6480432  72.1098634
  74.0184239  62.7244493  72.0651957  74.5549887  64.0526650  73.1211668
  76.0349203  63.4683671  71.6088783  76.0953572  62.5883105  70.9686075
  76.7081251  63.3466044  72.4574479  76.3535266  64.7237764  70.8473867
  77.1100672  64.4480056  70.1127468  76.6766216  65.6161602  71.3834469
  75.0109068  64.9922171  70.1409754  74.8442861  66.0189281  69.8150915
  74.8433229  64.0558066  68.9625570  74.3230900  62.9306439  69.1256143
  75.2833839  64.5214183  67.7860022  75.5465774  65.4943775  67.7213582
  75.5082875  63.6652877  66.6257416  74.5680789  63.2246421  66.2941718
  76.0805484  64.4829067  65.4982077  76.3955617  63.8323336  64.6823520
  75.3380437  65.1914949  65.1312070  77.2035005  65.1915288  65.9981719
  77.5863162  65.7215341  65.2952164  76.6007751  62.6481414  67.0040130
  77.2579001  62.7963447  68.0481296  76.8004341  61.6289068  66.1673104
  76.1968573  61.4545017  65.3765025  77.9126495  60.7165383  66.4022032
  77.8301448  60.1772120  67.3458236  78.0100256  59.7156561  65.2833883
  78.0604123  60.2342582  64.3259896  79.2334785  58.9107344  65.4717365
  79.1836124  58.3914347  66.4287852  79.3161790  58.1805986  64.6666510
  80.1050911  59.5651281  65.4590126  76.7222813  58.8489060  65.2357559
  75.8574451  59.4910427  65.0689597  76.7998190  58.1264263  64.4232841
  76.6044657  58.3200412  66.1815478  79.2250266  61.4928077  66.5024137
  79.9709045  61.3599969  67.4218665  79.4522468  62.3671918  65.5488586
  78.7688591  62.4757897  64.8131364  80.6668416  63.1213978  65.4641128
  81.5416122  62.4754890  65.3887647  80.5644541  63.9494656  64.1956060
  80.8843827  63.3362962  63.3531286  79.5244439  64.2441979  64.0555641
  81.3581450  65.0806894  64.2701070  81.2744943  65.5843733  63.4571464
  80.8251833  63.9514558  66.7656967  81.9428173  64.0328558  67.3417473
  79.7010396  64.5119322  67.2447960  78.8507668  64.3738123  66.7174836
  79.6338130  65.3103433  68.4842239  80.3433544  66.1325921  68.3917200
  78.6236684  65.7107389  68.5701928  79.9595030  64.5139227  69.7399477
  80.6436773  65.0006587  70.6168728  79.4838096  63.2892142  69.8049394
  78.7853738  63.0080898  69.1316966  79.8752444  62.3403792  70.8235104
  79.5285566  62.6661525  71.8042134  79.2433482  60.9857733  70.5074977
  78.2000835  61.2797935  70.3923890  79.6322856  60.6451218  69.5479226
  79.3425247  59.8620110  71.5202791  80.3958658  59.6763698  71.7303044
  78.6042681  60.2254807  72.8462742  77.5507037  60.4108209  72.6371093
  78.6942915  59.3989709  73.5511700  79.0514325  61.1208821  73.2780158
  78.8385538  58.5361269  70.9376653  79.4379963  58.2700332  70.0670550
  78.9238283  57.7522280  71.6902157  77.7950915  58.6423053  70.6409981
  81.4244686  62.2222325  70.9114983  82.0612616  62.5585305  71.9554966
  82.0219207  61.7998915  69.8006248  81.4543446  61.4442844  69.0446485
  83.4755513  61.7025790  69.6809188  83.8463922  60.9291770  70.3535447
  83.8868124  61.3411243  68.2406964  83.4072624  62.1278439  67.6582848
  84.9663219  61.3910863  68.0983484  83.3696713  59.9660392  67.7706516
  82.3215101  59.9088033  68.0642210  83.4925695  59.7094287  66.2683041
  84.5405705  59.7660464  65.9740472  83.1033779  58.7182640  66.0354455
  82.9214941  60.4607895  65.7229324  84.0320108  58.8423227  68.5669905
  83.8027778  58.9627048  69.6257916  83.6546156  57.8799836  68.2211906
  85.1117101  58.8816740  68.4227689  84.1898423  62.9664252  70.1855151
  85.1418762  62.8568812  70.9680287  83.7392416  64.1498207  69.7881838
  82.9904070  64.2342423  69.1157115  84.3849314  65.3617545  70.2537673
  85.4341924  65.3535030  69.9586697  83.7254892  66.5869035  69.6601994
  82.6561798  66.3845794  69.5990311  83.8992407  67.4157639  70.3464216
  84.2540645  66.9540378  68.2745337  85.3354894  67.0720722  68.3430099
  84.0208287  66.1356404  67.5934105  83.6430264  68.2267589  67.7562448
  82.6081745  68.2985215  68.0909547  84.2056768  69.0817945  68.1309955
  83.6842712  68.2200252  66.2424359  84.6734594  68.5651094  65.9415637
  83.5451194  67.1891082  65.9169421  82.6395659  69.0879993  65.6108612
  82.7685937  70.0433865  65.9120038  82.7228446  69.0376966  64.6055581
  81.7228736  68.7681415  65.8891870  84.3976362  65.4358340  71.7883369
  85.4167480  65.8007575  72.3930551  83.2792078  65.0152742  72.3869030
  82.5938732  64.5447810  71.8132724  82.9829828  65.2052995  73.8028430
  83.3477786  66.1221897  74.2658070  81.4543718  65.0718763  74.0523719
  81.0490286  64.4000006  73.2958138  81.1208167  64.5111088  75.4842360
  81.5254683  65.1827409  76.2413807  80.0398284  64.4386780  75.6038975
  81.5657664  63.5229029  75.6007180  80.7268369  66.3805184  73.6873938
  80.9001996  67.1016763  74.4861287  81.1516980  66.7594942  72.7578940
  79.1792543  66.1617935  73.5054918  78.7535806  65.7832375  74.4347911
  78.7055402  67.1093566  73.2489409  79.0050791  65.4410532  72.7065574
  83.7370278  64.1571177  74.5917924  84.4202898  64.4806962  75.5743101
  83.5775132  62.9095495  74.1553447  82.8852416  62.7585586  73.4355801
  84.3288716  61.7683498  74.6355508  84.1050131  61.5340042  75.6762566
  84.0087459  60.5817425  73.7763055  83.5551560  60.9262839  72.8469790
  85.2767943  59.8006825  73.4624587  85.7307336  59.4553935  74.3913371
  85.0300554  58.9419752  72.8380850  85.9790131  60.4445183  72.9328707
  82.9877021  59.7131433  74.4606905  83.3792363  59.4321606  75.4383666
  82.0753594  60.2956172  74.5889651  82.6797036  58.4609177  73.6605399
  83.5915402  57.8776562  73.5322434  81.9383787  57.8633198  74.1910240
  82.2876652  58.7411132  72.6828405  85.8721072  61.9558552  74.5990599
  86.5677276  61.4820704  75.4884318  86.3929676  62.6341457  73.5825151
  85.7896454  62.9617529  72.8417215  87.7953120  62.9226713  73.4951464
  88.3814476  62.0180411  73.6569750  88.0380510  63.3424785  72.5189605
  88.1400960  63.9229530  74.5552491  89.1845570  63.8407855  75.1530338
  87.2752444  64.8998657  74.7513670  86.5224378  65.0278199  74.0903001
  87.4317687  65.8889064  75.8312932  88.4155397  66.3562262  75.7876339
  86.3649824  66.9756588  75.6555568  86.3990447  67.4248017  74.6629795
  85.3949057  66.5020533  75.8063844  86.4496355  68.1072490  76.6431131
  87.1611725  69.2699043  76.3327703  87.6775146  69.3298186  75.3746987
  87.2185928  70.3576200  77.2370415  87.7661661  71.2672759  76.9904846
  86.5601987  70.2511265  78.4588705  86.6090674  71.0708899  79.1755990
  85.8377742  69.0961449  78.7670740  85.3246921  69.0184570  79.7256205
  85.7715546  68.0452354  77.8540350  85.1815730  67.1584447  78.0856033
  87.4012470  65.2213855  77.2545283  88.2201657  65.5479853  78.1114191
  86.5361594  64.2336901  77.4804422  85.8602590  63.9348638  76.7919940
  86.5265411  63.5849199  78.7846292  86.9953081  64.2259418  79.5312534
  85.1043786  63.3242889  79.1995695  85.0114955  63.4126410  80.2820046
  84.4399786  64.0421693  78.7186117  84.7490458  62.0113869  78.8008013
  83.8422445  61.8325518  79.0602802  87.2887194  62.2462779  78.9283409
  87.3313334  61.6334474  80.0217789  87.8058234  61.7146114  77.8351620
  87.5306807  61.9281810  76.8871198  88.7988879  60.7234094  78.0398161
  88.3997184  60.1141892  78.8507499  89.0613845  59.8382675  76.8608978
  88.9383876  60.4144353  75.9438359  90.4832540  59.2895468  76.9294756
  90.6068805  58.7128339  77.8461099  90.6670348  58.6465721  76.0687159
  91.1931676  60.1166362  76.9226692  88.1845464  58.7076685  76.9645068
  88.3305650  58.1201494  76.2194563  89.9800563  61.5491638  78.4154544
  90.6711404  61.2326306  79.3590881  90.1679346  62.6591988  77.7286255
  89.5691913  62.9623240  76.9738270  91.3166468  63.4139731  78.0106347
  92.1995152  62.7881269  77.8804075  91.4337307  64.6156532  77.0901151
  92.0888620  64.3854532  76.2499305  90.4508365  64.9020248  76.7159356
  91.9799900  65.6777805  77.8328603  92.0640278  66.4514082  77.2706880
  91.2302609  63.7848177  79.4746885  92.1501751  63.5231066  80.2422530
  90.1116822  64.3493949  79.9130667  89.3919923  64.6558849  79.2741539
  90.1645384  64.9554199  81.2344258  91.2094438  65.2215604  81.3939289
  89.2994904  66.2537307  81.3227835  88.2518635  65.9908866  81.1761889
  89.4666143  66.9082719  82.6554599  90.5139845  67.1718424  82.8025899
  88.8561996  67.8103691  82.6968735  89.1517548  66.2207884  83.4405278
  89.8118536  67.2791933  80.2892298  89.7337125  66.8563750  79.2876207
  89.2106008  68.1864659  80.3479772  90.8535949  67.5199471  80.5011577
  90.1733580  63.9073712  82.4032107  90.9985034  64.0271315  83.2853329
  89.3294559  62.8655612  82.3552619  88.5465226  62.9330830  81.7207892
  89.4900542  61.6063069  83.1556280  89.1350586  61.7207516  84.1798251
  88.7278306  60.3882156  82.4888282  89.0177044  60.3701771  81.4382341
  89.0283574  59.0103577  83.1309313  88.7382966  59.0274798  84.1814889
  88.4640928  58.2359491  82.6113201  90.0943845  58.7970399  83.0523036
  87.3150794  60.6021546  82.4958349  86.8758910  59.8524629  82.0875749
  90.9428312  61.1247446  83.2979856  91.3112012  60.5048090  84.3095425
  91.7456127  61.3435405  82.2517910  91.3466854  61.7150667  81.4015413
  93.1685667  61.0390966  82.2706834  93.3461022  60.0469036  82.6855729
  93.7779196  61.0993157  80.8725659  93.6161841  62.0899127  80.4475258
  94.8479761  60.9008059  80.9331725  93.3053766  60.3502950  80.2371365
  93.8429882  62.0396340  83.1863769  94.5952579  61.6307987  84.0830569
  93.5609196  63.3317644  82.9991520  93.0213554  63.6261854  82.1977244
  94.1880788  64.3644263  83.8335541  95.2596992  64.1835855  83.9173734
  93.9716667  65.7431042  83.1916834  94.4486057  65.5222505  82.2367740
  92.8938159  65.8211988  83.0494198  94.5141026  67.0745598  83.7396938
  94.8307451  67.6951499  82.9014180  93.4482407  67.8093317  84.5403476
  93.1314109  67.1895137  85.3791226  93.8574758  68.7470152  84.9163490
  92.5915022  68.0183720  83.8997215  95.7987472  66.9024868  84.5473925
  96.5704436  66.4641454  83.9145885  96.1345144  67.8746087  84.9084198
  95.6094783  66.2457172  85.3964685  93.7553086  64.2671043  85.3488720
  94.5140268  64.6445729  86.2575438  92.5550139  63.7174168  85.5947442
  91.9506715  63.5262012  84.8084198  92.0651744  63.3736529  86.9657346
  92.2850865  64.2208758  87.6153123  90.9858673  63.2345161  86.9037951
  92.6969100  62.1120482  87.5611275  92.4288078  61.7148012  88.7018852
  93.5263308  61.4723230  86.7528109  93.6229948  61.8043910  85.8038714
  94.2868851  60.3279141  87.1518065  93.9070621  59.9269780  88.0915319
  94.1713246  59.2608810  86.0903508  93.2366943  59.3988662  85.5467283
  95.0071896  59.3060851  85.3922201  94.1463607  57.8770667  86.6352615
  95.0678626  57.4786744  87.6116937  95.8019084  58.1976561  87.9754821
  95.0540477  56.1927817  88.1131527  95.7640151  55.8969621  88.8855112
  94.1069575  55.2505916  87.6173846  94.1038675  54.2330355  88.0081147
  93.1823014  55.6262073  86.6323339  92.4520868  54.9179960  86.2407683
  93.2098665  56.9448701  86.1503956  92.4981303  57.2614698  85.3879678
  95.7389573  60.7614717  87.3236267  96.4487022  60.2126811  88.1674945
  96.1679565  61.7388804  86.5204450  95.6000449  61.9999641  85.7270906
  97.4460327  62.4242736  86.7141806  98.2899391  61.7515821  86.8671753
  97.7877527  63.3944430  85.5383329  96.8515130  63.8208202  85.1781149
  98.7603351  64.5502300  85.9590975  99.6970362  64.1246135  86.3190178
  98.9591548  65.1896656  85.0990433  98.3018455  65.1409746  86.7521358
  98.3093667  62.5953337  84.3416792  97.5461380  61.8888477  84.0153946
  98.5461575  63.2767003  83.5245077  99.2078027  62.0505505  84.6317219
  97.3566774  63.1842660  88.0261090  98.2167733  63.0479141  88.9003545
  96.2981499  63.9586246  88.1924529  95.6621283  64.1633684  87.4350522
  96.1797380  64.7285376  89.4181358  97.1374118  65.1977963  89.6434275
  95.1134741  65.8260842  89.2906095  94.4949253  65.4737079  88.4651838
  94.5034799  65.9129209  90.1897572  95.7066826  67.2076180  88.9358196
  95.7664235  67.7685935  89.8684709  97.1191816  67.1738816  88.2550741
  97.0601316  66.6134305  87.3220647  97.4469556  68.1922827  88.0464496
  97.8335414  66.6924502  88.9229171  94.7079118  67.9715502  88.0871337
  93.7809859  68.1025199  88.6454838  95.1190052  68.9483349  87.8321925
  94.5051007  67.4134656  87.1730723  96.0516379  63.8716239  90.6824689
  96.6423977  64.2172532  91.6852377  95.3336287  62.7476507  90.5998617
  94.7937690  62.6098116  89.7574537  95.1717663  61.7650115  91.7135986
  94.9547665  62.2956563  92.6406511  94.0106738  60.7855847  91.4212474
  93.1662659  61.3869873  91.0845138  94.3472696  60.1444465  90.6065420
  93.5813146  59.9239325  92.6003191  93.6327207  58.5219462  92.5301563
  93.9825038  58.0462363  91.6139405  93.2378221  57.7310782  93.6288286
  93.2822919  56.6434116  93.5730996  92.7853808  58.3589618  94.8081645
  92.3859550  57.6206301  95.9056395  92.4540184  56.6733726  95.7653893
  92.7286681  59.7458732  94.8900571  92.3762612  60.2324394  95.7995422
  93.1275825  60.5163373  93.7954533  93.0923309  61.6042503  93.8529226
  96.4344278  60.9628732  92.1330700  96.5999695  60.6540433  93.3155213
  97.2938965  60.6084507  91.1808767  97.0452782  60.7246140  90.2088714
  98.5733838  59.9725482  91.4986646  98.4231264  59.2106178  92.2635071
  99.1758858  59.3080753  90.2578386  98.3665195  58.7850220  89.7484853
  99.5523568  60.1055056  89.6171558 100.2945118  58.3335963  90.5603123
 100.7420576  58.5991960  91.5180495  99.8775206  57.3283431  90.6210291
 101.3569812  58.3758029  89.4765211 100.9411033  57.9572866  88.5600121
 101.6426848  59.4135323  89.3045021 102.5754613  57.5791225  89.8865997
 102.7739396  57.7678034  90.9416383 102.3621470  56.5201237  89.7412805
 103.7636670  57.9580527  89.0851073 103.9617574  58.9392127  89.2199589
 104.5585830  57.4101956  89.3818585 103.5801166  57.7828938  88.1074941
  99.5492162  60.9994196  92.1102988 100.1762415  60.7218982  93.1412455
  99.6581575  62.1710554  91.4632606  99.3787467  62.1640899  90.4927038
 100.3572806  63.3668903  91.9833941 101.3548818  63.0917397  92.3257145
 100.4914060  64.4288146  90.8871364  99.5554117  64.3596108  90.3328578
 100.5377194  65.3880906  91.4026407 101.6565305  64.3158053  89.9259294
 102.1461982  65.4768874  89.2788291 101.6728704  66.4324970  89.5043742
 103.2093437  65.4196519  88.3701059 103.5797224  66.3198733  87.8796746
 103.7995769  64.1769050  88.0940449 104.8488113  64.1267847  87.1951633
 105.0761748  64.9873950  86.8356423 103.3312084  62.9919679  88.7238742
 103.7923233  62.0277815  88.5098227 102.2593384  63.0733011  89.6330215
 101.8869483  62.1713004  90.1186350  99.7497318  63.8170865  93.3198760
 100.3935295  64.5561713  94.0734285  98.5071160  63.3882153  93.5689632
  98.0505847  62.9905889  92.7605254  97.6779554  63.6828627  94.7779159
  96.6784631  63.3063689  94.5602770  98.1504281  63.0849960  96.1395322
  97.8750225  63.8142769  96.9013723  97.5726864  62.1722713  96.2853000
  99.6834111  62.7586471  96.2570339 100.0627440  62.5986846  95.2477671
 100.1713808  63.6297783  96.6942042  99.9808956  61.5153406  97.1209829
  99.3318628  60.7095199  96.7781880 101.0219803  61.2376537  96.9562642
  99.7475918  61.7577476  98.6163402 100.6801854  62.0921109  99.0708410
  98.9882494  62.5305538  98.7357926  99.2919964  60.5084544  99.2821993
  99.9956690  59.7923536  99.1719986  99.1433013  60.6859175 100.2653049
  98.4276223  60.1986909  98.8614819  97.2731556  65.1935184  94.8931654
  97.1380830  65.7186136  95.9990666  97.0298874  65.8465823  93.7522175
  97.1762312  65.3556114  92.8817978  96.6477854  67.2676249  93.6964953
  96.6445087  67.6878207  94.7022408  97.6483273  68.0662578  92.8309022
  98.5565018  67.4882391  93.0018194  97.3560578  67.9817289  91.7842249
  97.9091312  69.5432647  93.1724004  96.9633328  70.0274857  93.4154973
  98.8634859  69.6464714  94.3780685  99.8097331  69.1628419  94.1355454
  99.0419376  70.6959968  94.6120605  98.4147367  69.1536736  95.2405503
  98.4159243  70.3559349  91.9625107  97.6723584  70.3248483  91.1661171
  98.5826162  71.3903312  92.2630758  99.3512947  69.9274937  91.6024838
  95.1949329  67.4477084  93.1822500  94.9329712  68.2437270  92.2701066
  94.2580945  66.7276067  93.8034137  94.5203112  66.2307918  94.6427687
  92.8890856  66.5736427  93.3040193  92.7652789  67.0896306  92.3519019
  92.6090834  65.0711212  93.0906985  93.6195208  64.8079846  92.7778492
  92.4211344  64.6687944  94.0861423  91.5907807  64.4755964  92.0945836
  91.9454763  63.4905152  91.7914219  90.1980105  64.3478049  92.7106798
  89.8424302  65.3326138  93.0136866  89.5126718  63.9247652  91.9762079
  90.2441806  63.6947644  93.5821767  91.5323856  65.2176137  90.7492850
  92.5112684  65.1817091  90.2711649  90.7951702  64.7414669  90.1028340
  91.2492606  66.2564702  90.9187437  91.8610727  67.1932189  94.2630979
  91.2156688  68.2058618  93.9511203  91.6651542  66.6994129  95.3713448
  47.7796765  69.7133825  38.1309479  48.7167429  68.9491571  37.2172932
  46.8941920  69.1180374  39.1569964  46.8997066  70.5577991  37.1407184
  47.3462759  70.7841821  35.8124294  46.1517226  70.6800520  34.8605974
  46.5904038  71.1431107  33.5814143  45.7068175  69.2148696  34.6649929
  44.2870151  69.0736153  34.7683426  46.1823526  68.8866327  33.2608181
  45.3411969  68.0310723  32.5684637  46.1510301  70.2269867  32.5702226
  47.0990265  70.4021603  31.4512217  48.3667290  69.9236748  31.2189996
  48.8309463  70.4436891  30.0230329  47.8684722  71.2834566  29.5734016
  47.8087160  72.1257955  28.4700611  48.8896212  72.2946893  27.6762690
  46.6694076  72.8619122  28.2844661  45.5933612  72.8144241  29.1201993
  45.6302315  72.0017887  30.2436878  46.7715964  71.2337063  30.4345715
  49.0817582  66.5289700  47.1217398  48.5397723  66.6499512  48.3600131
  48.3433727  67.7724305  48.7025630  48.2235311  65.5485362  49.1420506
  48.5174452  64.2571441  48.6537290  48.2895298  63.1902101  49.3076742
  49.1175161  64.1623962  47.4098031  49.4603973  62.9337512  46.9029607
  49.8691683  62.8164515  45.5799097  49.7774370  61.5346565  45.0164977
  49.7053622  61.3779700  43.6438795  49.8687993  59.9577566  43.1153732
  49.7268544  62.5072535  42.7837499  49.7341374  62.2963917  41.3046877
  49.8026431  63.8226406  43.3104005  49.8892406  63.9519624  44.7470051
  49.8904301  65.1864173  45.3737504  49.3562979  65.2938413  46.6314021
  50.1265627  66.4005207  44.5482048  48.8464046  67.0961693  44.1676798
  48.1013446  66.0788066  43.5684039  49.3082062  68.2145721  43.2148395
  50.2835918  69.0165520  43.9125294  48.2507268  69.1948935  42.7913536
  47.0907928  68.5355093  42.3617240  48.8397267  69.9886099  41.6191043
  47.8418175  70.8767898  41.2336492  48.0904886  71.8251104  40.0004993
  46.7540468  72.5515029  39.8914019  49.2355536  72.7956328  40.4195975
  48.5770238  70.9145192  38.8213457  48.0784813  70.0498610  35.5498259
  47.7833977  71.7582971  35.7385414  45.3397527  71.2461557  35.2664996
  46.1089533  68.5625255  35.4113808  43.8567074  69.6439627  34.1119318
  47.1319803  68.3948894  33.2937538  44.4572865  68.4267553  32.5053176
  45.1712787  70.3596599  32.1598888  48.8878639  69.2815767  31.8363945
  49.6992477  71.7554344  27.8259022  48.8675549  72.9572077  26.9481472
  44.7550171  73.3801812  28.9182313  47.8004762  65.6659440  50.0235612
  49.7636007  60.7048093  45.6291029  49.8219544  59.2662697  43.9304207
  50.8149249  59.8663639  42.6244844  49.0845753  59.7434542  42.4202061
  49.6712952  61.2489206  41.0935167  50.6401307  62.6895390  40.8928643
  48.8963329  62.7999846  40.8685929  49.7964911  64.6500329  42.6948901
  50.6396364  66.1136226  43.6542172  50.7070605  67.0831869  45.1326654
  48.2511883  67.5449006  44.9355539  48.6279267  65.6610520  42.8682851
  49.6566954  67.7018743  42.3429076  49.8672796  69.4349086  44.6823202
  47.9801999  69.8244645  43.6132901  47.3067573  67.9548313  41.6146836
  49.0890682  69.3332002  40.8108988  49.7388066  70.4982301  41.8957962
  51.7368367  57.4571549  57.6751268  52.8342598  58.0071107  56.8043615
  52.4925190  58.6692897  55.6096916  53.4716374  59.2134381  54.7643877
  53.0708196  59.8778681  53.5068381  53.8787168  60.9635307  53.1871763
  53.6157755  61.6700543  52.0417526  54.4423795  62.7609725  51.7658678
  54.2309180  63.5224579  50.6149648  53.1942040  63.1936546  49.7390650
  52.3719985  62.1050677  50.0154173  51.3768363  61.8377919  49.1155630
  52.5825023  61.3436979  51.1683376  51.7412745  60.1920589  51.4952920
  50.8140752  59.8349915  50.7716606  52.0435706  59.4554895  52.7453983
  51.2523593  58.3607684  53.0388014  54.8161668  59.0691787  55.1245139
  55.1709398  58.4172692  56.3079277  54.1930864  57.8821262  57.1627344
  54.6171903  57.1828861  58.4368071  54.3509980  55.8467127  58.4212704
  54.0013499  57.6651805  59.5543485  55.9541280  57.2970165  58.6793616
  51.4448042  56.4603452  57.3120767  52.0955532  57.3789394  58.7115045
  50.8670117  58.1300037  57.6374704  51.4320671  58.7620729  55.3318766
  55.2600454  63.0198649  52.4545262  54.8812588  64.3825834  50.3975181
  53.0273679  63.7935740  48.8327717  51.3065014  62.3459032  48.3302522
  51.2606038  57.9951475  53.9009710  55.6014904  59.4728407  54.4693918
  56.2340163  58.3216371  56.5752549  66.4879206  53.7897055 130.4232113
  65.8140904  54.0928751 131.0317071  66.8745028  54.5926135 130.0737571
  70.3936091  51.0747310 128.6959560  70.3149723  50.7407174 129.5895318
  71.2145758  51.5669078 128.6951032  67.9640043  48.3915306 128.3169538
  68.6675893  48.5965308 128.9327194  67.2402692  48.9592068 128.5818622
  71.2078976  55.1282610 128.0800858  70.3308442  55.0071410 127.7163104
  71.6836729  54.3368688 127.8279746  72.7233070  52.9233932 128.0229947
  73.5852234  53.2488830 128.2825765  72.9083414  52.1365428 127.5103013
  66.4879207  30.7959177 117.1477420  65.8140906  31.0990874 117.7562378
  66.8745029  31.5988258 116.7982877  70.3936092  28.0809433 115.4204867
  70.3149724  27.7469297 116.3140625  71.2145759  28.5731201 115.4196339
  67.9640044  25.3977428 115.0414845  68.6675894  25.6027431 115.6572501
  67.2402693  25.9654190 115.3063929  71.1687539  38.1592513 123.1126898
  70.6052404  38.0682450 122.3443185  71.0539934  37.3392418 123.5929390
  76.7487097  41.8263481 118.4241362  76.0975077  42.4117561 118.0375376
  77.5431460  42.3569676 118.4836400  70.6742725  38.9152618 118.8228497
  71.4473601  38.3681605 118.6841373  71.0268123  39.7796867 119.0342958
  73.0109002  35.0745284 116.4546947  73.2634523  34.5526805 115.6930410
  72.0733562  34.9111430 116.5573630  78.0552285  34.0781062 124.2621690
  78.8415374  33.6600486 123.9112107  78.3190990  34.9827155 124.4303338
  78.2262363  39.5153913 118.9610347  77.5908196  39.5888539 119.6731251
  77.8959769  40.1047512 118.2829426  72.7305291  36.9773390 118.6571322
  72.6141549  36.3018293 119.3252406  72.8407551  36.4905764 117.8403475
  75.0736832  36.4383537 122.3618011  74.7095039  35.9114158 123.0730932
  75.9303948  36.0482006 122.1884496  74.7142319  31.4673437 117.3579359
  74.8816721  32.3353673 117.7249830  74.5239488  31.6300719 116.4340649
  74.6931540  33.9231094 118.3426026  74.5731165  34.3688145 119.1811506
  73.9984128  34.2716412 117.7839564  72.4538432  46.6934736 121.9916157
  72.3762462  47.6442561 122.0704638  71.8500076  46.3480609 122.6491084
  80.3916606  34.3952568 119.1706360  81.3034462  34.6279954 118.9954058
  79.8826253  34.9789612 118.6081439  78.9986188  39.3778386 126.5619942
  78.3695051  39.5424100 125.8596010  78.6111851  39.7919996 127.3330906
  82.8775420  40.3132824 123.9164305  82.1926458  40.6931725 123.3661339
  82.9619270  40.9228151 124.6496253  74.5514150  39.1152794 123.8270027
  75.0152496  39.3940497 123.0374649  74.2870948  38.2136239 123.6443117
  73.4883036  35.2375946 120.6359592  74.1907080  35.6896990 121.1033518
  73.1563665  34.5959765 121.2639485  74.7276801  42.0516889 120.7121697
  74.5922476  42.8968425 121.1406545  75.2686613  42.2536167 119.9487631
  68.1806198  39.5692327 121.2849622  68.6930719  40.3635577 121.4355187
  68.8328911  38.8718618 121.2183224  69.9901083  42.6858083 123.3672375
  70.1667711  43.6076048 123.1793359  70.7857917  42.3716503 123.7966755
  78.0419547  35.5656062 117.7493026  77.5266171  36.3360667 117.9881413
  77.7696856  34.8921198 118.3726087  83.0153821  38.3188417 119.6846199
  82.2383264  37.9799576 119.2401361  83.6945302  38.3241040 119.0101164
  77.8305850  33.4383154 119.5752807  77.5255986  33.7529303 120.4262950
  78.7836293  33.5164574 119.6180140  76.2752282  39.5973378 121.2245761
  75.7473644  38.8626137 120.9118998  75.7739785  40.3748054 120.9785729
  80.0650587  36.1466771 124.3916749  80.5782469  36.7796763 124.8938459
  80.7151811  35.5467966 124.0260109  71.3340597  32.2897505 117.6048258
  70.4977909  32.6272191 117.9257532  71.1945367  32.1546485 116.6675395
  74.4204882  37.4153588 114.2280734  73.5131944  37.1842841 114.4271883
  74.9175914  36.6191207 114.4154715  77.3272961  46.1251095 117.1477420
  76.6534660  46.4282792 117.7562378  77.7138783  46.9280175 116.7982877
  77.3266466  35.0207642 121.7677770  78.0738285  35.5329039 121.4584892
  77.5958055  34.6991695 122.6282163  75.5993116  37.5166183 118.7504724
  74.6904335  37.2325215 118.8477194  75.6288200  37.9365261 117.8908031
  80.8312383  41.1272772 122.5195892  80.3774710  40.2863682 122.5761082
  80.2006350  41.7634171 122.8570672  79.2745323  42.9649269 123.4545710
  79.5668297  43.5254326 122.7358075  79.7843943  43.2577830 124.2098869
  75.2969204  39.0574926 116.0892803  74.8588634  38.3410785 115.6298440
  76.0379645  39.2851041 115.5277894  74.2378948  43.7429620 124.5439163
  74.1955127  43.9690466 123.6147695  75.1541647  43.5092995 124.6924964
  83.4142318  37.3332123 122.1469121  83.2760217  37.5233719 121.2190310
  83.0578537  38.0951506 122.6037172  72.3544749  40.6192649 124.3401126
  73.1485347  40.1242969 124.1383701  71.6436441  40.0910512 123.9768831
  77.1739593  43.0010744 128.6913493  77.2276615  43.5701681 129.4591209
  76.3054374  43.1712629 128.3267530  68.6627512  34.7635731 120.4160878
  67.7325100  34.7020186 120.6330840  68.7584984  34.2411683 119.6197520
  75.5264176  46.2930767 119.3624499  75.7015932  45.8218811 120.1770122
  74.8396965  46.9196534 119.5905760  76.4821240  40.5703274 125.4087801
  76.1471072  40.5304044 126.3045450  75.9825185  39.9047990 124.9358211
  79.4180431  37.9159308 115.6824860  78.8009602  37.1906136 115.5857913
  78.9496920  38.6768668 115.3391934  70.0925262  49.4420130 126.1364359
  70.3321860  50.0738654 126.8143378  69.2494458  49.0908170 126.4229719
  71.2078977  32.1344732 114.8046164  70.3308444  32.0133533 114.4408411
  71.6836730  31.3430811 114.5525053  74.6053124  45.2499253 128.5405863
  74.5323295  46.0554224 129.0525168  74.1630517  45.4491218 127.7153885
  74.3942903  44.4871023 122.0508685  73.6110425  45.0292703 122.1446909
  75.0935648  45.0045002 122.4502926  78.7869334  39.0537339 122.2681314
  77.8525613  39.1738802 122.0986018  78.9646003  38.1509806 122.0041324
  80.2418117  41.2398480 119.8017500  80.5177960  41.1255074 120.7111374
  79.3722615  40.8415965 119.7629673  76.8772181  45.4884831 123.4450314
  77.0594575  44.6706487 123.9078066  77.7005167  45.7052523 123.0075204
  77.2114346  44.4153016 120.7065362  77.7402112  43.9045470 120.0935524
  77.4742566  44.0995546 121.5710895  70.5670094  45.4668133 123.4663138
  69.8980469  45.9514260 122.9827178  70.4282964  45.7137353 124.3806517
  74.7075363  47.5011876 130.0645796  75.2593671  47.6643498 130.8294882
  75.0481556  48.0916314 129.3925821  77.8443750  45.4493852 127.0509479
  77.7194889  44.6483591 126.5420424  78.5022841  45.9440045 126.5623448
  79.9078658  43.2502872 128.6789029  78.9608994  43.1308223 128.6067355
  80.2561431  42.3625370 128.7615290  76.9125092  43.0455588 124.8793381
  76.7650054  42.1172295 125.0600951  77.7378585  43.0675679 124.3950456
  80.5159213  43.8684147 125.9658254  81.4405761  43.6627008 125.8282705
  80.3474517  43.6200548 126.8747595  72.7655483  30.1948277 118.9367166
  73.4863845  30.5729529 118.4330883  72.1420787  30.9137153 119.0402144
  76.9086606  30.8993426 119.8725498  77.1250220  31.7818063 119.5714326
  76.4280673  30.5079639 119.1431140  80.3054530  44.3869814 121.3220345
  80.4791407  43.8216237 120.5694197  80.7983421  45.1870709 121.1399835
  81.2929702  43.7036578 118.4217243  81.9880607  44.3243271 118.6404558
  81.6352852  42.8531930 118.6969621  83.1921125  41.1536284 119.9504574
  83.7172449  41.4923557 119.2253894  83.1043478  40.2183299 119.7667709
  74.8761786  47.2208267 124.3099827  74.4366776  46.7284646 125.0032684
  75.6269903  46.6781235 124.0691903  67.3554125  43.4119808 124.3124455
  68.1812145  43.1123580 123.9323099  67.0048177  42.6427431 124.7614244
  72.3235658  42.7646276 126.3822129  71.7015667  42.1016981 126.0824357
  72.9940525  42.7907408 125.6995777  71.8849165  41.3150200 119.8580589
  72.0337285  41.9985664 119.2047262  72.6915608  41.2955290 120.3730045
  69.6401798  37.3415377 120.8641658  69.3947840  36.4377707 121.0621869
  69.8097713  37.3432528 119.9221136  68.9097446  33.0743735 118.3627820
  68.2166690  33.1488090 117.7067856  68.6649197  32.3104079 118.8849337
  75.3844571  43.8098330 117.3292337  74.8118538  44.4288517 116.8762809
  75.9577364  44.3597692 117.8632259  78.6041830  44.0935480 118.4600919
  79.5372503  44.0281042 118.6633795  78.5165043  44.9291747 118.0015452
  81.2329847  43.4101351 115.4204867  81.1543479  43.0761214 116.3140625
  82.0539514  43.9023119 115.4196339  75.7691369  35.1459143 114.6708389
  76.7150474  35.0165351 114.7396807  75.3905614  34.4073805 115.1477818
  73.9534286  33.0709119 114.6063275  73.0465742  32.7742232 114.6825988
  74.2310267  32.7738937 113.7397561  72.7233071  29.9296055 114.7475254
  73.5852235  30.2550953 115.0071071  72.9083415  29.1427550 114.2348320
  79.6590585  30.9624671 120.9466825  78.7716440  31.2474322 120.7287020
  80.0744574  30.8018435 120.0994102  67.6674836  45.5432422 126.0338270
  67.5329304  44.7832823 125.4676268  67.2506898  46.2673322 125.5667059
  78.8033799  40.7269346 115.0414845  79.5069649  40.9319349 115.6572501
  78.0796448  41.2946108 115.3063929  79.6331609  36.4779207 121.1617115
  79.5766810  36.9347759 120.3224748  80.1859952  35.7169892 120.9839958
  70.8243962  46.4401740 126.2456712  70.7076346  47.3847172 126.1435403
  70.0036408  46.1375301 126.6342512  80.7120496  41.1651875 117.0913305
  81.5466100  40.7333074 116.9090780  80.5504839  40.9933889 118.0190200
  80.3666388  37.6683989 118.4569644  80.3115192  37.5028260 117.5158089
  79.7412444  38.3760021 118.6131834  73.6762514  27.1692098 118.0354963
  73.6641184  28.1133937 118.1923234  74.5685936  26.9862243 117.7414424
  73.6052078  45.8460988 126.1222719  72.6547709  45.8462850 126.0087092
  73.9084564  45.0993723 125.6058754  82.0081293  53.4884431 123.1126898
  81.4446158  53.3974368 122.3443185  81.8933688  52.6684335 123.5929390
  87.5880852  57.1555399 118.4241362  86.9368832  57.7409479 118.0375376
  88.3825215  57.6861593 118.4836400  81.5136479  54.2444536 118.8228497
  82.2867355  53.6973523 118.6841373  81.8661878  55.1088785 119.0342958
  83.8502757  50.4037202 116.4546947  84.1028278  49.8818723 115.6930410
  82.9127316  50.2403347 116.5573630  88.8946040  49.4072980 124.2621690
  89.6809129  48.9892403 123.9112107  89.1584744  50.3119072 124.4303338
  89.0656117  54.8445830 118.9610347  88.4301950  54.9180457 119.6731251
  88.7353524  55.4339429 118.2829426  83.5699046  52.3065308 118.6571322
  83.4535304  51.6310211 119.3252406  83.6801306  51.8197682 117.8403475
  85.9130587  51.7675455 122.3618011  85.5488794  51.2406076 123.0730932
  86.7697703  51.3773924 122.1884496  85.5536074  46.7965355 117.3579359
  85.7210476  47.6645591 117.7249830  85.3633243  46.9592636 116.4340649
  81.7623888  51.7096130 125.0581894  80.8374385  51.5772344 125.2659586
  82.0108301  52.4890350 125.5551837  85.5325294  49.2523012 118.3426026
  85.4124920  49.6980063 119.1811506  84.8377883  49.6008330 117.7839564
  79.1232699  51.3529404 125.8925683  79.2525080  51.6063883 126.8065095
  78.4430151  51.9457112 125.5730338  91.2310361  49.7244485 119.1706360
  92.1428217  49.9571872 118.9954058  90.7220008  50.3081529 118.6081439
  85.3907905  54.4444712 123.8270027  85.8546250  54.7232415 123.0374649
  85.1264703  53.5428156 123.6443117  84.3276791  50.5667864 120.6359592
  85.0300834  51.0188908 121.1033518  83.9957419  49.9251683 121.2639485
  78.0702125  48.8251417 125.9376726  77.2801179  49.0808945 125.4616836
  78.5613372  49.6399755 126.0428766  80.0216870  49.1895996 122.8960202
  79.2248033  49.3014690 123.4143698  79.7942462  49.5282648 122.0301093
  76.3539828  49.0781907 128.3691716  76.6047866  49.9628917 128.6349292
  76.8899376  48.8986509 127.5966808  85.5670555  57.3808807 120.7121697
  85.4316230  58.2260343 121.1406545  86.1080368  57.5828084 119.9487631
  79.0199953  54.8984245 121.2849622  79.5324473  55.6927495 121.4355187
  79.6722666  54.2010535 121.2183224  76.9848870  53.2272899 122.0609193
  77.8224092  53.6369907 121.8442901  77.1627137  52.2872341 122.0309387
  88.8813302  50.8947980 117.7493026  88.3659925  51.6652584 117.9881413
  88.6090610  50.2213116 118.3726087  86.4660413  45.7397681 122.8078264
  85.6102009  45.3504531 122.6283903  86.8787365  45.8189641 121.9478050
  93.8547576  53.6480334 119.6846199  93.0777019  53.3091494 119.2401361
  94.5339057  53.6532958 119.0101164  88.6699605  48.7675072 119.5752807
  88.3649741  49.0821221 120.4262950  89.6230047  48.8456492 119.6180140
  87.1146037  54.9265295 121.2245761  86.5867398  54.1918055 120.9118998
  86.6133540  55.7039972 120.9785729  81.8464764  45.5884961 123.5852372
  82.4208516  45.3660143 122.8525565  82.4335747  45.6573656 124.3380974
  82.1734351  47.6189422 117.6048258  81.3371664  47.9564109 117.9257532
  82.0339121  47.4838402 116.6675395  84.1487432  42.4626210 122.3127442
  83.4951844  42.1475228 121.6884057  84.1067906  41.8401951 123.0387265
  85.2598637  52.7445505 114.2280734  84.3525699  52.5134759 114.4271883
  85.7569669  51.9483125 114.4154715  88.1666716  61.4543013 117.1477420
  87.4928415  61.7574709 117.7562378  88.5532538  62.2572093 116.7982877
  88.1660220  50.3499560 121.7677770  88.9132039  50.8620957 121.4584892
  88.4351810  50.0283612 122.6282163  86.4386870  52.8458100 118.7504724
  85.5298090  52.5617133 118.8477194  86.4681954  53.2657179 117.8908031
  77.0075041  50.5663614 122.7319926  76.8099441  49.9732975 122.0070993
  76.4521705  50.2615825 123.4495865  84.9871764  50.4586721 124.8514519
  85.0420374  49.5060557 124.7756996  84.1762966  50.6146160 125.3355818
  86.1362958  54.3866844 116.0892803  85.6982388  53.6702703 115.6298440
  86.8773399  54.6142959 115.5277894  82.9264124  49.0763781 122.6104898
  82.1131990  49.3757951 123.0170090  83.4223119  48.6819469 123.3279380
  82.4178199  46.6482136 128.2266133  83.0577578  46.5070895 127.5289097
  81.5855730  46.3616650 127.8504735  79.5021266  50.0927648 120.4160878
  78.5718855  50.0312104 120.6330840  79.5978738  49.5703601 119.6197520
  79.4206816  46.6182461 123.0039120  79.6813633  47.5327794 122.8948280
  80.2423988  46.1506904 123.1535733  90.2574186  53.2451226 115.6824860
  89.6403356  52.5198054 115.5857913  89.7890674  54.0060586 115.3391934
  82.0472732  47.4636650 114.8046164  81.1702198  47.3425451 114.4408411
  82.5230485  46.6722728 114.5525053  73.5674872  52.2513810 124.8987672
  74.2545912  51.9375540 124.3108687  73.4123001  53.1555174 124.6254923
  78.3709594  47.1404006 129.3272695  78.2867783  46.5329676 128.5923105
  77.5492300  47.6313025 129.3282192  85.1268277  47.7674953 124.4214575
  84.7566064  47.2145993 125.1095481  85.6227369  47.1633086 123.8689575
  73.1442848  50.3314403 127.1705139  73.1826947  49.7977994 127.9642257
  72.6383141  49.8049609 126.5516116  76.7751426  49.0578505 120.2459070
  77.0704867  48.1489184 120.1926124  75.8739461  49.0366245 119.9240072
  80.3045673  47.1334502 126.2286619  79.5832258  47.7470469 126.0894092
  81.0938928  47.6692267 126.1503265  78.5039267  46.7392603 120.3698395
  78.1751973  45.8589982 120.1873501  78.8578638  46.6840272 121.2574785
  81.6181090  47.0265573 120.7373873  81.9577163  47.5551494 120.0152481
  82.0653211  47.3645979 121.5132440  83.6049237  45.5240194 118.9367166
  84.3257600  45.9021447 118.4330883  82.9814542  46.2429071 119.0402144
  87.7480360  46.2285343 119.8725498  87.9643975  47.1109981 119.5714326
  87.2674427  45.8371557 119.1431140  82.4879582  49.1871056 126.4496243
  82.3424162  49.5011359 127.3420524  82.0104785  49.8055957 125.8967141
  83.7512861  45.0587985 121.7664702  83.8728772  44.1304631 121.9655590
  83.4614903  45.0726671 120.8543018  78.1947879  58.7411726 124.3124455
  79.0205899  58.4415498 123.9323099  77.8441931  57.9719348 124.7614244
  76.3956484  56.6598052 125.2713389  75.5588393  56.2320227 125.0897390
  76.3680130  56.8530496 126.2084180  82.7242919  56.6442117 119.8580589
  82.8731040  57.3277582 119.2047262  83.5309363  56.6247207 120.3730045
  80.4795552  52.6707295 120.8641658  80.2341594  51.7669625 121.0621869
  80.6491467  52.6724445 119.9221136  79.7491200  48.4035653 118.3627820
  79.0560445  48.4780008 117.7067856  79.5042952  47.6395996 118.8849337
  86.2238325  59.1390248 117.3292337  85.6512292  59.7580435 116.8762809
  86.7971119  59.6889610 117.8632259  89.4435585  59.4227398 118.4600919
  90.3766258  59.3572960 118.6633795  89.3558798  60.2583665 118.0015452
  92.0723601  58.7393268 115.4204867  91.9937233  58.4053132 116.3140625
  92.8933268  59.2315036 115.4196339  86.6085124  50.4751061 114.6708389
  87.5544228  50.3457269 114.7396807  86.2299368  49.7365722 115.1477818
  84.7928041  48.4001037 114.6063275  83.8859496  48.1034150 114.6825988
  85.0704022  48.1030855 113.7397561  75.7105981  49.7207400 125.0562321
  75.3908765  48.8672709 124.7636695  75.1639409  49.9355979 125.8120288
  86.4090106  42.9437927 120.7607516  85.5990835  42.5985012 121.1362762
  87.0974523  42.6345470 121.3495127  83.5626825  45.2587972 114.7475254
  84.4245989  45.5842870 115.0071071  83.7477169  44.4719468 114.2348320
  75.5794241  53.3410312 127.0255443  74.8857712  52.9264265 126.5125397
  76.3267232  53.3830848 126.4288862  77.4930984  53.2728566 124.9021457
  77.4701672  53.3716253 123.9503341  77.8031620  54.1193716 125.2238624
  90.4984340  46.2916589 120.9466825  89.6110195  46.5766240 120.7287020
  90.9138329  46.1310352 120.0994102  89.6427553  56.0561264 115.0414845
  90.3463403  56.2611266 115.6572501  88.9190202  56.6238026 115.3063929
  90.4725364  51.8071125 121.1617115  90.4160565  52.2639676 120.3224748
  91.0253706  51.0461810 120.9839958  91.5514251  56.4943793 117.0913305
  92.3859855  56.0624991 116.9090780  91.3898594  56.3225807 118.0190200
  91.2060143  52.9975906 118.4569644  91.1508947  52.8320178 117.5158089
  90.5806198  53.7051939 118.6131834  84.5156268  42.4984015 118.0354963
  84.5034938  43.4425855 118.1923234  85.4079690  42.3154161 117.7414424
  92.8866486  62.7928568 114.8046164  92.0095953  62.6717368 114.4408411
  93.3624239  62.0014646 114.5525053  94.4020580  60.5879890 114.7475254
  95.2639744  60.9134788 115.0071071  94.5870924  59.8011386 114.2348320
  66.4879208   7.8021300 103.8722727  65.8140907   8.1052997 104.4807685
  66.8745030   8.6050380 103.5228184  70.3936094   5.0871556 102.1450173
  70.3149725   4.7531419 103.0385931  71.2145761   5.5793323 102.1441646
  67.9640046   2.4039551 101.7660152  68.6675896   2.6089553 102.3817807
  67.2402694   2.9716313 102.0309235  71.1687540  15.1654636 109.8372204
  70.6052405  15.0744573 109.0688492  71.0539935  14.3454540 110.3174697
  76.7487099  18.8325603 105.1486669  76.0975078  19.4179684 104.7620683
  77.5431462  19.3631798 105.2081707  70.6742726  15.9214741 105.5473803
  71.4473602  15.3743728 105.4086679  71.0268125  16.7858990 105.7588265
  73.0109004  12.0807407 103.1792253  73.2634524  11.5588928 102.4175716
  72.0733563  11.9173552 103.2818937  78.0552287  11.0843185 110.9866997
  78.8415376  10.6662608 110.6357414  78.3190991  11.9889277 111.1548645
  78.2262364  16.5216035 105.6855653  77.5908197  16.5950662 106.3976558
  77.8959770  17.1109634 105.0074733  72.7305292  13.9835513 105.3816628
  72.6141551  13.3080416 106.0497713  72.8407552  13.4967887 104.5648781
  75.0736833  13.4445660 109.0863318  74.7095041  12.9176281 109.7976239
  75.9303949  13.0544129 108.9129803  74.7142320   8.4735559 104.0824666
  74.8816723   9.3415796 104.4495137  74.5239489   8.6362841 103.1585955
  74.6931541  10.9293217 105.0671333  74.5731166  11.3750268 105.9056813
  73.9984130  11.2778535 104.5084871  72.4538433  23.6996859 108.7161464
  72.3762463  24.6504684 108.7949945  71.8500077  23.3542731 109.3736390
  80.3916607  11.4014690 105.8951667  81.3034463  11.6342077 105.7199364
  79.8826254  11.9851734 105.3326746  78.9986190  16.3840509 113.2865248
  78.3695052  16.5486223 112.5841316  78.6111852  16.7982118 114.0576212
  82.8775422  17.3194946 110.6409612  82.1926460  17.6993848 110.0906645
  82.9619271  17.9290273 111.3741560  74.5514152  16.1214917 110.5515333
  75.0152497  16.4002620 109.7619956  74.2870950  15.2198361 110.3688424
  73.4883038  12.2438069 107.3604899  74.1907081  12.6959113 107.8278825
  73.1563666  11.6021888 107.9884792  74.7276802  19.0579012 107.4367004
  74.5922477  19.9030547 107.8651852  75.2686615  19.2598289 106.6732938
  68.1806200  16.5754450 108.0094929  68.6930720  17.3697700 108.1600494
  68.8328912  15.8780740 107.9428530  69.9901084  19.6920206 110.0917682
  70.1667713  20.6138171 109.9038666  70.7857918  19.3778625 110.5212062
  78.0419549  12.5718185 104.4738332  77.5266172  13.3422789 104.7126720
  77.7696857  11.8983321 105.0971394  83.0153823  15.3250539 106.4091506
  82.2383265  14.9861699 105.9646668  83.6945304  15.3303162 105.7346471
  77.8305852  10.4445277 106.2998114  77.5255987  10.7591426 107.1508257
  78.7836294  10.5226697 106.3425447  76.2752284  16.6035500 107.9491068
  75.7473645  15.8688260 107.6364305  75.7739786  17.3810176 107.7031036
  80.0650588  13.1528893 111.1162056  80.5782470  13.7858885 111.6183765
  80.7151812  12.5530089 110.7505416  71.3340598   9.2959627 104.3293564
  70.4977911   9.6334314 104.6502839  71.1945368   9.1608607 103.3920701
  74.4204884  14.4215710 100.9526041  73.5131945  14.1904964 101.1517190
  74.9175916  13.6253330 101.1400022  77.3272963  23.1313218 103.8722727
  76.6534661  23.4344914 104.4807685  77.7138785  23.9342298 103.5228184
  77.3266467  12.0269765 108.4923076  78.0738286  12.5391162 108.1830198
  77.5958057  11.7053817 109.3527470  75.5993117  14.5228305 105.4750031
  74.6904336  14.2387338 105.5722500  75.6288201  14.9427384 104.6153338
  80.8312385  18.1334895 109.2441198  80.3774712  17.2925805 109.3006389
  80.2006351  18.7696293 109.5815978  79.2745324  19.9711391 110.1791016
  79.5668298  20.5316449 109.4603382  79.7843944  20.2639952 110.9344175
  75.2969205  16.0637049 102.8138109  74.8588635  15.3472908 102.3543747
  76.0379646  16.2913164 102.2523201  74.2378949  20.7491743 111.2684470
  74.1955128  20.9752589 110.3393002  75.1541648  20.5155117 111.4170271
  83.4142320  14.3394246 108.8714428  83.2760218  14.5295842 107.9435617
  83.0578539  15.1013629 109.3282479  72.3544750  17.6254772 111.0646432
  73.1485348  17.1305092 110.8629007  71.6436442  17.0972635 110.7014138
  77.1739594  20.0072867 115.4158800  77.2276617  20.5763803 116.1836516
  76.3054376  20.1774752 115.0512837  68.6627513  11.7697853 107.1406185
  67.7325101  11.7082309 107.3576147  68.7584985  11.2473806 106.3442826
  75.5264178  23.2992890 106.0869806  75.7015933  22.8280933 106.9015429
  74.8396966  23.9258656 106.3151067  76.4821241  17.5765396 112.1333107
  76.1471074  17.5366166 113.0290757  75.9825187  16.9110112 111.6603517
  79.4180433  14.9221431 102.4070167  78.8009603  14.1968259 102.3103220
  78.9496921  15.6830791 102.0637241  70.0925263  26.4482253 112.8609666
  70.3321861  27.0800777 113.5388685  69.2494460  26.0970293 113.1475025
  71.2078978   9.1406855 101.5291471  70.3308445   9.0195656 101.1653718
  71.6836732   8.3492933 101.2770360  74.6053125  22.2561375 115.2651170
  74.5323296  23.0616347 115.7770475  74.1630518  22.4553341 114.4399191
  74.3942905  21.4933145 108.7753992  73.6110426  22.0354825 108.8692216
  75.0935650  22.0107125 109.1748233  78.7869335  16.0599462 108.9926620
  77.8525614  16.1800924 108.8231325  78.9646004  15.1571929 108.7286630
  80.2418118  18.2460602 106.5262807  80.5177962  18.1317197 107.4356681
  79.3722617  17.8478087 106.4874980  76.8772182  22.4946953 110.1695620
  77.0594576  21.6768609 110.6323373  77.7005168  22.7114646 109.7320510
  77.2114347  21.4215138 107.4310669  77.7402114  20.9107593 106.8180831
  77.4742567  21.1057669 108.2956202  70.5670095  22.4730255 110.1908445
  69.8980470  22.9576383 109.7072485  70.4282965  22.7199476 111.1051823
  74.7075364  24.5073999 116.7891103  75.2593672  24.6705620 117.5540188
  75.0481557  25.0978436 116.1171128  77.8443751  22.4555974 113.7754785
  77.7194891  21.6545714 113.2665731  78.5022842  22.9502168 113.2868755
  79.9078659  20.2564994 115.4034335  78.9608995  20.1370345 115.3312662
  80.2561433  19.3687492 115.4860597  76.9125093  20.0517710 111.6038687
  76.7650055  19.1234418 111.7846258  77.7378586  20.0737801 111.1195763
  80.5159215  20.8746269 112.6903560  81.4405762  20.6689131 112.5528011
  80.3474518  20.6262670 113.5992902  72.7655484   7.2010399 105.6612472
  73.4863847   7.5791652 105.1576189  72.1420788   7.9199276 105.7647450
  76.9086607   7.9055548 106.5970805  77.1250221   8.7880186 106.2959633
  76.4280674   7.5141762 105.8676447  80.3054531  21.3931937 108.0465652
  80.4791408  20.8278359 107.2939504  80.7983422  22.1932832 107.8645142
  81.2929703  20.7098701 105.1462550  81.9880608  21.3305394 105.3649865
  81.6352853  19.8594052 105.4214928  83.1921126  18.1598407 106.6749881
  83.7172451  18.4985679 105.9499201  83.1043479  17.2245422 106.4913015
  74.8761787  24.2270390 111.0345134  74.4366777  23.7346769 111.7277991
  75.6269904  23.6843358 110.7937209  67.3554126  20.4181931 111.0369762
  68.1812146  20.1185703 110.6568406  67.0048178  19.6489553 111.4859551
  72.3235659  19.7708399 113.1067436  71.7015669  19.1079104 112.8069663
  72.9940526  19.7969531 112.4241083  71.8849166  18.3212322 106.5825896
  72.0337287  19.0047787 105.9292569  72.6915610  18.3017412 107.0975352
  69.6401799  14.3477500 107.5886965  69.3947841  13.4439830 107.7867175
  69.8097714  14.3494650 106.6466443  68.9097447  10.0805858 105.0873126
  68.2166692  10.1550212 104.4313162  68.6649199   9.3166201 105.6094643
  75.3844572  20.8160453 104.0537644  74.8118539  21.4350640 103.6008115
  75.9577365  21.3659814 104.5877565  78.6041832  21.0997603 105.1846226
  79.5372505  21.0343165 105.3879101  78.5165044  21.9353870 104.7260758
  81.2329848  20.4163473 102.1450173  81.1543480  20.0823337 103.0385931
  82.0539515  20.9085241 102.1441646  75.7691370  12.1521265 101.3953696
  76.7150475  12.0227474 101.4642114  75.3905615  11.4135927 101.8723124
  73.9534287  10.0771242 101.3308581  73.0465743   9.7804355 101.4071295
  74.2310268   9.7801060 100.4642867  72.7233072   6.9358177 101.4720560
  73.5852236   7.2613075 101.7316378  72.9083416   6.1489673 100.9593626
  79.6590587   7.9686794 107.6712132  78.7716442   8.2536445 107.4532326
  80.0744576   7.8080557 106.8239409  67.6674837  22.5494545 112.7583576
  67.5329305  21.7894946 112.1921574  67.2506899  23.2735445 112.2912365
  78.8033800  17.7331469 101.7660152  79.5069650  17.9381471 102.3817807
  78.0796449  18.3008231 102.0309235  79.6331610  13.4841330 107.8862422
  79.5766812  13.9409881 107.0470054  80.1859953  12.7232014 107.7085265
  70.8243963  23.4463862 112.9702019  70.7076347  24.3909295 112.8680709
  70.0036409  23.1437424 113.3587818  80.7120497  18.1713998 103.8158612
  81.5466101  17.7395196 103.6336087  80.5504840  17.9996012 104.7435506
  80.3666390  14.6746111 105.1814951  80.3115193  14.5090383 104.2403395
  79.7412445  15.3822144 105.3377141  73.6762515   4.1754220 104.7600269
  73.6641185   5.1196060 104.9168540  74.5685937   3.9924366 104.4659731
  73.6052079  22.8523111 112.8468026  72.6547710  22.8524972 112.7332398
  73.9084565  22.1055845 112.3304061  86.1494479  28.6411077 113.8475313
  85.8112990  28.5252142 112.9595848  87.0184247  28.2402242 113.8276319
  82.0081294  30.4946553 109.8372204  81.4446160  30.4036490 109.0688492
  81.8933690  29.6746458 110.3174697  79.5545726  31.9897745 112.6756425
  80.3467018  31.6488570 112.2602724  79.7942377  32.0992720 113.5958578
  87.5880853  34.1617521 105.1486669  86.9368833  34.7471602 104.7620683
  88.3825216  34.6923716 105.2081707  81.5136480  31.2506658 105.5473803
  82.2867356  30.7035645 105.4086679  81.8661879  32.1150908 105.7588265
  83.3521523  32.5783041 118.7540703  83.0611389  33.4828671 118.6387369
  83.9878507  32.6199568 119.4684772  84.2777730  29.9559889 115.3442062
  84.8741302  29.7315911 114.6299025  84.3352701  29.2144635 115.9467510
  83.8502758  27.4099324 103.1792253  84.1028279  26.8880846 102.4175716
  82.9127317  27.2465470 103.2818937  88.8946041  26.4135103 110.9866997
  89.6809130  25.9954526 110.6357414  89.1584745  27.3181195 111.1548645
  89.0656118  31.8507953 105.6855653  88.4301951  31.9242580 106.3976558
  88.7353525  32.4401552 105.0074733  83.5699047  29.3127430 105.3816628
  83.4535305  28.6372334 106.0497713  83.6801307  28.8259804 104.5648781
  85.9130588  28.7737577 109.0863318  85.5488795  28.2468198 109.7976239
  86.7697704  28.3836047 108.9129803  85.5536075  23.8027477 104.0824666
  85.7210477  24.6707714 104.4495137  85.3633244  23.9654759 103.1585955
  81.7623889  28.7158253 111.7827201  80.8374386  28.5834467 111.9904893
  82.0108303  29.4952472 112.2797143  85.5325296  26.2585135 105.0671333
  85.4124921  26.7042185 105.9056813  84.8377884  26.6070452 104.5084871
  79.1232701  28.3591526 112.6170990  79.2525082  28.6126005 113.5310402
  78.4430152  28.9519234 112.2975645  83.2932188  39.0288776 108.7161464
  83.2156218  39.9796602 108.7949945  82.6893831  38.6834649 109.3736390
  91.2310362  26.7306608 105.8951667  92.1428218  26.9633995 105.7199364
  90.7220009  27.3143652 105.3326746  89.8379944  31.7132426 113.2865248
  89.2088807  31.8778140 112.5841316  89.4505606  32.1274036 114.0576212
  93.7169176  32.6486864 110.6409612  93.0320214  33.0285766 110.0906645
  93.8013025  33.2582191 111.3741560  85.3907906  31.4506834 110.5515333
  85.8546252  31.7294537 109.7619956  85.1264704  30.5490279 110.3688424
  82.2831987  30.9978316 113.4895097  82.8533344  31.4265584 112.8512581
  82.8740099  30.7160901 114.1879282  84.3276792  27.5729987 107.3604899
  85.0300835  28.0251030 107.8278825  83.9957421  26.9313806 107.9884792
  78.0702126  25.8313539 112.6622032  77.2801180  26.0871068 112.1862143
  78.5613373  26.6461877 112.7674073  80.0216871  26.1958119 109.6205509
  79.2248035  26.3076813 110.1389005  79.7942464  26.5344771 108.7546399
  85.8522539  32.7202822 117.5688023  85.9166972  33.1823229 118.4046195
  85.1433463  32.0900187 117.6970333  76.3539829  26.0844030 115.0937023
  76.6047867  26.9691040 115.3594599  76.8899377  25.9048631 114.3212115
  85.5670557  34.3870929 107.4367004  85.4316232  35.2322465 107.8651852
  86.1080369  34.5890207 106.6732938  79.0199954  31.9046367 108.0094929
  79.5324475  32.6989618 108.1600494  79.6722667  31.2072658 107.9428530
  80.8294839  35.0212124 110.0917682  81.0061467  35.9430088 109.9038666
  81.6251672  34.7070543 110.5212062  81.9526154  36.5390297 116.0928024
  82.5033579  36.4107361 115.3205018  81.1137630  36.8385186 115.7422917
  76.9848871  30.2335022 108.7854499  77.8224093  30.6432030 108.5688207
  77.1627139  29.2934464 108.7554693  88.8813303  27.9010102 104.4738332
  88.3659926  28.6714707 104.7126720  88.6090611  27.2275239 105.0971394
  86.4660414  22.7459803 109.5323571  85.6102010  22.3566654 109.3529209
  86.8787366  22.8251764 108.6723356  93.8547577  30.6542457 106.4091506
  93.0777020  30.3153617 105.9646668  94.5339058  30.6595080 105.7346471
  88.6699606  25.7737194 106.2998114  88.3649742  26.0883344 107.1508257
  89.6230048  25.8518614 106.3425447  87.1146038  31.9327418 107.9491068
  86.5867400  31.1980177 107.6364305  86.6133541  32.7102094 107.7031036
  81.8464766  22.5947084 110.3097679  82.4208518  22.3722266 109.5770872
  82.4335748  22.6635779 111.0626280  90.9044343  28.4820811 111.1162056
  91.4176225  29.1150803 111.6183765  91.5545567  27.8822006 110.7505416
  82.1734353  24.6251545 104.3293564  81.3371665  24.9626232 104.6502839
  82.0339122  24.4900525 103.3920701  84.1487433  19.4688333 109.0372748
  83.4951846  19.1537350 108.4129363  84.1067907  18.8464073 109.7632571
  85.2598638  29.7507628 100.9526041  84.3525700  29.5196881 101.1517190
  85.7569670  28.9545247 101.1400022  88.1666717  38.4605135 103.8722727
  87.4928416  38.7636832 104.4807685  88.5532539  39.2634216 103.5228184
  87.3825174  25.9570267 113.3620396  86.4647735  26.1785214 113.2042084
  87.7985317  26.0316577 112.5032103  88.1660221  27.3561682 108.4923076
  88.9132040  27.8683079 108.1830198  88.4351811  27.0345735 109.3527470
  86.4386872  29.8520223 105.4750031  85.5298091  29.5679256 105.5722500
  86.4681955  30.2719301 104.6153338  91.6706139  33.4626812 109.2441198
  91.2168466  32.6217722 109.3006389  91.0400106  34.0988211 109.5815978
  90.1139078  35.3003309 110.1791016  90.4062053  35.8608366 109.4603382
  90.6237699  35.5931870 110.9344175  77.0075042  27.5725737 109.4565233
  76.8099442  26.9795098 108.7316299  76.4521706  27.2677947 110.1741172
  84.9871766  27.4648844 111.5759826  85.0420375  26.5122680 111.5002303
  84.1762968  27.6208283 112.0601124  86.1362959  31.3928967 102.8138109
  85.6982389  30.6764826 102.3543747  86.8773400  31.6205081 102.2523201
  82.9264126  26.0825903 109.3350205  82.1131991  26.3820074 109.7415397
  83.4223120  25.6881592 110.0524687  85.0772703  36.0783660 111.2684470
  85.0348882  36.3044506 110.3393002  85.9935402  35.8447035 111.4170271
  94.2536074  29.6686164 108.8714428  94.1153973  29.8587760 107.9435617
  93.8972293  30.4305546 109.3282479  82.4178200  23.6544259 114.9511440
  83.0577580  23.5133018 114.2534403  81.5855731  23.3678772 114.5750042
  83.1938504  32.9546689 111.0646432  83.9879103  32.4597009 110.8629007
  82.4830197  32.4264552 110.7014138  88.0133349  35.3364785 115.4158800
  88.0670371  35.9055721 116.1836516  87.1448130  35.5066670 115.0512837
  79.5021268  27.0989771 107.1406185  78.5718856  27.0374226 107.3576147
  79.5978740  26.5765724 106.3442826  79.4206817  23.6244584 109.7284427
  79.6813634  24.5389917 109.6193587  80.2423989  23.1569026 109.8781039
  80.8931742  25.0382341 116.8983251  81.5654796  24.8299703 116.2495900
  80.0661529  24.8404427 116.4588483  85.7709780  33.5275711 114.7444269
  85.6320866  33.1594496 115.6170208  84.9824376  34.0423351 114.5728227
  86.3657932  38.6284808 106.0869806  86.5409688  38.1572851 106.9015429
  85.6790720  39.2550574 106.3151067  87.3214995  32.9057314 112.1333107
  86.9864828  32.8658084 113.0290757  86.8218941  32.2402030 111.6603517
  81.2959239  28.3124944 117.6585688  81.1579037  27.5805183 118.2597227
  82.2064163  28.2233844 117.3769876  90.2574187  30.2513348 102.4070167
  89.6403358  29.5260176 102.3103220  89.7890676  31.0122708 102.0637241
  80.9319018  41.7774170 112.8609666  81.1715616  42.4092695 113.5388685
  80.0888214  41.4262210 113.1475025  82.0472733  24.4698773 101.5291471
  81.1702199  24.3487573 101.1653718  82.5230486  23.6784851 101.2770360
  73.5674873  29.2575932 111.6232978  74.2545913  28.9437662 111.0353994
  73.4123002  30.1617297 111.3500230  78.3709595  24.1466129 116.0518002
  78.2867784  23.5391798 115.3168412  77.5492302  24.6375147 116.0527498
  85.4446879  37.5853293 115.2651170  85.3717051  38.3908264 115.7770475
  85.0024272  37.7845259 114.4399191  85.2336659  36.8225063 108.7753992
  84.4504181  37.3646743 108.8692216  85.9329404  37.3399043 109.1748233
  87.9045563  37.4840127 117.4209329  88.6173535  38.1187592 117.3485230
  87.4135592  37.5803993 116.6049331  89.6263090  31.3891380 108.9926620
  88.6919369  31.5092842 108.8231325  89.8039758  30.4863846 108.7286630
  85.1268278  24.7737075 111.1459882  84.7566065  24.2208116 111.8340787
  85.6227370  24.1695209 110.5934882  82.9557476  35.2334570 118.2414900
  83.6566936  35.8671053 118.3944294  82.4852591  35.5749302 117.4810539
  91.0811872  33.5752520 106.5262807  91.3571716  33.4609115 107.4356681
  90.2116371  33.1770005 106.4874980  87.7165936  37.8238871 110.1695620
  87.8988331  37.0060527 110.6323373  88.5398922  38.0406563 109.7320510
  88.0508102  36.7507056 107.4310669  88.5795868  36.2399511 106.8180831
  88.3136321  36.4349586 108.2956202  78.5525195  34.7670925 115.1746002
  79.1378631  34.0214613 115.3073906  78.3550033  35.0774882 116.0582666
  81.4063850  37.8022173 110.1908445  80.7374225  38.2868300 109.7072485
  81.2676719  38.0491393 111.1051823  73.1442849  27.3376526 113.8950445
  73.1826949  26.8040116 114.6887563  72.6383142  26.8111731 113.2761423
  85.5469118  39.8365916 116.7891103  86.0987426  39.9997538 117.5540188
  85.8875312  40.4270354 116.1171128  76.7751427  26.0640628 106.9704377
  77.0704868  25.1551306 106.9171430  75.8739463  26.0428367 106.6485379
  88.6837506  37.7847892 113.7754785  88.5588645  36.9837632 113.2665731
  89.3416597  38.2794085 113.2868755  80.3045674  24.1396624 112.9531925
  79.5832260  24.7532592 112.8139399  81.0938930  24.6754389 112.8748571
  90.7472414  35.5856912 115.4034335  89.8002750  35.4662263 115.3312662
  91.0955187  34.6979410 115.4860597  78.5039268  23.7454725 107.0943702
  78.1751975  22.8652104 106.9118808  78.8578639  23.6902394 107.9820091
  87.7518847  35.3809628 111.6038687  87.6043810  34.4526336 111.7846258
  88.5772341  35.4029719 111.1195763  81.6181092  24.0327695 107.4619180
  81.9577164  24.5613616 106.7397788  82.0653212  24.3708101 108.2377746
  91.3552969  36.2038187 112.6903560  92.2799517  35.9981048 112.5528011
  91.1868272  35.9554588 113.5992902  83.6049239  22.5302317 105.6612472
  84.3257601  22.9083570 105.1576189  82.9814543  23.2491194 105.7647450
  87.7480362  23.2347466 106.5970805  87.9643976  24.1172104 106.2959633
  87.2674429  22.8433679 105.8676447  82.4879583  26.1933179 113.1741549
  82.3424164  26.5073482 114.0665831  82.0104787  26.8118079 112.6212448
  91.1448285  36.7223854 108.0465652  91.3185163  36.1570277 107.2939504
  91.6377177  37.5224749 107.8645142  76.9625245  28.7338523 116.1129210
  76.4178713  29.5098331 116.2449485  77.8404595  29.0809328 115.9548332
  83.7512862  22.0650107 108.4910009  83.8728773  21.1366753 108.6900896
  83.4614904  22.0788793 107.5788324  92.1323458  36.0390619 105.1462550
  92.8274362  36.6597311 105.3649865  92.4746608  35.1885970 105.4214928
  77.7491267  27.8608420 119.0059367  77.0073003  28.0091055 119.5923998
  77.4284011  28.1216685 118.1426117  94.0314881  33.4890324 106.6749881
  94.5566205  33.8277597 105.9499201  93.9437233  32.5537340 106.4913015
  85.6934930  37.4024398 118.8039757  86.0022056  37.1573545 119.6762457
  86.4910412  37.6071036 118.3158628  85.7155542  39.5562308 111.0345134
  85.2760532  39.0638686 111.7277991  86.4663659  39.0135275 110.7937209
  78.1947881  35.7473848 111.0369762  79.0205901  35.4477620 110.6568406
  77.8441933  34.9781471 111.4859551  83.1629414  35.1000317 113.1067436
  82.5409423  34.4371022 112.8069663  83.8334281  35.1261449 112.4241083
  76.3956486  33.6660175 111.9958696  75.5588394  33.2382349 111.8142697
  76.3680131  33.8592618 112.9329487  82.7242921  33.6504240 106.5825896
  82.8731041  34.3339704 105.9292569  83.5309364  33.6309330 107.0975352
  80.4795554  29.6769418 107.5886965  80.2341596  28.7731748 107.7867175
  80.6491468  29.6786568 106.6466443  79.7491201  25.4097775 105.0873126
  79.0560446  25.4842130 104.4313162  79.5042953  24.6458119 105.6094643
  86.2238326  36.1452370 104.0537644  85.6512293  36.7642558 103.6008115
  86.7971120  36.6951732 104.5877565  89.4435586  36.4289521 105.1846226
  90.3766259  36.3635082 105.3879101  89.3558799  37.2645787 104.7260758
  92.0723603  35.7455391 102.1450173  91.9937234  35.4115254 103.0385931
  92.8933270  36.2377159 102.1441646  86.6085125  27.4813183 101.3953696
  87.5544229  27.3519391 101.4642114  86.2299370  26.7427845 101.8723124
  84.7928042  25.4063160 101.3308581  83.8859497  25.1096272 101.4071295
  85.0704023  25.1092978 100.4642867  75.7105982  26.7269523 111.7807628
  75.3908767  25.8734831 111.4882002  75.1639410  26.9418101 112.5365595
  79.4885890  29.4431964 115.4977134  79.7071900  30.3749072 115.5165168
  79.9011664  29.0839938 116.2831938  86.4090108  19.9500049 107.4852823
  85.5990836  19.6047134 107.8608069  87.0974525  19.6407593 108.0740434
  83.5626827  22.2650095 101.4720560  84.4245991  22.5904993 101.7316378
  83.7477171  21.4781591 100.9593626  75.5794242  30.3472434 113.7500749
  74.8857714  29.9326387 113.2370704  76.3267233  30.3892971 113.1534168
  77.4930985  30.2790688 111.6266764  77.4701673  30.3778376 110.6748647
  77.8031621  31.1255839 111.9483930  80.1518363  32.3366843 115.7413379
  81.1061616  32.3050786 115.6743310  79.9530886  31.8757467 116.5563604
  80.7417745  30.9067959 118.3084176  81.5610634  31.4012038 118.3319013
  81.0154553  29.9899927 118.2801744  90.4984341  23.2978712 107.6712132
  89.6110196  23.5828362 107.4532326  90.9138330  23.1372475 106.8239409
  78.5068591  37.8786463 112.7583576  78.3723059  37.1186864 112.1921574
  78.0900654  38.6027363 112.2912365  89.6427555  33.0623386 101.7660152
  90.3463405  33.2673389 102.3817807  88.9190203  33.6300148 102.0309235
  90.4725365  28.8133248 107.8862422  90.4160566  29.2701799 107.0470054
  91.0253707  28.0523932 107.7085265  81.6637717  38.7755780 112.9702019
  81.5470102  39.7201212 112.8680709  80.8430164  38.4729341 113.3587818
  91.5514252  33.5005915 103.8158612  92.3859856  33.0687114 103.6336087
  91.3898595  33.3287929 104.7435506  91.2060144  30.0038029 105.1814951
  91.1508948  29.8382300 104.2403395  90.5806199  30.7114062 105.3377141
  84.5156270  19.5046138 104.7600269  84.5034939  20.4487978 104.9168540
  85.4079691  19.3216283 104.4659731  82.6892231  39.4284042 116.1857947
  83.5919478  39.4607652 116.5024442  82.4629602  38.4984493 116.2004283
  84.4445834  38.1815028 112.8468026  83.4941465  38.1816890 112.7332398
  84.7478320  37.4347763 112.3304061  96.9888233  43.9702995 113.8475313
  96.6506745  43.8544059 112.9595848  97.8578001  43.5694160 113.8276319
  92.8475049  45.8238471 109.8372204  92.2839914  45.7328408 109.0688492
  92.7327444  45.0038376 110.3174697  90.3939481  47.3189663 112.6756425
  91.1860773  46.9780487 112.2602724  90.6336131  47.4284638 113.5958578
  98.4274608  49.4909439 105.1486669  97.7762587  50.0763519 104.7620683
  99.2218971  50.0215634 105.2081707  92.3530235  46.5798576 105.5473803
  93.1261111  46.0327563 105.4086679  92.7055634  47.4442825 105.7588265
  94.1915277  47.9074958 118.7540703  93.9005143  48.8120589 118.6387369
  94.8272262  47.9491486 119.4684772  95.1171484  45.2851807 115.3442062
  95.7135057  45.0607829 114.6299025  95.1746456  44.5436552 115.9467510
  94.6896513  42.7391242 103.1792253  94.9422033  42.2172763 102.4175716
  93.7521072  42.5757388 103.2818937  99.7339795  41.7427020 110.9866997
 100.5202885  41.3246444 110.6357414  99.9978500  42.6473113 111.1548645
  99.9049873  47.1799871 105.6855653  99.2695706  47.2534497 106.3976558
  99.5747279  47.7693470 105.0074733  94.4092801  44.6419348 105.3816628
  94.2929060  43.9664251 106.0497713  94.5195061  44.1551722 104.5648781
  96.7524342  44.1029495 109.0863318  96.3882550  43.5760116 109.7976239
  97.6091458  43.7127964 108.9129803  96.3929829  39.1319395 104.0824666
  96.5604232  39.9999631 104.4495137  96.2026998  39.2946677 103.1585955
  92.6017644  44.0450171 111.7827201  91.6768140  43.9126385 111.9904893
  92.8502057  44.8244390 112.2797143  96.3719050  41.5877052 105.0671333
  96.2518675  42.0334103 105.9056813  95.6771639  41.9362370 104.5084871
  89.9626455  43.6883444 112.6170990  90.0918836  43.9417923 113.5310402
  89.2823906  44.2811152 112.2975645  94.1325942  54.3580694 108.7161464
  94.0549972  55.3088519 108.7949945  93.5287586  54.0126567 109.3736390
 102.0704116  42.0598526 105.8951667 102.9821972  42.2925912 105.7199364
 101.5613763  42.6435570 105.3326746 100.6773699  47.0424344 113.2865248
 100.0482561  47.2070058 112.5841316 100.2899361  47.4565954 114.0576212
 104.5562931  47.9778782 110.6409612 103.8713969  48.3577683 110.0906645
 104.6406780  48.5874108 111.3741560  96.2301661  46.7798752 110.5515333
  96.6940006  47.0586455 109.7619956  95.9658459  45.8782197 110.3688424
  93.1225742  46.3270234 113.4895097  93.6927099  46.7557502 112.8512581
  93.7133853  46.0452818 114.1879282  95.1670547  42.9021904 107.3604899
  95.8694590  43.3542948 107.8278825  94.8351175  42.2605723 107.9884792
  88.9095881  41.1605457 112.6622032  88.1194935  41.4162986 112.1862143
  89.4007128  41.9753795 112.7674073  90.8610626  41.5250036 109.6205509
  90.0641789  41.6368731 110.1389005  90.6336218  41.8636689 108.7546399
  96.6916294  48.0494740 117.5688023  96.7560726  48.5115147 118.4046195
  95.9827217  47.4192104 117.6970333  87.1933584  41.4135948 115.0937023
  87.4441622  42.2982957 115.3594599  87.7293132  41.2340549 114.3212115
  96.4064311  49.7162847 107.4367004  96.2709986  50.5614383 107.8651852
  96.9474124  49.9182125 106.6732938  89.8593709  47.2338285 108.0094929
  90.3718229  48.0281535 108.1600494  90.5116421  46.5364576 107.9428530
  91.6688593  50.3504041 110.0917682  91.8455222  51.2722006 109.9038666
  92.4645427  50.0362461 110.5212062  92.7919909  51.8682215 116.0928024
  93.3427334  51.7399279 115.3205018  91.9531385  52.1677104 115.7422917
  87.8242625  45.5626939 108.7854499  88.6617847  45.9723948 108.5688207
  88.0020893  44.6226382 108.7554693  99.7207058  43.2302020 104.4738332
  99.2053681  44.0006625 104.7126720  99.4484366  42.5567156 105.0971394
  97.3054169  38.0751721 109.5323571  96.4495765  37.6858571 109.3529209
  97.7181120  38.1543682 108.6723356 104.6941332  45.9834375 106.4091506
 103.9170774  45.6445534 105.9646668 105.3732813  45.9886998 105.7346471
  99.5093361  41.1029112 106.2998114  99.2043496  41.4175261 107.1508257
 100.4623803  41.1810532 106.3425447  97.9539793  47.2619335 107.9491068
  97.4261154  46.5272095 107.6364305  97.4527295  48.0394012 107.7031036
  92.6858520  37.9239002 110.3097679  93.2602272  37.7014183 109.5770872
  93.2729503  37.9927696 111.0626280 101.7438097  43.8112729 111.1162056
 102.2569979  44.4442720 111.6183765 102.3939321  43.2113924 110.7505416
  93.0128107  39.9543463 104.3293564  92.1765419  40.2918149 104.6502839
  92.8732877  39.8192443 103.3920701  94.9881188  34.7980251 109.0372748
  94.3345600  34.4829268 108.4129363  94.9461662  34.1755991 109.7632571
  96.0992393  45.0799546 100.9526041  95.1919454  44.8488799 101.1517190
  96.5963425  44.2837165 101.1400022  99.0060472  53.7897053 103.8722727
  98.3322170  54.0928750 104.4807685  99.3926294  54.5926133 103.5228184
  98.2218928  41.2862184 113.3620396  97.3041490  41.5077131 113.2042084
  98.6379072  41.3608495 112.5032103  99.0053976  42.6853600 108.4923076
  99.7525795  43.1974997 108.1830198  99.2745566  42.3637653 109.3527470
  97.2780626  45.1812141 105.4750031  96.3691845  44.8971173 105.5722500
  97.3075710  45.6011219 104.6153338 102.5099894  48.7918730 109.2441198
 102.0562221  47.9509640 109.3006389 101.8793860  49.4280128 109.5815978
 100.9532833  50.6295227 110.1791016 101.2455807  51.1900284 109.4603382
 101.4631453  50.9223788 110.9344175  87.8468797  42.9017655 109.4565233
  87.6493196  42.3087015 108.7316299  87.2915461  42.5969865 110.1741172
  95.8265520  42.7940761 111.5759826  95.8814130  41.8414598 111.5002303
  95.0156722  42.9500200 112.0601124  96.9756714  46.7220884 102.8138109
  96.5376144  46.0056743 102.3543747  97.7167155  46.9496999 102.2523201
  93.7657880  41.4117821 109.3350205  92.9525746  41.7111991 109.7415397
  94.2616874  41.0173510 110.0524687  95.9166458  51.4075578 111.2684470
  95.8742637  51.6336424 110.3393002  96.8329157  51.1738952 111.4170271
 105.0929829  44.9978081 108.8714428 104.9547727  45.1879677 107.9435617
 104.7366048  45.7597464 109.3282479  93.2571955  38.9836176 114.9511440
  93.8971334  38.8424936 114.2534403  92.4249485  38.6970690 114.5750042
  94.0332259  48.2838607 111.0646432  94.8272857  47.7888927 110.8629007
  93.3223951  47.7556470 110.7014138  98.8527103  50.6656702 115.4158800
  98.9064126  51.2347639 116.1836516  97.9841885  50.8358587 115.0512837
  90.3415022  42.4281689 107.1406185  89.4112610  42.3666144 107.3576147
  90.4372494  41.9057641 106.3442826  90.2600571  38.9536501 109.7284427
  90.5207389  39.8681835 109.6193587  91.0817744  38.4860944 109.8781039
  91.7325497  40.3674259 116.8983251  92.4048550  40.1591621 116.2495900
  90.9055283  40.1696345 116.4588483  96.6103535  48.8567629 114.7444269
  96.4714620  48.4886413 115.6170208  95.8218131  49.3715268 114.5728227
  97.2051687  53.9576725 106.0869806  97.3803442  53.4864769 106.9015429
  96.5184475  54.5842492 106.3151067  98.1608750  48.2349232 112.1333107
  97.8258583  48.1950002 113.0290757  97.6612696  47.5693947 111.6603517
  92.1352994  43.6416862 117.6585688  91.9972792  42.9097100 118.2597227
  93.0457917  43.5525762 117.3769876 101.0967942  45.5805266 102.4070167
 100.4797112  44.8552094 102.3103220 100.6284430  46.3414626 102.0637241
  91.7712772  57.1066088 112.8609666  92.0109370  57.7384612 113.5388685
  90.9281968  56.7554128 113.1475025  92.8866487  39.7990690 101.5291471
  92.0095954  39.6779491 101.1653718  93.3624241  39.0076769 101.2770360
  84.4068628  44.5867850 111.6232978  85.0939667  44.2729580 111.0353994
  84.2516756  45.4909215 111.3500230  89.2103350  39.4758046 116.0518002
  89.1261538  38.8683716 115.3168412  88.3886056  39.9667065 116.0527498
  96.2840634  52.9145211 115.2651170  96.2110805  53.7200182 115.7770475
  95.8418027  53.1137176 114.4399191  96.0730413  52.1516981 108.7753992
  95.2897935  52.6938661 108.8692216  96.7723159  52.6690960 109.1748233
  98.7439317  52.8132045 117.4209329  99.4567290  53.4479509 117.3485230
  98.2529346  52.9095911 116.6049331 100.4656844  46.7183297 108.9926620
  99.5313123  46.8384760 108.8231325 100.6433513  45.8155764 108.7286630
  95.9662032  40.1028993 111.1459882  95.5959820  39.5500033 111.8340787
  96.4621125  39.4987126 110.5934882  93.7951231  50.5626488 118.2414900
  94.4960690  51.1962971 118.3944294  93.3246346  50.9041220 117.4810539
 101.9205627  48.9044438 106.5262807 102.1965471  48.7901032 107.4356681
 101.0510126  48.5061923 106.4874980  98.5559691  53.1530789 110.1695620
  98.7382085  52.3352445 110.6323373  99.3792677  53.3698481 109.7320510
  98.8901856  52.0798974 107.4310669  99.4189623  51.5691428 106.8180831
  99.1530076  51.7641504 108.2956202  89.3918949  50.0962843 115.1746002
  89.9772386  49.3506531 115.3073906  89.1943787  50.4066800 116.0582666
  92.2457604  53.1314090 110.1908445  91.5767979  53.6160218 109.7072485
  92.1070474  53.3783311 111.1051823  83.9836604  42.6668443 113.8950445
  84.0220703  42.1332034 114.6887563  83.4776897  42.1403649 113.2761423
  96.3862873  55.1657834 116.7891103  96.9381181  55.3289455 117.5540188
  96.7269066  55.7562272 116.1171128  87.6145181  41.3932545 106.9704377
  87.9098622  40.4843224 106.9171430  86.7133217  41.3720285 106.6485379
  99.5231260  53.1139810 113.7754785  99.3982400  52.3129549 113.2665731
 100.1810351  53.6086003 113.2868755  91.1439428  39.4688542 112.9531925
  90.4226014  40.0824510 112.8139399  91.9332684  40.0046307 112.8748571
 101.5866168  50.9148830 115.4034335 100.6396504  50.7954181 115.3312662
 101.9348942  50.0271328 115.4860597  89.3433023  39.0746643 107.0943702
  89.0145729  38.1944022 106.9118808  89.6972394  39.0194312 107.9820091
  98.5912602  50.7101546 111.6038687  98.4437564  49.7818253 111.7846258
  99.4166095  50.7321637 111.1195763  92.4574846  39.3619613 107.4619180
  92.7970919  39.8905534 106.7397788  92.9046967  39.7000019 108.2377746
 102.1946724  51.5330105 112.6903560 103.1193271  51.3272966 112.5528011
 102.0262027  51.2846506 113.5992902  94.4442993  37.8594234 105.6612472
  95.1651356  38.2375487 105.1576189  93.8208297  38.5783111 105.7647450
  98.5874116  38.5639383 106.5970805  98.8037730  39.4464021 106.2959633
  98.1068183  38.1725597 105.8676447  93.3273337  41.5225097 113.1741549
  93.1817918  41.8365400 114.0665831  92.8498541  42.1409997 112.6212448
 101.9842040  52.0515772 108.0465652 102.1578917  51.4862194 107.2939504
 102.4770931  52.8516667 107.8645142  87.8019000  44.0630441 116.1129210
  87.2572468  44.8390249 116.2449485  88.6798349  44.4101246 115.9548332
  94.5906616  37.3942025 108.4910009  94.7122527  36.4658671 108.6900896
  94.3008659  37.4080711 107.5788324 102.9717212  51.3682536 105.1462550
 103.6668117  51.9889229 105.3649865 103.3140362  50.5177888 105.4214928
  88.5885021  43.1900337 119.0059367  87.8466758  43.3382973 119.5923998
  88.2677766  43.4508603 118.1426117 104.8708635  48.8182242 106.6749881
 105.3959960  49.1569515 105.9499201 104.7830988  47.8829257 106.4913015
  96.5328684  52.7316316 118.8039757  96.8415811  52.4865462 119.6762457
  97.3304166  52.9362954 118.3158628  96.5549296  54.8854225 111.0345134
  96.1154286  54.3930604 111.7277991  97.3057413  54.3427193 110.7937209
  89.0341635  51.0765766 111.0369762  89.8599655  50.7769538 110.6568406
  88.6835687  50.3073389 111.4859551  94.0023168  50.4292234 113.1067436
  93.3803178  49.7662939 112.8069663  94.6728035  50.4553366 112.4241083
  87.2350240  48.9952093 111.9958696  86.3982149  48.5674267 111.8142697
  87.2073886  49.1884536 112.9329487  93.5636675  48.9796158 106.5825896
  93.7124796  49.6631622 105.9292569  94.3703119  48.9601248 107.0975352
  91.3189308  45.0061335 107.5886965  91.0735350  44.1023665 107.7867175
  91.4885223  45.0078486 106.6466443  90.5884956  40.7389693 105.0873126
  89.8954201  40.8134048 104.4313162  90.3436708  39.9750036 105.6094643
  97.0632081  51.4744288 104.0537644  96.4906048  52.0934475 103.6008115
  97.6364874  52.0243650 104.5877565 100.2829341  51.7581438 105.1846226
 101.2160014  51.6927000 105.3879101 100.1952553  52.5937705 104.7260758
 102.9117357  51.0747309 102.1450173 102.8330989  50.7407172 103.0385931
 103.7327024  51.5669076 102.1441646  97.4478879  42.8105101 101.3953696
  98.3937984  42.6811309 101.4642114  97.0693124  42.0719763 101.8723124
  95.6321796  40.7355077 101.3308581  94.7253252  40.4388190 101.4071295
  95.9097777  40.4384895 100.4642867  86.5499737  42.0561441 111.7807628
  86.2302521  41.2026749 111.4882002  86.0033165  42.2710019 112.5365595
  90.3279644  44.7723882 115.4977134  90.5465654  45.7040989 115.5165168
  90.7405418  44.4131856 116.2831938  97.2483862  35.2791967 107.4852823
  96.4384590  34.9339052 107.8608069  97.9368279  34.9699511 108.0740434
  94.4020581  37.5942012 101.4720560  95.2639745  37.9196911 101.7316378
  94.5870925  36.8073508 100.9593626  86.4187997  45.6764352 113.7500749
  85.7251468  45.2618305 113.2370704  87.1660988  45.7184889 113.1534168
  88.3324739  45.6082606 111.6266764  88.3095427  45.7070293 110.6748647
  88.6425376  46.4547757 111.9483930  90.9912117  47.6658761 115.7413379
  91.9455371  47.6342703 115.6743310  90.7924641  47.2049385 116.5563604
  91.5811499  46.2359877 118.3084176  92.4004388  46.7303956 118.3319013
  91.8548307  45.3191845 118.2801744 101.3378096  38.6270629 107.6712132
 100.4503951  38.9120280 107.4532326 101.7532085  38.4664393 106.8239409
  89.3462346  53.2078380 112.7583576  89.2116814  52.4478781 112.1921574
  88.9294408  53.9319280 112.2912365 100.4821309  48.3915304 101.7660152
 101.1857159  48.5965306 102.3817807  99.7583958  48.9592066 102.0309235
 101.3119119  44.1425165 107.8862422 101.2554321  44.5993717 107.0470054
 101.8647462  43.3815850 107.7085265  92.5031472  54.1047697 112.9702019
  92.3863856  55.0493130 112.8680709  91.6823918  53.8021259 113.3587818
 102.3908006  48.8297833 103.8158612 103.2253610  48.3979032 103.6336087
 102.2292349  48.6579847 104.7435506 102.0453899  45.3329946 105.1814951
 101.9902702  45.1674218 104.2403395 101.4199954  46.0405979 105.3377141
  86.8346414  40.5698011 119.0076373  87.4805277  40.0596965 119.4963598
  86.6263565  41.3066692 119.5819799  95.3550024  34.8338055 104.7600269
  95.3428694  35.7779895 104.9168540  96.2473446  34.6508201 104.4659731
  93.5285986  54.7575959 116.1857947  94.4313233  54.7899570 116.5024442
  93.3023356  53.8276410 116.2004283  95.2839588  53.5106946 112.8468026
  94.3335219  53.5108807 112.7332398  95.5872074  52.7639680 112.3304061
 103.6868803  61.1530389 109.8372204 103.1233669  61.0620326 109.0688492
 103.5721199  60.3330293 110.3174697 109.2668362  64.8201356 105.1486669
 108.6156342  65.4055437 104.7620683 110.0612725  65.3507551 105.2081707
 103.1923989  61.9090494 105.5473803 103.9654865  61.3619481 105.4086679
 103.5449388  62.7734743 105.7588265 105.5290267  58.0683160 103.1792253
 105.7815788  57.5464681 102.4175716 104.5914826  57.9049305 103.2818937
 110.5733550  57.0718938 110.9866997 111.3596639  56.6538361 110.6357414
 110.8372254  57.9765030 111.1548645 110.7443627  62.5091788 105.6855653
 110.1089460  62.5826415 106.3976558 110.4141034  63.0985387 105.0074733
 105.2486556  59.9711266 105.3816628 105.1322814  59.2956169 106.0497713
 105.3588816  59.4843640 104.5648781 107.5918097  59.4321413 109.0863318
 107.2276304  58.9052034 109.7976239 108.4485213  59.0419882 108.9129803
 107.2323584  54.4611313 104.0824666 107.3997986  55.3291549 104.4495137
 107.0420753  54.6238594 103.1585955 103.4411398  59.3742088 111.7827201
 102.5161895  59.2418302 111.9904893 103.6895812  60.1536308 112.2797143
 107.2112805  56.9168970 105.0671333 107.0912430  57.3626021 105.9056813
 106.5165393  57.2654288 104.5084871 100.8020210  59.0175362 112.6170990
 100.9312591  59.2709841 113.5310402 100.1217661  59.6103070 112.2975645
 112.9097871  57.3890443 105.8951667 113.8215727  57.6217830 105.7199364
 112.4007518  57.9727487 105.3326746 107.0695415  62.1090670 110.5515333
 107.5333761  62.3878373 109.7619956 106.8052213  61.2074114 110.3688424
 106.0064301  58.2313822 107.3604899 106.7088344  58.6834866 107.8278825
 105.6744930  57.5897641 107.9884792  99.7489635  56.4897375 112.6622032
  98.9588689  56.7454903 112.1862143 100.2400882  57.3045713 112.7674073
 101.7004380  56.8541954 109.6205509 100.9035544  56.9660648 110.1389005
 101.4729973  57.1928606 108.7546399  98.0327338  56.7427865 115.0937023
  98.2835376  57.6274875 115.3594599  98.5686886  56.5632467 114.3212115
 107.2458066  65.0454765 107.4367004 107.1103740  65.8906300 107.8651852
 107.7867878  65.2474042 106.6732938 100.6987463  62.5630203 108.0094929
 101.2111984  63.3573453 108.1600494 101.3510176  61.8656493 107.9428530
  98.6636380  60.8918857 108.7854499  99.5011602  61.3015865 108.5688207
  98.8414648  59.9518299 108.7554693 110.5600812  58.5593938 104.4738332
 110.0447435  59.3298542 104.7126720 110.2878120  57.8859074 105.0971394
 108.1447923  53.4043638 109.5323571 107.2889519  53.0150489 109.3529209
 108.5574875  53.4835599 108.6723356 115.5335086  61.3126292 106.4091506
 114.7564529  60.9737452 105.9646668 116.2126567  61.3178916 105.7346471
 110.3487115  56.4321030 106.2998114 110.0437251  56.7467179 107.1508257
 111.3017557  56.5102450 106.3425447 108.7933547  62.5911253 107.9491068
 108.2654909  61.8564013 107.6364305 108.2921050  63.3685929 107.7031036
 103.5252275  53.2530919 110.3097679 104.0996027  53.0306101 109.5770872
 104.1123257  53.3219614 111.0626280 103.8521862  55.2835380 104.3293564
 103.0159174  55.6210067 104.6502839 103.7126631  55.1484360 103.3920701
 105.8274942  50.1272168 109.0372748 105.1739355  49.8121185 108.4129363
 105.7855416  49.5047909 109.7632571 106.9386147  60.4091463 100.9526041
 106.0313209  60.1780717 101.1517190 107.4357179  59.6129083 101.1400022
 109.8454226  69.1188971 103.8722727 109.1715925  69.4220667 104.4807685
 110.2320048  69.9218051 103.5228184 109.8447730  58.0145518 108.4923076
 110.5919549  58.5266915 108.1830198 110.1139320  57.6929570 109.3527470
 108.1174381  60.5104058 105.4750031 107.2085600  60.2263091 105.5722500
 108.1469464  60.9303137 104.6153338  98.6862551  58.2309572 109.4565233
  98.4886951  57.6378933 108.7316299  98.1309215  57.9261783 110.1741172
 106.6659275  58.1232679 111.5759826 106.7207884  57.1706515 111.5002303
 105.8550477  58.2792118 112.0601124 107.8150468  62.0512802 102.8138109
 107.3769898  61.3348661 102.3543747 108.5560909  62.2788917 102.2523201
 104.6051635  56.7409739 109.3350205 103.7919500  57.0403909 109.7415397
 105.1010629  56.3465427 110.0524687 104.0965709  54.3128094 114.9511440
 104.7365089  54.1716853 114.2534403 103.2643240  54.0262608 114.5750042
 101.1808777  57.7573606 107.1406185 100.2506365  57.6958062 107.3576147
 101.2766249  57.2349559 106.3442826 101.0994326  54.2828419 109.7284427
 101.3601143  55.1973752 109.6193587 101.9211498  53.8152862 109.8781039
 111.9361696  60.9097184 102.4070167 111.3190867  60.1844012 102.3103220
 111.4678185  61.6706544 102.0637241 103.7260242  55.1282608 101.5291471
 102.8489708  55.0071409 101.1653718 104.2017995  54.3368686 101.2770360
  95.2462382  59.9159768 111.6232978  95.9333422  59.6021498 111.0353994
  95.0910511  60.8201132 111.3500230 100.0497104  54.8049964 116.0518002
  99.9655293  54.1975634 115.3168412  99.2279811  55.2958982 116.0527498
 106.8055787  55.4320911 111.1459882 106.4353574  54.8791951 111.8340787
 107.3014879  54.8279044 110.5934882  94.8230358  57.9960361 113.8950445
  94.8614458  57.4623952 114.6887563  94.3170651  57.4695566 113.2761423
  98.4538936  56.7224463 106.9704377  98.7492377  55.8135142 106.9171430
  97.5526972  56.7012203 106.6485379 101.9833183  54.7980460 112.9531925
 101.2619769  55.4116427 112.8139399 102.7726439  55.3338225 112.8748571
 100.1826777  54.4038561 107.0943702  99.8539484  53.5235940 106.9118808
 100.5366148  54.3486229 107.9820091 103.2968601  54.6911531 107.4619180
 103.6364673  55.2197452 106.7397788 103.7440721  55.0291937 108.2377746
 105.2836748  53.1886152 105.6612472 106.0045110  53.5667405 105.1576189
 104.6602052  53.9075029 105.7647450 109.4267871  53.8931301 106.5970805
 109.6431485  54.7755939 106.2959633 108.9461938  53.5017515 105.8676447
 104.1667092  56.8517014 113.1741549 104.0211673  57.1657317 114.0665831
 103.6892296  57.4701915 112.6212448 105.4300371  52.7233943 108.4910009
 105.5516282  51.7950589 108.6900896 105.1402413  52.7372629 107.5788324
  99.8735390  66.4057684 111.0369762 100.6993410  66.1061456 110.6568406
  99.5229442  65.6365306 111.4859551  98.0743995  64.3244010 111.9958696
  97.2375903  63.8966185 111.8142697  98.0467640  64.5176454 112.9329487
 104.4030430  64.3088075 106.5825896 104.5518550  64.9923540 105.9292569
 105.2096873  64.2893165 107.0975352 102.1583063  60.3353253 107.5886965
 101.9129105  59.4315583 107.7867175 102.3278977  60.3370403 106.6466443
 101.4278710  56.0681611 105.0873126 100.7347955  56.1425966 104.4313162
 101.1830462  55.3041954 105.6094643 107.9025835  66.8036206 104.0537644
 107.3299802  67.4226393 103.6008115 108.4758629  67.3535567 104.5877565
 111.1223095  67.0873356 105.1846226 112.0553768  67.0218918 105.3879101
 111.0346308  67.9229623 104.7260758 113.7511112  66.4039226 102.1450173
 113.6724743  66.0699090 103.0385931 114.5720778  66.8960994 102.1441646
 108.2872634  58.1397019 101.3953696 109.2331738  58.0103227 101.4642114
 107.9086879  57.4011680 101.8723124 106.4715551  56.0646995 101.3308581
 105.5647006  55.7680108 101.4071295 106.7491532  55.7676813 100.4642867
  97.3893491  57.3853358 111.7807628  97.0696276  56.5318667 111.4882002
  96.8426919  57.6001936 112.5365595 108.0877617  50.6083885 107.4852823
 107.2778345  50.2630970 107.8608069 108.7762034  50.2991428 108.0740434
 105.2414336  52.9233930 101.4720560 106.1033500  53.2488828 101.7316378
 105.4264680  52.1365426 100.9593626  97.2581751  61.0056270 113.7500749
  96.5645223  60.5910223 113.2370704  98.0054742  61.0476806 113.1534168
  99.1718494  60.9374524 111.6266764  99.1489182  61.0362211 110.6748647
  99.4819130  61.7839674 111.9483930 112.1771850  53.9562547 107.6712132
 111.2897705  54.2412198 107.4532326 112.5925839  53.7956310 106.8239409
 111.3215063  63.7207222 101.7660152 112.0250914  63.9257224 102.3817807
 110.5977712  64.2883984 102.0309235 112.1512874  59.4717083 107.8862422
 112.0948075  59.9285634 107.0470054 112.7041216  58.7107768 107.7085265
 113.2301761  64.1589751 103.8158612 114.0647365  63.7270949 103.6336087
 113.0686104  63.9871765 104.7435506 112.8847653  60.6621864 105.1814951
 112.8296457  60.4966136 104.2403395 112.2593708  61.3697897 105.3377141
 106.1943779  50.1629973 104.7600269 106.1822448  51.1071813 104.9168540
 107.0867200  49.9800119 104.4659731 114.5653996  70.4574526 101.5291471
 113.6883463  70.3363326 101.1653718 115.0411750  69.6660604 101.2770360
 116.0808090  68.2525848 101.4720560 116.9427254  68.5780746 101.7316378
 116.2658434  67.4657344 100.9593626  70.0925264   3.4544375  99.5854973
  70.3321863   4.0862899 100.2633991  69.2494461   3.1032415  99.8720332
  82.0081296   7.5008676  96.5617511  81.4446161   7.4098613  95.7933799
  81.8933691   6.6808580  97.0420003  79.5545728   8.9959868  99.4001731
  80.3467020   8.6550692  98.9848031  79.7942378   9.1054843 100.3203885
  87.5880854  11.1679644  91.8731976  86.9368834  11.7533724  91.4865989
  88.3825217  11.6985839  91.9327013  81.5136482   8.2568781  92.2719110
  82.2867358   7.7097768  92.1331986  81.8661880   9.1213030  92.4833571
  83.3521524   9.5845163 105.4786009  83.0611390  10.4890794 105.3632676
  83.9878509   9.6261691 106.1930079  84.2777731   6.9622012 102.0687369
  84.8741303   6.7378034 101.3544332  84.3352703   6.2206757 102.6712817
  89.0656120   8.8570076  92.4100960  88.4301953   8.9304702  93.1221865
  88.7353526   9.4463675  91.7320039  83.5699048   6.3189553  92.1061935
  83.4535306   5.6434456  92.7743019  83.6801308   5.8321927  91.2894088
  81.7623891   5.7220376  98.5072507  80.8374387   5.5896590  98.7150199
  82.0108304   6.5014595  99.0042450  79.1232702   5.3653649  99.3416297
  79.2525083   5.6188128 100.2555708  78.4430153   5.9581357  99.0220952
  83.2932189  16.0350899  95.4406771  83.2156219  16.9858724  95.5195251
  82.6893833  15.6896772  96.0981697  89.8379945   8.7194549 100.0110555
  89.2088808   8.8840263  99.3086623  89.4505608   9.1336158 100.7821519
  93.7169177   9.6548987  97.3654919  93.0320215  10.0347888  96.8151952
  93.8013027  10.2644313  98.0986867  85.3907907   8.4568957  97.2760640
  85.8546253   8.7356660  96.4865263  85.1264705   7.5552402  97.0933731
  82.2831988   8.0040439 100.2140403  82.8533345   8.4327707  99.5757888
  82.8740100   7.7223023 100.9124589  85.8522540   9.7264944 104.2933330
  85.9166973  10.1885352 105.1291502  85.1433464   9.0962309 104.4215640
  85.5670558  11.3933052  94.1612310  85.4316233  12.2384588  94.5897158
  86.1080370  11.5952330  93.3978244  79.0199955   8.9108490  94.7340236
  79.5324476   9.7051740  94.8845800  79.6722668   8.2134780  94.6673837
  80.8294840  12.0274246  96.8162989  81.0061468  12.9492211  96.6283973
  81.6251674  11.7132665  97.2457368  81.9526156  13.5452420 102.8173331
  82.5033581  13.4169483 102.0450325  81.1137631  13.8447309 102.4668224
  76.9848872   7.2397144  95.5099806  77.8224094   7.6494153  95.2933514
  77.1627140   6.2996586  95.4800000  87.1146039   8.9389540  94.6736374
  86.5867401   8.2042300  94.3609612  86.6133542   9.7164217  94.4276343
  88.1666718  15.4667258  90.5968033  87.4928417  15.7698955  91.2052991
  88.5532540  16.2696338  90.2473490  86.4386873   6.8582346  92.1995337
  85.5298092   6.5741378  92.2967807  86.4681957   7.2781424  91.3398644
  91.6706140  10.4688935  95.9686505  91.2168467   9.6279845  96.0251695
  91.0400107  11.1050333  96.3061285  90.1139080  12.3065432  96.9036323
  90.4062054  12.8670489  96.1848689  90.6237700  12.5993993  97.6589482
  77.0075043   4.5787860  96.1810540  76.8099443   3.9857220  95.4561606
  76.4521707   4.2740070  96.8986478  86.1362961   8.3991089  89.5383416
  85.6982391   7.6826948  89.0789053  86.8773402   8.6267204  88.9768507
  85.0772705  13.0845783  97.9929776  85.0348884  13.3106629  97.0638308
  85.9935404  12.8509157  98.1415577  83.1938506   9.9608812  97.7891739
  83.9879104   9.4659132  97.5874314  82.4830198   9.4326675  97.4259445
  88.0133350  12.3426907 102.1404107  88.0670372  12.9117844 102.9081822
  87.1448131  12.5128792 101.7758144  85.7709782  10.5337834 101.4689576
  85.6320867  10.1656618 102.3415514  84.9824378  11.0485473 101.2973534
  86.3657933  15.6346930  92.8115113  86.5409689  15.1634973  93.6260735
  85.6790722  16.2612696  93.0396373  87.3214997   9.9119436  98.8578414
  86.9864829   9.8720206  99.7536064  86.8218942   9.2464152  98.3848824
  80.9319019  18.7836293  99.5854973  81.1715617  19.4154817 100.2633991
  80.0888215  18.4324333  99.8720332  73.5674874   6.2638055  98.3478285
  74.2545914   5.9499785  97.7599300  73.4123003   7.1679419  98.0745536
  85.4446881  14.5915415 101.9896477  85.3717052  15.3970387 102.5015781
  85.0024274  14.7907381 101.1644498  85.2336660  13.8287185  95.4999298
  84.4504182  14.3708866  95.5937523  85.9329405  14.3461165  95.8993539
  87.9045564  14.4902249 104.1454635  88.6173536  15.1249714 104.0730537
  87.4135593  14.5866115 103.3294637  82.9557478  12.2396693 104.9660206
  83.6566937  12.8733176 105.1189600  82.4852593  12.5811424 104.2055845
  91.0811874  10.5814643  93.2508113  91.3571717  10.4671237  94.1601987
  90.2116372  10.1832128  93.2120286  87.7165938  14.8300994  96.8940927
  87.8988332  14.0122650  97.3568679  88.5398924  15.0468686  96.4565817
  88.0508103  13.7569179  94.1555975  88.5795869  13.2461633  93.5426137
  88.3136323  13.4411709  95.0201508  78.5525196  11.7733048 101.8991309
  79.1378633  11.0276736 102.0319213  78.3550034  12.0837005 102.7827973
  81.4063851  14.8084295  96.9153751  80.7374226  15.2930423  96.4317791
  81.2676721  15.0553516  97.8297130  73.1442850   4.3438648 100.6195752
  73.1826950   3.8102239 101.4132870  72.6383143   3.8173854 100.0006729
  85.5469120  16.8428039 103.5136410  86.0987428  17.0059660 104.2785495
  85.8875313  17.4332477 102.8416434  88.6837507  14.7910014 100.5000092
  88.5588646  13.9899754  99.9911037  89.3416598  15.2856208 100.0114062
  90.7472415  12.5919035 102.1279642  89.8002751  12.4724386 102.0557969
  91.0955188  11.7041533 102.2105903  87.7518849  12.3871751  98.3283994
  87.6043811  11.4588458  98.5091564  88.5772342  12.4091841  97.8441069
  91.3552970  13.2100309  99.4148867  92.2799518  13.0043171  99.2773318
  91.1868274  12.9616711 100.3238208  91.1448287  13.7285977  94.7710958
  91.3185164  13.1632399  94.0184811  91.6377178  14.5286872  94.5890448
  76.9625246   5.7400646 102.8374517  76.4178714   6.5160454 102.9694791
  77.8404596   6.0871450 102.6793639  92.1323459  13.0452741  91.8707857
  92.8274364  13.6659434  92.0895171  92.4746609  12.1948093  92.1460234
  77.7491268   4.8670542 105.7304674  77.0073004   5.0153178 106.3169304
  77.4284013   5.1278808 104.8671423  94.0314882  10.4952447  93.3995187
  94.5566206  10.8339720  92.6744507  93.9437235   9.5599462  93.2158322
  85.6934931  14.4086521 105.5285064  86.0022057  14.1635667 106.4007764
  86.4910413  14.6133159 105.0403934  85.7155543  16.5624430  97.7590441
  85.2760533  16.0700809  98.4523297  86.4663660  16.0197398  97.5182516
  78.1947882  12.7535971  97.7615069  79.0205902  12.4539743  97.3813712
  77.8441934  11.9843593  98.2104857  83.1629415  12.1062439  99.8312742
  82.5409424  11.4433144  99.5314970  83.8334282  12.1323571  99.1486390
  76.3956487  10.6722297  98.7204002  75.5588395  10.2444472  98.5388003
  76.3680132  10.8654741  99.6574793  82.7242922  10.6566363  93.3071203
  82.8731042  11.3401827  92.6537875  83.5309365  10.6371453  93.8220658
  80.4795555   6.6831540  94.3132272  80.2341597   5.7793870  94.5112482
  80.6491470   6.6848691  93.3711750  86.2238328  13.1514493  90.7782950
  85.6512295  13.7704680  90.3253422  86.7971121  13.7013855  91.3122872
  89.4435587  13.4351643  91.9091532  90.3766260  13.3697205  92.1124408
  89.3558800  14.2707910  91.4506065  92.0723604  12.7517513  88.8695480
  91.9937236  12.4177377  89.7631238  92.8933271  13.2439281  88.8686952
  75.7105984   3.7331646  98.5052934  75.3908768   2.8796954  98.2127308
  75.1639412   3.9480224  99.2610902  79.4885891   6.4494087 102.2222441
  79.7071901   7.3811194 102.2410475  79.9011665   6.0902061 103.0077245
  75.5794244   7.3534557 100.4746056  74.8857715   6.9388510  99.9616010
  76.3267235   7.3955094  99.8779475  77.4930986   7.2852811  98.3512071
  77.4701674   7.3840498  97.3993954  77.8031623   8.1317962  98.6729237
  80.1518364   9.3428966 102.4658685  81.1061618   9.3112908 102.3988617
  79.9530888   8.8819590 103.2808911  80.7417746   7.9130082 105.0329483
  81.5610635   8.4074161 105.0564320  81.0154554   6.9962050 105.0047050
  78.5068593  14.8848585  99.4828883  78.3723061  14.1248986  98.9166881
  78.0900655  15.6089485  99.0157672  89.6427556  10.0685509  88.4905458
  90.3463406  10.2735511  89.1063114  88.9190205  10.6362271  88.7554542
  81.6637719  15.7817902  99.6947326  81.5470103  16.7263335  99.5926016
  80.8430165  15.4791464 100.0833125  91.5514253  10.5068038  90.5403918
  92.3859857  10.0749237  90.3581393  91.3898596  10.3350052  91.4680813
  82.6892233  16.4346164 102.9103254  83.5919479  16.4669775 103.2269749
  82.4629603  15.5046615 102.9249590  84.4445835  15.1877151  99.5713333
  83.4941466  15.1879012  99.4577705  84.7478321  14.4409885  99.0549367
  96.9888235  20.9765117 100.5720620  96.6506746  20.8606182  99.6841155
  97.8578003  20.5756282 100.5521626  92.8475050  22.8300594  96.5617511
  92.2839915  22.7390531  95.7933799  92.7327445  22.0100498  97.0420003
  90.3939482  24.3251785  99.4001731  91.1860774  23.9842610  98.9848031
  90.6336132  24.4346760 100.3203885  98.4274609  26.4971561  91.8731976
  97.7762589  27.0825642  91.4865989  99.2218972  27.0277756  91.9327013
  92.3530236  23.5860699  92.2719110  93.1261112  23.0389686  92.1331986
  92.7055635  24.4504948  92.4833571  94.1915279  24.9137081 105.4786009
  93.9005145  25.8182712 105.3632676  94.8272263  24.9553608 106.1930079
  95.1171486  22.2913929 102.0687369  95.7135058  22.0669952 101.3544332
  95.1746457  21.5498675 102.6712817  94.6896514  19.7453365  89.9037560
  94.9422035  19.2234886  89.1421023  93.7521073  19.5819510  90.0064244
  99.7339797  18.7489143  97.7112303 100.5202886  18.3308566  97.3602720
  99.9978501  19.6535235  97.8793952  99.9049874  24.1861993  92.4100960
  99.2695707  24.2596620  93.1221865  99.5747281  24.7755592  91.7320039
  94.4092803  21.6481471  92.1061935  94.2929061  20.9726374  92.7743019
  94.5195063  21.1613845  91.2894088  96.7524344  21.1091618  95.8108624
  96.3882551  20.5822239  96.5221546  97.6091460  20.7190087  95.6375110
  96.3929831  16.1381517  90.8069973  96.5604233  17.0061754  91.1740444
  96.2027000  16.3008799  89.8831262  92.6017645  21.0512293  98.5072507
  91.6768142  20.9188507  98.7150199  92.8502058  21.8306512  99.0042450
  96.3719051  18.5939175  91.7916639  96.2518677  19.0396226  92.6302120
  95.6771640  18.9424493  91.2330178  89.9626456  20.6945567  99.3416297
  90.0918837  20.9480046 100.2555708  89.2823908  21.2873275  99.0220952
  94.1325944  31.3642817  95.4406771  94.0549973  32.3150642  95.5195251
  93.5287587  31.0188689  96.0981697 102.0704118  19.0660648  92.6196974
 102.9821974  19.2988035  92.4444671 101.5613765  19.6497692  92.0572052
 100.6773700  24.0486467 100.0110555 100.0482562  24.2132181  99.3086623
 100.2899362  24.4628076 100.7821519 104.5562932  24.9840904  97.3654919
 103.8713970  25.3639806  96.8151952 104.6406781  25.5936231  98.0986867
  96.2301662  23.7860875  97.2760640  96.6940007  24.0648578  96.4865263
  95.9658460  22.8844319  97.0933731  93.1225743  23.3332356 100.2140403
  93.6927100  23.7619625  99.5757888  93.7133855  23.0514941 100.9124589
  95.1670548  19.9084027  94.0850205  95.8694591  20.3605071  94.5524132
  94.8351176  19.2667846  94.7130098  88.9095882  18.1667580  99.3867339
  88.1194936  18.4225108  98.9107449  89.4007129  18.9815918  99.4919379
  90.8610627  18.5312159  96.3450815  90.0641790  18.6430853  96.8634311
  90.6336219  18.8698811  95.4791706  96.6916295  25.0556862 104.2933330
  96.7560727  25.5177269 105.1291502  95.9827219  24.4254227 104.4215640
  87.1933585  18.4198070 101.8182330  87.4441623  19.3045080 102.0839906
  87.7293133  18.2402672 101.0457421  96.4064312  26.7224970  94.1612310
  96.2709987  27.5676505  94.5897158  96.9474125  26.9244247  93.3978244
  89.8593710  24.2400408  94.7340236  90.3718230  25.0343658  94.8845800
  90.5116423  23.5426698  94.6673837  91.6688595  27.3566164  96.8162989
  91.8455223  28.2784129  96.6283973  92.4645428  27.0424583  97.2457368
  92.7919910  28.8744338 102.8173331  93.3427335  28.7461401 102.0450325
  91.9531386  29.1739227 102.4668224  87.8242627  22.5689062  95.5099806
  88.6617849  22.9786070  95.2933514  88.0020894  21.6288504  95.4800000
  99.7207059  20.2364143  91.1983639  99.2053682  21.0068747  91.4372026
  99.4484367  19.5629279  91.8216700  97.3054170  15.0813843  96.2568877
  96.4495766  14.6920694  96.0774516  97.7181122  15.1605804  95.3968663
 104.6941333  22.9896497  93.1336813 103.9170776  22.6507657  92.6891975
 105.3732814  22.9949120  92.4591778  99.5093362  18.1091235  93.0243420
  99.2043498  18.4237384  93.8753563 100.4623804  18.1872655  93.0670753
  97.9539794  24.2681458  94.6736374  97.4261155  23.5334218  94.3609612
  97.4527297  25.0456134  94.4276343  92.6858521  14.9301124  97.0342986
  93.2602273  14.7076306  96.3016179  93.2729504  14.9989819  97.7871587
 101.7438099  20.8174851  97.8407362 102.2569980  21.4504843  98.3429072
 102.3939322  20.2176047  97.4750722  93.0128108  16.9605585  91.0538871
  92.1765421  17.2980272  91.3748146  92.8732878  16.8254565  90.1166008
  94.9881189  11.8042373  95.7618055  94.3345601  11.4891390  95.1374670
  94.9461663  11.1818114  96.4877878  96.0992394  22.0861668  87.6771347
  95.1919456  21.8550922  87.8762496  96.5963426  21.2899288  87.8645329
  99.0060473  30.7959176  90.5968033  98.3322172  31.0990872  91.2052991
  99.3926295  31.5988256  90.2473490  98.2218929  18.2924307 100.0865703
  97.3041491  18.5139254  99.9287391  98.6379073  18.3670617  99.2277410
  99.0053977  19.6915722  95.2168383  99.7525796  20.2037120  94.9075505
  99.2745567  19.3699775  96.0772777  97.2780627  22.1874263  92.1995337
  96.3691847  21.9033296  92.2967807  97.3075711  22.6073342  91.3398644
 102.5099895  25.7980853  95.9686505 102.0562222  24.9571763  96.0251695
 101.8793862  26.4342251  96.3061285 100.9532834  27.6357349  96.9036323
 101.2455808  28.1962406  96.1848689 101.4631455  27.9285910  97.6589482
  87.8468798  19.9079777  96.1810540  87.6493198  19.3149138  95.4561606
  87.2915462  19.6031987  96.8986478  95.8265521  19.8002884  98.3005133
  95.8814131  18.8476720  98.2247609  95.0156723  19.9562323  98.7846431
  96.9756715  23.7283007  89.5383416  96.5376145  23.0118866  89.0789053
  97.7167156  23.9559122  88.9768507  93.7657881  18.4179944  96.0595512
  92.9525747  18.7174114  96.4660704  94.2616876  18.0235632  96.7769994
  95.9166459  28.4137700  97.9929776  95.8742638  28.6398547  97.0638308
  96.8329158  28.1801075  98.1415577 105.0929830  22.0040204  95.5959734
 104.9547729  22.1941800  94.6680924 104.7366049  22.7659587  96.0527786
  93.2571956  15.9898299 101.6756746  93.8971335  15.8487058 100.9779710
  92.4249487  15.7032812 101.2995348  94.0332260  25.2900729  97.7891739
  94.8272859  24.7951050  97.5874314  93.3223952  24.7618593  97.4259445
  98.8527104  27.6718825 102.1404107  98.9064127  28.2409761 102.9081822
  97.9841886  27.8420710 101.7758144  90.3415023  19.4343811  93.8651492
  89.4112612  19.3728267  94.0821454  90.4372495  18.9119764  93.0688133
  90.2600573  15.9598624  96.4529733  90.5207390  16.8743957  96.3438894
  91.0817745  15.4923067  96.6026346  91.7325498  17.3736381 103.6228558
  92.4048551  17.1653743 102.9741207  90.9055284  17.1758467 103.1833790
  96.6103536  25.8629751 101.4689576  96.4714622  25.4948536 102.3415514
  95.8218132  26.3777391 101.2973534  97.2051688  30.9638848  92.8115113
  97.3803444  30.4926891  93.6260735  96.5184476  31.5904614  93.0396373
  98.1608751  25.2411354  98.8578414  97.8258584  25.2012124  99.7536064
  97.6612697  24.5756070  98.3848824  92.1352995  20.6478984 104.3830995
  91.9972793  19.9159223 104.9842534  93.0457919  20.5587884 104.1015183
 101.0967943  22.5867388  89.1315473 100.4797113  21.8614217  89.0348526
 100.6284431  23.3476749  88.7882548  91.7712773  34.1128211  99.5854973
  92.0109371  34.7446735 100.2633991  90.9281970  33.7616251  99.8720332
  92.8866489  16.8052813  88.2536778  92.0095955  16.6841614  87.8899024
  93.3624242  16.0138891  88.0015666  84.4068629  21.5929973  98.3478285
  85.0939669  21.2791703  97.7599300  84.2516758  22.4971337  98.0745536
  89.2103351  16.4820169 102.7763309  89.1261540  15.8745839 102.0413719
  88.3886057  16.9729187 102.7772805  96.2840635  29.9207333 101.9896477
  96.2110807  30.7262305 102.5015781  95.8418028  30.1199299 101.1644498
  96.0730415  29.1579103  95.4999298  95.2897937  29.7000783  95.5937523
  96.7723160  29.6753083  95.8993539  98.7439319  29.8194167 104.1454635
  99.4567291  30.4541632 104.0730537  98.2529347  29.9158033 103.3294637
 100.4656846  23.7245420  95.7171927  99.5313124  23.8446882  95.5476631
 100.6433514  22.8217887  95.4531937  95.9662034  17.1091116  97.8705188
  95.5959821  16.5562156  98.5586094  96.4621126  16.5049249  97.3180188
  93.7951232  27.5688611 104.9660206  94.4960692  28.2025094 105.1189600
  93.3246347  27.9103342 104.2055845 101.9205628  25.9106560  93.2508113
 102.1965472  25.7963155  94.1601987 101.0510127  25.5124045  93.2120286
  98.5559692  30.1592911  96.8940927  98.7382087  29.3414567  97.3568679
  99.3792678  30.3760604  96.4565817  98.8901858  29.0861096  94.1555975
  99.4189624  28.5753551  93.5426137  99.1530077  28.7703627  95.0201508
  89.3918950  27.1024966 101.8991309  89.9772387  26.3568654 102.0319213
  89.1943789  27.4128922 102.7827973  92.2457605  30.1376213  96.9153751
  91.5767981  30.6222341  96.4317791  92.1070475  30.3845434  97.8297130
  83.9836605  19.6730566 100.6195752  84.0220704  19.1394157 101.4132870
  83.4776898  19.1465771 100.0006729  96.3862874  32.1719957 103.5136410
  96.9381182  32.3351578 104.2785495  96.7269068  32.7624394 102.8416434
  87.6145183  18.3994668  93.6949683  87.9098624  17.4905346  93.6416737
  86.7133218  18.3782407  93.3730686  99.5231261  30.1201932 100.5000092
  99.3982401  29.3191672  99.9911037 100.1810352  30.6148125 100.0114062
  91.1439430  16.4750665  99.6777232  90.4226015  17.0886632  99.5384705
  91.9332685  17.0108429  99.5993878 101.5866170  27.9210952 102.1279642
 100.6396505  27.8016303 102.0557969 101.9348943  27.0333450 102.2105903
  89.3433024  16.0808766  93.8189009  89.0145730  15.2006145  93.6364114
  89.6972395  16.0256434  94.7065398  98.5912603  27.7163668  98.3283994
  98.4437565  26.7880376  98.5091564  99.4166097  27.7383759  97.8441069
  92.4574847  16.3681735  94.1864486  92.7970920  16.8967657  93.4643095
  92.9046968  16.7062142  94.9623053 102.1946725  28.5392227  99.4148867
 103.1193272  28.3335088  99.2773318 102.0262028  28.2908628 100.3238208
  94.4442994  14.8656357  92.3857779  95.1651357  15.2437610  91.8821496
  93.8208299  15.5845234  92.4892757  98.5874117  15.5701506  93.3216111
  98.8037732  16.4526144  93.0204939  98.1068184  15.1787719  92.5921753
  93.3273339  18.5287219  99.8986856  93.1817919  18.8427522 100.7911137
  92.8498542  19.1472120  99.3457755 101.9842041  29.0577895  94.7710958
 102.1578919  28.4924317  94.0184811 102.4770932  29.8578789  94.5890448
  87.8019001  21.0692564 102.8374517  87.2572469  21.8452372 102.9694791
  88.6798351  21.4163368 102.6793639  94.5906618  14.4004148  95.2155316
  94.7122529  13.4720794  95.4146203  94.3008660  14.4142834  94.3033631
 102.9717214  28.3744659  91.8707857 103.6668118  28.9951352  92.0895171
 103.3140364  27.5240010  92.1460234  88.5885023  20.1962460 105.7304674
  87.8466759  20.3445095 106.3169304  88.2677767  20.4570726 104.8671423
 104.8708637  25.8244365  93.3995187 105.3959961  26.1631637  92.6744507
 104.7830989  24.8891380  93.2158322  96.5328685  29.7378438 105.5285064
  96.8415812  29.4927585 106.4007764  97.3304167  29.9425077 105.0403934
  96.5549297  31.8916348  97.7590441  96.1154288  31.3992727  98.4523297
  97.3057414  31.3489315  97.5182516  89.0341636  28.0827889  97.7615069
  89.8599656  27.7831661  97.3813712  88.6835688  27.3135511  98.2104857
  94.0023170  27.4354357  99.8312742  93.3803179  26.7725062  99.5314970
  94.6728036  27.4615489  99.1486390  87.2350241  26.0014215  98.7204002
  86.3982150  25.5736389  98.5388003  87.2073887  26.1946658  99.6574793
  93.5636676  25.9858280  93.3071203  93.7124797  26.6693745  92.6537875
  94.3703120  25.9663370  93.8220658  91.3189309  22.0123458  94.3132272
  91.0735351  21.1085788  94.5112482  91.4885224  22.0140608  93.3711750
  90.5884957  17.7451815  91.8118433  89.8954202  17.8196170  91.1558469
  90.3436709  16.9812159  92.3339950  97.0632082  28.4806411  90.7782950
  96.4906049  29.0996598  90.3253422  97.6364876  29.0305772  91.3122872
 100.2829342  28.7643561  91.9091532 101.2160015  28.6989122  92.1124408
 100.1952555  29.5999828  91.4506065 102.9117358  28.0809431  88.8695480
 102.8330990  27.7469295  89.7631238 103.7327025  28.5731199  88.8686952
  97.4478881  19.8167223  88.1199003  98.3937985  19.6873432  88.1887421
  97.0693125  19.0781885  88.5968431  95.6321798  17.7417200  88.0553888
  94.7253253  17.4450313  88.1316601  95.9097779  17.4447018  87.1888174
  86.5499738  19.0623563  98.5052934  86.2302522  18.2088871  98.2127308
  86.0033166  19.2772141  99.2610902  90.3279646  21.7786004 102.2222441
  90.5465655  22.7103112 102.2410475  90.7405419  21.4193979 103.0077245
  97.2483863  12.2854090  94.2098129  96.4384592  11.9401175  94.5853375
  97.9368280  11.9761633  94.7985741  94.4020582  14.6004135  88.1965867
  95.2639746  14.9259033  88.4561684  94.5870926  13.8135631  87.6838933
  86.4187998  22.6826475 100.4746056  85.7251469  22.2680428  99.9616010
  87.1660989  22.7247011  99.8779475  88.3324741  22.6144729  98.3512071
  88.3095429  22.7132416  97.3993954  88.6425377  23.4609879  98.6729237
  90.9912118  24.6720884 102.4658685  91.9455372  24.6404826 102.3988617
  90.7924642  24.2111507 103.2808911  91.5811501  23.2422000 105.0329483
  92.4004390  23.7366078 105.0564320  91.8548308  22.3253968 105.0047050
 101.3378097  15.6332752  94.3957438 100.4503952  15.9182403  94.1777633
 101.7532086  15.4726515  93.5484715  89.3462347  30.2140503  99.4828883
  89.2116815  29.4540904  98.9166881  88.9294410  30.9381403  99.0157672
 100.4821310  25.3977427  88.4905458 101.1857160  25.6027429  89.1063114
  99.7583959  25.9654188  88.7554542 101.3119121  21.1487288  94.6107728
 101.2554322  21.6055839  93.7715361 101.8647463  20.3877972  94.4330571
  92.5031473  31.1109820  99.6947326  92.3863857  32.0555253  99.5926016
  91.6823919  30.8083382 100.0833125 102.3908008  25.8359956  90.5403918
 103.2253612  25.4041154  90.3581393 102.2292351  25.6641969  91.4680813
 102.0453900  22.3392069  91.9060258 101.9902704  22.1736340  90.9648702
 101.4199955  23.0468102  92.0622447  86.8346415  17.5760133 105.7321680
  87.4805278  17.0659087 106.2208905  86.6263566  18.3128815 106.3065105
  95.3550025  11.8400178  91.4845576  95.3428695  12.7842018  91.6413847
  96.2473447  11.6570323  91.1905037  93.5285987  31.7638082 102.9103254
  94.4313234  31.7961692 103.2269749  93.3023357  30.8338533 102.9249590
  95.2839589  30.5169068  99.5713333  94.3335220  30.5170930  99.4577705
  95.5872075  29.7701803  99.0549367 107.8281989  36.3057035 100.5720620
 107.4900501  36.1898100  99.6841155 108.6971757  35.9048200 100.5521626
 103.6868805  38.1592511  96.5617511 103.1233670  38.0682448  95.7933799
 103.5721200  37.3392416  97.0420003 101.2333237  39.6543703  99.4001731
 102.0254529  39.3134528  98.9848031 101.4729887  39.7638678 100.3203885
 109.2668363  41.8263479  91.8731976 108.6156343  42.4117560  91.4865989
 110.0612726  42.3569674  91.9327013 103.1923991  38.9152616  92.2719110
 103.9654867  38.3681603  92.1331986 103.5449389  39.7796866  92.4833571
 105.0309033  40.2428999 105.4786009 104.7398899  41.1474629 105.3632676
 105.6666018  40.2845526 106.1930079 105.9565240  37.6205847 102.0687369
 106.5528812  37.3961869 101.3544332 106.0140212  36.8790593 102.6712817
 105.5290268  35.0745282  89.9037560 105.7815789  34.5526804  89.1421023
 104.5914828  34.9111428  90.0064244 110.5733551  34.0781061  97.7112303
 111.3596640  33.6600484  97.3602720 110.8372256  34.9827153  97.8793952
 110.7443629  39.5153911  92.4100960 110.1089462  39.5888538  93.1221865
 110.4141035  40.1047510  91.7320039 105.2486557  36.9773388  92.1061935
 105.1322815  36.3018292  92.7743019 105.3588817  36.4905762  91.2894088
 107.5918098  36.4383535  95.8108624 107.2276305  35.9114156  96.5221546
 108.4485214  36.0482004  95.6375110 107.2323585  31.4673435  90.8069973
 107.3997987  32.3353672  91.1740444 107.0420754  31.6300717  89.8831262
 103.4411400  36.3804211  98.5072507 102.5161896  36.2480425  98.7150199
 103.6895813  37.1598430  99.0042450 107.2112806  33.9231093  91.7916639
 107.0912431  34.3688143  92.6302120 106.5165394  34.2716410  91.2330178
 100.8020211  36.0237484  99.3416297 100.9312592  36.2771963 100.2555708
 100.1217662  36.6165192  99.0220952 104.9719698  46.6934734  95.4406771
 104.8943728  47.6442559  95.5195251 104.3681342  46.3480607  96.0981697
 112.9097872  34.3952566  92.6196974 113.8215728  34.6279953  92.4444671
 112.4007519  34.9789610  92.0572052 111.5167454  39.3778384 100.0110555
 110.8876317  39.5424098  99.3086623 111.1293116  39.7919994 100.7821519
 115.3956686  40.3132822  97.3654919 114.7107724  40.6931723  96.8151952
 115.4800536  40.9228149  98.0986867 107.0695416  39.1152792  97.2760640
 107.5333762  39.3940495  96.4865263 106.8052214  38.2136237  97.0933731
 103.9619497  38.6624274 100.2140403 104.5320854  39.0911542  99.5757888
 104.5527609  38.3806859 100.9124589 106.0064302  35.2375945  94.0850205
 106.7088346  35.6896988  94.5524132 105.6744931  34.5959764  94.7130098
  99.7489636  33.4959497  99.3867339  98.9588690  33.7517026  98.9107449
 100.2400884  34.3107835  99.4919379 101.7004382  33.8604077  96.3450815
 100.9035545  33.9722771  96.8634311 101.4729974  34.1990729  95.4791706
 107.5310049  40.3848780 104.2933330 107.5954482  40.8469187 105.1291502
 106.8220973  39.7546145 104.4215640  98.0327339  33.7489988 101.8182330
  98.2835378  34.6336998 102.0839906  98.5686888  33.5694589 101.0457421
 107.2458067  42.0516887  94.1612310 107.1103742  42.8968423  94.5897158
 107.7867879  42.2536165  93.3978244 100.6987464  39.5692325  94.7340236
 101.2111985  40.3635576  94.8845800 101.3510177  38.8718616  94.6673837
 102.5082349  42.6858082  96.8162989 102.6848977  43.6076046  96.6283973
 103.3039183  42.3716501  97.2457368 103.6313665  44.2036255 102.8173331
 104.1821090  44.0753319 102.0450325 102.7925140  44.5031144 102.4668224
  98.6636381  37.8980980  95.5099806  99.5011603  38.3077988  95.2933514
  98.8414649  36.9580422  95.4800000 110.5600813  35.5656060  91.1983639
 110.0447437  36.3360665  91.4372026 110.2878122  34.8921196  91.8216700
 108.1447924  30.4105761  96.2568877 107.2889521  30.0212611  96.0774516
 108.5574876  30.4897722  95.3968663 115.5335087  38.3188415  93.1336813
 114.7564530  37.9799574  92.6891975 116.2126568  38.3241038  92.4591778
 110.3487116  33.4383152  93.0243420 110.0437252  33.7529302  93.8753563
 111.3017559  33.5164572  93.0670753 108.7933548  39.5973376  94.6736374
 108.2654910  38.8626135  94.3609612 108.2921051  40.3748052  94.4276343
 103.5252276  30.2593042  97.0342986 104.0996028  30.0368224  96.3016179
 104.1123258  30.3281737  97.7871587 112.5831853  36.1466769  97.8407362
 113.0963735  36.7796761  98.3429072 113.2333077  35.5467964  97.4750722
 103.8521863  32.2897503  91.0538871 103.0159175  32.6272190  91.3748146
 103.7126633  32.1546483  90.1166008 105.8274944  27.1334291  95.7618055
 105.1739356  26.8183308  95.1374670 105.7855418  26.5110031  96.4877878
 106.9386148  37.4153586  87.6771347 106.0313210  37.1842839  87.8762496
 107.4357180  36.6191205  87.8645329 109.8454227  46.1251093  90.5968033
 109.1715926  46.4282790  91.2052991 110.2320049  46.9280174  90.2473490
 109.0612684  33.6216224 100.0865703 108.1435245  33.8431171  99.9287391
 109.4772828  33.6962535  99.2277410 109.8447732  35.0207640  95.2168383
 110.5919551  35.5329037  94.9075505 110.1139321  34.6991693  96.0772777
 108.1174382  37.5166181  92.1995337 107.2085601  37.2325214  92.2967807
 108.1469466  37.9365259  91.3398644 113.3493649  41.1272770  95.9686505
 112.8955976  40.2863680  96.0251695 112.7187616  41.7634169  96.3061285
 111.7926589  42.9649267  96.9036323 112.0849563  43.5254324  96.1848689
 112.3025209  43.2577828  97.6589482  98.6862552  35.2371695  96.1810540
  98.4886952  34.6441056  95.4561606  98.1309216  34.9323905  96.8986478
 106.6659276  35.1294801  98.3005133 106.7207886  34.1768638  98.2247609
 105.8550478  35.2854241  98.7846431 107.8150470  39.0574925  89.5383416
 107.3769900  38.3410783  89.0789053 108.5560911  39.2851039  88.9768507
 104.6051636  33.7471861  96.0595512 103.7919501  34.0466032  96.4660704
 105.1010630  33.3527550  96.7769994 106.7560214  43.7429618  97.9929776
 106.7136393  43.9690464  97.0638308 107.6722913  43.5092993  98.1415577
 115.9323584  37.3332122  95.5959734 115.7941483  37.5233718  94.6680924
 115.5759803  38.0951504  96.0527786 104.0965711  31.3190217 101.6756746
 104.7365090  31.1778976 100.9779710 103.2643241  31.0324730 101.2995348
 104.8726015  40.6192647  97.7891739 105.6666613  40.1242967  97.5874314
 104.1617707  40.0910510  97.4259445 109.6920859  43.0010743 102.1404107
 109.7457881  43.5701679 102.9081822 108.8235640  43.1712628 101.7758144
 101.1808778  34.7635729  93.8651492 100.2506366  34.7020184  94.0821454
 101.2766250  34.2411682  93.0688133 101.0994327  31.2890542  96.4529733
 101.3601144  32.2035875  96.3438894 101.9211499  30.8214984  96.6026346
 102.5719252  32.7028299 103.6228558 103.2442306  32.4945661 102.9741207
 101.7449039  32.5050385 103.1833790 107.4497291  41.1921669 101.4689576
 107.3108376  40.8240454 102.3415514 106.6611887  41.7069309 101.2973534
 108.0445442  46.2930766  92.8115113 108.2197198  45.8218809  93.6260735
 107.3578231  46.9196532  93.0396373 109.0002506  40.5703272  98.8578414
 108.6652338  40.5304042  99.7536064 108.5006451  39.9047988  98.3848824
 102.9746750  35.9770902 104.3830995 102.8366548  35.2451141 104.9842534
 103.8851673  35.8879802 104.1015183 111.9361697  37.9159306  89.1315473
 111.3190868  37.1906134  89.0348526 111.4678186  38.6768666  88.7882548
 102.6106528  49.4420128  99.5854973 102.8503126  50.0738653 100.2633991
 101.7675724  49.0908168  99.8720332 103.7260243  32.1344730  88.2536778
 102.8489710  32.0133531  87.8899024 104.2017996  31.3430809  88.0015666
  95.2462383  36.9221890  98.3478285  95.9333423  36.6083620  97.7599300
  95.0910512  37.8263255  98.0745536 100.0497105  31.8112087 102.7763309
  99.9655294  31.2037756 102.0413719  99.2279812  32.3021105 102.7772805
 107.1234390  45.2499251 101.9896477 107.0504561  46.0554222 102.5015781
 106.6811783  45.4491217 101.1644498 106.9124169  44.4871021  95.4999298
 106.1291691  45.0292701  95.5937523 107.6116914  45.0045000  95.8993539
 109.5833073  45.1486085 104.1454635 110.2961045  45.7833550 104.0730537
 109.0923102  45.2449951 103.3294637 111.3050600  39.0537338  95.7171927
 110.3706879  39.1738800  95.5476631 111.4827269  38.1509804  95.4531937
 106.8055788  32.4383033  97.8705188 106.4353576  31.8854074  98.5586094
 107.3014881  31.8341167  97.3180188 104.6344987  42.8980528 104.9660206
 105.3354446  43.5317011 105.1189600 104.1640102  43.2395260 104.2055845
 112.7599383  41.2398478  93.2508113 113.0359226  41.1255073  94.1601987
 111.8903881  40.8415963  93.2120286 109.3953447  45.4884829  96.8940927
 109.5775841  44.6706485  97.3568679 110.2186433  45.7052521  96.4565817
 109.7295612  44.4153014  94.1555975 110.2583378  43.9045469  93.5426137
 109.9923832  44.0995544  95.0201508 100.2312705  42.4316883 101.8991309
 100.8166142  41.6860571 102.0319213 100.0337543  42.7420840 102.7827973
 103.0851360  45.4668131  96.9153751 102.4161735  45.9514258  96.4317791
 102.9464230  45.7137351  97.8297130  94.8230359  35.0022484 100.6195752
  94.8614459  34.4686074 101.4132870  94.3170652  34.4757689 100.0006729
 107.2256629  47.5011874 103.5136410 107.7774937  47.6643496 104.2785495
 107.5662822  48.0916312 102.8416434  98.4538937  33.7286586  93.6949683
  98.7492378  32.8197264  93.6416737  97.5526973  33.7074325  93.3730686
 110.3625016  45.4493850 100.5000092 110.2376155  44.6483590  99.9911037
 111.0204107  45.9440043 100.0114062 101.9833184  31.8042582  99.6777232
 101.2619770  32.4178550  99.5384705 102.7726440  32.3400347  99.5993878
 112.4259924  43.2502870 102.1279642 111.4790260  43.1308221 102.0557969
 112.7742697  42.3625368 102.2105903 100.1826779  31.4100683  93.8189009
  99.8539485  30.5298062  93.6364114 100.5366149  31.3548352  94.7065398
 109.4306358  43.0455586  98.3283994 109.2831320  42.1172294  98.5091564
 110.2559851  43.0675677  97.8441069 103.2968602  31.6973653  94.1864486
 103.6364674  32.2259574  93.4643095 103.7440722  32.0354059  94.9623053
 113.0340479  43.8684145  99.4148867 113.9587027  43.6627006  99.2773318
 112.8655783  43.6200546 100.3238208 105.2836749  30.1948275  92.3857779
 106.0045111  30.5729528  91.8821496 104.6602053  30.9137152  92.4892757
 109.4267872  30.8993424  93.3216111 109.6431486  31.7818062  93.0204939
 108.9461939  30.5079637  92.5921753 104.1667093  33.8579137  99.8986856
 104.0211674  34.1719440 100.7911137 103.6892297  34.4764037  99.3457755
 112.8235796  44.3869812  94.7710958 112.9972673  43.8216235  94.0184811
 113.3164687  45.1870707  94.5890448  98.6412755  36.3984481 102.8374517
  98.0966223  37.1744289 102.9694791  99.5192105  36.7455286 102.6793639
 105.4300372  29.7296065  95.2155316 105.5516283  28.8012711  95.4146203
 105.1402414  29.7434751  94.3033631 113.8110968  43.7036577  91.8707857
 114.5061873  44.3243269  92.0895171 114.1534118  42.8531928  92.1460234
  99.4278777  35.5254378 105.7304674  98.6860513  35.6737013 106.3169304
  99.1071522  35.7862643 104.8671423 115.7102391  41.1536282  93.3995187
 116.2353715  41.4923555  92.6744507 115.6224744  40.2183298  93.2158322
 107.3722440  45.0670356 105.5285064 107.6809566  44.8219503 106.4007764
 108.1697922  45.2716994 105.0403934 107.3943052  47.2208265  97.7590441
 106.9548042  46.7284644  98.4523297 108.1451169  46.6781233  97.5182516
  99.8735391  43.4119806  97.7615069 100.6993411  43.1123578  97.3813712
  99.5229443  42.6427429  98.2104857 104.8416924  42.7646275  99.8312742
 104.2196933  42.1016980  99.5314970 105.5121791  42.7907406  99.1486390
  98.0743996  41.3306133  98.7204002  97.2375904  40.9028307  98.5388003
  98.0467641  41.5238576  99.6574793 104.4030431  41.3150198  93.3071203
 104.5518551  41.9985662  92.6537875 105.2096874  41.2955288  93.8220658
 102.1583064  37.3415376  94.3132272 101.9129106  36.4377706  94.5112482
 102.3278979  37.3432526  93.3711750 101.4278711  33.0743733  91.8118433
 100.7347956  33.1488088  91.1558469 101.1830463  32.3104077  92.3339950
 107.9025837  43.8098328  90.7782950 107.3299804  44.4288515  90.3253422
 108.4758630  44.3597690  91.3122872 111.1223096  44.0935478  91.9091532
 112.0553769  44.0281040  92.1124408 111.0346309  44.9291745  91.4506065
 113.7511113  43.4101349  88.8695480 113.6724744  43.0761212  89.7631238
 114.5720780  43.9023117  88.8686952 108.2872635  35.1459141  88.1199003
 109.2331740  35.0165349  88.1887421 107.9086880  34.4073803  88.5968431
 106.4715552  33.0709118  88.0553888 105.5647008  32.7742230  88.1316601
 106.7491533  32.7738936  87.1888174  97.3893493  34.3915481  98.5052934
  97.0696277  33.5380789  98.2127308  96.8426921  34.6064059  99.2610902
 101.1673400  37.1077922 102.2222441 101.3859410  38.0395030 102.2410475
 101.5799174  36.7485896 103.0077245 108.0877618  27.6146007  94.2098129
 107.2778346  27.2693092  94.5853375 108.7762035  27.3053551  94.7985741
 105.2414337  29.9296053  88.1965867 106.1033501  30.2550951  88.4561684
 105.4264681  29.1427549  87.6838933  97.2581753  38.0118392 100.4746056
  96.5645224  37.5972345  99.9616010  98.0054744  38.0538929  99.8779475
  99.1718495  37.9436646  98.3512071  99.1489183  38.0424333  97.3993954
  99.4819132  38.7901797  98.6729237 101.8305873  40.0012801 102.4658685
 102.7849126  39.9696744 102.3988617 101.6318397  39.5403425 103.2808911
 102.4205255  38.5713917 105.0329483 103.2398144  39.0657996 105.0564320
 102.6942063  37.6545885 105.0047050 112.1771851  30.9624670  94.3957438
 111.2897706  31.2474320  94.1777633 112.5925840  30.8018433  93.5484715
 100.1856102  45.5432421  99.4828883 100.0510570  44.7832822  98.9166881
  99.7688164  46.2673321  99.0157672 111.3215065  40.7269344  88.4905458
 112.0250915  40.9319347  89.1063114 110.5977714  41.2946106  88.7554542
 112.1512875  36.4779205  94.6107728 112.0948076  36.9347757  93.7715361
 112.7041217  35.7169890  94.4330571 103.3425228  46.4401738  99.6947326
 103.2257612  47.3847170  99.5926016 102.5217674  46.1375299 100.0833125
 113.2301762  41.1651873  90.5403918 114.0647366  40.7333072  90.3581393
 113.0686105  40.9933887  91.4680813 112.8847654  37.6683987  91.9060258
 112.8296458  37.5028258  90.9648702 112.2593710  38.3760020  92.0622447
  97.6740169  32.9052051 105.7321680  98.3199033  32.3951005 106.2208905
  97.4657320  33.6420733 106.3065105 106.1943780  27.1692096  91.4845576
 106.1822450  28.1133936  91.6413847 107.0867202  26.9862241  91.1905037
 104.3679742  47.0930000 102.9103254 105.2706988  47.1253610 103.2269749
 104.1417112  46.1630451 102.9249590 106.1233344  45.8460986  99.5713333
 105.1728975  45.8462848  99.4577705 106.4265830  45.0993721  99.0549367
 114.5262559  53.4884429  96.5617511 113.9627424  53.3974366  95.7933799
 114.4114954  52.6684334  97.0420003 112.0726991  54.9835621  99.4001731
 112.8648283  54.6426445  98.9848031 112.3123641  55.0930596 100.3203885
 114.0317745  54.2444534  92.2719110 114.8048621  53.6973521  92.1331986
 114.3843144  55.1088783  92.4833571 115.8702788  55.5720916 105.4786009
 115.5792654  56.4766547 105.3632676 116.5059772  55.6137444 106.1930079
 116.7958995  52.9497765 102.0687369 117.3922567  52.7253787 101.3544332
 116.8533966  52.2082510 102.6712817 116.3684023  50.4037200  89.9037560
 116.6209544  49.8818721  89.1421023 115.4308582  50.2403345  90.0064244
 116.0880312  52.3065306  92.1061935 115.9716570  51.6310209  92.7743019
 116.1982572  51.8197680  91.2894088 118.0717340  46.7965353  90.8069973
 118.2391742  47.6645589  91.1740444 117.8814509  46.9592634  89.8831262
 114.2805154  51.7096129  98.5072507 113.3555651  51.5772343  98.7150199
 114.5289567  52.4890348  99.0042450 118.0506560  49.2523010  91.7916639
 117.9306186  49.6980061  92.6302120 117.3559149  49.6008328  91.2330178
 111.6413965  51.3529402  99.3416297 111.7706346  51.6063881 100.2555708
 110.9611417  51.9457110  99.0220952 115.8113453  62.0226652  95.4406771
 115.7337482  62.9734477  95.5195251 115.2075096  61.6772525  96.0981697
 114.8013252  53.9916192 100.2140403 115.3714609  54.4203460  99.5757888
 115.3921364  53.7098776 100.9124589 116.8458057  50.5667862  94.0850205
 117.5482100  51.0188906  94.5524132 116.5138685  49.9251681  94.7130098
 110.5883391  48.8251415  99.3867339 109.7982445  49.0808944  98.9107449
 111.0794638  49.6399753  99.4919379 112.5398136  49.1895994  96.3450815
 111.7429299  49.3014689  96.8634311 112.3123728  49.5282647  95.4791706
 108.8721094  49.0781905 101.8182330 109.1229132  49.9628915 102.0839906
 109.4080642  48.8986507 101.0457421 111.5381219  54.8984243  94.7340236
 112.0505739  55.6927493  94.8845800 112.1903932  54.2010533  94.6673837
 113.3476104  58.0149999  96.8162989 113.5242732  58.9367964  96.6283973
 114.1432937  57.7008419  97.2457368 114.4707419  59.5328173 102.8173331
 115.0214844  59.4045236 102.0450325 113.6318895  59.8323062 102.4668224
 109.5030136  53.2272897  95.5099806 110.3405358  53.6369906  95.2933514
 109.6808403  52.2872340  95.4800000 114.3646030  45.5884960  97.0342986
 114.9389782  45.3660141  96.3016179 114.9517013  45.6573654  97.7871587
 114.6915617  47.6189421  91.0538871 113.8552930  47.9564107  91.3748146
 114.5520387  47.4838401  90.1166008 116.6668698  42.4626209  95.7618055
 116.0133110  42.1475226  95.1374670 116.6249172  41.8401949  96.4877878
 109.5256307  50.5663613  96.1810540 109.3280707  49.9732973  95.4561606
 108.9702971  50.2615823  96.8986478 117.5053030  50.4586719  98.3005133
 117.5601640  49.5060556  98.2247609 116.6944232  50.6146158  98.7846431
 115.4445390  49.0763779  96.0595512 114.6313256  49.3757949  96.4660704
 115.9404385  48.6819468  96.7769994 114.9359465  46.6482134 101.6756746
 115.5758844  46.5070894 100.9779710 114.1036996  46.3616648 101.2995348
 115.7119769  55.9484565  97.7891739 116.5060367  55.4534885  97.5874314
 115.0011461  55.4202428  97.4259445 112.0202532  50.0927647  93.8651492
 111.0900121  50.0312102  94.0821454 112.1160004  49.5703599  93.0688133
 111.9388082  46.6182459  96.4529733 112.1994899  47.5327793  96.3438894
 112.7605254  46.1506902  96.6026346 113.4113007  48.0320217 103.6228558
 114.0836060  47.8237579 102.9741207 112.5842793  47.8342303 103.1833790
 113.8140504  51.3062820 104.3830995 113.6760302  50.5743058 104.9842534
 114.7245428  51.2171720 104.1015183 113.4500282  64.7712046  99.5854973
 113.6896880  65.4030570 100.2633991 112.6069479  64.4200086  99.8720332
 114.5653998  47.4636648  88.2536778 113.6883464  47.3425449  87.8899024
 115.0411751  46.6722726  88.0015666 106.0856138  52.2513808  98.3478285
 106.7727178  51.9375538  97.7599300 105.9304267  53.1555173  98.0745536
 110.8890860  47.1404004 102.7763309 110.8049049  46.5329674 102.0413719
 110.0673566  47.6313023 102.7772805 117.9628144  60.5791168 101.9896477
 117.8898316  61.3846140 102.5015781 117.5205537  60.7783134 101.1644498
 117.6449543  47.7674951  97.8705188 117.2747330  47.2145991  98.5586094
 118.1408635  47.1633084  97.3180188 115.4738741  58.2272446 104.9660206
 116.1748201  58.8608929 105.1189600 115.0033856  58.5687178 104.2055845
 111.0706459  57.7608801 101.8991309 111.6559896  57.0152489 102.0319213
 110.8731298  58.0712758 102.7827973 113.9245114  60.7960048  96.9153751
 113.2555490  61.2806176  96.4317791 113.7857984  61.0429269  97.8297130
 105.6624114  50.3314401 100.6195752 105.7008213  49.7977992 101.4132870
 105.1564407  49.8049607 100.0006729 109.2932692  49.0578503  93.6949683
 109.5886133  48.1489182  93.6416737 108.3920727  49.0366243  93.3730686
 112.8226939  47.1334500  99.6777232 112.1013524  47.7470468  99.5384705
 113.6120194  47.6692265  99.5993878 111.0220533  46.7392601  93.8189009
 110.6933239  45.8589980  93.6364114 111.3759904  46.6840270  94.7065398
 114.1362356  47.0265571  94.1864486 114.4758429  47.5551492  93.4643095
 114.5834477  47.3645977  94.9623053 116.1230503  45.5240192  92.3857779
 116.8438866  45.9021445  91.8821496 115.4995808  46.2429069  92.4892757
 115.0060848  49.1871055  99.8986856 114.8605428  49.5011358 100.7911137
 114.5286051  49.8055955  99.3457755 109.4806510  51.7276399 102.8374517
 108.9359978  52.5036207 102.9694791 110.3585860  52.0747204 102.6793639
 116.2694127  45.0587983  95.2155316 116.3910038  44.1304629  95.4146203
 115.9796169  45.0726669  94.3033631 110.2672532  50.8546295 105.7304674
 109.5254268  51.0028931 106.3169304 109.9465276  51.1154561 104.8671423
 110.7129145  58.7411724  97.7615069 111.5387165  58.4415496  97.3813712
 110.3623197  57.9719346  98.2104857 115.6810679  58.0938192  99.8312742
 115.0590688  57.4308897  99.5314970 116.3515545  58.1199324  99.1486390
 108.9137750  56.6598050  98.7204002 108.0769659  56.2320225  98.5388003
 108.8861396  56.8530494  99.6574793 115.2424185  56.6442116  93.3071203
 115.3912306  57.3277580  92.6537875 116.0490629  56.6247206  93.8220658
 112.9976818  52.6707293  94.3132272 112.7522860  51.7669623  94.5112482
 113.1672733  52.6724444  93.3711750 112.2672466  48.4035651  91.8118433
 111.5741711  48.4780006  91.1558469 112.0224218  47.6395994  92.3339950
 117.3109307  48.4001035  88.0553888 116.4040762  48.1034148  88.1316601
 117.5885288  48.1030853  87.1888174 108.2287247  49.7207399  98.5052934
 107.9090031  48.8672707  98.2127308 107.6820675  49.9355977  99.2610902
 112.0067155  52.4369840 102.2222441 112.2253164  53.3686947 102.2410475
 112.4192928  52.0777814 103.0077245 116.0808091  45.2587970  88.1965867
 116.9427255  45.5842869  88.4561684 116.2658435  44.4719466  87.6838933
 108.0975507  53.3410310 100.4746056 107.4038978  52.9264263  99.9616010
 108.8448498  53.3830847  99.8779475 110.0112250  53.2728564  98.3512071
 109.9882938  53.3716251  97.3993954 110.3212886  54.1193715  98.6729237
 112.6699627  55.3304719 102.4658685 113.6242881  55.2988661 102.3988617
 112.4712151  54.8695343 103.2808911 113.2599010  53.9005835 105.0329483
 114.0791899  54.3949914 105.0564320 113.5335817  52.9837803 105.0047050
 111.0249856  60.8724338  99.4828883 110.8904324  60.1124739  98.9166881
 110.6081918  61.5965238  99.0157672 114.1818982  61.7693655  99.6947326
 114.0651366  62.7139088  99.5926016 113.3611428  61.4667217 100.0833125
 108.5133924  48.2343969 105.7321680 109.1592787  47.7242923 106.2208905
 108.3051075  48.9712650 106.3065105 117.0337534  42.4984013  91.4845576
 117.0216204  43.4425853  91.6413847 117.9260956  42.3154159  91.1905037
 115.2073496  62.4221917 102.9103254 116.1100743  62.4545528 103.2269749
 114.9810866  61.4922368 102.9249590 116.9627098  61.1752904  99.5713333
 116.0122729  61.1754765  99.4577705 117.2659584  60.4285638  99.0549367
 116.9249892  67.5805726  98.3478285 117.6120932  67.2667456  97.7599300
 116.7698021  68.4847090  98.0745536 116.5017868  65.6606319 100.6195752
 116.5401968  65.1269910 101.4132870 115.9958161  65.1341524 100.0006729
  91.7712775  11.1190333  86.3100279  92.0109373  11.7508857  86.9879298
  90.9281971  10.7678373  86.5965639 103.6868806  15.1654634  83.2862817
 103.1233671  15.0744571  82.5179105 103.5721201  14.3454538  83.7665310
 101.2333238  16.6605826  86.1247038 102.0254530  16.3196650  85.7093337
 101.4729888  16.7700801  87.0449191 109.2668365  18.8325602  78.5977282
 108.6156344  19.4179682  78.2111296 110.0612728  19.3631797  78.6572320
 103.1923992  15.9214739  78.9964417 103.9654868  15.3743726  78.8577292
 103.5449391  16.7858988  79.2078878 105.0309034  17.2491121  92.2031316
 104.7398900  18.1536752  92.0877982 105.6666019  17.2907649  92.9175386
 105.9565241  14.6267970  88.7932676 106.5528814  14.4023992  88.0789639
 106.0140213  13.8852715  89.3958123 110.7443630  16.5216034  79.1346267
 110.1089463  16.5950660  79.8467171 110.4141036  17.1109632  78.4565346
 105.2486558  13.9835511  78.8307242 105.1322817  13.3080414  79.4988326
 105.3588818  13.4967885  78.0139395 103.4411401  13.3866333  85.2317814
 102.5161897  13.2542548  85.4395506 103.6895814  14.1660553  85.7287756
 100.8020212  13.0299607  86.0661603 100.9312593  13.2834086  86.9801015
 100.1217663  13.6227315  85.7466258 104.9719699  23.6996857  82.1652077
 104.8943729  24.6504682  82.2440558 104.3681343  23.3542729  82.8227004
 111.5167456  16.3840507  86.7355862 110.8876318  16.5486221  86.0331929
 111.1293118  16.7982116  87.5066826 115.3956688  17.3194945  84.0900225
 114.7107726  17.6993846  83.5397259 115.4800537  17.9290271  84.8232173
 107.0695418  16.1214915  84.0005947 107.5333763  16.4002618  83.2110569
 106.8052216  15.2198360  83.8179037 103.9619499  15.6686396  86.9385710
 104.5320856  16.0973665  86.3003194 104.5527610  15.3868981  87.6369896
 107.5310051  17.3910902  91.0178637 107.5954483  17.8531310  91.8536809
 106.8220974  16.7608267  91.1460947 107.2458068  19.0579010  80.8857617
 107.1103743  19.9030546  81.3142465 107.7867881  19.2598288  80.1223551
 100.6987466  16.5754448  81.4585542 101.2111986  17.3697698  81.6091107
 101.3510178  15.8780738  81.3919144 102.5082350  19.6920204  83.5408295
 102.6848979  20.6138169  83.3529279 103.3039184  19.3778623  83.9702675
 103.6313666  21.2098378  89.5418638 104.1821091  21.0815441  88.7695632
 102.7925142  21.5093267  89.1913530  98.6636382  14.9043102  82.2345113
  99.5011604  15.3140111  82.0178820  98.8414650  13.9642544  82.2045307
 108.7933550  16.6035498  81.3981681 108.2654911  15.8688258  81.0854918
 108.2921052  17.3810175  81.1521649 109.8454229  23.1313216  77.3213340
 109.1715927  23.4344913  77.9298298 110.2320051  23.9342296  76.9718797
 108.1174383  14.5228303  78.9240644 107.2085602  14.2387336  79.0213114
 108.1469467  14.9427382  78.0643951 113.3493651  18.1334893  82.6931812
 112.8955978  17.2925803  82.7497002 112.7187617  18.7696291  83.0306592
 111.7926590  19.9711390  83.6281630 112.0849564  20.5316447  82.9093995
 112.3025210  20.2639951  84.3834789  98.6862554  12.2433818  82.9055846
  98.4886953  11.6503178  82.1806913  98.1309218  11.9386028  83.6231785
 107.8150471  16.0637047  76.2628723 107.3769901  15.3472906  75.8034360
 108.5560912  16.2913162  75.7013814 106.7560215  20.7491741  84.7175083
 106.7136394  20.9752587  83.7883615 107.6722914  20.5155115  84.8660884
 104.8726016  17.6254770  84.5137046 105.6666614  17.1305090  84.3119621
 104.1617708  17.0972633  84.1504751 109.6920860  20.0072865  88.8649413
 109.7457883  20.5763802  89.6327129 108.8235642  20.1774750  88.5003450
 107.4497292  18.1983792  88.1934883 107.3108377  17.8302576  89.0660821
 106.6611888  18.7131431  88.0218840 108.0445444  23.2992888  79.5360419
 108.2197199  22.8280931  80.3506042 107.3578232  23.9258654  79.7641680
 109.0002507  17.5765394  85.5823720 108.6652340  17.5366164  86.4781370
 108.5006453  16.9110110  85.1094131 102.6106529  26.4482251  86.3100279
 102.8503127  27.0800775  86.9879298 101.7675725  26.0970291  86.5965639
  95.2462385  13.9284013  85.0723592  95.9333424  13.6145743  84.4844607
  95.0910513  14.8325377  84.7990843 107.1234391  22.2561373  88.7141783
 107.0504562  23.0616345  89.2261088 106.6811784  22.4553339  87.8889805
 106.9124171  21.4933143  82.2244605 106.1291692  22.0354824  82.3182829
 107.6116916  22.0107123  82.6238846 109.5833074  22.1548207  90.8699942
 110.2961047  22.7895672  90.7975843 109.0923103  22.2512073  90.0539944
 104.6344988  19.9042651  91.6905513 105.3354447  20.5379134  91.8434907
 104.1640103  20.2457382  90.9301152 112.7599384  18.2460601  79.9753420
 113.0359228  18.1317195  80.8847294 111.8903883  17.8478086  79.9365593
 109.3953448  22.4946952  83.6186233 109.5775842  21.6768607  84.0813986
 110.2186434  22.7114644  83.1811123 109.7295613  21.4215137  80.8801282
 110.2583380  20.9107591  80.2671444 109.9923833  21.1057667  81.7446815
 100.2312706  19.4379006  88.6236616 100.8166143  18.6922694  88.7564520
 100.0337544  19.7482963  89.5073279 103.0851361  22.4730253  83.6399058
 102.4161736  22.9576381  83.1563098 102.9464231  22.7199474  84.5542436
  94.8230361  12.0084606  87.3441059  94.8614460  11.4748197  88.1378177
  94.3170654  11.4819812  86.7252036 107.2256630  24.5073997  90.2381716
 107.7774938  24.6705618  91.0030801 107.5662823  25.0978435  89.5661741
 110.3625017  22.4555972  87.2245398 110.2376157  21.6545712  86.7156344
 111.0204108  22.9502166  86.7359368 112.4259925  20.2564992  88.8524949
 111.4790261  20.1370344  88.7803275 112.7742699  19.3687491  88.9351210
 109.4306359  20.0517709  85.0529301 109.2831321  19.1234416  85.2336871
 110.2559852  20.0737799  84.5686376 113.0340481  20.8746267  86.1394173
 113.9587028  20.6689129  86.0018625 112.8655784  20.6262669  87.0483515
 112.8235797  21.3931935  81.4956265 112.9972674  20.8278357  80.7430117
 113.3164688  22.1932830  81.3135755  98.6412757  13.4046604  89.5619824
  98.0966225  14.1806412  89.6940098  99.5192106  13.7517408  89.4038945
 113.8110969  20.7098699  78.5953163 114.5061874  21.3305392  78.8140478
 114.1534119  19.8594050  78.8705541  99.4278778  12.5316500  92.4549981
  98.6860515  12.6799136  93.0414611  99.1071523  12.7924766  91.5916730
 115.7102392  18.1598405  80.1240494 116.2353717  18.4985678  79.3989814
 115.6224745  17.2245420  79.9403629 107.3722441  22.0732478  92.2530371
 107.6809568  21.8281625  93.1253070 108.1697923  22.2779117  91.7649241
 107.3943053  24.2270388  84.4835747 106.9548043  23.7346767  85.1768604
 108.1451170  23.6843356  84.2427822  99.8735392  20.4181929  84.4860375
 100.6993412  20.1185701  84.1059019  99.5229444  19.6489551  84.9350164
 104.8416925  19.7708397  86.5558049 104.2196935  19.1079102  86.2560277
 105.5121792  19.7969529  85.8731697  98.0743997  18.3368255  85.4449309
  97.2375906  17.9090430  85.2633310  98.0467643  18.5300699  86.3820100
 104.4030432  18.3212321  80.0316509 104.5518553  19.0047785  79.3783182
 105.2096876  18.3017411  80.5465965 102.1583065  14.3477498  81.0377578
 101.9129107  13.4439828  81.2357788 102.3278980  14.3494649  80.0957056
 107.9025838  20.8160451  77.5028257 107.3299805  21.4350638  77.0498729
 108.4758631  21.3659813  78.0368179 111.1223098  21.0997601  78.6336839
 112.0553771  21.0343163  78.8369715 111.0346310  21.9353868  78.1751372
 113.7511114  20.4163471  75.5940787 113.6724746  20.0823335  76.4876545
 114.5720781  20.9085239  75.5932259  97.3893494  11.3977604  85.2298241
  97.0696278  10.5442912  84.9372615  96.8426922  11.6126182  85.9856208
 101.1673401  14.1140045  88.9467747 101.3859411  15.0457152  88.9655781
 101.5799175  13.7548019  89.7322551  97.2581754  15.0180515  87.1991363
  96.5645225  14.6034468  86.6861317  98.0054745  15.0601052  86.6024781
  99.1718496  14.9498769  85.0757377  99.1489184  15.0486456  84.1239260
  99.4819133  15.7963920  85.3974544 101.8305874  17.0074924  89.1903992
 102.7849128  16.9758866  89.1233923 101.6318398  16.5465548  90.0054218
 102.4205256  15.5776040  91.7574789 103.2398145  16.0720119  91.7809627
 102.6942064  14.6608008  91.7292357 100.1856103  22.5494543  86.2074190
 100.0510571  21.7894944  85.6412188  99.7688165  23.2735443  85.7402979
 111.3215066  17.7331467  75.2150765 112.0250916  17.9381469  75.8308421
 110.5977715  18.3008229  75.4799848 103.3425229  23.4463860  86.4192632
 103.2257613  24.3909293  86.3171323 102.5217675  23.1437422  86.8078432
 113.2301763  18.1713996  77.2649225 114.0647367  17.7395195  77.0826700
 113.0686106  17.9996010  78.1926120 104.3679743  24.0992122  89.6348561
 105.2706990  24.1315732  89.9515056 104.1417113  23.1692573  89.6494897
 106.1233345  22.8523109  86.2958639 105.1728976  22.8524970  86.1823012
 106.4265831  22.1055843  85.7794674 114.5262560  30.4946552  83.2862817
 113.9627426  30.4036489  82.5179105 114.4114956  29.6746456  83.7665310
 112.0726992  31.9897743  86.1247038 112.8648284  31.6488568  85.7093337
 112.3123643  32.0992718  87.0449191 114.0317746  31.2506657  78.9964417
 114.8048622  30.7035644  78.8577292 114.3843145  32.1150906  79.2078878
 115.8702789  32.5783039  92.2031316 115.5792655  33.4828670  92.0877982
 116.5059773  32.6199566  92.9175386 116.7958996  29.9559887  88.7932676
 117.3922568  29.7315910  88.0789639 116.8533967  29.2144633  89.3958123
 116.3684024  27.4099323  76.6282867 116.6209545  26.8880844  75.8666330
 115.4308583  27.2465468  76.7309550 116.0880313  29.3127429  78.8307242
 115.9716571  28.6372332  79.4988326 116.1982573  28.8259803  78.0139395
 118.0717341  23.8027475  77.5315279 118.2391743  24.6707712  77.8985750
 117.8814510  23.9654757  76.6076569 114.2805155  28.7158251  85.2317814
 113.3555652  28.5834465  85.4395506 114.5289569  29.4952470  85.7287756
 118.0506562  26.2585133  78.5161946 117.9306187  26.7042184  79.3547426
 117.3559150  26.6070451  77.9575484 111.6413967  28.3591525  86.0661603
 111.7706348  28.6126004  86.9801015 110.9611418  28.9519233  85.7466258
 115.8113454  39.0288775  82.1652077 115.7337483  39.9796600  82.2440558
 115.2075097  38.6834647  82.8227004 114.8013253  30.9978314  86.9385710
 115.3714610  31.4265583  86.3003194 115.3921365  30.7160899  87.6369896
 116.8458058  27.5729985  80.8095512 117.5482101  28.0251029  81.2769438
 116.5138687  26.9313804  81.4375405 110.5883392  25.8313538  86.1112645
 109.7982446  26.0871066  85.6352756 111.0794639  26.6461875  86.2164686
 112.5398137  26.1958117  83.0696122 111.7429301  26.3076811  83.5879618
 112.3123730  26.5344769  82.2037013 108.8721095  26.0844028  88.5427636
 109.1229133  26.9691038  88.8085212 109.4080643  25.9048630  87.7702728
 111.5381220  31.9046366  81.4585542 112.0505741  32.6989616  81.6091107
 112.1903933  31.2072656  81.3919144 113.3476105  35.0212122  83.5408295
 113.5242733  35.9430087  83.3529279 114.1432938  34.7070541  83.9702675
 114.4707420  36.5390296  89.5418638 115.0214845  36.4107359  88.7695632
 113.6318896  36.8385185  89.1913530 109.5030137  30.2335020  82.2345113
 110.3405359  30.6432028  82.0178820 109.6808405  29.2934462  82.2045307
 114.3646032  22.5947082  83.7588292 114.9389784  22.3722264  83.0261485
 114.9517014  22.6635777  84.5116894 114.6915619  24.6251543  77.7784178
 113.8552931  24.9626230  78.0993452 114.5520388  24.4900523  76.8411315
 116.6668699  19.4688331  82.4863362 116.0133112  19.1537348  81.8619977
 116.6249173  18.8464072  83.2123185 109.5256308  27.5725735  82.9055846
 109.3280708  26.9795096  82.1806913 108.9702972  27.2677945  83.6231785
 117.5053032  27.4648842  85.0250439 117.5601641  26.5122678  84.9492916
 116.6944234  27.6208281  85.5091738 115.4445392  26.0825901  82.7840818
 114.6313257  26.3820072  83.1906010 115.9404386  25.6881590  83.5015300
 114.9359466  23.6544257  88.4002053 115.5758846  23.5133016  87.7025016
 114.1036997  23.3678770  88.0240655 115.7119770  32.9546687  84.5137046
 116.5060369  32.4597008  84.3119621 115.0011463  32.4264551  84.1504751
 112.0202534  27.0989769  80.5896798 111.0900122  27.0374225  80.8066760
 112.1160006  26.5765722  79.7933440 111.9388083  23.6244582  83.1775040
 112.1994900  24.5389915  83.0684200 112.7605255  23.1569025  83.3271653
 113.4113008  25.0382339  90.3473864 114.0836062  24.8299701  89.6986513
 112.5842795  24.8404425  89.9079097 113.8140505  28.3124942  91.1076302
 113.6760303  27.5805181  91.7087841 114.7245429  28.2233842  90.8260489
 113.4500284  41.7774169  86.3100279 113.6896882  42.4092693  86.9879298
 112.6069480  41.4262209  86.5965639 114.5653999  24.4698771  74.9782084
 113.6883465  24.3487572  74.6144331 115.0411752  23.6784849  74.7260973
 106.0856139  29.2575930  85.0723592 106.7727179  28.9437661  84.4844607
 105.9304268  30.1617295  84.7990843 110.8890861  24.1466127  89.5008615
 110.8049050  23.5391797  88.7659025 110.0673568  24.6375145  89.5018112
 117.9628145  37.5853291  88.7141783 117.8898317  38.3908263  89.2261088
 117.5205538  37.7845257  87.8889805 117.6449544  24.7737074  84.5950495
 117.2747331  24.2208114  85.2831400 118.1408636  24.1695207  84.0425495
 115.4738742  35.2334569  91.6905513 116.1748202  35.8671052  91.8434907
 115.0033857  35.5749300  90.9301152 111.0706460  34.7670924  88.6236616
 111.6559897  34.0214612  88.7564520 110.8731299  35.0774880  89.5073279
 113.9245116  37.8022171  83.6399058 113.2555491  38.2868299  83.1563098
 113.7857985  38.0491391  84.5542436 105.6624115  27.3376524  87.3441059
 105.7008215  26.8040115  88.1378177 105.1564408  26.8111729  86.7252036
 109.2932693  26.0640626  80.4194990 109.5886134  25.1551304  80.3662044
 108.3920729  26.0428365  80.0975992 112.8226940  24.1396623  86.4022539
 112.1013526  24.7532590  86.2630012 113.6120196  24.6754387  86.3239185
 111.0220534  23.7454724  80.5434315 110.6933241  22.8652103  80.3609421
 111.3759905  23.6902392  81.4310704 114.1362358  24.0327693  80.9109793
 114.4758430  24.5613615  80.1888401 114.5834478  24.3708100  81.6868359
 116.1230505  22.5302315  79.1103086 116.8438867  22.9083568  78.6066802
 115.4995809  23.2491192  79.2138064 115.0060849  26.1933177  86.6232163
 114.8605430  26.5073480  87.5156444 114.5286053  26.8118078  86.0703061
 109.4806511  28.7338522  89.5619824 108.9359979  29.5098330  89.6940098
 110.3585861  29.0809326  89.4038945 116.2694128  22.0650106  81.9400622
 116.3910039  21.1366752  82.1391510 115.9796170  22.0788791  81.0278938
 110.2672533  27.8608418  92.4549981 109.5254269  28.0091053  93.0414611
 109.9465277  28.1216684  91.5916730 110.7129147  35.7473847  84.4860375
 111.5387167  35.4477618  84.1059019 110.3623199  34.9781469  84.9350164
 115.6810680  35.1000315  86.5558049 115.0590689  34.4371020  86.2560277
 116.3515547  35.1261447  85.8731697 108.9137752  33.6660173  85.4449309
 108.0769660  33.2382347  85.2633310 108.8861397  33.8592616  86.3820100
 115.2424187  33.6504238  80.0316509 115.3912307  34.3339703  79.3783182
 116.0490630  33.6309328  80.5465965 112.9976820  29.6769416  81.0377578
 112.7522862  28.7731746  81.2357788 113.1672734  29.6786566  80.0957056
 112.2672467  25.4097773  78.5363740 111.5741712  25.4842128  77.8803776
 112.0224219  24.6458117  79.0585257 117.3109308  25.4063158  74.7799195
 116.4040763  25.1096270  74.8561908 117.5885289  25.1092976  73.9133481
 108.2287248  26.7269521  85.2298241 107.9090033  25.8734829  84.9372615
 107.6820676  26.9418099  85.9856208 112.0067156  29.4431962  88.9467747
 112.2253166  30.3749070  88.9655781 112.4192930  29.0839937  89.7322551
 116.0808093  22.2650093  74.9211174 116.9427257  22.5904991  75.1806991
 116.2658437  21.4781589  74.4084240 108.0975508  30.3472433  87.1991363
 107.4038980  29.9326385  86.6861317 108.8448499  30.3892969  86.6024781
 110.0112251  30.2790686  85.0757377 109.9882939  30.3778374  84.1239260
 110.3212887  31.1255837  85.3974544 112.6699629  32.3366841  89.1903992
 113.6242882  32.3050784  89.1233923 112.4712152  31.8757465  90.0054218
 113.2599011  30.9067958  91.7574789 114.0791900  31.4012036  91.7809627
 113.5335819  29.9899926  91.7292357 111.0249857  37.8786461  86.2074190
 110.8904325  37.1186862  85.6412188 110.6081920  38.6027361  85.7402979
 114.1818983  38.7755778  86.4192632 114.0651368  39.7201210  86.3171323
 113.3611430  38.4729340  86.8078432 108.5133925  25.2406091  92.4566987
 109.1592789  24.7305045  92.9454212 108.3051076  25.9774773  93.0310412
 117.0337536  19.5046136  78.2090883 117.0216205  20.4487976  78.3659154
 117.9260957  19.3216281  77.9150344 115.2073497  39.4284040  89.6348561
 116.1100744  39.4607650  89.9515056 114.9810868  38.4984491  89.6494897
 116.9627100  38.1815026  86.2958639 116.0122731  38.1816888  86.1823012
 117.2659586  37.4347761  85.7794674 116.9249894  44.5867848  85.0723592
 117.6120933  44.2729578  84.4844607 116.7698022  45.4909213  84.7990843
 116.5017870  42.6668442  87.3441059 116.5401969  42.1332032  88.1378177
 115.9958163  42.1403647  86.7252036 113.4500285  18.7836291  73.0345586
 113.6896883  19.4154815  73.7124605 112.6069481  18.4324331  73.3210945
 116.9249895  21.5929971  71.7968898 117.6120935  21.2791701  71.2089913
 116.7698024  22.4971335  71.5236150 116.5017871  19.6730564  74.0686365
 116.5401970  19.1394155  74.8623483 115.9958164  19.1465770  73.4497342
  44.8091697  69.1188972 130.4232110  44.1353395  69.4220669 131.0317068
  45.1957519  69.9218053 130.0737567  48.7148582  66.4039228 128.6959557
  48.6362214  66.0699092 129.5895315  49.5358249  66.8960996 128.6951029
  46.2852534  63.7207223 128.3169535  46.9888384  63.9257226 128.9327191
  45.5615183  64.2883985 128.5818619  49.5291467  70.4574527 128.0800855
  48.6520933  70.3363328 127.7163101  50.0049220  69.6660606 127.8279743
  51.0445561  68.2525850 128.0229944  51.9064725  68.5780748 128.2825761
  51.2295905  67.4657345 127.5103010  44.8091698  46.1251095 117.1477417
  44.1353397  46.4282792 117.7562375  45.1957520  46.9280175 116.7982874
  48.7148584  43.4101351 115.4204864  48.6362215  43.0761214 116.3140622
  49.5358250  43.9023119 115.4196336  46.2852535  40.7269346 115.0414842
  46.9888385  40.9319349 115.6572498  45.5615184  41.2946108 115.3063926
  49.4900030  53.4884431 123.1126894  48.9264895  53.3974368 122.3443182
  49.3752425  52.6684335 123.5929387  55.0699588  57.1555399 118.4241359
  54.4187568  57.7409479 118.0375373  55.8643951  57.6861593 118.4836397
  48.9955216  54.2444536 118.8228494  49.7686092  53.6973523 118.6841369
  49.3480615  55.1088785 119.0342955  51.3321493  50.4037202 116.4546944
  51.5847014  49.8818723 115.6930407  50.3946053  50.2403347 116.5573627
  56.3764776  49.4072980 124.2621687  57.1627866  48.9892403 123.9112104
  56.6403481  50.3119072 124.4303335  56.5474854  54.8445830 118.9610344
  55.9120687  54.9180457 119.6731248  56.2172260  55.4339429 118.2829423
  61.7773203  49.3448213 125.1654665  62.5098375  48.7747430 125.3992495
  61.0212559  48.9569814 125.6061171  51.0517782  52.3065308 118.6571319
  50.9354040  51.6310211 119.3252403  51.1620042  51.8197682 117.8403472
  53.3949323  51.7675455 122.3618008  53.0307530  51.2406076 123.0730929
  54.2516439  51.3773924 122.1884493  53.0354810  46.7965355 117.3579356
  53.2029212  47.6645591 117.7249827  52.8451979  46.9592636 116.4340646
  53.0144031  49.2523012 118.3426023  52.8943656  49.6980063 119.1811503
  52.3196619  49.6008330 117.7839561  50.7750923  62.0226654 121.9916154
  50.6974953  62.9734479 122.0704635  50.1712567  61.6772526 122.6491081
  58.7129097  49.7244485 119.1706357  59.6246953  49.9571872 118.9954055
  58.2038744  50.3081529 118.6081436  57.3198679  54.7070304 126.5619939
  56.6907542  54.8716018 125.8596006  56.9324342  55.1211913 127.3330903
  61.1987911  55.6424742 123.9164302  60.5138949  56.0223643 123.3661336
  61.2831761  56.2520068 124.6496250  52.8726641  54.4444712 123.8270024
  53.3364987  54.7232415 123.0374646  52.6083439  53.5428156 123.6443114
  51.8095527  50.5667864 120.6359589  52.5119571  51.0188908 121.1033515
  51.4776156  49.9251683 121.2639482  59.5684671  56.1656656 128.6882003
  60.3902115  55.7636843 128.4064685  59.5647074  56.0624890 129.6398119
  67.6590664  52.5095404 125.0366975  66.9054372  51.9402803 124.8810979
  67.7938205  52.4758069 125.9837609  53.0489292  57.3808807 120.7121694
  52.9134967  58.2260343 121.1406542  53.5899104  57.5828084 119.9487628
  46.5018689  54.8984245 121.2849619  47.0143210  55.6927495 121.4355184
  47.1541402  54.2010535 121.2183221  48.3113574  58.0150001 123.3672372
  48.4880202  58.9367966 123.1793356  49.1070408  57.7008420 123.7966752
  56.3632038  50.8947980 117.7493023  55.8478662  51.6652584 117.9881410
  56.0909347  50.2213116 118.3726084  61.3366312  53.6480334 119.6846196
  60.5595755  53.3091494 119.2401358  62.0157793  53.6532958 119.0101161
  56.1518341  48.7675072 119.5752804  55.8468477  49.0821221 120.4262947
  57.1048784  48.8456492 119.6180137  54.5964773  54.9265295 121.2245758
  54.0686135  54.1918055 120.9118995  54.0952276  55.7039972 120.9785726
  59.5757619  53.1214316 126.3412804  58.9181294  53.8113577 126.4292933
  60.3798019  53.5110748 126.6846790  58.3863078  51.4758688 124.3916746
  58.8994960  52.1088680 124.8938456  59.0364302  50.8759884 124.0260106
  49.6553088  47.6189422 117.6048255  48.8190400  47.9564109 117.9257529
  49.5157858  47.4838402 116.6675392  52.7417373  52.7445505 114.2280731
  51.8344435  52.5134759 114.4271880  53.2388405  51.9483125 114.4154712
  55.6485452  61.4543013 117.1477417  54.9747151  61.7574709 117.7562375
  56.0351274  62.2572093 116.7982874  55.6478957  50.3499560 121.7677767
  56.3950776  50.8620957 121.4584889  55.9170546  50.0283612 122.6282160
  53.9205607  52.8458100 118.7504721  53.0116826  52.5617133 118.8477191
  53.9500691  53.2657179 117.8908028  59.1524874  56.4564690 122.5195889
  58.6987201  55.6155600 122.5761079  58.5218841  57.0926088 122.8570669
  57.5957814  58.2941187 123.4545707  57.8880788  58.8546244 122.7358072
  58.1056434  58.5869748 124.2098866  53.6181695  54.3866844 116.0892800
  53.1801125  53.6702703 115.6298437  54.3592136  54.6142959 115.5277891
  52.5591439  59.0721538 124.5439160  52.5167618  59.2982384 123.6147692
  53.4754138  58.8384912 124.6924961  61.7354810  52.6624041 122.1469118
  61.5972708  52.8525637 121.2190307  61.3791028  53.4243424 122.6037169
  61.7624189  54.7300568 127.1580390  62.1960696  54.6375857 128.0063444
  62.4755770  54.7058068 126.5200406  50.6757240  55.9484567 124.3401123
  51.4697838  55.4534887 124.1383698  49.9648932  55.4202430 123.9768828
  55.4952084  58.3302662 128.6913490  55.5489106  58.8993598 129.4591206
  54.6266865  58.5004547 128.3267527  46.9840003  50.0927648 120.4160875
  46.0537591  50.0312104 120.6330837  47.0797475  49.5703601 119.6197517
  53.8476668  61.6222685 119.3624496  54.0228423  61.1510728 120.1770119
  53.1609456  62.2488451 119.5905757  54.8033731  55.8995191 125.4087797
  54.4683563  55.8595961 126.3045447  54.3037676  55.2339907 124.9358208
  57.7392922  53.2451226 115.6824857  57.1222093  52.5198054 115.5857910
  57.2709411  54.0060586 115.3391931  48.4137753  64.7712048 126.1364356
  48.6534351  65.4030572 126.8143375  47.5706949  64.4200088 126.4229716
  49.5291468  47.4636650 114.8046161  48.6520935  47.3425451 114.4408408
  50.0049221  46.6722728 114.5525050  52.9265615  60.5791170 128.5405860
  52.8535786  61.3846142 129.0525165  52.4843008  60.7783136 127.7153882
  52.7155394  59.8162940 122.0508682  51.9322916  60.3584620 122.1446906
  53.4148139  60.3336920 122.4502923  63.8781802  51.3297935 126.3361179
  63.8671678  52.2122651 125.9655112  63.0099181  50.9769486 126.1415716
  57.1081825  54.3829257 122.2681311  56.1738104  54.5030719 122.0986015
  57.2858494  53.4801724 122.0041321  60.4954376  50.2246576 122.8031345
  60.9614829  51.0574568 122.7291647  60.9461877  49.7591558 123.5076603
  58.5630608  56.5690398 119.8017497  58.8390451  56.4546992 120.7111371
  57.6935106  56.1707882 119.7629670  55.1984672  60.8176748 123.4450310
  55.3807066  59.9998404 123.9078063  56.0217658  61.0344441 123.0075200
  55.5326837  59.7444934 120.7065359  56.0614603  59.2337388 120.0935521
  55.7955057  59.4287464 121.5710892  48.8882585  60.7960050 123.4663135
  48.2192960  61.2806178 122.9827175  48.7495455  61.0429271 124.3806513
  53.0287854  62.8303794 130.0645793  53.5806162  62.9935415 130.8294878
  53.3694047  63.4208232 129.3925818  56.1656241  60.7785769 127.0509475
  56.0407380  59.9775509 126.5420421  56.8235332  61.2731963 126.5623445
  58.2291149  58.5794789 128.6789026  57.2821485  58.4600141 128.6067352
  58.5773922  57.6917287 128.7615287  55.2337583  58.3747506 124.8793378
  55.0862545  57.4464213 125.0600948  56.0591076  58.3967596 124.3950453
  58.8371704  59.1976064 125.9658250  59.7618252  58.9918926 125.8282702
  58.6687008  58.9492465 126.8747592  51.0867974  45.5240194 118.9367163
  51.8076336  45.9021447 118.4330879  50.4633278  46.2429071 119.0402141
  55.2299097  46.2285343 119.8725495  55.4462711  47.1109981 119.5714323
  54.7493164  45.8371557 119.1431137  58.6267021  59.7161732 121.3220342
  58.8003898  59.1508154 120.5694194  59.1195912  60.5162627 121.1399832
  64.4806412  52.4798155 122.9410642  64.9237558  51.7305480 122.5429765
  63.6032922  52.4708291 122.5584374  59.6142193  59.0328496 118.4217240
  60.3093098  59.6535189 118.6404555  59.9565343  58.1823847 118.6969618
  61.5133616  56.4828202 119.9504571  62.0384940  56.8215474 119.2253891
  61.4255969  55.5475217 119.7667706  53.1974277  62.5500185 124.3099824
  52.7579267  62.0576564 125.0032681  53.9482394  62.0073153 124.0691899
  45.6766616  58.7411726 124.3124452  46.5024636  58.4415498 123.9323096
  45.3260668  57.9719348 124.7614241  50.6448149  58.0938194 126.3822126
  50.0228158  57.4308899 126.0824354  51.3153016  58.1199326 125.6995774
  50.2061656  56.6442117 119.8580586  50.3549776  57.3277582 119.2047259
  51.0128099  56.6247207 120.3730042  64.0239276  53.9503393 125.3333089
  64.8586168  54.3893197 125.4970650  64.1598405  53.4742046 124.5141335
  47.9614289  52.6707295 120.8641655  47.7160331  51.7669625 121.0621865
  48.1310204  52.6724445 119.9221133  47.2309937  48.4035653 118.3627817
  46.5379181  48.4780008 117.7067853  46.9861688  47.6395996 118.8849334
  53.7057062  59.1390248 117.3292334  53.1331029  59.7580435 116.8762806
  54.2789855  59.6889610 117.8632256  56.9254321  59.4227398 118.4600916
  57.8584994  59.3572960 118.6633792  56.8377534  60.2583665 118.0015449
  59.5542338  58.7393268 115.4204864  59.4755970  58.4053132 116.3140622
  60.3752005  59.2315036 115.4196336  54.0903860  50.4751061 114.6708386
  55.0362965  50.3457269 114.7396804  53.7118105  49.7365722 115.1477814
  68.0697079  52.6671014 127.7687219  68.8000468  52.4056303 128.3294922
  67.4604025  51.9299736 127.8089287  66.1512376  50.8078877 128.3661670
  65.4245540  50.6734842 127.7578162  65.7359663  51.1155706 129.1718388
  52.2746777  48.4001037 114.6063272  51.3678233  48.1034150 114.6825985
  52.5522758  48.1030855 113.7397558  51.0445562  45.2587972 114.7475251
  51.9064726  45.5842870 115.0071068  51.2295906  44.4719468 114.2348317
  59.1978198  44.1316499 121.8910474  58.6176867  44.7901303 121.5088526
  58.9314131  43.3093843 121.4797891  57.9803076  46.2916589 120.9466822
  57.0928931  46.5766240 120.7287017  58.3957065  46.1310352 120.0994099
  45.9887327  60.8724340 126.0338267  45.8541795  60.1124741 125.4676265
  45.5719389  61.5965240 125.5667056  57.1246290  56.0561264 115.0414842
  57.8282140  56.2611266 115.6572498  56.4008939  56.6238026 115.3063926
  57.9544100  51.8071125 121.1617112  57.8979301  52.2639676 120.3224745
  58.5072443  51.0461810 120.9839955  61.7648906  47.5960857 121.9867232
  61.5085840  47.1957492 122.8175439  61.1401774  48.3104651 121.8617371
  66.0761244  50.3356930 124.4938523  65.5160802  50.4050119 125.2670085
  65.4704747  50.1597915 123.7738019  49.1456453  61.7693657 126.2456709
  49.0288837  62.7139090 126.1435400  48.3248899  61.4667219 126.6342509
  59.0332987  56.4943793 117.0913302  59.8678591  56.0624991 116.9090777
  58.8717330  56.3225807 118.0190197  58.6878879  52.9975906 118.4569641
  58.6327683  52.8320178 117.5158085  58.0624935  53.7051939 118.6131831
  51.9975005  42.4984015 118.0354960  51.9853675  43.4425855 118.1923231
  52.8898427  42.3154161 117.7414421  51.9264569  61.1752906 126.1222716
  50.9760200  61.1754767 126.0087089  52.2297055  60.4285640 125.6058751
  60.3293784  68.8176349 123.1126894  59.7658649  68.7266285 122.3443182
  60.2146179  67.9976253 123.5929387  65.9093343  72.4847316 118.4241359
  65.2581323  73.0701397 118.0375373  66.7037706  73.0153511 118.4836397
  59.8348970  69.5736453 118.8228494  60.6079846  69.0265440 118.6841369
  60.1874369  70.4380703 119.0342955  62.1715248  65.7329119 116.4546944
  62.4240769  65.2110641 115.6930407  61.2339807  65.5695265 116.5573627
  67.2158531  64.7364898 124.2621687  68.0021620  64.3184321 123.9112104
  67.4797235  65.6410990 124.4303335  67.3868608  70.1737748 118.9610344
  66.7514441  70.2472375 119.6731248  67.0566015  70.7631347 118.2829423
  61.8911537  67.6357225 118.6571319  61.7747795  66.9602129 119.3252403
  62.0013797  67.1489599 117.8403472  64.2343078  67.0967373 122.3618008
  63.8701285  66.5697994 123.0730929  65.0910194  66.7065842 122.1884493
  63.8748565  62.1257272 117.3579356  64.0422967  62.9937509 117.7249827
  63.6845734  62.2884554 116.4340646  60.0836379  67.0388048 125.0581891
  59.1586876  66.9064262 125.2659583  60.3320792  67.8182267 125.5551833
  63.8537785  64.5814930 118.3426023  63.7337411  65.0271981 119.1811503
  63.1590374  64.9300247 117.7839561  57.4445190  66.6821322 125.8925680
  57.5737571  66.9355800 126.8065092  56.7642642  67.2749030 125.5730335
  69.5522852  65.0536403 119.1706357  70.4640708  65.2863790 118.9954055
  69.0432499  65.6373447 118.6081436  66.8958826  61.2294439 127.4196218
  66.0343305  61.5275692 127.7112956  66.9221261  61.4464838 126.4877251
  63.7120396  69.7736629 123.8270024  64.1758741  70.0524332 123.0374646
  63.4477194  68.8720074 123.6443114  62.6489282  65.8959782 120.6359589
  63.3513325  66.3480826 121.1033515  62.3169910  65.2543601 121.2639482
  56.3914616  64.1543334 125.9376722  55.6013670  64.4100863 125.4616833
  56.8825863  64.9691672 126.0428763  58.3429361  64.5187914 122.8960199
  57.5460524  64.6306608 123.4143695  58.1154953  64.8574566 122.0301090
  54.6752319  64.4073825 128.3691713  54.9260357  65.2920835 128.6349289
  55.2111867  64.2278426 127.5966805  63.8883046  72.7100724 120.7121694
  63.7528721  73.5552260 121.1406542  64.4292859  72.9120002 119.9487628
  57.3412444  70.2276162 121.2849619  57.8536964  71.0219413 121.4355184
  57.9935157  69.5302453 121.2183221  67.2375510  56.2331286 129.2420588
  66.8939779  57.1232928 129.1659698  67.6054473  56.0432944 128.3790173
  55.3061361  68.5564817 122.0609190  56.1436583  68.9661825 121.8442897
  55.4839628  67.6164259 122.0309384  67.2025793  66.2239897 117.7493023
  66.6872416  66.9944502 117.9881410  66.9303101  65.5505034 118.3726084
  64.7872904  61.0689598 122.8078261  63.9314500  60.6796449 122.6283900
  65.1999856  61.1481559 121.9478047  66.3172050  58.6035941 127.2069821
  65.8136846  58.5666077 126.3937626  66.6102657  59.5128684 127.2666477
  62.5614936  58.6874671 126.2136003  63.4267933  58.4917480 125.8541892
  62.6292445  58.4585023 127.1405359  72.1760067  68.9772252 119.6846196
  71.3989510  68.6383412 119.2401358  72.8551548  68.9824875 119.0101161
  66.9912096  64.0966990 119.5752804  66.6862232  64.4113139 120.4262947
  67.9442538  64.1748409 119.6180137  65.4358528  70.2557213 121.2245758
  64.9079889  69.5209972 120.9118995  64.9346031  71.0331889 120.9785726
  60.1677255  60.9176879 123.5852369  60.7421007  60.6952061 122.8525562
  60.7548238  60.9865574 124.3380971  60.4946843  62.9481340 117.6048255
  59.6584155  63.2856027 117.9257529  60.3551612  62.8130320 116.6675392
  62.4699923  57.7918128 122.3127439  61.8164335  57.4767145 121.6884054
  62.4280397  57.1693869 123.0387262  63.5811128  68.0737423 114.2280731
  62.6738190  67.8426677 114.4271880  64.0782160  67.2775042 114.4154712
  66.4879207  76.7834930 117.1477417  65.8140906  77.0866627 117.7562375
  66.8745029  77.5864011 116.7982874  66.4872711  65.6791477 121.7677767
  67.2344530  66.1912874 121.4584889  66.7564301  65.3575530 122.6282160
  64.7599361  68.1750018 118.7504721  63.8510581  67.8909051 118.8477191
  64.7894445  68.5949097 117.8908028  68.9351548  62.7148594 123.7496556
  68.1974305  62.2025980 124.0806799  69.1878322  62.2748975 122.9379833
  69.0363176  55.4924846 124.3438325  69.3422053  54.6322209 124.0564240
  69.7615781  56.0842466 124.1437319  55.3287532  65.8955532 122.7319923
  55.1311932  65.3024893 122.0070990  54.7734196  65.5907742 123.4495862
  63.3084255  65.7878639 124.8514516  63.3632865  64.8352475 124.7756993
  62.4975457  65.9438078 125.3355815  64.4575449  69.7158762 116.0892800
  64.0194879  68.9994621 115.6298437  65.1985890  69.9434876 115.5277891
  61.2476615  64.4055698 122.6104895  60.4344481  64.7049869 123.0170087
  61.7435610  64.0111387 123.3279377  60.7390690  61.9774054 128.2266130
  61.3790069  61.8362813 127.5289093  59.9068221  61.6908567 127.8504732
  57.8233758  65.4219566 120.4160875  56.8931346  65.3604022 120.6330837
  57.9191229  64.8995519 119.6197517  57.7419307  61.9474379 123.0039117
  58.0026124  62.8619712 122.8948277  58.5636479  61.4798821 123.1535730
  68.5786677  68.5743143 115.6824857  67.9615847  67.8489971 115.5857910
  68.1103165  69.3352504 115.3391931  60.3685223  62.7928568 114.8046161
  59.4914689  62.6717368 114.4408408  60.8442976  62.0014646 114.5525050
  51.8887363  67.5805727 124.8987669  52.5758403  67.2667457 124.3108684
  51.7335492  68.4847092 124.6254920  56.6922085  62.4695924 129.3272692
  56.6080274  61.8621593 128.5923102  55.8704791  62.9604942 129.3282189
  66.8645799  60.9549487 124.6942887  67.3614498  60.2019450 124.3743958
  66.0932780  60.9913804 124.1286097  63.4480768  63.0966870 124.4214572
  63.0778555  62.5437911 125.1095477  63.9439860  62.4925004 123.8689572
  69.3064794  57.9219081 126.8422246  68.3927873  58.1523308 127.0104453
  69.7357895  58.0057525 127.6936279  51.4655339  65.6606321 127.1705136
  51.5039439  65.1269911 127.9642254  50.9595632  65.1341526 126.5516113
  58.8446101  60.5070861 130.6667678  58.9087428  61.3685692 130.2545076
  58.7813222  59.8944863 129.9340036  55.0963917  64.3870423 120.2459067
  55.3917358  63.4781101 120.1926121  54.1951952  64.3658162 119.9240069
  58.6258164  62.4626419 126.2286616  57.9044749  63.0762387 126.0894089
  59.4151419  62.9984184 126.1503262  56.8251758  62.0684521 120.3698392
  56.4964464  61.1881899 120.1873498  57.1791129  62.0132189 121.2574781
  59.9393581  62.3557490 120.7373870  60.2789654  62.8843412 120.0152478
  60.3865702  62.6937896 121.5132436  63.2853494  57.8243853 128.6404261
  64.1079563  57.3504332 128.5183151  63.5291558  58.6034337 129.1402947
  61.9261728  60.8532112 118.9367163  62.6470091  61.2313365 118.4330879
  61.3027033  61.5720989 119.0402141  66.0692851  61.5577261 119.8725495
  66.2856466  62.4401899 119.5714323  65.5886918  61.1663474 119.1431137
  60.8092073  64.5162974 126.4496240  60.6636653  64.8303277 127.3420521
  60.3317276  65.1347874 125.8967138  62.6688456  61.5065522 126.4977129
  62.6550024  60.6106615 126.1609427  63.3860884  61.5136186 127.1315415
  62.0725352  60.3879902 121.7664699  62.1941263  59.4596549 121.9655587
  61.7827394  60.4018588 120.8543015  64.9416542  58.0734813 124.9031419
  64.9638239  58.1374146 123.9483399  65.3584601  57.2339321 125.0971925
  56.5160370  74.0703643 124.3124452  57.3418390  73.7707415 123.9323096
  56.1654422  73.3011266 124.7614241  54.7168975  71.9889970 125.2713386
  53.8800884  71.5612144 125.0897387  54.6892621  72.1822413 126.2084177
  61.0455410  71.9734035 119.8580586  61.1943531  72.6569499 119.2047259
  61.8521854  71.9539125 120.3730042  58.8008043  67.9999213 120.8641655
  58.5554085  67.0961543 121.0621865  58.9703958  68.0016363 119.9221133
  58.0703691  63.7327570 118.3627817  57.3772936  63.8071925 117.7067853
  57.8255443  62.9687914 118.8849334  66.7417348  55.2923172 125.7667308
  67.0219101  54.6246361 126.3927734  67.5267954  55.4852267 125.2541971
  64.5450816  74.4682165 117.3292334  63.9724783  75.0872353 116.8762806
  65.1183610  75.0181527 117.8632256  67.7648076  74.7519316 118.4600916
  68.6978749  74.6864877 118.6633792  67.6771289  75.5875582 118.0015449
  70.3936092  74.0685186 115.4204864  70.3149724  73.7345050 116.3140622
  71.2145759  74.5606954 115.4196336  64.9297615  65.8042978 114.6708386
  65.8756719  65.6749186 114.7396804  64.5511859  65.0657640 115.1477814
  70.9019499  57.4698984 124.6335278  70.7044320  57.1614072 125.5178610
  71.5119205  58.1960623 124.7633208  63.1140532  63.7292955 114.6063272
  62.2071987  63.4326067 114.6825985  63.3916513  63.4322773 113.7397558
  54.0318472  65.0499318 125.0562318  53.7121256  64.1964626 124.7636692
  53.4851900  65.2647896 125.8120285  64.7302597  58.2729844 120.7607513
  63.9203326  57.9276929 121.1362759  65.4187014  57.9637388 121.3495124
  66.6593146  57.3507891 122.3831809  67.2124184  57.7703345 123.0421833
  66.8963232  56.4243639 122.4254765  61.8839316  60.5879890 114.7475251
  62.7458480  60.9134788 115.0071068  62.0689660  59.8011386 114.2348317
  53.9006732  68.6702230 127.0255440  53.2070203  68.2556182 126.5125394
  54.6479723  68.7122766 126.4288858  70.0371953  59.4608416 121.8910474
  69.4570622  60.1193220 121.5088526  69.7707885  58.6385761 121.4797891
  68.4875519  58.8613474 124.0931794  68.9875298  58.9730009 123.2846113
  69.1311127  58.5574527 124.7332603  55.8143475  68.6020483 124.9021454
  55.7914163  68.7008171 123.9503338  56.1244111  69.4485634 125.2238621
  68.8196831  61.6208507 120.9466822  67.9322686  61.9058157 120.7287017
  69.2350820  61.4602270 120.0994099  67.9640044  71.3853181 115.0414842
  68.6675894  71.5903184 115.6572498  67.2402693  71.9529943 115.3063926
  68.7937855  67.1363043 121.1617112  68.7373056  67.5931594 120.3224745
  69.3466197  66.3753727 120.9839955  72.6042660  62.9252774 121.9867232
  72.3479595  62.5249410 122.8175439  71.9795528  63.6396568 121.8617371
  69.8726742  71.8235711 117.0913302  70.7072346  71.3916909 116.9090777
  69.7111085  71.6517724 118.0190197  69.5272634  68.3267824 118.4569641
  69.4721438  68.1612095 117.5158085  68.9018689  69.0343857 118.6131831
  62.8368759  57.8275933 118.0354960  62.8247429  58.7717773 118.1923231
  63.7292181  57.6446078 117.7414421  66.6520879  54.4218710 122.2900897
  65.8853275  53.8677196 122.4357579  67.0631584  54.4940578 123.1515048
  71.2078977  78.1220485 114.8046161  70.3308444  78.0009286 114.4408408
  71.6836730  77.3306564 114.5525050  72.7233071  75.9171808 114.7475251
  73.5852235  76.2426706 115.0071068  72.9083415  75.1303303 114.2348317
  44.8091699  23.1313218 103.8722724  44.1353398  23.4344914 104.4807681
  45.1957521  23.9342298 103.5228181  48.7148585  20.4163473 102.1450170
  48.6362216  20.0823337 103.0385928  49.5358252  20.9085241 102.1441643
  46.2852537  17.7331469 101.7660149  46.9888387  17.9381471 102.3817804
  45.5615185  18.3008231 102.0309232  49.4900031  30.4946553 109.8372201
  48.9264896  30.4036490 109.0688489  49.3752426  29.6746458 110.3174694
  55.0699590  34.1617521 105.1486666  54.4187569  34.7471602 104.7620680
  55.8643953  34.6923716 105.2081703  48.9955217  31.2506658 105.5473800
  49.7686093  30.7035645 105.4086676  49.3480616  32.1150908 105.7588262
  51.3321495  27.4099324 103.1792250  51.5847015  26.8880846 102.4175713
  50.3946054  27.2465470 103.2818934  56.3764778  26.4135103 110.9866993
  57.1627867  25.9954526 110.6357410  56.6403482  27.3181195 111.1548642
  56.5474855  31.8507953 105.6855650  55.9120688  31.9242580 106.3976555
  56.2172261  32.4401552 105.0074730  61.7773205  26.3510336 111.8899972
  62.5098377  25.7809553 112.1237801  61.0212560  25.9631936 112.3306478
  51.0517783  29.3127430 105.3816625  50.9354042  28.6372334 106.0497710
  51.1620043  28.8259804 104.5648778  53.3949324  28.7737577 109.0863314
  53.0307532  28.2468198 109.7976236  54.2516440  28.3836047 108.9129800
  53.0354811  23.8027477 104.0824663  53.2029214  24.6707714 104.4495134
  52.8451980  23.9654759 103.1585952  53.0144032  26.2585135 105.0671330
  52.8943657  26.7042185 105.9056810  52.3196621  26.6070452 104.5084868
  50.7750924  39.0288776 108.7161461  50.6974954  39.9796602 108.7949942
  50.1712568  38.6834649 109.3736387  58.7129098  26.7306608 105.8951664
  59.6246955  26.9633995 105.7199361  58.2038745  27.3143652 105.3326742
  57.3198681  31.7132426 113.2865245  56.6907543  31.8778140 112.5841313
  56.9324343  32.1274036 114.0576209  61.1987913  32.6486864 110.6409609
  60.5138951  33.0285766 110.0906642  61.2831762  33.2582191 111.3741557
  52.8726643  31.4506834 110.5515330  53.3364988  31.7294537 109.7619953
  52.6083441  30.5490279 110.3688421  51.8095529  27.5729987 107.3604896
  52.5119572  28.0251030 107.8278822  51.4776157  26.9313806 107.9884789
  59.5684672  33.1718779 115.4127310  60.3902116  32.7698966 115.1309992
  59.5647075  33.0687013 116.3643426  67.6590665  29.5157527 111.7612281
  66.9054374  28.9464925 111.6056286  67.7938206  29.4820192 112.7082916
  53.0489293  34.3870929 107.4367001  52.9134968  35.2322465 107.8651849
  53.5899106  34.5890207 106.6732935  46.5018691  31.9046367 108.0094926
  47.0143211  32.6989618 108.1600490  47.1541403  31.2072658 107.9428527
  48.3113575  35.0212124 110.0917679  48.4880204  35.9430088 109.9038663
  49.1070409  34.7070543 110.5212059  56.3632040  27.9010102 104.4738329
  55.8478663  28.6714707 104.7126717  56.0909348  27.2275239 105.0971391
  61.3366314  30.6542457 106.4091503  60.5595756  30.3153617 105.9646665
  62.0157795  30.6595080 105.7346468  56.1518343  25.7737194 106.2998110
  55.8468478  26.0883344 107.1508254  57.1048785  25.8518614 106.3425443
  54.5964775  31.9327418 107.9491064  54.0686136  31.1980177 107.6364302
  54.0952277  32.7102094 107.7031033  59.5757621  30.1276438 113.0658111
  58.9181295  30.8175700 113.1538239  60.3798020  30.5172870 113.4092097
  58.3863079  28.4820811 111.1162053  58.8994961  29.1150803 111.6183762
  59.0364303  27.8822006 110.7505413  49.6553089  24.6251545 104.3293561
  48.8190402  24.9626232 104.6502836  49.5157859  24.4900525 103.3920698
  52.7417375  29.7507628 100.9526037  51.8344436  29.5196881 101.1517186
  53.2388407  28.9545247 101.1400019  55.6485454  38.4605135 103.8722724
  54.9747152  38.7636832 104.4807681  56.0351276  39.2634216 103.5228181
  55.6478958  27.3561682 108.4923073  56.3950777  27.8683079 108.1830195
  55.9170548  27.0345735 109.3527467  53.9205608  29.8520223 105.4750028
  53.0116827  29.5679256 105.5722497  53.9500692  30.2719301 104.6153334
  59.1524876  33.4626812 109.2441195  58.6987203  32.6217722 109.3006386
  58.5218842  34.0988211 109.5815975  57.5957815  35.3003309 110.1791013
  57.8880789  35.8608366 109.4603379  58.1056435  35.5931870 110.9344172
  53.6181696  31.3928967 102.8138106  53.1801126  30.6764826 102.3543744
  54.3592137  31.6205081 102.2523198  52.5591440  36.0783660 111.2684466
  52.5167619  36.3044506 110.3392999  53.4754139  35.8447035 111.4170268
  61.7354811  29.6686164 108.8714425  61.5972709  29.8587760 107.9435614
  61.3791030  30.4305546 109.3282476  61.7624190  31.7362691 113.8825696
  62.1960697  31.6437980 114.7308750  62.4755771  31.7120191 113.2445712
  50.6757241  32.9546689 111.0646429  51.4697839  32.4597009 110.8629004
  49.9648933  32.4264552 110.7014135  55.4952085  35.3364785 115.4158797
  55.5489108  35.9055721 116.1836513  54.6266867  35.5066670 115.0512834
  46.9840004  27.0989771 107.1406182  46.0537592  27.0374226 107.3576144
  47.0797476  26.5765724 106.3442823  53.8476669  38.6284808 106.0869803
  54.0228424  38.1572851 106.9015426  53.1609457  39.2550574 106.3151064
  54.8033732  32.9057314 112.1333104  54.4683565  32.8658084 113.0290754
  54.3037678  32.2402030 111.6603514  57.7392924  30.2513348 102.4070164
  57.1222094  29.5260176 102.3103216  57.2709412  31.0122708 102.0637238
  48.4137754  41.7774170 112.8609663  48.6534352  42.4092695 113.5388682
  47.5706951  41.4262210 113.1475022  49.5291470  24.4698773 101.5291468
  48.6520936  24.3487573 101.1653715  50.0049223  23.6784851 101.2770357
  52.9265616  37.5853293 115.2651167  52.8535787  38.3908264 115.7770472
  52.4843009  37.7845259 114.4399188  52.7155396  36.8225063 108.7753989
  51.9322917  37.3646743 108.8692213  53.4148141  37.3399043 109.1748230
  63.8781803  28.3360058 113.0606485  63.8671679  29.2184773 112.6900419
  63.0099182  27.9831609 112.8661022  57.1081826  31.3891380 108.9926617
  56.1738105  31.5092842 108.8231322  57.2858495  30.4863846 108.7286627
  60.4954378  27.2308699 109.5276651  60.9614830  28.0636690 109.4536954
  60.9461878  26.7653680 110.2321910  58.5630609  33.5752520 106.5262803
  58.8390453  33.4609115 107.4356678  57.6935108  33.1770005 106.4874977
  55.1984673  37.8238871 110.1695617  55.3807067  37.0060527 110.6323369
  56.0217659  38.0406563 109.7320507  55.5326838  36.7507056 107.4310666
  56.0614605  36.2399511 106.8180828  55.7955058  36.4349586 108.2956199
  48.8882586  37.8022173 110.1908442  48.2192962  38.2868300 109.7072482
  48.7495456  38.0491393 111.1051820  53.0287855  39.8365916 116.7891100
  53.5806163  39.9997538 117.5540185  53.3694048  40.4270354 116.1171125
  56.1656242  37.7847892 113.7754782  56.0407382  36.9837632 113.2665728
  56.8235333  38.2794085 113.2868752  58.2291151  35.5856912 115.4034332
  57.2821486  35.4662263 115.3312659  58.5773924  34.6979410 115.4860594
  55.2337584  35.3809628 111.6038684  55.0862546  34.4526336 111.7846254
  56.0591077  35.4029719 111.1195760  58.8371706  36.2038187 112.6903557
  59.7618253  35.9981048 112.5528008  58.6687009  35.9554588 113.5992899
  51.0867975  22.5302317 105.6612469  51.8076338  22.9083570 105.1576186
  50.4633279  23.2491194 105.7647447  55.2299098  23.2347466 106.5970802
  55.4462713  24.1172104 106.2959630  54.7493165  22.8433679 105.8676444
  58.6267022  36.7223854 108.0465649  58.8003899  36.1570277 107.2939501
  59.1195913  37.5224749 107.8645139  64.4806413  29.4860277 109.6655948
  64.9237559  28.7367602 109.2675072  63.6032923  29.4770414 109.2829680
  59.6142194  36.0390619 105.1462547  60.3093099  36.6597311 105.3649862
  59.9565344  35.1885970 105.4214925  61.5133617  33.4890324 106.6749878
  62.0384942  33.8277597 105.9499198  61.4255970  32.5537340 106.4913012
  53.1974278  39.5562308 111.0345131  52.7579269  39.0638686 111.7277988
  53.9482395  39.0135275 110.7937206  45.6766617  35.7473848 111.0369759
  46.5024637  35.4477620 110.6568402  45.3260669  34.9781471 111.4859548
  50.6448150  35.1000317 113.1067432  50.0228160  34.4371022 112.8069660
  51.3153017  35.1261449 112.4241080  50.2061657  33.6504240 106.5825893
  50.3549778  34.3339704 105.9292566  51.0128101  33.6309330 107.0975349
  64.0239278  30.9565516 112.0578396  64.8586169  31.3955320 112.2215956
  64.1598407  30.4804169 111.2386642  47.9614290  29.6769418 107.5886962
  47.7160332  28.7731748 107.7867172  48.1310205  29.6786568 106.6466440
  47.2309938  25.4097775 105.0873123  46.5379183  25.4842130 104.4313159
  46.9861690  24.6458119 105.6094640  53.7057063  36.1452370 104.0537640
  53.1331030  36.7642558 103.6008112  54.2789856  36.6951732 104.5877562
  56.9254323  36.4289521 105.1846223  57.8584996  36.3635082 105.3879098
  56.8377535  37.2645787 104.7260755  59.5542339  35.7455391 102.1450170
  59.4755971  35.4115254 103.0385928  60.3752006  36.2377159 102.1441643
  54.0903861  27.4813183 101.3953693  55.0362966  27.3519391 101.4642111
  53.7118106  26.7427845 101.8723121  68.0697080  29.6733137 114.4932526
  68.8000469  29.4118425 115.0540229  67.4604026  28.9361859 114.5334594
  66.1512377  27.8141000 115.0906977  65.4245541  27.6796965 114.4823469
  65.7359664  28.1217828 115.8963695  52.2746778  25.4063160 101.3308578
  51.3678234  25.1096272 101.4071292  52.5522759  25.1092978 100.4642864
  51.0445563  22.2650095 101.4720557  51.9064727  22.5904993 101.7316375
  51.2295907  21.4781591 100.9593623  59.1978200  21.1378621 108.6155780
  58.6176869  21.7963425 108.2333833  58.9314132  20.3155966 108.2043198
  57.9803078  23.2978712 107.6712129  57.0928933  23.5828362 107.4532323
  58.3957067  23.1372475 106.8239406  45.9887328  37.8786463 112.7583573
  45.8541796  37.1186864 112.1921571  45.5719390  38.6027363 112.2912362
  57.1246291  33.0623386 101.7660149  57.8282141  33.2673389 102.3817804
  56.4008940  33.6300148 102.0309232  57.9544101  28.8133248 107.8862419
  57.8979303  29.2701799 107.0470051  58.5072444  28.0523932 107.7085262
  61.7648907  24.6022979 108.7112538  61.5085841  24.2019615 109.5420746
  61.1401775  25.3166773 108.5862677  66.0761245  27.3419053 111.2183830
  65.5160803  27.4112242 111.9915392  65.4704748  27.1660037 110.4983326
  49.1456454  38.7755780 112.9702016  49.0288838  39.7201212 112.8680706
  48.3248900  38.4729341 113.3587815  59.0332988  33.5005915 103.8158609
  59.8678592  33.0687114 103.6336083  58.8717331  33.3287929 104.7435503
  58.6878881  30.0038029 105.1814948  58.6327684  29.8382300 104.2403392
  58.0624936  30.7114062 105.3377138  51.9975006  19.5046138 104.7600266
  51.9853676  20.4487978 104.9168537  52.8898428  19.3216283 104.4659728
  51.9264570  38.1815028 112.8468023  50.9760201  38.1816890 112.7332395
  52.2297056  37.4347763 112.3304058  67.6617264  44.0175567 113.9113785
  68.2995673  43.8982314 113.2077125  67.5438106  44.9656411 113.9701738
  64.4706970  43.9702995 113.8475310  64.1325481  43.8544059 112.9595845
  65.3396738  43.5694160 113.8276316  60.3293786  45.8238471 109.8372201
  59.7658651  45.7328408 109.0688489  60.2146181  45.0038376 110.3174694
  64.9526753  45.1237846 119.8061516  64.9415394  44.7290645 118.9342019
  65.1147392  44.3903919 120.3995287  57.8758217  47.3189663 112.6756422
  58.6679509  46.9780487 112.2602721  58.1154868  47.4284638 113.5958575
  65.9093344  49.4909439 105.1486666  65.2581324  50.0763519 104.7620680
  66.7037707  50.0215634 105.2081703  59.8348971  46.5798576 105.5473800
  60.6079847  46.0327563 105.4086676  60.1874370  47.4442825 105.7588262
  61.6734014  47.9074958 118.7540700  61.3823880  48.8120589 118.6387366
  62.3090998  47.9491486 119.4684769  62.5990221  45.2851807 115.3442059
  63.1953793  45.0607829 114.6299022  62.6565192  44.5436552 115.9467507
  62.1715249  42.7391242 103.1792250  62.4240770  42.2172763 102.4175713
  61.2339808  42.5757388 103.2818934  67.2158532  41.7427020 110.9866993
  68.0021621  41.3246444 110.6357410  67.4797236  42.6473113 111.1548642
  67.3868609  47.1799871 105.6855650  66.7514442  47.2534497 106.3976555
  67.0566016  47.7693470 105.0074730  72.6166959  41.6802254 111.8899972
  73.3492131  41.1101470 112.1237801  71.8606315  41.2923854 112.3306478
  61.8911538  44.6419348 105.3816625  61.7747796  43.9664251 106.0497710
  62.0013798  44.1551722 104.5648778  64.2343079  44.1029495 109.0863314
  63.8701286  43.5760116 109.7976236  65.0910195  43.7127964 108.9129800
  70.1392379  35.3923828 116.3494581  69.8075704  36.2619239 116.1255796
  69.5437993  35.0760112 117.0288611  63.8748566  39.1319395 104.0824663
  64.0422968  39.9999631 104.4495134  63.6845735  39.2946677 103.1585952
  66.6323899  47.5936374 115.7490493  66.3324622  48.4961413 115.6406301
  66.2874959  47.3268557 116.6011646  60.0836381  44.0450171 111.7827198
  59.1586877  43.9126385 111.9904890  60.3320794  44.8244390 112.2797140
  70.0321043  40.1118914 113.4287931  69.1237920  40.0434322 113.1346692
  69.9808639  40.5890859 114.2569756  63.8537787  41.5877052 105.0671330
  63.7337412  42.0334103 105.9056810  63.1590375  41.9362370 104.5084868
  57.4445192  43.6883444 112.6170987  57.5737573  43.9417923 113.5310399
  56.7642643  44.2811152 112.2975642  61.6144679  54.3580694 108.7161461
  61.5368709  55.3088519 108.7949942  61.0106322  54.0126567 109.3736387
  64.1061909  41.5308560 121.3722828  63.3295243  42.0902480 121.3625693
  64.7452472  42.0165343 121.8937698  71.8982689  38.3135352 115.2065805
  71.2557069  38.6067885 114.5605599  71.3937618  38.1988273 116.0119001
  69.5522853  42.0598526 105.8951664  70.4640709  42.2925912 105.7199361
  69.0432500  42.6435570 105.3326742  62.3608281  44.3394013 120.9340795
  63.1022965  44.8779057 120.6575619  61.6545266  44.9660302 121.0912347
  67.8363621  46.4823153 119.5312956  68.2446977  46.0405564 118.7867589
  67.1140882  45.9075781 119.7847149  64.1894691  41.4195760 116.9046513
  65.0355886  41.8435174 117.0481162  64.1293328  40.7629384 117.5985076
  68.1592435  47.0424344 113.2865245  67.5301298  47.2070058 112.5841313
  67.7718097  47.4565954 114.0576209  72.0381667  47.9778782 110.6409609
  71.3532705  48.3577683 110.0906642  72.1225516  48.5874108 111.3741557
  67.3394136  39.0800128 118.5627687  67.0955068  39.8342189 118.0261963
  67.6154066  39.4585476 119.3974934  69.2932599  45.6238741 117.2404953
  69.5049494  46.2670501 116.5639334  69.2462347  44.7901057 116.7726883
  66.8958828  38.2356561 114.1441525  66.0343307  38.5337815 114.4358262
  66.9221262  38.4526960 113.2122557  63.7120397  46.7798752 110.5515330
  64.1758743  47.0586455 109.7619953  63.4477195  45.8782197 110.3688421
  60.6044478  46.3270234 113.4895094  61.1745835  46.7557502 112.8512578
  61.1952590  46.0452818 114.1879279  62.6489283  42.9021904 107.3604896
  63.3513326  43.3542948 107.8278822  62.3169912  42.2605723 107.9884789
  61.0969645  41.4933661 121.7356105  60.4668305  42.1749942 121.9691502
  60.9905733  41.3816743 120.7909243  56.3914617  41.1605457 112.6622029
  55.6013671  41.4162986 112.1862140  56.8825864  41.9753795 112.7674070
  70.4078427  48.5010696 115.4127310  71.2295870  48.0990884 115.1309992
  70.4040830  48.3978930 116.3643426  58.3429362  41.5250036 109.6205506
  57.5460526  41.6368731 110.1389001  58.1154955  41.8636689 108.7546396
  64.1735030  48.0494740 117.5688020  64.2379463  48.5115147 118.4046192
  63.4645954  47.4192104 117.6970330  54.6752320  41.4135948 115.0937020
  54.9260358  42.2982957 115.3594596  55.2111868  41.2340549 114.3212112
  78.4984420  44.8449445 111.7612281  77.7448128  44.2756843 111.6056286
  78.6331961  44.8112109 112.7082916  63.8883048  49.7162847 107.4367001
  63.7528723  50.5614383 107.8651849  64.4292860  49.9182125 106.6732935
  57.3412445  47.2338285 108.0094926  57.8536966  48.0281535 108.1600490
  57.9935158  46.5364576 107.9428527  59.1507330  50.3504041 110.0917679
  59.3273958  51.2722006 109.9038663  59.9464163  50.0362461 110.5212059
  58.4359686  42.3968673 119.9679842  58.3213202  41.4953930 120.2686941
  57.5804204  42.6432370 119.6164659  65.5151524  50.3386414 121.5667343
  65.0715378  49.5522792 121.2488247  66.1768738  50.5265564 120.9011234
  60.2738645  51.8682215 116.0928021  60.8246070  51.7399279 115.3205015
  59.4350121  52.1677104 115.7422914  67.6132762  50.6189213 119.5948744
  67.5951238  51.4398095 119.1029013  68.5352682  50.4943289 119.8198885
  64.0705816  48.1333343 120.4372252  64.6034153  47.3721631 120.2071560
  63.5419897  47.8406995 121.1796407  67.2375511  33.2393409 115.9665894
  66.8939781  34.1295051 115.8905005  67.6054474  33.0495067 115.1035479
  55.3061362  45.5626939 108.7854496  56.1436584  45.9723948 108.5688204
  55.4839630  44.6226382 108.7554690  67.2025794  43.2302020 104.4738329
  66.6872417  44.0006625 104.7126717  66.9303102  42.5567156 105.0971391
  64.7872905  38.0751721 109.5323568  63.9314501  37.6858571 109.3529206
  65.1999857  38.1543682 108.6723353  66.3172052  35.6098064 113.9315127
  65.8136847  35.5728199 113.1182933  66.6102659  36.5190807 113.9911784
  62.5614938  35.6936794 112.9381309  63.4267934  35.4979602 112.5787199
  62.6292446  35.4647146 113.8650666  72.1760068  45.9834375 106.4091503
  71.3989511  45.6445534 105.9646665  72.8551549  45.9886998 105.7346468
  66.9912097  41.1029112 106.2998110  66.6862233  41.4175261 107.1508254
  67.9442539  41.1810532 106.3425443  65.4358529  47.2619335 107.9491064
  64.9079891  46.5272095 107.6364302  64.9346032  48.0394012 107.7031033
  70.4151375  45.4568356 113.0658111  69.7575050  46.1467617 113.1538239
  71.2191774  45.8464788 113.4092097  60.1677257  37.9239002 110.3097676
  60.7421009  37.7014183 109.5770869  60.7548239  37.9927696 111.0626277
  69.2256834  43.8112729 111.1162053  69.7388716  44.4442720 111.6183762
  69.8758058  43.2113924 110.7505413  60.4946844  39.9543463 104.3293561
  59.6584156  40.2918149 104.6502836  60.3551613  39.8192443 103.3920698
  62.4699924  34.7980251 109.0372745  61.8164337  34.4829268 108.4129360
  62.4280399  34.1755991 109.7632568  63.5811129  45.0799546 100.9526037
  62.6738191  44.8488799 101.1517186  64.0782161  44.2837165 101.1400019
  66.4879208  53.7897053 103.8722724  65.8140907  54.0928750 104.4807681
  66.8745030  54.5926133 103.5228181  65.7037665  41.2862184 113.3620393
  64.7860226  41.5077131 113.2042081  66.1197808  41.3608495 112.5032100
  66.4872712  42.6853600 108.4923073  67.2344531  43.1974997 108.1830195
  66.7564302  42.3637653 109.3527467  64.7599363  45.1812141 105.4750028
  63.8510582  44.8971173 105.5722497  64.7894446  45.6011219 104.6153334
  69.9918630  48.7918730 109.2441195  69.5380957  47.9509640 109.3006386
  69.3612597  49.4280128 109.5815975  68.9351550  39.7210716 110.4741863
  68.1974306  39.2088102 110.8052105  69.1878323  39.2811098 109.6625139
  68.4351569  50.6295227 110.1791013  68.7274544  51.1900284 109.4603379
  68.9450190  50.9223788 110.9344172  69.0363177  32.4986968 111.0683632
  69.3422054  31.6384332 110.7809547  69.7615782  33.0904588 110.8682626
  55.3287533  42.9017655 109.4565230  55.1311933  42.3087015 108.7316296
  54.7734197  42.5969865 110.1741169  63.3084257  42.7940761 111.5759823
  63.3632866  41.8414598 111.5002300  62.4975459  42.9500200 112.0601121
  64.4575450  46.7220884 102.8138106  64.0194880  46.0056743 102.3543744
  65.1985891  46.9496999 102.2523198  61.2476617  41.4117821 109.3350202
  60.4344482  41.7111991 109.7415394  61.7435611  41.0173510 110.0524684
  63.3985195  51.4075578 111.2684466  63.3561373  51.6336424 110.3392999
  64.3147893  51.1738952 111.4170268  66.8450828  41.8759645 118.1665096
  67.2000216  42.1031119 119.0259561  67.4922960  42.2078022 117.5442351
  72.5748565  44.9978081 108.8714425  72.4366464  45.1879677 107.9435614
  72.2184784  45.7597464 109.3282476  60.7390691  38.9836176 114.9511437
  61.3790071  38.8424936 114.2534400  59.9068222  38.6970690 114.5750039
  72.6017945  47.0654608 113.8825696  73.0354452  46.9729897 114.7308750
  73.3149526  47.0412109 113.2445712  61.5150995  48.2838607 111.0646429
  62.3091594  47.7888927 110.8629004  60.8042688  47.7556470 110.7014135
  66.3345840  50.6656702 115.4158797  66.3882862  51.2347639 116.1836513
  65.4660621  50.8358587 115.0512834  57.8233759  42.4281689 107.1406182
  56.8931347  42.3666144 107.3576144  57.9191231  41.9057641 106.3442823
  57.7419308  38.9536501 109.7284424  58.0026125  39.8681835 109.6193584
  58.5636480  38.4860944 109.8781036  59.2144233  40.3674259 116.8983248
  59.8867287  40.1591621 116.2495897  58.3874020  40.1696345 116.4588480
  73.4633494  47.1078309 116.4158582  73.6569385  48.0124119 116.6617857
  73.3634113  46.6485728 117.2497167  65.1169805  36.9936200 118.9148909
  64.4697720  37.6926149 118.8213385  65.8870821  37.4272343 119.2825157
  68.5248603  47.2585052 121.9899462  68.3734110  47.0295603 121.0729546
  68.5153283  48.2155653 122.0030807  65.2933940  44.8316964 116.9745729
  66.2226000  44.9828124 116.8014696  64.8724970  44.9200985 116.1194375
  64.0922271  48.8567629 114.7444266  63.9533357  48.4886413 115.6170204
  63.3036868  49.3715268 114.5728224  64.6870423  53.9576725 106.0869803
  64.8622179  53.4864769 106.9015426  64.0003211  54.5842492 106.3151064
  65.6427486  48.2349232 112.1333104  65.3077319  48.1950002 113.0290754
  65.1431432  47.5693947 111.6603514  59.6171730  43.6416862 117.6585685
  59.4791528  42.9097100 118.2597224  60.5276654  43.5525762 117.3769873
  68.5786678  45.5805266 102.4070164  67.9615849  44.8552094 102.3103216
  68.1103167  46.3414626 102.0637238  62.2454031  43.3536821 117.1469365
  62.9553650  42.7130013 117.1055983  62.2023339  43.6049716 118.0695546
  70.2340810  50.2904174 120.0675944  70.1753356  49.6063394 119.4006527
  70.6360328  51.0323164 119.6156570  60.9582965  40.3402039 118.9665004
  60.4220322  39.8892777 119.6186601  60.3699673  40.4747948 118.2235469
  59.2531509  57.1066088 112.8609663  59.4928107  57.7384612 113.5388682
  58.4100705  56.7554128 113.1475022  60.3685224  39.7990690 101.5291468
  59.4914690  39.6779491 101.1653715  60.8442977  39.0076769 101.2770357
  70.2358217  48.2543758 118.2989924  69.3484996  47.9169680 118.4216323
  70.8056768  47.5226789 118.5358689  51.8887364  44.5867850 111.6232975
  52.5758404  44.2729580 111.0353990  51.7335493  45.4909215 111.3500227
  56.6922086  39.4758046 116.0517999  56.6080275  38.8683716 115.3168409
  55.8704793  39.9667065 116.0527495  63.7659370  52.9145211 115.2651167
  63.6929542  53.7200182 115.7770472  63.3236764  53.1137176 114.4399188
  63.5549150  52.1516981 108.7753989  62.7716672  52.6938661 108.8692213
  64.2541895  52.6690960 109.1748230  66.8645800  37.9611610 111.4188194
  67.3614500  37.2081572 111.0989264  66.0932782  37.9975927 110.8531403
  74.7175558  43.6651976 113.0606485  74.7065434  44.5476691 112.6900419
  73.8492937  43.3123526 112.8661022  66.2258054  52.8132045 117.4209326
  66.9386026  53.4479509 117.3485227  65.7348083  52.9095911 116.6049327
  67.9475581  46.7183297 108.9926617  67.0131860  46.8384760 108.8231322
  68.1252249  45.8155764 108.7286627  63.4480769  40.1028993 111.1459879
  63.0778556  39.5500033 111.8340784  63.9439861  39.4987126 110.5934879
  71.3348132  42.5600617 109.5276651  71.8008584  43.3928608 109.4536954
  71.7855633  42.0945598 110.2321910  61.2769967  50.5626488 118.2414896
  61.9779427  51.1962971 118.3944291  60.8065082  50.9041220 117.4810536
  69.4024363  48.9044438 106.5262803  69.6784207  48.7901032 107.4356678
  68.5328862  48.5061923 106.4874977  69.3064795  34.9281204 113.5667553
  68.3927875  35.1585430 113.7349760  69.7357896  35.0119648 114.4181585
  69.0771253  43.1171095 116.0667447  68.4242704  43.3647003 115.4119900
  69.4551633  42.3035234 115.7329924  66.0378427  53.1530789 110.1695617
  66.2200822  52.3352445 110.6323369  66.8611413  53.3698481 109.7320507
  66.3720593  52.0798974 107.4310666  66.9008359  51.5691428 106.8180828
  66.6348812  51.7641504 108.2956199  65.1258826  43.8590907 122.5533484
  64.4499463  43.7585036 123.2235859  65.9486460  43.7030120 123.0169481
  56.8737686  50.0962843 115.1745999  57.4591122  49.3506531 115.3073903
  56.6762524  50.4066800 116.0582663  59.7276341  53.1314090 110.1908442
  59.0586716  53.6160218 109.7072482  59.5889210  53.3783311 111.1051820
  51.4655340  42.6668443 113.8950442  51.5039440  42.1332034 114.6887560
  50.9595633  42.1403649 113.2761419  63.8681609  55.1657834 116.7891100
  64.4199917  55.3289455 117.5540185  64.2087803  55.7562272 116.1171125
  58.8446103  37.5132984 117.3912985  58.9087429  38.3747815 116.9790382
  58.7813223  36.9006985 116.6585343  68.7192484  49.9919092 122.6439754
  69.2632388  50.6049050 122.1494709  68.1379329  50.5498670 123.1606767
  55.0963918  41.3932545 106.9704374  55.3917359  40.4843224 106.9171427
  54.1951954  41.3720285 106.6485376  67.0049997  53.1139810 113.7754782
  66.8801136  52.3129549 113.2665728  67.6629088  53.6086003 113.2868752
  58.6258165  39.4688542 112.9531922  57.9044751  40.0824510 112.8139396
  59.4151421  40.0046307 112.8748568  69.0684905  50.9148830 115.4034332
  68.1215241  50.7954181 115.3312659  69.4167678  50.0271328 115.4860594
  56.8251759  39.0746643 107.0943699  56.4964466  38.1944022 106.9118805
  57.1791130  39.0194312 107.9820088  66.0731338  50.7101546 111.6038684
  65.9256301  49.7818253 111.7846254  66.8984832  50.7321637 111.1195760
  59.9393583  39.3619613 107.4619177  60.2789655  39.8905534 106.7397785
  60.3865703  39.7000019 108.2377743  69.6765460  51.5330105 112.6903557
  70.6012008  51.3272966 112.5528008  69.5080764  51.2846506 113.5992899
  62.6337023  37.7456664 116.9122245  62.2933844  36.9464477 117.3142924
  61.9276030  38.0458374 116.3399078  63.2853495  34.8305976 115.3649568
  64.1079565  34.3566454 115.2428458  63.5291559  35.6096460 115.8648254
  61.9261730  37.8594234 105.6612469  62.6470092  38.2375487 105.1576186
  61.3027034  38.5783111 105.7647447  66.0692853  38.5639383 106.5970802
  66.2856467  39.4464021 106.2959630  65.5886920  38.1725597 105.8676444
  60.8092074  41.5225097 113.1741546  60.6636655  41.8365400 114.0665828
  60.3317278  42.1409997 112.6212445  62.6688457  38.5127645 113.2222436
  62.6550026  37.6168738 112.8854734  63.3860885  38.5198308 113.8560722
  64.5214588  38.9464985 115.2675563  64.2632365  39.8682056 115.2659894
  63.9899628  38.5495419 115.9576027  69.4660776  52.0515772 108.0465649
  69.6397654  51.4862194 107.2939501  69.9589668  52.8516667 107.8645139
  55.2837736  44.0630441 116.1129207  54.7391204  44.8390249 116.2449482
  56.1617086  44.4101246 115.9548329  62.0725353  37.3942025 108.4910006
  62.1941264  36.4658671 108.6900893  61.7827395  37.4080711 107.5788321
  64.9416543  35.0796935 111.6276726  64.9638240  35.1436268 110.6728705
  65.3584602  34.2401444 111.8217232  75.3200168  44.8152195 109.6655948
  75.7631314  44.0659520 109.2675072  74.4426678  44.8062331 109.2829680
  70.4535949  51.3682536 105.1462547  71.1486853  51.9889229 105.3649862
  70.7959099  50.5177888 105.4214925  56.0703758  43.1900337 119.0059364
  55.3285494  43.3382973 119.5923995  55.7496502  43.4508603 118.1426114
  72.3527372  48.8182242 106.6749878  72.8778696  49.1569515 105.9499198
  72.2649725  47.8829257 106.4913012  64.0147421  52.7316316 118.8039754
  64.3234547  52.4865462 119.6762454  64.8122903  52.9362954 118.3158624
  64.0368033  54.8854225 111.0345131  63.5973023  54.3930604 111.7277988
  64.7876150  54.3427193 110.7937206  56.5160372  51.0765766 111.0369759
  57.3418392  50.7769538 110.6568402  56.1654424  50.3073389 111.4859548
  61.4841905  50.4292234 113.1067432  60.8621914  49.7662939 112.8069660
  62.1546772  50.4553366 112.4241080  54.7168977  48.9952093 111.9958692
  53.8800885  48.5674267 111.8142694  54.6892622  49.1884536 112.9329484
  72.0421278  49.4515146 121.9801076  71.2516822  49.4339284 121.4405575
  71.8054633  49.9903439 122.7350112  72.1619153  46.3007612 119.2933804
  72.2117158  46.1357619 120.2349327  72.0533076  45.4334871 118.9031685
  61.0455412  48.9796158 106.5825893  61.1943532  49.6631622 105.9292566
  61.8521855  48.9601248 107.0975349  69.4522915  42.2838540 120.6093111
  70.3532778  42.1445005 120.3177109  69.5270890  42.4492995 121.5491288
  63.7865721  39.6605395 119.4546297  62.9169030  39.9538961 119.1828886
  64.0225201  40.2445840 120.1753561  73.6637350  48.7204553 119.5375826
  73.3722158  49.0834534 120.3739287  73.0509481  48.0071562 119.3589158
  74.8633032  46.2857433 112.0578396  75.6979924  46.7247237 112.2215956
  74.9992161  45.8096086 111.2386642  71.9124538  43.8437168 118.0055884
  72.3878660  44.0364814 117.1974735  70.9890104  43.8996354 117.7599267
  58.8008045  45.0061335 107.5886962  58.5554087  44.1023665 107.7867172
  58.9703959  45.0078486 106.6466440  66.4904755  35.8785012 116.9711718
  67.0086698  36.6146039 116.6458206  66.1359887  36.1849005 117.8058477
  58.0703692  40.7389693 105.0873123  57.3772937  40.8134048 104.4313159
  57.8255444  39.9750036 105.6094640  66.7417349  32.2985294 112.4912614
  67.0219103  31.6308483 113.1173041  67.5267956  32.4914390 111.9787278
  64.5450817  51.4744288 104.0537640  63.9724784  52.0934475 103.6008112
  65.1183611  52.0243650 104.5877562  70.6126207  40.7202928 116.2384189
  71.5643630  40.8201026 116.2596413  70.4429658  39.9281197 116.7482274
  68.6340587  37.8058511 116.4243590  68.0390519  38.0863524 115.7290079
  68.3490283  38.2952412 117.1960331  67.7648077  51.7581438 105.1846223
  68.6978750  51.6927000 105.3879098  67.6771290  52.5937705 104.7260755
  70.3936094  51.0747309 102.1450170  70.3149725  50.7407172 103.0385928
  71.2145761  51.5669076 102.1441643  73.0914285  43.9409048 115.3526489
  73.0590605  43.0025049 115.5386173  73.7014909  44.0193085 114.6192314
  64.9297616  42.8105101 101.3953693  65.8756721  42.6811309 101.4642111
  64.5511861  42.0719763 101.8723121  73.2408773  40.7320091 115.3984772
  72.7247822  39.9478548 115.2114701  74.1248722  40.4038808 115.5631292
  70.9019500  34.4761107 111.3580585  70.7044321  34.1676195 112.2423917
  71.5119206  35.2022746 111.4878515  78.9090835  45.0025055 114.4932526
  79.6394223  44.7410343 115.0540229  78.2997780  44.2653777 114.5334594
  76.9906132  43.1432917 115.0906977  76.2639295  43.0088882 114.4823469
  76.5753419  43.4509746 115.8963695  64.8136308  46.8622847 122.8554350
  65.7339318  47.0401446 123.0494396  64.7785891  45.9178892 122.7034049
  63.1140533  40.7355077 101.3308578  62.2071988  40.4388190 101.4071292
  63.3916514  40.4384895 100.4642864  54.0318473  42.0561441 111.7807625
  53.7121258  41.2026749 111.4881999  53.4851902  42.2710019 112.5365592
  57.8098381  44.7723882 115.4977131  58.0284391  45.7040989 115.5165165
  58.2224155  44.4131856 116.2831935  64.7302599  35.2791967 107.4852819
  63.9203327  34.9339052 107.8608066  65.4187016  34.9699511 108.0740431
  66.6593147  34.3570014 109.1077116  67.2124186  34.7765467 109.7667139
  66.8963233  33.4305762 109.1500072  61.8839318  37.5942012 101.4720557
  62.7458482  37.9196911 101.7316375  62.0689662  36.8073508 100.9593623
  53.9006733  45.6764352 113.7500746  53.2070205  45.2618305 113.2370701
  54.6479724  45.7184889 113.1534165  70.0371954  36.4670539 108.6155780
  69.4570623  37.1255343 108.2333833  69.7707887  35.6447884 108.2043198
  68.4875520  35.8675597 110.8177101  68.9875299  35.9792131 110.0091420
  69.1311128  35.5636649 111.4577909  62.5457516  43.7754226 123.7044942
  62.0624598  44.5754586 123.9108831  62.6318455  43.7862171 122.7512386
  55.8143476  45.6082606 111.6266761  55.7914164  45.7070293 110.6748644
  56.1244112  46.4547757 111.9483927  58.4730854  47.6658761 115.7413375
  59.4274107  47.6342703 115.6743307  58.2743377  47.2049385 116.5563601
  59.0630236  46.2359877 118.3084173  59.8823125  46.7303956 118.3319010
  59.3367044  45.3191845 118.2801741  68.8196832  38.6270629 107.6712129
  67.9322687  38.9120280 107.4532323  69.2350821  38.4664393 106.8239406
  72.1711368  38.6517150 111.3866468  72.9471758  39.1413603 111.6591085
  71.4459502  39.0775204 111.8438337  74.6083927  39.3644769 112.4440409
  75.2028418  39.1240505 111.7333717  74.6810511  38.6451900 113.0713945
  56.8281083  53.2078380 112.7583573  56.6935550  52.4478781 112.1921571
  56.4113145  53.9319280 112.2912362  67.9640046  48.3915304 101.7660149
  68.6675896  48.5965306 102.3817804  67.2402694  48.9592066 102.0309232
  68.7937856  44.1425165 107.8862419  68.7373057  44.5993717 107.0470051
  69.3466198  43.3815850 107.7085262  72.6042662  39.9314897 108.7112538
  72.3479596  39.5311533 109.5420746  71.9795530  40.6458691 108.5862677
  76.9155000  42.6710970 111.2183830  76.3554558  42.7404160 111.9915392
  76.3098503  42.4951955 110.4983326  59.9850208  54.1047697 112.9702016
  59.8682593  55.0493130 112.8680706  59.1642655  53.8021259 113.3587815
  69.8726743  48.8297833 103.8158609  70.7072347  48.3979032 103.6336083
  69.7111086  48.6579847 104.7435503  69.5272635  45.3329946 105.1814948
  69.4721439  45.1674218 104.2403392  68.9018690  46.0405979 105.3377138
  66.8418542  47.6378858 124.5068511  67.7109702  47.8119511 124.1455146
  66.3625294  48.4573275 124.3844240  62.8368761  34.8338055 104.7600266
  62.8247430  35.7779895 104.9168537  63.7292182  34.6508201 104.4659728
  61.0104723  54.7575959 116.1857944  61.9131969  54.7899570 116.5024439
  60.7842093  53.8276410 116.2004280  62.7658325  53.5106946 112.8468023
  61.8153956  53.5108807 112.7332395  63.0690811  52.7639680 112.3304058
  66.6520880  31.4280832 109.0146203  65.8853276  30.8739319 109.1602886
  67.0631585  31.5002701 109.8760355  78.5011018  59.3467484 113.9113785
  79.1389428  59.2274232 113.2077125  78.3831861  60.2948328 113.9701738
  75.3100724  59.2994912 113.8475310  74.9719236  59.1835977 112.9595845
  76.1790492  58.8986077 113.8276316  71.1687540  61.1530389 109.8372201
  70.6052405  61.0620326 109.0688489  71.0539935  60.3330293 110.3174694
  75.7920507  60.4529764 119.8061516  75.7809148  60.0582562 118.9342019
  75.9541147  59.7195837 120.3995287  68.7151972  62.6481580 112.6756422
  69.5073264  62.3072405 112.2602721  68.9548622  62.7576555 113.5958575
  76.7487099  64.8201356 105.1486666  76.0975078  65.4055437 104.7620680
  77.5431462  65.3507551 105.2081703  70.6742726  61.9090494 105.5473800
  71.4473602  61.3619481 105.4086676  71.0268125  62.7734743 105.7588262
  72.5127768  63.2366876 118.7540700  72.2217634  64.1412507 118.6387366
  73.1484753  63.2783404 119.4684769  73.4383975  60.6143724 115.3442059
  74.0347548  60.3899747 114.6299022  73.4958947  59.8728470 115.9467507
  73.0109004  58.0683160 103.1792250  73.2634524  57.5464681 102.4175713
  72.0733563  57.9049305 103.2818934  78.0552287  57.0718938 110.9866993
  78.8415376  56.6538361 110.6357410  78.3190991  57.9765030 111.1548642
  78.2262364  62.5091788 105.6855650  77.5908197  62.5826415 106.3976555
  77.8959770  63.0985387 105.0074730  83.4560714  57.0094171 111.8899972
  84.1885886  56.4393388 112.1237801  82.7000069  56.6215772 112.3306478
  72.7305292  59.9711266 105.3816625  72.6141551  59.2956169 106.0497710
  72.8407552  59.4843640 104.5648778  75.0736833  59.4321413 109.0863314
  74.7095041  58.9052034 109.7976236  75.9303949  59.0419882 108.9129800
  80.9786134  50.7215745 116.3494581  80.6469459  51.5911156 116.1255796
  80.3831747  50.4052029 117.0288611  74.7142320  54.4611313 104.0824663
  74.8816723  55.3291549 104.4495134  74.5239489  54.6238594 103.1585952
  77.4717654  62.9228291 115.7490493  77.1718377  63.8253330 115.6406301
  77.1268713  62.6560475 116.6011646  70.9230135  59.3742088 111.7827198
  69.9980631  59.2418302 111.9904890  71.1714548  60.1536308 112.2797140
  80.8714797  55.4410832 113.4287931  79.9631675  55.3726240 113.1346692
  80.8202393  55.9182777 114.2569756  74.6931541  56.9168970 105.0671330
  74.5731166  57.3626021 105.9056810  73.9984130  57.2654288 104.5084868
  68.2838946  59.0175362 112.6170987  68.4131327  59.2709841 113.5310399
  67.6036397  59.6103070 112.2975642  72.4538433  69.6872612 108.7161461
  72.3762463  70.6380437 108.7949942  71.8500077  69.3418484 109.3736387
  74.9455663  56.8600477 121.3722828  74.1688997  57.4194397 121.3625693
  75.5846226  57.3457260 121.8937698  82.7376444  53.6427270 115.2065805
  82.0950824  53.9359803 114.5605599  82.2331372  53.5280190 116.0119001
  80.3916607  57.3890443 105.8951664  81.3034463  57.6217830 105.7199361
  79.8826254  57.9727487 105.3326742  73.2002035  59.6685931 120.9340795
  73.9416720  60.2070975 120.6575619  72.4939021  60.2952219 121.0912347
  78.6757375  61.8115071 119.5312956  79.0840731  61.3697482 118.7867589
  77.9534637  61.2367699 119.7847149  75.0288445  56.7487678 116.9046513
  75.8749640  57.1727091 117.0481162  74.9687083  56.0921302 117.5985076
  78.9986190  62.3716262 113.2865245  78.3695052  62.5361976 112.5841313
  78.6111852  62.7857871 114.0576209  82.8775422  63.3070700 110.6409609
  82.1926460  63.6869601 110.0906642  82.9619271  63.9166026 111.3741557
  78.1787890  54.4092046 118.5627687  77.9348822  55.1634107 118.0261963
  78.4547821  54.7877394 119.3974934  80.1326353  60.9530659 117.2404953
  80.3443248  61.5962418 116.5639334  80.0856101  60.1192975 116.7726883
  77.7352582  53.5648479 114.1441525  76.8737061  53.8629733 114.4358262
  77.7615017  53.7818878 113.2122557  74.5514152  62.1090670 110.5515330
  75.0152497  62.3878373 109.7619953  74.2870950  61.2074114 110.3688421
  71.4438233  61.6562151 113.4895094  72.0139590  62.0849420 112.8512578
  72.0346344  61.3744736 114.1879279  73.4883038  58.2313822 107.3604896
  74.1907081  58.6834866 107.8278822  73.1563666  57.5897641 107.9884789
  71.9363399  56.8225579 121.7356105  71.3062060  57.5041860 121.9691502
  71.8299487  56.7108660 120.7909243  67.2308372  56.4897375 112.6622029
  66.4407426  56.7454903 112.1862140  67.7219619  57.3045713 112.7674070
  81.2472181  63.8302614 115.4127310  82.0689625  63.4282801 115.1309992
  81.2434584  63.7270848 116.3643426  69.1823117  56.8541954 109.6205506
  68.3854280  56.9660648 110.1389001  68.9548709  57.1928606 108.7546396
  75.0128785  63.3786657 117.5688020  75.0773217  63.8407064 118.4046192
  74.3039708  62.7484022 117.6970330  65.5146075  56.7427865 115.0937020
  65.7654113  57.6274875 115.3594596  66.0505623  56.5632467 114.3212112
  89.3378174  60.1741362 111.7612281  88.5841883  59.6048760 111.6056286
  89.4725715  60.1404027 112.7082916  74.7276802  65.0454765 107.4367001
  74.5922477  65.8906300 107.8651849  75.2686615  65.2474042 106.6732935
  71.2144142  51.1246345 124.0981356  70.8211087  50.5712543 124.7729000
  72.0310282  51.4356923 124.4887873  68.1806200  62.5630203 108.0094926
  68.6930720  63.3573453 108.1600490  68.8328912  61.8656493 107.9428527
  69.9901084  65.6795959 110.0917679  70.1667713  66.6013924 109.9038663
  70.7857918  65.3654378 110.5212059  74.1312103  52.5404224 121.6901613
  74.8721816  53.1411377 121.6106075  74.3630026  51.7981861 121.1319655
  69.2753441  57.7260591 119.9679842  69.1606956  56.8245848 120.2686941
  68.4197959  57.9724288 119.6164659  71.1132400  67.1974133 116.0928021
  71.6639825  67.0691196 115.3205015  70.2743876  67.4969022 115.7422914
  78.4526517  65.9481131 119.5948744  78.4344992  66.7690012 119.1029013
  79.3746437  65.8235206 119.8198885  74.9099571  63.4625261 120.4372252
  75.4427908  62.7013549 120.2071560  74.3813652  63.1698912 121.1796407
  78.0769266  48.5685327 115.9665894  77.7333535  49.4586968 115.8905005
  78.4448228  48.3786984 115.1035479  66.1455116  60.8918857 108.7854496
  66.9830338  61.3015865 108.5688204  66.3233384  59.9518299 108.7554690
  78.0419549  58.5593938 104.4738329  77.5266172  59.3298542 104.7126717
  77.7696857  57.8859074 105.0971391  75.6266660  53.4043638 109.5323568
  74.7708256  53.0150489 109.3529206  76.0393611  53.4835599 108.6723353
  77.1565806  50.9389982 113.9315127  76.6530602  50.9020117 113.1182933
  77.4496413  51.8482724 113.9911784  73.4008692  51.0228711 112.9381309
  74.2661689  50.8271520 112.5787199  73.4686201  50.7939063 113.8650666
  83.0153823  61.3126292 106.4091503  82.2383265  60.9737452 105.9646665
  83.6945304  61.3178916 105.7346468  77.8305852  56.4321030 106.2998110
  77.5255987  56.7467179 107.1508254  78.7836294  56.5102450 106.3425443
  76.2752284  62.5911253 107.9491064  75.7473645  61.8564013 107.6364302
  75.7739786  63.3685929 107.7031033  81.2545130  60.7860274 113.0658111
  80.5968804  61.4759535 113.1538239  82.0585529  61.1756706 113.4092097
  71.0071011  53.2530919 110.3097676  71.5814763  53.0306101 109.5770869
  71.5941994  53.3219614 111.0626277  80.0650588  59.1404646 111.1162053
  80.5782470  59.7734638 111.6183762  80.7151812  58.5405842 110.7505413
  71.3340598  55.2835380 104.3293561  70.4977911  55.6210067 104.6502836
  71.1945368  55.1484360 103.3920698  73.3093679  50.1272168 109.0372745
  72.6558091  49.8121185 108.4129360  73.2674153  49.5047909 109.7632568
  74.4204884  60.4091463 100.9526037  73.5131945  60.1780717 101.1517186
  74.9175916  59.6129083 101.1400019  77.3272963  69.1188971 103.8722724
  76.6534661  69.4220667 104.4807681  77.7138785  69.9218051 103.5228181
  76.5431419  56.6154102 113.3620393  75.6253981  56.8369049 113.2042081
  76.9591563  56.6900412 112.5032100  77.3266467  58.0145518 108.4923073
  78.0738286  58.5266915 108.1830195  77.5958057  57.6929570 109.3527467
  75.5993117  60.5104058 105.4750028  74.6904336  60.2263091 105.5722497
  75.6288201  60.9303137 104.6153334  80.8312385  64.1210648 109.2441195
  80.3774712  63.2801558 109.3006386  80.2006351  64.7572046 109.5815975
  79.7745304  55.0502634 110.4741863  79.0368061  54.5380020 110.8052105
  80.0272078  54.6103015 109.6625139  79.2745324  65.9587144 110.1791013
  79.5668298  66.5192202 109.4603379  79.7843944  66.2515705 110.9344172
  79.8756931  47.8278886 111.0683632  80.1815808  46.9676249 110.7809547
  80.6009536  48.4196506 110.8682626  66.1681288  58.2309572 109.4565230
  65.9705687  57.6378933 108.7316296  65.6127952  57.9261783 110.1741169
  74.1478011  58.1232679 111.5759823  74.2026621  57.1706515 111.5002300
  73.3369213  58.2792118 112.0601121  75.2969205  62.0512802 102.8138106
  74.8588635  61.3348661 102.3543744  76.0379646  62.2788917 102.2523198
  72.0870371  56.7409739 109.3350202  71.2738237  57.0403909 109.7415394
  72.5829365  56.3465427 110.0524684  74.2378949  66.7367496 111.2684466
  74.1955128  66.9628342 110.3392999  75.1541648  66.5030870 111.4170268
  77.6844583  57.2051563 118.1665096  78.0393971  57.4323036 119.0259561
  78.3316714  57.5369940 117.5442351  83.4142320  60.3269999 108.8714425
  83.2760218  60.5171595 107.9435614  83.0578539  61.0889382 109.3282476
  71.5784446  54.3128094 114.9511437  72.2183825  54.1716853 114.2534400
  70.7461976  54.0262608 114.5750039  83.4411699  62.3946526 113.8825696
  83.8748206  62.3021815 114.7308750  84.1543280  62.3704026 113.2445712
  72.3544750  63.6130525 111.0646429  73.1485348  63.1180845 110.8629004
  71.6436442  63.0848388 110.7014135  77.1739594  65.9948620 115.4158797
  77.2276617  66.5639556 116.1836513  76.3054376  66.1650505 115.0512834
  68.6627513  57.7573606 107.1406182  67.7325101  57.6958062 107.3576144
  68.7584985  57.2349559 106.3442823  68.5813062  54.2828419 109.7284424
  68.8419880  55.1973752 109.6193584  69.4030235  53.8152862 109.8781036
  70.0537988  55.6966176 116.8983248  70.7261041  55.4883538 116.2495897
  69.2267774  55.4988262 116.4588480  84.3027249  62.4370227 116.4158582
  84.4963139  63.3416037 116.6617857  84.2027867  61.9777646 117.2497167
  75.9563560  52.3228117 118.9148909  75.3091475  53.0218067 118.8213385
  76.7264575  52.7564261 119.2825157  76.1327694  60.1608882 116.9745729
  77.0619754  60.3120042 116.8014696  75.7118724  60.2492903 116.1194375
  74.9316026  64.1859547 114.7444266  74.7927111  63.8178331 115.6170204
  74.1430622  64.7007186 114.5728224  75.5264178  69.2868643 106.0869803
  75.7015933  68.8156686 106.9015426  74.8396966  69.9134409 106.3151064
  76.4821241  63.5641149 112.1333104  76.1471074  63.5241919 113.0290754
  75.9825187  62.8985865 111.6603514  70.4565485  58.9708779 117.6585685
  70.3185283  58.2389018 118.2597224  71.3670408  58.8817679 117.3769873
  79.4180433  60.9097184 102.4070164  78.8009603  60.1844012 102.3103216
  78.9496921  61.6706544 102.0637238  73.0847786  58.6828739 117.1469365
  73.7947404  58.0421931 117.1055983  73.0417094  58.9341633 118.0695546
  71.7976720  55.6693956 118.9665004  71.2614077  55.2184695 119.6186601
  71.2093428  55.8039865 118.2235469  70.0925263  72.4358006 112.8609663
  70.3321861  73.0676530 113.5388682  69.2494460  72.0846046 113.1475022
  71.2078978  55.1282608 101.5291468  70.3308445  55.0071409 101.1653715
  71.6836732  54.3368686 101.2770357  81.0751972  63.5835676 118.2989924
  80.1878750  63.2461598 118.4216323  81.6450523  62.8518707 118.5358689
  62.7281119  59.9159768 111.6232975  63.4152158  59.6021498 111.0353990
  62.5729247  60.8201132 111.3500227  67.5315841  54.8049964 116.0517999
  67.4474030  54.1975634 115.3168409  66.7098547  55.2958982 116.0527495
  74.6053125  68.2437128 115.2651167  74.5323296  69.0492100 115.7770472
  74.1630518  68.4429094 114.4399188  74.3942905  67.4808898 108.7753989
  73.6110426  68.0230578 108.8692213  75.0935650  67.9982878 109.1748230
  77.7039555  53.2903528 111.4188194  78.2008254  52.5373490 111.0989264
  76.9326536  53.3267844 110.8531403  85.5569312  58.9943893 113.0606485
  85.5459188  59.8768609 112.6900419  84.6886691  58.6415444 112.8661022
  77.0651808  68.1423962 117.4209326  77.7779781  68.7771427 117.3485227
  76.5741837  68.2387828 116.6049327  78.7869335  62.0475215 108.9926617
  77.8525614  62.1676677 108.8231322  78.9646004  61.1447682 108.7286627
  74.2874523  55.4320911 111.1459879  73.9172311  54.8791951 111.8340784
  74.7833616  54.8279044 110.5934879  82.1741887  57.8892534 109.5276651
  82.6402339  58.7220526 109.4536954  82.6249387  57.4237516 110.2321910
  72.1163722  65.8918406 118.2414896  72.8173181  66.5254889 118.3944291
  71.6458837  66.2333137 117.4810536  80.2418118  64.2336355 106.5262803
  80.5177962  64.1192950 107.4356678  79.3722617  63.8353840 106.4874977
  80.1458549  50.2573121 113.5667553  79.2321629  50.4877348 113.7349760
  80.5751651  50.3411565 114.4181585  79.9165008  58.4463013 116.0667447
  79.2636458  58.6938921 115.4119900  80.2945388  57.6327151 115.7329924
  76.8772182  68.4822706 110.1695617  77.0594576  67.6644362 110.6323369
  77.7005168  68.6990399 109.7320507  77.2114347  67.4090891 107.4310666
  77.7402114  66.8983346 106.8180828  77.4742567  67.0933422 108.2956199
  75.9652581  59.1882824 122.5533484  75.2893218  59.0876954 123.2235859
  76.7880215  59.0322038 123.0169481  67.7131440  65.4254761 115.1745999
  68.2984877  64.6798449 115.3073903  67.5156278  65.7358717 116.0582663
  70.5670095  68.4606008 110.1908442  69.8980470  68.9452136 109.7072482
  70.4282965  68.7075229 111.1051820  62.3049095  57.9960361 113.8950442
  62.3433194  57.4623952 114.6887560  61.7989388  57.4695566 113.2761419
  74.7075364  70.4949752 116.7891100  75.2593672  70.6581373 117.5540185
  75.0481557  71.0854189 116.1171125  69.6839857  52.8424901 117.3912985
  69.7481184  53.7039732 116.9790382  69.6206977  52.2298903 116.6585343
  69.1592130  54.9148034 121.0386019  69.7864168  54.5325111 121.6523543
  68.3020048  54.6962236 121.4041711  65.9357672  56.7224463 106.9704374
  66.2311113  55.8135142 106.9171427  65.0345708  56.7012203 106.6485376
  77.8443751  68.4431727 113.7754782  77.7194891  67.6421467 113.2665728
  78.5022842  68.9377921 113.2868752  69.4651919  54.7980460 112.9531922
  68.7438505  55.4116427 112.8139396  70.2545175  55.3338225 112.8748568
  79.9078659  66.2440747 115.4034332  78.9608995  66.1246098 115.3312659
  80.2561433  65.3563245 115.4860594  72.2678233  52.1334886 119.2272574
  72.7912635  52.3797183 119.9898883  72.0490566  52.9654921 118.8075711
  67.6645514  54.4038561 107.0943699  67.3358220  53.5235940 106.9118805
  68.0184885  54.3486229 107.9820088  76.9125093  66.0393463 111.6038684
  76.7650055  65.1110171 111.7846254  77.7378586  66.0613554 111.1195760
  70.7787337  54.6911531 107.4619177  71.1183410  55.2197452 106.7397785
  71.2259458  55.0291937 108.2377743  80.5159215  66.8622022 112.6903557
  81.4405762  66.6564884 112.5528008  80.3474518  66.6138423 113.5992899
  73.4730778  53.0748581 116.9122245  73.1327598  52.2756394 117.3142924
  72.7669784  53.3750292 116.3399078  74.1247250  50.1597894 115.3649568
  74.9473319  49.6858372 115.2428458  74.3685313  50.9388377 115.8648254
  72.7655484  53.1886152 105.6612469  73.4863847  53.5667405 105.1576186
  72.1420788  53.9075029 105.7647447  76.9086607  53.8931301 106.5970802
  77.1250221  54.7755939 106.2959630  76.4280674  53.5017515 105.8676444
  71.6485828  56.8517014 113.1741546  71.5030409  57.1657317 114.0665828
  71.1711032  57.4701915 112.6212445  73.5082211  53.8419562 113.2222436
  73.4943780  52.9460656 112.8854734  74.2254639  53.8490226 113.8560722
  75.3608342  54.2756903 115.2675563  75.1026120  55.1973973 115.2659894
  74.8293382  53.8787337 115.9576027  80.3054531  67.3807690 108.0465649
  80.4791408  66.8154112 107.2939501  80.7983422  68.1808585 107.8645139
  66.1231491  59.3922359 116.1129207  65.5784959  60.1682167 116.2449482
  67.0010841  59.7393163 115.9548329  72.9119107  52.7233943 108.4910006
  73.0335018  51.7950589 108.6900893  72.6221150  52.7372629 107.5788321
  75.7810298  50.4088853 111.6276726  75.8031995  50.4728186 110.6728705
  76.1978357  49.5693362 111.8217232  86.1593922  60.1444113 109.6655948
  86.6025068  59.3951438 109.2675072  85.2820432  60.1354249 109.2829680
  81.2929703  66.6974454 105.1462547  81.9880608  67.3181147 105.3649862
  81.6352853  65.8469805 105.4214925  66.9097513  58.5192255 119.0059364
  66.1679249  58.6674890 119.5923995  66.5890257  58.7800521 118.1426114
  83.1921126  64.1474160 106.6749878  83.7172451  64.4861432 105.9499198
  83.1043479  63.2121175 106.4913012  74.8541175  68.0608233 118.8039754
  75.1628302  67.8157380 119.6762454  75.6516657  68.2654872 118.3158624
  74.8761787  70.2146143 111.0345131  74.4366777  69.7222522 111.7277988
  75.6269904  69.6719111 110.7937206  67.3554126  66.4057684 111.0369759
  68.1812146  66.1061456 110.6568402  67.0048178  65.6365306 111.4859548
  72.3235659  65.7584152 113.1067432  71.7015669  65.0954857 112.8069660
  72.9940526  65.7845284 112.4241080  65.5562731  64.3244010 111.9958692
  64.7194640  63.8966185 111.8142694  65.5286377  64.5176454 112.9329484
  72.3960187  54.2365940 122.6999939  72.4448342  55.1128063 122.3177708
  72.9382701  53.6943333 122.1271582  83.0012908  61.6299530 119.2933804
  83.0510912  61.4649537 120.2349327  82.8926831  60.7626789 118.9031685
  71.8849166  64.3088075 106.5825893  72.0337287  64.9923540 105.9292566
  72.6915610  64.2893165 107.0975349  80.2916670  57.6130458 120.6093111
  81.1926533  57.4736923 120.3177109  80.3664644  57.7784912 121.5491288
  74.6259475  54.9897312 119.4546297  73.7562785  55.2830878 119.1828886
  74.8618956  55.5737757 120.1753561  85.7026787  61.6149351 112.0578396
  86.5373678  62.0539155 112.2215956  85.8385916  61.1388004 111.2386642
  82.7518293  59.1729086 118.0055884  83.2272414  59.3656732 117.1974735
  81.8283858  59.2288272 117.7599267  69.6401799  60.3353253 107.5886962
  69.3947841  59.4315583 107.7867172  69.8097714  60.3370403 106.6466440
  77.3298509  51.2076929 116.9711718  77.8480453  51.9437956 116.6458206
  76.9753642  51.5140923 117.8058477  68.9097447  56.0681611 105.0873123
  68.2166692  56.1425966 104.4313159  68.6649199  55.3041954 105.6094640
  77.5811103  47.6277212 112.4912614  77.8612857  46.9600401 113.1173041
  78.3661710  47.8206307 111.9787278  75.3844572  66.8036206 104.0537640
  74.8118539  67.4226393 103.6008112  75.9577365  67.3535567 104.5877562
  81.4519962  56.0494846 116.2384189  82.4037385  56.1492944 116.2596413
  81.2823412  55.2573114 116.7482274  79.4734341  53.1350429 116.4243590
  78.8784273  53.4155442 115.7290079  79.1884038  53.6244330 117.1960331
  78.6041832  67.0873356 105.1846223  79.5372505  67.0218918 105.3879098
  78.5165044  67.9229623 104.7260755  81.2329848  66.4039226 102.1450170
  81.1543480  66.0699090 103.0385928  82.0539515  66.8960994 102.1441643
  83.9308039  59.2700966 115.3526489  83.8984360  58.3316966 115.5386173
  84.5408663  59.3485002 114.6192314  75.7691370  58.1397019 101.3953693
  76.7150475  58.0103227 101.4642111  75.3905615  57.4011680 101.8723121
  84.0802528  56.0612009 115.3984772  83.5641577  55.2770466 115.2114701
  84.9642476  55.7330726 115.5631292  81.7413255  49.8053025 111.3580585
  81.5438076  49.4968113 112.2423917  82.3512960  50.5314663 111.4878515
  89.7484589  60.3316972 114.4932526  90.4787978  60.0702261 115.0540229
  89.1391535  59.5945694 114.5334594  87.8299886  58.4724835 115.0906977
  87.1033050  58.3380800 114.4823469  87.4147173  58.7801664 115.8963695
  73.9534287  56.0646995 101.3308578  73.0465743  55.7680108 101.4071292
  74.2310268  55.7676813 100.4642864  64.8712228  57.3853358 111.7807625
  64.5515012  56.5318667 111.4881999  64.3245656  57.6001936 112.5365592
  68.6492135  60.1015799 115.4977131  68.8678145  61.0332907 115.5165165
  69.0617909  59.7423774 116.2831935  75.5696353  50.6083885 107.4852819
  74.7597081  50.2630970 107.8608066  76.2580770  50.2991428 108.0740431
  77.4986901  49.6861931 109.1077116  78.0517940  50.1057385 109.7667139
  77.7356988  48.7597680 109.1500072  73.5220001  55.6749005 124.8879880
  73.4216728  56.6243362 124.8191971  73.3041543  55.3467244 124.0155950
  72.7233072  52.9233930 101.4720557  73.5852236  53.2488828 101.7316375
  72.9083416  52.1365426 100.9593623  64.7400488  61.0056270 113.7500746
  64.0463959  60.5910223 113.2370701  65.4873479  61.0476806 113.1534165
  80.8765709  51.7962457 108.6155780  80.2964378  52.4547261 108.2333833
  80.6101641  50.9739801 108.2043198  79.3269275  51.1967514 110.8177101
  79.8269053  51.3084049 110.0091420  79.9704883  50.8928567 111.4577909
  73.3851271  59.1046144 123.7044942  72.9018352  59.9046504 123.9108831
  73.4712210  59.1154089 122.7512386  66.6537230  60.9374524 111.6266761
  66.6307918  61.0362211 110.6748644  66.9637867  61.7839674 111.9483927
  69.3124608  62.9950679 115.7413375  70.2667862  62.9634621 115.6743307
  69.1137132  62.5341302 116.5563601  69.9023990  61.5651795 118.3084173
  70.7216879  62.0595873 118.3319010  70.1760798  60.6483763 118.2801741
  79.6590587  53.9562547 107.6712129  78.7716442  54.2412198 107.4532323
  80.0744576  53.7956310 106.8239406  83.0105123  53.9809068 111.3866468
  83.7865513  54.4705520 111.6591085  82.2853257  54.4067122 111.8438337
  85.4477681  54.6936687 112.4440409  86.0422172  54.4532423 111.7333717
  85.5204265  53.9743818 113.0713945  67.6674837  68.5370298 112.7583573
  67.5329305  67.7770699 112.1921571  67.2506899  69.2611198 112.2912362
  78.8033800  63.7207222 101.7660149  79.5069650  63.9257224 102.3817804
  78.0796449  64.2883984 102.0309232  79.6331610  59.4717083 107.8862419
  79.5766812  59.9285634 107.0470051  80.1859953  58.7107768 107.7085262
  83.4436416  55.2606815 108.7112538  83.1873350  54.8603450 109.5420746
  82.8189284  55.9750609 108.5862677  87.7548754  58.0002888 111.2183830
  87.1948312  58.0696077 111.9915392  87.1492257  57.8243873 110.4983326
  70.8243963  69.4339615 112.9702016  70.7076347  70.3785048 112.8680706
  70.0036409  69.1313177 113.3587815  80.7120497  64.1589751 103.8158609
  81.5466101  63.7270949 103.6336083  80.5504840  63.9871765 104.7435503
  80.3666390  60.6621864 105.1814948  80.3115193  60.4966136 104.2403392
  79.7412445  61.3697897 105.3377138  65.1558905  55.8989929 119.0076370
  65.8017768  55.3888883 119.4963595  64.9476056  56.6358610 119.5819795
  73.6762515  50.1629973 104.7600266  73.6641185  51.1071813 104.9168537
  74.5685937  49.9800119 104.4659728  71.8498477  70.0867877 116.1857944
  72.7525724  70.1191487 116.5024439  71.6235847  69.1568328 116.2004280
  73.6052079  68.8398864 112.8468023  72.6547710  68.8400725 112.7332395
  73.9084565  68.0931598 112.3304058  77.4914635  46.7572750 109.0146203
  76.7247030  46.2031236 109.1602886  77.9025339  46.8294619 109.8760355
  69.4956396  53.0457546 123.1051384  70.3587857  52.6894350 123.3154709
  68.9221806  52.7071440 123.7926789  82.0081294  76.4822306 109.8372201
  81.4446160  76.3912243 109.0688489  81.8933690  75.6622211 110.3174694
  87.5880853  80.1493274 105.1486666  86.9368833  80.7347355 104.7620680
  88.3825216  80.6799469 105.2081703  81.5136480  77.2382411 105.5473800
  82.2867356  76.6911398 105.4086676  81.8661879  78.1026661 105.7588262
  83.8502758  73.3975077 103.1792250  84.1028279  72.8756599 102.4175713
  82.9127317  73.2341223 103.2818934  88.8946041  72.4010856 110.9866993
  89.6809130  71.9830279 110.6357410  89.1584745  73.3056948 111.1548642
  89.0656118  77.8383706 105.6855650  88.4301951  77.9118333 106.3976555
  88.7353525  78.4277305 105.0074730  83.5699047  75.3003183 105.3816625
  83.4535305  74.6248087 106.0497710  83.6801307  74.8135557 104.5648778
  85.9130588  74.7613330 109.0863314  85.5488795  74.2343951 109.7976236
  86.7697704  74.3711800 108.9129800  85.5536075  69.7903230 104.0824663
  85.7210477  70.6583467 104.4495134  85.3633244  69.9530512 103.1585952
  81.7623889  74.7034006 111.7827198  80.8374386  74.5710220 111.9904890
  82.0108303  75.4828225 112.2797140  85.5325296  72.2460888 105.0671330
  85.4124921  72.6917938 105.9056810  84.8377884  72.5946205 104.5084868
  79.1232701  74.3467279 112.6170987  79.2525082  74.6001758 113.5310399
  78.4430152  74.9394987 112.2975642  91.2310362  72.7182361 105.8951664
  92.1428218  72.9509748 105.7199361  90.7220009  73.3019405 105.3326742
  88.5746337  68.8940397 114.1441525  87.7130816  69.1921650 114.4358262
  88.6008771  69.1110796 113.2122557  85.3907906  77.4382587 110.5515330
  85.8546252  77.7170290 109.7619953  85.1264704  76.5366032 110.3688421
  84.3276792  73.5605740 107.3604896  85.0300835  74.0126783 107.8278822
  83.9957421  72.9189559 107.9884789  78.0702126  71.8189292 112.6622029
  77.2801180  72.0746821 112.1862140  78.5613373  72.6337630 112.7674070
  80.0216871  72.1833872 109.6205506  79.2248035  72.2952566 110.1389001
  79.7942464  72.5220524 108.7546396  76.3539829  72.0719783 115.0937020
  76.6047867  72.9566793 115.3594596  76.8899377  71.8924384 114.3212112
  85.5670557  80.3746682 107.4367001  85.4316232  81.2198218 107.8651849
  86.1080369  80.5765960 106.6732935  79.0199954  77.8922120 108.0094926
  79.5324475  78.6865371 108.1600490  79.6722667  77.1948411 107.9428527
  88.9163020  63.8977244 115.9665894  88.5727290  64.7878886 115.8905005
  89.2841983  63.7078902 115.1035479  76.9848871  76.2210775 108.7854496
  77.8224093  76.6307783 108.5688204  77.1627139  75.2810217 108.7554690
  88.8813303  73.8885855 104.4738329  88.3659926  74.6590460 104.7126717
  88.6090611  73.2150992 105.0971391  86.4660414  68.7335556 109.5323568
  85.6102010  68.3442407 109.3529206  86.8787366  68.8127517 108.6723353
  87.9959561  66.2681899 113.9315127  87.4924356  66.2312035 113.1182933
  88.2890168  67.1774642 113.9911784  84.2402447  66.3520629 112.9381309
  85.1055443  66.1563438 112.5787199  84.3079955  66.1230981 113.8650666
  93.8547577  76.6418210 106.4091503  93.0777020  76.3029370 105.9646665
  94.5339058  76.6470833 105.7346468  88.6699606  71.7612947 106.2998110
  88.3649742  72.0759097 107.1508254  89.6230048  71.8394367 106.3425443
  87.1146038  77.9203171 107.9491064  86.5867400  77.1855930 107.6364302
  86.6133541  78.6977847 107.7031033  81.8464766  68.5822837 110.3097676
  82.4208518  68.3598019 109.5770869  82.4335748  68.6511532 111.0626277
  82.1734353  70.6127298 104.3293561  81.3371665  70.9501985 104.6502836
  82.0339122  70.4776278 103.3920698  84.1487433  65.4564086 109.0372745
  83.4951846  65.1413103 108.4129360  84.1067907  64.8339826 109.7632568
  85.2598638  75.7383381 100.9526037  84.3525700  75.5072635 101.1517186
  85.7569670  74.9421000 101.1400019  88.1666717  84.4480888 103.8722724
  87.4928416  84.7512585 104.4807681  88.5532539  85.2509969 103.5228181
  88.1660221  73.3437435 108.4923073  88.9132040  73.8558832 108.1830195
  88.4351811  73.0221488 109.3527467  86.4386872  75.8395976 105.4750028
  85.5298091  75.5555009 105.5722497  86.4681955  76.2595054 104.6153334
  90.6139059  70.3794551 110.4741863  89.8761815  69.8671938 110.8052105
  90.8665832  69.9394933 109.6625139  90.7150686  63.1570803 111.0683632
  91.0209563  62.2968167 110.7809547  91.4403291  63.7488424 110.8682626
  77.0075042  73.5601490 109.4565230  76.8099442  72.9670851 108.7316296
  76.4521706  73.2553700 110.1741169  84.9871766  73.4524597 111.5759823
  85.0420375  72.4998433 111.5002300  84.1762968  73.6084036 112.0601121
  86.1362959  77.3804720 102.8138106  85.6982389  76.6640579 102.3543744
  86.8773400  77.6080834 102.2523198  82.9264126  72.0701656 109.3350202
  82.1131991  72.3695827 109.7415394  83.4223120  71.6757345 110.0524684
  82.4178200  69.6420012 114.9511437  83.0577580  69.5008771 114.2534400
  81.5855731  69.3554525 114.5750039  79.5021268  73.0865524 107.1406182
  78.5718856  73.0249979 107.3576144  79.5978740  72.5641477 106.3442823
  79.4206817  69.6120337 109.7284424  79.6813634  70.5265670 109.6193584
  80.2423989  69.1444779 109.8781036  90.2574187  76.2389101 102.4070164
  89.6403358  75.5135929 102.3103216  89.7890676  76.9998462 102.0637238
  82.0472733  70.4574526 101.5291468  81.1702199  70.3363326 101.1653715
  82.5230486  69.6660604 101.2770357  73.5674873  75.2451685 111.6232975
  74.2545913  74.9313415 111.0353990  73.4123002  76.1493050 111.3500227
  78.3709595  70.1341882 116.0517999  78.2867784  69.5267551 115.3168409
  77.5492302  70.6250900 116.0527495  88.5433309  68.6195445 111.4188194
  89.0402009  67.8665408 111.0989264  87.7720291  68.6559762 110.8531403
  85.1268278  70.7612828 111.1459879  84.7566065  70.2083869 111.8340784
  85.6227370  70.1570962 110.5934879  90.9852304  65.5865039 113.5667553
  90.0715384  65.8169266 113.7349760  91.4145405  65.6703483 114.4181585
  73.1442849  73.3252279 113.8950442  73.1826949  72.7915869 114.6887560
  72.6383142  72.7987484 113.2761419  80.5233612  68.1716819 117.3912985
  80.5874938  69.0331650 116.9790382  80.4600732  67.5590821 116.6585343
  76.7751427  72.0516381 106.9704374  77.0704868  71.1427059 106.9171427
  75.8739463  72.0304120 106.6485376  80.3045674  70.1272377 112.9531922
  79.5832260  70.7408345 112.8139396  81.0938930  70.6630142 112.8748568
  78.5039268  69.7330478 107.0943699  78.1751975  68.8527857 106.9118805
  78.8578639  69.6778147 107.9820088  81.6181092  70.0203448 107.4619177
  81.9577164  70.5489370 106.7397785  82.0653212  70.3583854 108.2377743
  84.9641004  65.4889811 115.3649568  85.7867074  65.0150290 115.2428458
  85.2079068  66.2680295 115.8648254  83.6049239  68.5178070 105.6612469
  84.3257601  68.8959323 105.1576186  82.9814543  69.2366947 105.7647447
  87.7480362  69.2223219 106.5970802  87.9643976  70.1047857 106.2959630
  87.2674429  68.8309432 105.8676444  82.4879583  72.1808932 113.1741546
  82.3424164  72.4949235 114.0665828  82.0104787  72.7993832 112.6212445
  84.3475966  69.1711480 113.2222436  84.3337535  68.2752573 112.8854734
  85.0648394  69.1782144 113.8560722  83.7512862  68.0525860 108.4910006
  83.8728773  67.1242506 108.6900893  83.4614904  68.0664546 107.5788321
  86.6204052  65.7380771 111.6276726  86.6425749  65.8020104 110.6728705
  87.0372111  64.8985279 111.8217232  78.1947881  81.7349601 111.0369759
  79.0205901  81.4353373 110.6568402  77.8441933  80.9657224 111.4859548
  76.3956486  79.6535928 111.9958692  75.5588394  79.2258102 111.8142694
  76.3680131  79.8468371 112.9329484  82.7242921  79.6379993 106.5825893
  82.8731041  80.3215457 105.9292566  83.5309364  79.6185083 107.0975349
  80.4795554  75.6645171 107.5886962  80.2341596  74.7607501 107.7867172
  80.6491468  75.6662321 106.6466440  79.7491201  71.3973528 105.0873123
  79.0560446  71.4717883 104.4313159  79.5042953  70.6333872 105.6094640
  88.4204858  62.9569130 112.4912614  88.7006612  62.2892319 113.1173041
  89.2055465  63.1498225 111.9787278  86.2238326  82.1328123 104.0537640
  85.6512293  82.7518311 103.6008112  86.7971120  82.6827485 104.5877562
  89.4435586  82.4165274 105.1846223  90.3766259  82.3510835 105.3879098
  89.3558799  83.2521540 104.7260755  92.0723603  81.7331144 102.1450170
  91.9937234  81.3991008 103.0385928  92.8933270  82.2252912 102.1441643
  86.6085125  73.4688936 101.3953693  87.5544229  73.3395144 101.4642111
  86.2299370  72.7303598 101.8723121  92.5807009  65.1344942 111.3580585
  92.3831830  64.8260030 112.2423917  93.1906715  65.8606581 111.4878515
  84.7928042  71.3938913 101.3308578  83.8859497  71.0972025 101.4071292
  85.0704023  71.0968731 100.4642864  75.7105982  72.7145276 111.7807625
  75.3908767  71.8610584 111.4881999  75.1639410  72.9293854 112.5365592
  86.4090108  65.9375802 107.4852819  85.5990836  65.5922887 107.8608066
  87.0974525  65.6283346 108.0740431  88.3380656  65.0153849 109.1077116
  88.8911695  65.4349303 109.7667139  88.5750742  64.0889597 109.1500072
  83.5626827  68.2525848 101.4720557  84.4245991  68.5780746 101.7316375
  83.7477171  67.4657344 100.9593623  75.5794242  76.3348187 113.7500746
  74.8857714  75.9202140 113.2370701  76.3267233  76.3768724 113.1534165
  91.7159463  67.1254374 108.6155780  91.1358132  67.7839178 108.2333833
  91.4495396  66.3031719 108.2043198  90.1663029  66.5259432 110.8177101
  90.6662808  66.6375966 110.0091420  90.8098637  66.2220485 111.4577909
  77.4930985  76.2666441 111.6266761  77.4701673  76.3654129 110.6748644
  77.8031621  77.1131592 111.9483927  90.4984341  69.2854465 107.6712129
  89.6110196  69.5704115 107.4532323  90.9138330  69.1248228 106.8239406
  89.6427555  79.0499139 101.7660149  90.3463405  79.2549142 102.3817804
  88.9190203  79.6175901 102.0309232  90.4725365  74.8009001 107.8862419
  90.4160566  75.2577552 107.0470051  91.0253707  74.0399685 107.7085262
  94.2830171  70.5898732 108.7112538  94.0267105  70.1895368 109.5420746
  93.6583039  71.3042526 108.5862677  91.5514252  79.4881669 103.8158609
  92.3859856  79.0562867 103.6336083  91.3898595  79.3163682 104.7435503
  91.2060144  75.9913782 105.1814948  91.1508948  75.8258053 104.2403392
  90.5806199  76.6989815 105.3377138  84.5156270  65.4921891 104.7600266
  84.5034939  66.4363731 104.9168537  85.4079691  65.3092036 104.4659728
  88.3308389  62.0864667 109.0146203  87.5640785  61.5323154 109.1602886
  88.7419094  62.1586536 109.8760355  92.8866487  85.7866443 101.5291468
  92.0095954  85.6655244 101.1653715  93.3624241  84.9952522 101.2770357
  94.4020581  83.5817765 101.4720557  95.2639745  83.9072664 101.7316375
  94.5870925  82.7949261 100.9593623  44.8091700   0.1375340  90.5968030
  44.1353399   0.4407037  91.2052988  45.1957522   0.9404420  90.2473487
  48.7148586  -2.5774404  88.8695477  48.6362218  -2.9114541  89.7631235
  49.5358253  -2.0852636  88.8686949  46.2852538  -5.2606409  88.4905455
  46.9888388  -5.0556406  89.1063111  45.5615187  -4.6929647  88.7554539
  49.4900032   7.5008676  96.5617508  48.9264897   7.4098613  95.7933795
  49.3752427   6.6808580  97.0420000  55.0699591  11.1679644  91.8731973
  54.4187571  11.7533724  91.4865986  55.8643954  11.6985839  91.9327010
  48.9955218   8.2568781  92.2719107  49.7686094   7.7097768  92.1331983
  49.3480617   9.1213030  92.4833568  51.3321496   4.4161447  89.9037557
  51.5847017   3.8942968  89.1421020  50.3946055   4.2527592  90.0064240
  56.3764779   3.4197225  97.7112300  57.1627868   3.0016649  97.3602717
  56.6403483   4.3243318  97.8793948  56.5474856   8.8570076  92.4100957
  55.9120689   8.9304702  93.1221862  56.2172263   9.4463675  91.7320036
  61.7773206   3.3572459  98.6145279  62.5098378   2.7871675  98.8483108
  61.0212562   2.9694059  99.0551784  51.0517785   6.3189553  92.1061932
  50.9354043   5.6434456  92.7743016  51.1620045   5.8321927  91.2894085
  53.3949326   5.7799700  95.8108621  53.0307533   5.2530321  96.5221543
  54.2516442   5.3898169  95.6375106  53.0354813   0.8089600  90.8069970
  53.2029215   1.6769836  91.1740441  52.8451982   0.9716881  89.8831259
  53.0144033   3.2647257  91.7916636  52.8943659   3.7104308  92.6302117
  52.3196622   3.6132575  91.2330175  50.7750926  16.0350899  95.4406768
  50.6974955  16.9858724  95.5195248  50.1712569  15.6896772  96.0981694
  58.7129100   3.7368730  92.6196970  59.6246956   3.9696117  92.4444668
  58.2038747   4.3205775  92.0572049  57.3198682   8.7194549 100.0110552
  56.6907544   8.8840263  99.3086620  56.9324344   9.1336158 100.7821516
  61.1987914   9.6548987  97.3654916  60.5138952  10.0347888  96.8151949
  61.2831763  10.2644313  98.0986863  52.8726644   8.4568957  97.2760637
  53.3364989   8.7356660  96.4865260  52.6083442   7.5552402  97.0933728
  51.8095530   4.5792109  94.0850202  52.5119573   5.0313153  94.5524129
  51.4776158   3.9375928  94.7130095  59.5684673  10.1780901 102.1372617
  60.3902117   9.7761088 101.8555298  59.5647076  10.0749135 103.0888732
  67.6590666   6.5219650  98.4857588  66.9054375   5.9527048  98.3301592
  67.7938208   6.4882314  99.4328223  53.0489295  11.3933052  94.1612307
  52.9134969  12.2384588  94.5897155  53.5899107  11.5952330  93.3978241
  46.5018692   8.9108490  94.7340232  47.0143212   9.7051740  94.8845797
  47.1541405   8.2134780  94.6673834  48.3113577  12.0274246  96.8162986
  48.4880205  12.9492211  96.6283970  49.1070410  11.7132665  97.2457365
  56.3632041   4.9072225  91.1983636  55.8478664   5.6776830  91.4372023
  56.0909349   4.2337361  91.8216697  61.3366315   7.6604580  93.1336809
  60.5595758   7.3215739  92.6891972  62.0157796   7.6657203  92.4591774
  56.1518344   2.7799317  93.0243417  55.8468480   3.0945466  93.8753560
  57.1048786   2.8580737  93.0670750  54.5964776   8.9389540  94.6736371
  54.0686137   8.2042300  94.3609609  54.0952279   9.7164217  94.4276339
  59.5757622   7.1338561  99.7903417  58.9181296   7.8237822  99.8783546
  60.3798021   7.5234993 100.1337404  58.3863081   5.4882934  97.8407359
  58.8994962   6.1212925  98.3429069  59.0364305   4.8884129  97.4750719
  49.6553091   1.6313668  91.0538868  48.8190403   1.9688354  91.3748143
  49.5157860   1.4962647  90.1166005  52.7417376   6.7569751  87.6771344
  51.8344438   6.5259004  87.8762493  53.2388408   5.9607370  87.8645326
  55.6485455  15.4667258  90.5968030  54.9747154  15.7698955  91.2052988
  56.0351277  16.2696338  90.2473487  55.6478959   4.3623805  95.2168380
  56.3950778   4.8745202  94.9075502  55.9170549   4.0407858  96.0772773
  53.9205609   6.8582346  92.1995334  53.0116829   6.5741378  92.2967804
  53.9500693   7.2781424  91.3398641  59.1524877  10.4688935  95.9686502
  58.6987204   9.6279845  96.0251692  58.5218844  11.1050333  96.3061282
  57.5957816  12.3065432  96.9036320  57.8880790  12.8670489  96.1848686
  58.1056437  12.5993993  97.6589479  53.6181697   8.3991089  89.5383413
  53.1801127   7.6826948  89.0789050  54.3592138   8.6267204  88.9768504
  52.5591441  13.0845783  97.9929773  52.5167620  13.3106629  97.0638305
  53.4754140  12.8509157  98.1415574  61.7354812   6.6748286  95.5959731
  61.5972711   6.8649882  94.6680921  61.3791031   7.4367669  96.0527783
  61.7624192   8.7424813 100.6071003  62.1960698   8.6500102 101.4554057
  62.4755772   8.7182314  99.9691019  50.6757242   9.9608812  97.7891736
  51.4697841   9.4659132  97.5874311  49.9648934   9.4326675  97.4259441
  55.4952087  12.3426907 102.1404103  55.5489109  12.9117844 102.9081819
  54.6266868  12.5128792 101.7758141  46.9840006   4.1051894  93.8651489
  46.0537594   4.0436349  94.0821451  47.0797478   3.5827846  93.0688130
  53.8476670  15.6346930  92.8115109  54.0228426  15.1634973  93.6260732
  53.1609458  16.2612696  93.0396370  54.8033733   9.9119436  98.8578411
  54.4683566   9.8720206  99.7536061  54.3037679   9.2464152  98.3848821
  57.7392925   7.2575471  89.1315470  57.1222095   6.5322299  89.0348523
  57.2709413   8.0184831  88.7882545  48.4137755  18.7836293  99.5854970
  48.6534354  19.4154817 100.2633988  47.5706952  18.4324333  99.8720329
  49.5291471   1.4760895  88.2536775  48.6520937   1.3549696  87.8899021
  50.0049224   0.6846973  88.0015663  52.9265617  14.5915415 101.9896474
  52.8535789  15.3970387 102.5015778  52.4843010  14.7907381 101.1644495
  52.7155397  13.8287185  95.4999295  51.9322919  14.3708866  95.5937520
  53.4148142  14.3461165  95.8993536  63.8781804   5.3422180  99.7851792
  63.8671681   6.2246896  99.4145725  63.0099184   4.9893731  99.5906329
  57.1081828   8.3953502  95.7171924  56.1738106   8.5154965  95.5476628
  57.2858496   7.4925969  95.4531934  60.4954379   4.2370821  96.2521958
  60.9614831   5.0698813  96.1782261  60.9461879   3.7715803  96.9567217
  58.5630610  10.5814643  93.2508110  58.8390454  10.4671237  94.1601984
  57.6935109  10.1832128  93.2120283  55.1984674  14.8300994  96.8940924
  55.3807069  14.0122650  97.3568676  56.0217660  15.0468686  96.4565814
  55.5326840  13.7569179  94.1555972  56.0614606  13.2461633  93.5426134
  55.7955059  13.4411709  95.0201505  48.8882588  14.8084295  96.9153748
  48.2192963  15.2930423  96.4317788  48.7495457  15.0553516  97.8297127
  53.0287856  16.8428039 103.5136407  53.5806164  17.0059660 104.2785492
  53.3694050  17.4332477 102.8416431  56.1656243  14.7910014 100.5000089
  56.0407383  13.9899754  99.9911034  56.8235334  15.2856208 100.0114059
  58.2291152  12.5919035 102.1279639  57.2821487  12.4724386 102.0557966
  58.5773925  11.7041533 102.2105900  55.2337585  12.3871751  98.3283991
  55.0862547  11.4588458  98.5091561  56.0591079  12.4091841  97.8441066
  58.8371707  13.2100309  99.4148864  59.7618254  13.0043171  99.2773315
  58.6687010  12.9616711 100.3238205  51.0867976  -0.4635561  92.3857776
  51.8076339  -0.0854308  91.8821493  50.4633281   0.2553316  92.4892754
  55.2299099   0.2409588  93.3216108  55.4462714   1.1234226  93.0204936
  54.7493167  -0.1504198  92.5921750  58.6267023  13.7285977  94.7710955
  58.8003901  13.1632399  94.0184808  59.1195914  14.5286872  94.5890445
  64.4806414   6.4922400  96.3901255  64.9237560   5.7429725  95.9920378
  63.6032925   6.4832536  96.0074987  59.6142196  13.0452741  91.8707854
  60.3093100  13.6659434  92.0895168  59.9565346  12.1948093  92.1460231
  61.5133619  10.4952447  93.3995184  62.0384943  10.8339720  92.6744504
  61.4255971   9.5599462  93.2158319  53.1974279  16.5624430  97.7590437
  52.7579270  16.0700809  98.4523294  53.9482396  16.0197398  97.5182513
  45.6766618  12.7535971  97.7615066  46.5024638  12.4539743  97.3813709
  45.3260670  11.9843593  98.2104854  50.6448152  12.1062439  99.8312739
  50.0228161  11.4433144  99.5314967  51.3153019  12.1323571  99.1486387
  50.2061659  10.6566363  93.3071200  50.3549779  11.3401827  92.6537872
  51.0128102  10.6371453  93.8220655  64.0239279   7.9627638  98.7823703
  64.8586170   8.4017442  98.9461263  64.1598408   7.4866291  97.9631948
  47.9614292   6.6831540  94.3132269  47.7160333   5.7793870  94.5112479
  48.1310206   6.6848691  93.3711747  47.2309939   2.4159898  91.8118430
  46.5379184   2.4904253  91.1558466  46.9861691   1.6520241  92.3339947
  53.7057064  13.1514493  90.7782947  53.1331031  13.7704680  90.3253419
  54.2789858  13.7013855  91.3122869  56.9254324  13.4351643  91.9091529
  57.8584997  13.3697205  92.1124405  56.8377537  14.2707910  91.4506062
  59.5542341  12.7517513  88.8695477  59.4755972  12.4177377  89.7631235
  60.3752007  13.2439281  88.8686949  54.0903863   4.4875306  88.1199000
  55.0362967   4.3581514  88.1887418  53.7118108   3.7489968  88.5968428
  68.0697082   6.6795260 101.2177832  68.8000470   6.4180548 101.7785536
  67.4604027   5.9423982 101.2579900  66.1512379   4.8203122 101.8152284
  65.4245542   4.6859087 101.2068775  65.7359666   5.1279951 102.6209002
  52.2746780   2.4125282  88.0553885  51.3678235   2.1158395  88.1316598
  52.5522761   2.1155100  87.1888171  51.0445564  -0.7287783  88.1965864
  51.9064728  -0.4032884  88.4561681  51.2295908  -1.5156287  87.6838930
  59.1978201  -1.8559256  95.3401087  58.6176870  -1.1974452  94.9579139
  58.9314133  -2.6781912  94.9288505  57.9803079   0.3040834  94.3957435
  57.0928934   0.5890485  94.1777630  58.3957068   0.1434598  93.5484712
  45.9887329  14.8848585  99.4828880  45.8541797  14.1248986  98.9166878
  45.5719392  15.6089485  99.0157669  57.1246292  10.0685509  88.4905455
  57.8282142  10.2735511  89.1063111  56.4008941  10.6362271  88.7554539
  57.9544103   5.8195370  94.6107725  57.8979304   6.2763922  93.7715358
  58.5072445   5.0586055  94.4330568  61.7648908   1.6085102  95.4357845
  61.5085843   1.2081738  96.2666053  61.1401777   2.3228896  95.3107984
  66.0761246   4.3481175  97.9429136  65.5160804   4.4174365  98.7160698
  65.4704750   4.1722160  97.2228633  49.1456455  15.7817902  99.6947323
  49.0288839  16.7263335  99.5926013  48.3248901  15.4791464 100.0833122
  59.0332990  10.5068038  90.5403915  59.8678594  10.0749237  90.3581390
  58.8717333  10.3350052  91.4680810  58.6878882   7.0100151  91.9060255
  58.6327686   6.8444423  90.9648699  58.0624937   7.7176184  92.0622444
  51.9975007  -3.4891740  91.4845573  51.9853677  -2.5449900  91.6413844
  52.8898429  -3.6721594  91.1905034  51.9264571  15.1877151  99.5713330
  50.9760202  15.1879012  99.4577702  52.2297057  14.4409885  99.0549364
  67.6617265  21.0237689 100.6359092  68.2995675  20.9044437  99.9322432
  67.5438108  21.9718533 100.6947044  64.4706971  20.9765117 100.5720617
  64.1325483  20.8606182  99.6841152  65.3396739  20.5756282 100.5521623
  60.3293787  22.8300594  96.5617508  59.7658652  22.7390531  95.7933795
  60.2146182  22.0100498  97.0420000  64.9526754  22.1299969 106.5306822
  64.9415395  21.7352767 105.6587326  65.1147394  21.3966042 107.1240594
  57.8758219  24.3251785  99.4001728  58.6679511  23.9842610  98.9848027
  58.1154869  24.4346760 100.3203881  65.9093345  26.4971561  91.8731973
  65.2581325  27.0825642  91.4865986  66.7037708  27.0277756  91.9327010
  59.8348973  23.5860699  92.2719107  60.6079849  23.0389686  92.1331983
  60.1874372  24.4504948  92.4833568  61.6734015  24.9137081 105.4786006
  61.3823881  25.8182712 105.3632673  62.3091000  24.9553608 106.1930076
  62.5990222  22.2913929 102.0687366  63.1953794  22.0669952 101.3544329
  62.6565194  21.5498675 102.6712814  62.1715250  19.7453365  89.9037557
  62.4240771  19.2234886  89.1421020  61.2339810  19.5819510  90.0064240
  67.2158533  18.7489143  97.7112300  68.0021623  18.3308566  97.3602717
  67.4797238  19.6535235  97.8793948  67.3868611  24.1861993  92.4100957
  66.7514444  24.2596620  93.1221862  67.0566017  24.7755592  91.7320036
  72.6166960  18.6864376  98.6145279  73.3492132  18.1163593  98.8483108
  71.8606316  18.2985977  99.0551784  61.8911539  21.6481471  92.1061932
  61.7747797  20.9726374  92.7743016  62.0013799  21.1613845  91.2894085
  64.2343080  21.1091618  95.8108621  63.8701287  20.5822239  96.5221543
  65.0910196  20.7190087  95.6375106  70.1392381  12.3985950 103.0739887
  69.8075706  13.2681361 102.8501102  69.5437994  12.0822234 103.7533918
  63.8748567  16.1381517  90.8069970  64.0422969  17.0061754  91.1740441
  63.6845736  16.3008799  89.8831259  66.6323900  24.5998496 102.4735800
  66.3324623  25.5023535 102.3651607  66.2874960  24.3330680 103.3256953
  60.0836382  21.0512293  98.5072504  59.1586878  20.9188507  98.7150196
  60.3320795  21.8306512  99.0042447  70.0321044  17.1181037 100.1533237
  69.1237921  17.0496445  99.8591998  69.9808640  17.5952981 100.9815063
  63.8537788  18.5939175  91.7916636  63.7337413  19.0396226  92.6302117
  63.1590376  18.9424493  91.2330175  57.4445193  20.6945567  99.3416293
  57.5737574  20.9480046 100.2555705  56.7642644  21.2873275  99.0220949
  61.6144680  31.3642817  95.4406768  61.5368710  32.3150642  95.5195248
  61.0106324  31.0188689  96.0981694  64.1061910  18.5370682 108.0968135
  63.3295244  19.0964602 108.0870999  64.7452473  19.0227465 108.6183005
  71.8982690  15.3197475 101.9311111  71.2557071  15.6130008 101.2850906
  71.3937619  15.2050395 102.7364308  69.5522854  19.0660648  92.6196970
  70.4640710  19.2988035  92.4444668  69.0432501  19.6497692  92.0572049
  62.3608282  21.3456135 107.6586102  63.1022967  21.8841179 107.3820925
  61.6545268  21.9722424 107.8157653  67.8363622  23.4885276 106.2558263
  68.2446978  23.0467686 105.5112895  67.1140883  22.9137903 106.5092456
  64.1894692  18.4257883 103.6291820  65.0355887  18.8497296 103.7726469
  64.1293330  17.7691507 104.3230383  68.1592436  24.0486467 100.0110552
  67.5301299  24.2132181  99.3086620  67.7718099  24.4628076 100.7821516
  72.0381668  24.9840904  97.3654916  71.3532706  25.3639806  96.8151949
  72.1225518  25.5936231  98.0986863  67.3394137  16.0862251 105.2872994
  67.0955069  16.8404312 104.7507269  67.6154068  16.4647599 106.1220241
  69.2932600  22.6300863 103.9650259  69.5049495  23.2732623 103.2884640
  69.2462348  21.7963180 103.4972189  66.8958829  15.2418684 100.8686831
  66.0343308  15.5399938 101.1603569  66.9221264  15.4589083  99.9367864
  63.7120398  23.7860875  97.2760637  64.1758744  24.0648578  96.4865260
  63.4477196  22.8844319  97.0933728  60.6044479  23.3332356 100.2140400
  61.1745836  23.7619625  99.5757885  61.1952591  23.0514941 100.9124586
  62.6489284  19.9084027  94.0850202  63.3513328  20.3605071  94.5524129
  62.3169913  19.2667846  94.7130095  61.0969646  18.4995784 108.4601412
  60.4668306  19.1812065 108.6936808  60.9905734  18.3878865 107.5154550
  56.3914618  18.1667580  99.3867336  55.6013672  18.4225108  98.9107446
  56.8825866  18.9815918  99.4919376  70.4078428  25.5072819 102.1372617
  71.2295872  25.1053006 101.8555298  70.4040831  25.4041053 103.0888732
  58.3429364  18.5312159  96.3450812  57.5460527  18.6430853  96.8634308
  58.1154956  18.8698811  95.4791703  64.1735031  25.0556862 104.2933327
  64.2379464  25.5177269 105.1291499  63.4645955  24.4254227 104.4215637
  54.6752321  18.4198070 101.8182327  54.9260360  19.3045080 102.0839902
  55.2111870  18.2402672 101.0457418  78.4984421  21.8511567  98.4857588
  77.7448129  21.2818965  98.3301592  78.6331962  21.8174232  99.4328223
  63.8883049  26.7224970  94.1612307  63.7528724  27.5676505  94.5897155
  64.4292862  26.9244247  93.3978241  57.3412446  24.2400408  94.7340232
  57.8536967  25.0343658  94.8845797  57.9935159  23.5426698  94.6673834
  59.1507331  27.3566164  96.8162986  59.3273959  28.2784129  96.6283970
  59.9464165  27.0424583  97.2457365  58.4359688  19.4030796 106.6925149
  58.3213203  18.5016053 106.9932248  57.5804205  19.6494493 106.3409965
  65.5151525  27.3448536 108.2912649  65.0715380  26.5584915 107.9733554
  66.1768739  27.5327687 107.6256540  60.2738647  28.8744338 102.8173328
  60.8246072  28.7461401 102.0450322  59.4350122  29.1739227 102.4668221
  67.6132763  27.6251336 106.3194051  67.5951239  28.4460217 105.8274320
  68.5352683  27.5005411 106.5444192  64.0705818  25.1395466 107.1617559
  64.6034154  24.3783754 106.9316867  63.5419899  24.8469117 107.9041714
  67.2375513  10.2455532 102.6911201  66.8939782  11.1357173 102.6150311
  67.6054475  10.0557189 101.8280786  55.3061363  22.5689062  95.5099803
  56.1436585  22.9786070  95.2933511  55.4839631  21.6288504  95.4799997
  67.2025795  20.2364143  91.1983636  66.6872419  21.0068747  91.4372023
  66.9303104  19.5629279  91.8216697  64.7872906  15.0813843  96.2568874
  63.9314503  14.6920694  96.0774513  65.1999858  15.1605804  95.3968660
  66.3172053  12.6160187 100.6560434  65.8136849  12.5790322  99.8428239
  66.6102660  13.5252929 100.7157091  62.5614939  12.6998916  99.6626616
  63.4267936  12.5041725  99.3032505  62.6292448  12.4709268 100.5895973
  72.1760069  22.9896497  93.1336809  71.3989512  22.6507657  92.6891972
  72.8551550  22.9949120  92.4591774  66.9912098  18.1091235  93.0243417
  66.6862234  18.4237384  93.8753560  67.9442541  18.1872655  93.0670750
  65.4358530  24.2681458  94.6736371  64.9079892  23.5334218  94.3609609
  64.9346033  25.0456134  94.4276339  70.4151376  22.4630479  99.7903417
  69.7575051  23.1529740  99.8783546  71.2191776  22.8526910 100.1337404
  60.1677258  14.9301124  97.0342983  60.7421010  14.7076306  96.3016176
  60.7548240  14.9989819  97.7871584  69.2256835  20.8174851  97.8407359
  69.7388717  21.4504843  98.3429069  69.8758059  20.2176047  97.4750719
  60.4946845  16.9605585  91.0538868  59.6584157  17.2980272  91.3748143
  60.3551615  16.8254565  90.1166005  62.4699926  11.8042373  95.7618052
  61.8164338  11.4891390  95.1374667  62.4280400  11.1818114  96.4877875
  63.5811130  22.0861668  87.6771344  62.6738192  21.8550922  87.8762493
  64.0782162  21.2899288  87.8645326  66.4879209  30.7959176  90.5968030
  65.8140908  31.0990872  91.2052988  66.8745031  31.5988256  90.2473487
  65.7037666  18.2924307 100.0865700  64.7860227  18.5139254  99.9287388
  66.1197810  18.3670617  99.2277407  66.4872714  19.6915722  95.2168380
  67.2344533  20.2037120  94.9075502  66.7564303  19.3699775  96.0772773
  64.7599364  22.1874263  92.1995334  63.8510583  21.9033296  92.2967804
  64.7894448  22.6073342  91.3398641  69.9918631  25.7980853  95.9686502
  69.5380958  24.9571763  96.0251692  69.3612598  26.4342251  96.3061282
  68.9351551  16.7272839  97.1987169  68.1974308  16.2150225  97.5297412
  69.1878324  16.2873220  96.3870446  68.4351571  27.6357349  96.9036320
  68.7274545  28.1962406  96.1848686  68.9450191  27.9285910  97.6589479
  69.0363178   9.5049091  97.7928939  69.3422055   8.6446454  97.5054854
  69.7615783  10.0966711  97.5927932  55.3287534  19.9079777  96.1810536
  55.1311934  19.3149138  95.4561603  54.7734198  19.6031987  96.8986475
  63.3084258  19.8002884  98.3005130  63.3632868  18.8476720  98.2247606
  62.4975460  19.9562323  98.7846428  64.4575452  23.7283007  89.5383413
  64.0194882  23.0118866  89.0789050  65.1985893  23.9559122  88.9768504
  61.2476618  18.4179944  96.0595508  60.4344483  18.7174114  96.4660701
  61.7435612  18.0235632  96.7769991  63.3985196  28.4137700  97.9929773
  63.3561375  28.6398547  97.0638305  64.3147895  28.1801075  98.1415574
  66.8450830  18.8821768 104.8910402  67.2000217  19.1093241 105.7504868
  67.4922961  19.2140145 104.2687658  72.5748567  22.0040204  95.5959731
  72.4366465  22.1941800  94.6680921  72.2184785  22.7659587  96.0527783
  60.7390693  15.9898299 101.6756743  61.3790072  15.8487058 100.9779707
  59.9068223  15.7032812 101.2995345  72.6017946  24.0716731 100.6071003
  73.0354453  23.9792020 101.4554057  73.3149527  24.0474231  99.9691019
  61.5150997  25.2900729  97.7891736  62.3091595  24.7951050  97.5874311
  60.8042689  24.7618593  97.4259441  66.3345841  27.6718825 102.1404103
  66.3882863  28.2409761 102.9081819  65.4660622  27.8420710 101.7758141
  57.8233760  19.4343811  93.8651489  56.8931348  19.3728267  94.0821451
  57.9191232  18.9119764  93.0688130  57.7419309  15.9598624  96.4529730
  58.0026126  16.8743957  96.3438891  58.5636481  15.4923067  96.6026343
  59.2144234  17.3736381 103.6228555  59.8867288  17.1653743 102.9741204
  58.3874021  17.1758467 103.1833787  73.4633496  24.1140432 103.1403888
  73.6569386  25.0186242 103.3863163  73.3634114  23.6547851 103.9742473
  65.1169806  13.9998322 105.6394216  64.4697721  14.6988272 105.5458692
  65.8870822  14.4334466 106.0070464  68.5248604  24.2647174 108.7144769
  68.3734111  24.0357726 107.7974853  68.5153284  25.2217776 108.7276114
  65.2933941  21.8379087 103.6991035  66.2226001  21.9890247 103.5260003
  64.8724971  21.9263108 102.8439682  64.0922273  25.8629751 101.4689573
  63.9533358  25.4948536 102.3415511  63.3036869  26.3777391 101.2973531
  64.6870425  30.9638848  92.8115109  64.8622180  30.4926891  93.6260732
  64.0003213  31.5904614  93.0396370  65.6427488  25.2411354  98.8578411
  65.3077320  25.2012124  99.7536061  65.1431433  24.5756070  98.3848821
  59.6171732  20.6478984 104.3830992  59.4791530  19.9159223 104.9842531
  60.5276655  20.5587884 104.1015180  68.5786679  22.5867388  89.1315470
  67.9615850  21.8614217  89.0348523  68.1103168  23.3476749  88.7882545
  62.2454032  20.3598944 103.8714672  62.9553651  19.7192136 103.8301290
  62.2023340  20.6111838 104.7940852  70.2340811  27.2966297 106.7921251
  70.1753357  26.6125517 106.1251834  70.6360329  28.0385287 106.3401877
  60.9582966  17.3464161 105.6910311  60.4220323  16.8954900 106.3431907
  60.3699675  17.4810070 104.9480775  59.2531510  34.1128211  99.5854970
  59.4928108  34.7446735 100.2633988  58.4100706  33.7616251  99.8720329
  60.3685225  16.8052813  88.2536775  59.4914692  16.6841614  87.8899021
  60.8442978  16.0138891  88.0015663  70.2358218  25.2605881 105.0235230
  69.3484997  24.9231803 105.1461629  70.8056769  24.5288912 105.2603996
  51.8887365  21.5929973  98.3478282  52.5758405  21.2791703  97.7599297
  51.7335494  22.4971337  98.0745533  56.6922088  16.4820169 102.7763306
  56.6080276  15.8745839 102.0413715  55.8704794  16.9729187 102.7772802
  63.7659372  29.9207333 101.9896474  63.6929543  30.7262305 102.5015778
  63.3236765  30.1199299 101.1644495  63.5549151  29.1579103  95.4999295
  62.7716673  29.7000783  95.5937520  64.2541896  29.6753083  95.8993536
  66.8645801  14.9673733  98.1433501  67.3614501  14.2143695  97.8234571
  66.0932783  15.0038049  97.5776710  74.7175559  20.6714098  99.7851792
  74.7065435  21.5538814  99.4145725  73.8492938  20.3185649  99.5906329
  66.2258055  29.8194167 104.1454632  66.9386027  30.4541632 104.0730534
  65.7348084  29.9158033 103.3294634  67.9475582  23.7245420  95.7171924
  67.0131861  23.8446882  95.5476628  68.1252251  22.8217887  95.4531934
  63.4480770  17.1091116  97.8705185  63.0778558  16.5562156  98.5586091
  63.9439863  16.5049249  97.3180185  71.3348133  19.5662739  96.2521958
  71.8008586  20.3990731  96.1782261  71.7855634  19.1007721  96.9567217
  61.2769969  27.5688611 104.9660203  61.9779428  28.2025094 105.1189597
  60.8065084  27.9103342 104.2055842  69.4024365  25.9106560  93.2508110
  69.6784208  25.7963155  94.1601984  68.5328863  25.5124045  93.2120283
  69.3064796  11.9343326 100.2912859  68.3927876  12.1647553 100.4595066
  69.7357898  12.0181770 101.1426892  69.0771255  20.1233218 102.7912753
  68.4242705  20.3709126 102.1365206  69.4551635  19.3097356 102.4575231
  66.0378429  30.1592911  96.8940924  66.2200823  29.3414567  97.3568676
  66.8611415  30.3760604  96.4565814  66.3720594  29.0861096  94.1555972
  66.9008360  28.5753551  93.5426134  66.6348814  28.7703627  95.0201505
  65.1258828  20.8653029 109.2778791  64.4499465  20.7647158 109.9481166
  65.9486462  20.7092243 109.7414788  56.8737687  27.1024966 101.8991306
  57.4591124  26.3568654 102.0319210  56.6762525  27.4128922 102.7827970
  59.7276342  30.1376213  96.9153748  59.0586717  30.6222341  96.4317788
  59.5889212  30.3845434  97.8297127  51.4655342  19.6730566 100.6195749
  51.5039441  19.1394157 101.4132867  50.9595634  19.1465771 100.0006726
  63.8681611  32.1719957 103.5136407  64.4199919  32.3351578 104.2785492
  64.2087804  32.7624394 102.8416431  58.8446104  14.5195106 104.1158291
  58.9087430  15.3809937 103.7035689  58.7813224  13.9069108 103.3830650
  68.7192485  26.9981214 109.3685061  69.2632389  27.6111172 108.8740016
  68.1379330  27.5560793 109.8852074  55.0963919  18.3994668  93.6949680
  55.3917360  17.4905346  93.6416734  54.1951955  18.3782407  93.3730683
  67.0049998  30.1201932 100.5000089  66.8801137  29.3191672  99.9911034
  67.6629089  30.6148125 100.0114059  58.6258166  16.4750665  99.6777229
  57.9044752  17.0886632  99.5384702  59.4151422  17.0108429  99.5993875
  69.0684906  27.9210952 102.1279639  68.1215242  27.8016303 102.0557966
  69.4167679  27.0333450 102.2105900  56.8251761  16.0808766  93.8189005
  56.4964467  15.2006145  93.6364111  57.1791131  16.0256434  94.7065395
  66.0731340  27.7163668  98.3283991  65.9256302  26.7880376  98.5091561
  66.8984833  27.7383759  97.8441066  59.9393584  16.3681735  94.1864483
  60.2789656  16.8967657  93.4643092  60.3865704  16.7062142  94.9623050
  69.6765461  28.5392227  99.4148864  70.6012009  28.3335088  99.2773315
  69.5080765  28.2908628 100.3238205  62.6337025  14.7518786 103.6367551
  62.2933845  13.9526599 104.0388231  61.9276031  15.0520497 103.0644384
  63.2853496  11.8368099 102.0894874  64.1079566  11.3628577 101.9673765
  63.5291560  12.6158582 102.5893561  61.9261731  14.8656357  92.3857776
  62.6470093  15.2437610  91.8821493  61.3027035  15.5845234  92.4892754
  66.0692854  15.5701506  93.3216108  66.2856468  16.4526144  93.0204936
  65.5886921  15.1787719  92.5921750  60.8092075  18.5287219  99.8986853
  60.6636656  18.8427522 100.7911134  60.3317279  19.1472120  99.3457751
  62.6688458  15.5189767  99.9467742  62.6550027  14.6230861  99.6100040
  63.3860886  15.5260431 100.5806028  64.5214589  15.9527107 101.9920870
  64.2632367  16.8744178 101.9905200  63.9899629  15.5557542 102.6821334
  69.4660778  29.0577895  94.7710955  69.6397655  28.4924317  94.0184808
  69.9589669  29.8578789  94.5890445  55.2837737  21.0692564 102.8374514
  54.7391205  21.8452372 102.9694788  56.1617087  21.4163368 102.6793635
  62.0725354  14.4004148  95.2155313  62.1941265  13.4720794  95.4146200
  61.7827396  14.4142834  94.3033628  64.9416544  12.0859058  98.3522032
  64.9638241  12.1498391  97.3974012  65.3584603  11.2463567  98.5462539
  75.3200169  21.8214318  96.3901255  75.7631315  21.0721643  95.9920378
  74.4426679  21.8124454  96.0074987  70.4535950  28.3744659  91.8707854
  71.1486855  28.9951352  92.0895168  70.7959100  27.5240010  92.1460231
  56.0703759  20.1962460 105.7304671  55.3285495  20.3445095 106.3169301
  55.7496504  20.4570726 104.8671420  72.3527373  25.8244365  93.3995184
  72.8778697  26.1631637  92.6744504  72.2649726  24.8891380  93.2158319
  64.0147422  29.7378438 105.5285061  64.3234548  29.4927585 106.4007760
  64.8122904  29.9425077 105.0403931  64.0368034  31.8916348  97.7590437
  63.5973024  31.3992727  98.4523294  64.7876151  31.3489315  97.5182513
  56.5160373  28.0827889  97.7615066  57.3418393  27.7831661  97.3813709
  56.1654425  27.3135511  98.2104854  61.4841906  27.4354357  99.8312739
  60.8621915  26.7725062  99.5314967  62.1546773  27.4615489  99.1486387
  54.7168978  26.0014215  98.7203999  53.8800886  25.5736389  98.5388000
  54.6892623  26.1946658  99.6574790  72.0421279  26.4577268 108.7046382
  71.2516823  26.4401407 108.1650882  71.8054634  26.9965562 109.4595419
  72.1619154  23.3069735 106.0179111  72.2117159  23.1419742 106.9594634
  72.0533078  22.4396994 105.6276992  61.0455413  25.9858280  93.3071200
  61.1943533  26.6693745  92.6537872  61.8521856  25.9663370  93.8220655
  69.4522917  19.2900663 107.3338417  70.3532779  19.1507127 107.0422415
  69.5270891  19.4555117 108.2736595  63.7865722  16.6667517 106.1791604
  62.9169031  16.9601083 105.9074192  64.0225202  17.2507962 106.8998867
  73.6637351  25.7266676 106.2621132  73.3722159  26.0896657 107.0984593
  73.0509482  25.0133684 106.0834464  74.8633033  23.2919556  98.7823703
  75.6979925  23.7309360  98.9461263  74.9992162  22.8158209  97.9631948
  71.9124539  20.8499291 104.7301190  72.3878661  21.0426937 103.9220042
  70.9890105  20.9058477 104.4844574  58.8008046  22.0123458  94.3132269
  58.5554088  21.1085788  94.5112479  58.9703961  22.0140608  93.3711747
  66.4904756  12.8847134 103.6957024  67.0086700  13.6208161 103.3703513
  66.1359889  13.1911128 104.5303783  58.0703694  17.7451815  91.8118430
  57.3772938  17.8196170  91.1558466  57.8255445  16.9812159  92.3339947
  66.7417350   9.3047417  99.2157921  67.0219104   8.6370606  99.8418347
  67.5267957   9.4976512  98.7032585  64.5450819  28.4806411  90.7782947
  63.9724786  29.0996598  90.3253419  65.1183612  29.0305772  91.3122869
  70.6126208  17.7265051 102.9629496  71.5643631  17.8263148 102.9841720
  70.4429659  16.9343319 103.4727580  68.6340588  14.8120634 103.1488897
  68.0390520  15.0925647 102.4535385  68.3490285  15.3014535 103.9205638
  67.7648078  28.7643561  91.9091529  68.6978751  28.6989122  92.1124405
  67.6771291  29.5999828  91.4506062  70.3936095  28.0809431  88.8695477
  70.3149727  27.7469295  89.7631235  71.2145762  28.5731199  88.8686949
  73.0914286  20.9471170 102.0771796  73.0590606  20.0087171 102.2631479
  73.7014910  21.0255207 101.3437620  64.9297617  19.8167223  88.1199000
  65.8756722  19.6873432  88.1887418  64.5511862  19.0781885  88.5968428
  73.2408775  17.7382214 102.1230079  72.7247823  16.9540671 101.9360008
  74.1248723  17.4100931 102.2876598  70.9019502  11.4823229  98.0825891
  70.7044323  11.1738318  98.9669223  71.5119207  12.2084868  98.2123821
  78.9090836  22.0087177 101.2177832  79.6394225  21.7472465 101.7785536
  78.2997782  21.2715899 101.2579900  76.9906133  20.1495040 101.8152284
  76.2639297  20.0151005 101.2068775  76.5753420  20.4571869 102.6209002
  64.8136310  23.8684970 109.5799657  65.7339319  24.0463569 109.7739703
  64.7785893  22.9241015 109.4279356  63.1140534  17.7417200  88.0553885
  62.2071990  17.4450313  88.1316598  63.3916515  17.4447018  87.1888171
  54.0318475  19.0623563  98.5052931  53.7121259  18.2088871  98.2127305
  53.4851903  19.2772141  99.2610899  57.8098382  21.7786004 102.2222438
  58.0284392  22.7103112 102.2410472  58.2224156  21.4193979 103.0077242
  64.7302600  12.2854090  94.2098126  63.9203328  11.9401175  94.5853372
  65.4187017  11.9761633  94.7985738  66.6593148  11.3632136  95.8322423
  67.2124187  11.7827590  96.4912446  66.8963235  10.4367884  95.8745379
  61.8839319  14.6004135  88.1965864  62.7458483  14.9259033  88.4561681
  62.0689663  13.8135631  87.6838930  53.9006735  22.6826475 100.4746053
  53.2070206  22.2680428  99.9616007  54.6479726  22.7247011  99.8779472
  70.0371955  13.4732662  95.3401087  69.4570624  14.1317466  94.9579139
  69.7707888  12.6510006  94.9288505  68.4875522  12.8737719  97.5422407
  68.9875300  12.9854254  96.7336726  69.1311130  12.5698772  98.1823216
  62.5457517  20.7816349 110.4290248  62.0624599  21.5816709 110.6354137
  62.6318457  20.7924294 109.4757692  55.8143477  22.6144729  98.3512068
  55.7914165  22.7132416  97.3993951  56.1244114  23.4609879  98.6729234
  58.4730855  24.6720884 102.4658682  59.4274109  24.6404826 102.3988614
  58.2743379  24.2111507 103.2808908  59.0630237  23.2422000 105.0329480
  59.8823126  23.7366078 105.0564317  59.3367045  22.3253968 105.0047047
  68.8196833  15.6332752  94.3957435  67.9322688  15.9182403  94.1777630
  69.2350822  15.4726515  93.5484712  72.1711369  15.6579273  98.1111775
  72.9471760  16.1475725  98.3836391  71.4459504  16.0837327  98.5683644
  74.6083928  16.3706892  99.1685715  75.2028419  16.1302628  98.4579023
  74.6810512  15.6514023  99.7959251  56.8281084  30.2140503  99.4828880
  56.6935552  29.4540904  98.9166878  56.4113146  30.9381403  99.0157669
  67.9640047  25.3977427  88.4905455  68.6675897  25.6027429  89.1063111
  67.2402696  25.9654188  88.7554539  68.7937857  21.1487288  94.6107725
  68.7373058  21.6055839  93.7715358  69.3466200  20.3877972  94.4330568
  72.6042663  16.9377020  95.4357845  72.3479597  16.5373655  96.2666053
  71.9795531  17.6520814  95.3107984  76.9155001  19.6773093  97.9429136
  76.3554559  19.7466282  98.7160698  76.3098504  19.5014078  97.2228633
  59.9850210  31.1109820  99.6947323  59.8682594  32.0555253  99.5926013
  59.1642656  30.8083382 100.0833122  69.8726744  25.8359956  90.5403915
  70.7072348  25.4041154  90.3581390  69.7111087  25.6641969  91.4680810
  69.5272636  22.3392069  91.9060255  69.4721440  22.1736340  90.9648699
  68.9018692  23.0468102  92.0622444  66.8418544  24.6440981 111.2313817
  67.7109703  24.8181633 110.8700452  66.3625295  25.4635398 111.1089547
  62.8368762  11.8400178  91.4845573  62.8247432  12.7842018  91.6413844
  63.7292184  11.6570323  91.1905034  61.0104724  31.7638082 102.9103251
  61.9131970  31.7961692 103.2269746  60.7842094  30.8338533 102.9249587
  62.7658326  30.5169068  99.5713330  61.8153957  30.5170930  99.4577702
  63.0690812  29.7701803  99.0549364  66.6520881   8.4342955  95.7391510
  65.8853277   7.8801441  95.8848192  67.0631586   8.5064823  96.6005661
  78.5011019  36.3529607 100.6359092  79.1389429  36.2336354  99.9322432
  78.3831862  37.3010451 100.6947044  75.3100726  36.3057035 100.5720617
  74.9719237  36.1898100  99.6841152  76.1790494  35.9048200 100.5521623
  71.1687541  38.1592511  96.5617508  70.6052406  38.0682448  95.7933795
  71.0539936  37.3392416  97.0420000  75.7920509  37.4591887 106.5306822
  75.7809149  37.0644685 105.6587326  75.9541148  36.7257959 107.1240594
  68.7151973  39.6543703  99.4001728  69.5073265  39.3134528  98.9848027
  68.9548623  39.7638678 100.3203881  76.7487100  41.8263479  91.8731973
  76.0975080  42.4117560  91.4865986  77.5431463  42.3569674  91.9327010
  70.6742727  38.9152616  92.2719107  71.4473603  38.3681603  92.1331983
  71.0268126  39.7796866  92.4833568  72.5127770  40.2428999 105.4786006
  72.2217636  41.1474629 105.3632673  73.1484754  40.2845526 106.1930076
  73.4383977  37.6205847 102.0687366  74.0347549  37.3961869 101.3544329
  73.4958948  36.8790593 102.6712814  73.0109005  35.0745282  89.9037557
  73.2634526  34.5526804  89.1421020  72.0733564  34.9111428  90.0064240
  78.0552288  34.0781061  97.7112300  78.8415377  33.6600484  97.3602717
  78.3190992  34.9827153  97.8793948  78.2262365  39.5153911  92.4100957
  77.5908198  39.5888538  93.1221862  77.8959772  40.1047510  91.7320036
  83.4560715  34.0156294  98.6145279  84.1885887  33.4455511  98.8483108
  82.7000071  33.6277894  99.0551784  72.7305294  36.9773388  92.1061932
  72.6141552  36.3018292  92.7743016  72.8407554  36.4905762  91.2894085
  75.0736835  36.4383535  95.8108621  74.7095042  35.9114156  96.5221543
  75.9303951  36.0482004  95.6375106  80.9786135  27.7277868 103.0739887
  80.6469460  28.5973279 102.8501102  80.3831749  27.4114152 103.7533918
  74.7142322  31.4673435  90.8069970  74.8816724  32.3353672  91.1740441
  74.5239491  31.6300717  89.8831259  77.4717655  39.9290414 102.4735800
  77.1718378  40.8315453 102.3651607  77.1268714  39.6622597 103.3256953
  70.9230136  36.3804211  98.5072504  69.9980633  36.2480425  98.7150196
  71.1714549  37.1598430  99.0042447  80.8714799  32.4472954 100.1533237
  79.9631676  32.3788363  99.8591998  80.8202394  32.9244899 100.9815063
  74.6931542  33.9231093  91.7916636  74.5731168  34.3688143  92.6302117
  73.9984131  34.2716410  91.2330175  68.2838947  36.0237484  99.3416293
  68.4131328  36.2771963 100.2555705  67.6036399  36.6165192  99.0220949
  72.4538435  46.6934734  95.4406768  72.3762464  47.6442559  95.5195248
  71.8500078  46.3480607  96.0981694  74.9455664  33.8662600 108.0968135
  74.1688998  34.4256520 108.0870999  75.5846227  34.3519383 108.6183005
  82.7376445  30.6489393 101.9311111  82.0950825  30.9421926 101.2850906
  82.2331373  30.5342313 102.7364308  80.3916609  34.3952566  92.6196970
  81.3034465  34.6279953  92.4444668  79.8826256  34.9789610  92.0572049
  73.2002037  36.6748053 107.6586102  73.9416721  37.2133097 107.3820925
  72.4939022  37.3014342 107.8157653  78.6757376  38.8177194 106.2558263
  79.0840732  38.3759604 105.5112895  77.9534638  38.2429821 106.5092456
  75.0288446  33.7549800 103.6291820  75.8749642  34.1789214 103.7726469
  74.9687084  33.0983425 104.3230383  78.9986191  39.3778384 100.0110552
  78.3695053  39.5424098  99.3086620  78.6111853  39.7919994 100.7821516
  82.8775423  40.3132822  97.3654916  82.1926461  40.6931723  96.8151949
  82.9619272  40.9228149  98.0986863  78.1787892  31.4154169 105.2872994
  77.9348824  32.1696229 104.7507269  78.4547822  31.7939516 106.1220241
  80.1326354  37.9592781 103.9650259  80.3443250  38.6024541 103.2884640
  80.0856103  37.1255098 103.4972189  77.7352583  30.5710602 100.8686831
  76.8737062  30.8691855 101.1603569  77.7615018  30.7881001  99.9367864
  74.5514153  39.1152792  97.2760637  75.0152498  39.3940495  96.4865260
  74.2870951  38.2136237  97.0933728  71.4438234  38.6624274 100.2140400
  72.0139591  39.0911542  99.5757885  72.0346346  38.3806859 100.9124586
  73.4883039  35.2375945  94.0850202  74.1907082  35.6896988  94.5524129
  73.1563667  34.5959764  94.7130095  71.9363400  33.8287701 108.4601412
  71.3062061  34.5103982 108.6936808  71.8299488  33.7170783 107.5154550
  67.2308373  33.4959497  99.3867336  66.4407427  33.7517026  98.9107446
  67.7219620  34.3107835  99.4919376  81.2472182  40.8364737 102.1372617
  82.0689626  40.4344924 101.8555298  81.2434585  40.7332971 103.0888732
  69.1823118  33.8604077  96.3450812  68.3854281  33.9722771  96.8634308
  68.9548710  34.1990729  95.4791703  75.0128786  40.3848780 104.2933327
  75.0773218  40.8469187 105.1291499  74.3039710  39.7546145 104.4215637
  65.5146076  33.7489988 101.8182327  65.7654114  34.6336998 102.0839902
  66.0505624  33.5694589 101.0457418  89.3378175  37.1803485  98.4857588
  88.5841884  36.6110883  98.3301592  89.4725717  37.1466150  99.4328223
  74.7276803  42.0516887  94.1612307  74.5922478  42.8968423  94.5897155
  75.2686616  42.2536165  93.3978241  71.2144143  28.1308467 110.8226663
  70.8211089  27.5774666 111.4974307  72.0310283  28.4419046 111.2133180
  68.1806201  39.5692325  94.7340232  68.6930721  40.3635576  94.8845797
  68.8328914  38.8718616  94.6673834  69.9901086  42.6858082  96.8162986
  70.1667714  43.6076046  96.6283970  70.7857919  42.3716501  97.2457365
  74.1312104  29.5466346 108.4146919  74.8721817  30.1473499 108.3351382
  74.3630027  28.8043984 107.8564962  69.2753442  34.7322714 106.6925149
  69.1606957  33.8307971 106.9932248  68.4197960  34.9786410 106.3409965
  76.3545280  42.6740454 108.2912649  75.9109134  41.8876832 107.9733554
  77.0162493  42.8619604 107.6256540  71.1132401  44.2036255 102.8173328
  71.6639826  44.0753319 102.0450322  70.2743877  44.5031144 102.4668221
  78.4526518  42.9543254 106.3194051  78.4344993  43.7752135 105.8274320
  79.3746438  42.8297329 106.5444192  74.9099572  40.4687383 107.1617559
  75.4427909  39.7075671 106.9316867  74.3813653  40.1761035 107.9041714
  78.0769267  25.5747449 102.6911201  77.7333536  26.4649091 102.6150311
  78.4448230  25.3849107 101.8280786  66.1455118  37.8980980  95.5099803
  66.9830340  38.3077988  95.2933511  66.3233385  36.9580422  95.4799997
  78.0419550  35.5656060  91.1983636  77.5266173  36.3360665  91.4372023
  77.7696858  34.8921196  91.8216697  75.6266661  30.4105761  96.2568874
  74.7708257  30.0212611  96.0774513  76.0393613  30.4897722  95.3968660
  77.1565807  27.9452104 100.6560434  76.6530603  27.9082240  99.8428239
  77.4496414  28.8544847 100.7157091  73.4008693  28.0290834  99.6626616
  74.2661690  27.8333643  99.3032505  73.4686202  27.8001186 100.5895973
  83.0153824  38.3188415  93.1336809  82.2383267  37.9799574  92.6891972
  83.6945305  38.3241038  92.4591774  77.8305853  33.4383152  93.0243417
  77.5255989  33.7529302  93.8753560  78.7836295  33.5164572  93.0670750
  76.2752285  39.5973376  94.6736371  75.7473646  38.8626135  94.3609609
  75.7739788  40.3748052  94.4276339  81.2545131  37.7922396  99.7903417
  80.5968805  38.4821658  99.8783546  82.0585530  38.1818828 100.1337404
  71.0071012  30.2593042  97.0342983  71.5814764  30.0368224  96.3016176
  71.5941995  30.3281737  97.7871584  80.0650590  36.1466769  97.8407359
  80.5782471  36.7796761  98.3429069  80.7151814  35.5467964  97.4750719
  71.3340600  32.2897503  91.0538868  70.4977912  32.6272190  91.3748143
  71.1945369  32.1546483  90.1166005  73.3093680  27.1334291  95.7618052
  72.6558092  26.8183308  95.1374667  73.2674154  26.5110031  96.4877875
  74.4204885  37.4153586  87.6771344  73.5131947  37.1842839  87.8762493
  74.9175917  36.6191205  87.8645326  77.3272964  46.1251093  90.5968030
  76.6534663  46.4282790  91.2052988  77.7138786  46.9280174  90.2473487
  76.5431420  33.6216224 100.0865700  75.6253982  33.8431171  99.9287388
  76.9591564  33.6962535  99.2277407  77.3266468  35.0207640  95.2168380
  78.0738287  35.5329037  94.9075502  77.5958058  34.6991693  96.0772773
  75.5993118  37.5166181  92.1995334  74.6904338  37.2325214  92.2967804
  75.6288202  37.9365259  91.3398641  80.8312386  41.1272770  95.9686502
  80.3774713  40.2863680  96.0251692  80.2006353  41.7634169  96.3061282
  79.7745305  32.0564756  97.1987169  79.0368062  31.5442143  97.5297412
  80.0272079  31.6165138  96.3870446  79.2745325  42.9649267  96.9036320
  79.5668299  43.5254324  96.1848686  79.7843946  43.2577828  97.6589479
  79.8756933  24.8341008  97.7928939  80.1815810  23.9738372  97.5054854
  80.6009538  25.4258629  97.5927932  66.1681289  35.2371695  96.1810536
  65.9705689  34.6441056  95.4561603  65.6127953  34.9323905  96.8986475
  74.1478012  35.1294801  98.3005130  74.2026622  34.1768638  98.2247606
  73.3369214  35.2854241  98.7846428  75.2969206  39.0574925  89.5383413
  74.8588636  38.3410783  89.0789050  76.0379647  39.2851039  88.9768504
  72.0870372  33.7471861  96.0595508  71.2738238  34.0466032  96.4660701
  72.5829367  33.3527550  96.7769991  74.2378950  43.7429618  97.9929773
  74.1955129  43.9690464  97.0638305  75.1541649  43.5092993  98.1415574
  77.6844584  34.2113686 104.8910402  78.0393972  34.4385159 105.7504868
  78.3316715  34.5432062 104.2687658  83.4142321  37.3332122  95.5959731
  83.2760220  37.5233718  94.6680921  83.0578540  38.0951504  96.0527783
  71.5784447  31.3190217 101.6756743  72.2183826  31.1778976 100.9779707
  70.7461978  31.0324730 101.2995345  83.4411701  39.4008649 100.6071003
  83.8748207  39.3083938 101.4554057  84.1543281  39.3766149  99.9691019
  72.3544751  40.6192647  97.7891736  73.1485350  40.1242967  97.5874311
  71.6436443  40.0910510  97.4259441  77.1739596  43.0010743 102.1404103
  77.2276618  43.5701679 102.9081819  76.3054377  43.1712628 101.7758141
  68.6627515  34.7635729  93.8651489  67.7325103  34.7020184  94.0821451
  68.7584986  34.2411682  93.0688130  68.5813064  31.2890542  96.4529730
  68.8419881  32.2035875  96.3438891  69.4030236  30.8214984  96.6026343
  70.0537989  32.7028299 103.6228555  70.7261042  32.4945661 102.9741204
  69.2267775  32.5050385 103.1833787  84.3027250  39.4432349 103.1403888
  84.4963140  40.3478160 103.3863163  84.2027868  38.9839768 103.9742473
  75.9563561  29.3290240 105.6394216  75.3091476  30.0280189 105.5458692
  76.7264576  29.7626384 106.0070464  79.3642359  39.5939092 108.7144769
  79.2127865  39.3649644 107.7974853  79.3547038  40.5509693 108.7276114
  76.1327695  37.1671005 103.6991035  77.0619755  37.3182164 103.5260003
  75.7118725  37.2555026 102.8439682  74.9316027  41.1921669 101.4689573
  74.7927113  40.8240454 102.3415511  74.1430623  41.7069309 101.2973531
  75.5264179  46.2930766  92.8115109  75.7015935  45.8218809  93.6260732
  74.8396967  46.9196532  93.0396370  76.4821242  40.5703272  98.8578411
  76.1471075  40.5304042  99.7536061  75.9825188  39.9047988  98.3848821
  70.4565486  35.9770902 104.3830992  70.3185284  35.2451141 104.9842531
  71.3670410  35.8879802 104.1015180  79.4180434  37.9159306  89.1315470
  78.8009604  37.1906134  89.0348523  78.9496922  38.6768666  88.7882545
  73.0847787  35.6890861 103.8714672  73.7947405  35.0484053 103.8301290
  73.0417095  35.9403756 104.7940852  81.0734565  42.6258215 106.7921251
  81.0147112  41.9417435 106.1251834  81.4754084  43.3677205 106.3401877
  71.7976721  32.6756079 105.6910311  71.2614078  32.2246818 106.3431907
  71.2093429  32.8101988 104.9480775  70.0925264  49.4420128  99.5854970
  70.3321863  50.0738653 100.2633988  69.2494461  49.0908168  99.8720329
  71.2078980  32.1344730  88.2536775  70.3308446  32.0133531  87.8899021
  71.6836733  31.3430809  88.0015663  81.0751973  40.5897798 105.0235230
  80.1878752  40.2523720 105.1461629  81.6450524  39.8580830 105.2603996
  62.7281120  36.9221890  98.3478282  63.4152160  36.6083620  97.7599297
  62.5729249  37.8263255  98.0745533  67.5315842  31.8112087 102.7763306
  67.4474031  31.2037756 102.0413715  66.7098548  32.3021105 102.7772802
  74.6053126  45.2499251 101.9896474  74.5323298  46.0554222 102.5015778
  74.1630519  45.4491217 101.1644495  74.3942906  44.4871021  95.4999295
  73.6110428  45.0292701  95.5937520  75.0935651  45.0045000  95.8993536
  77.7039556  30.2965650  98.1433501  78.2008255  29.5435613  97.8234571
  76.9326537  30.3329967  97.5776710  85.5569313  36.0006016  99.7851792
  85.5459190  36.8830731  99.4145725  84.6886693  35.6477567  99.5906329
  77.0651810  45.1486085 104.1454632  77.7779782  45.7833550 104.0730534
  76.5741838  45.2449951 103.3294634  78.7869337  39.0537338  95.7171924
  77.8525615  39.1738800  95.5476628  78.9646005  38.1509804  95.4531934
  74.2874525  32.4383033  97.8705185  73.9172312  31.8854074  98.5586091
  74.7833617  31.8341167  97.3180185  82.1741888  34.8954657  96.2521958
  82.6402340  35.7282648  96.1782261  82.6249388  34.4299638  96.9567217
  72.1163723  42.8980528 104.9660203  72.8173183  43.5317011 105.1189597
  71.6458838  43.2395260 104.2055842  80.2418119  41.2398478  93.2508110
  80.5177963  41.1255073  94.1601984  79.3722618  40.8415963  93.2120283
  80.1458551  27.2635244 100.2912859  79.2321630  27.4939471 100.4595066
  80.5751652  27.3473688 101.1426892  79.9165009  35.4525136 102.7912753
  79.2636459  35.7001043 102.1365206  80.2945389  34.6389274 102.4575231
  76.8772183  45.4884829  96.8940924  77.0594578  44.6706485  97.3568676
  77.7005169  45.7052521  96.4565814  77.2114349  44.4153014  94.1555972
  77.7402115  43.9045469  93.5426134  77.4742568  44.0995544  95.0201505
  75.9652582  36.1944947 109.2778791  75.2893219  36.0939076 109.9481166
  76.7880216  36.0384161 109.7414788  67.7131441  42.4316883 101.8991306
  68.2984878  41.6860571 102.0319210  67.5156280  42.7420840 102.7827970
  70.5670096  45.4668131  96.9153748  69.8980472  45.9514258  96.4317788
  70.4282966  45.7137351  97.8297127  62.3049096  35.0022484 100.6195749
  62.3433196  34.4686074 101.4132867  61.7989389  34.4757689 100.0006726
  74.7075365  47.5011874 103.5136407  75.2593673  47.6643496 104.2785492
  75.0481559  48.0916312 102.8416431  69.6839858  29.8487024 104.1158291
  69.7481185  30.7101855 103.7035689  69.6206979  29.2361026 103.3830650
  69.1592131  31.9210157 107.7631326  69.7864170  31.5387234 108.3768850
  68.3020050  31.7024359 108.1287018  79.5586239  42.3273132 109.3685061
  80.1026143  42.9403090 108.8740016  78.9773084  42.8852710 109.8852074
  65.9357674  33.7286586  93.6949680  66.2311115  32.8197264  93.6416734
  65.0345709  33.7074325  93.3730683  77.8443752  45.4493850 100.5000089
  77.7194892  44.6483590  99.9911034  78.5022843  45.9440043 100.0114059
  69.4651921  31.8042582  99.6777229  68.7438506  32.4178550  99.5384702
  70.2545176  32.3400347  99.5993875  79.9078661  43.2502870 102.1279639
  78.9608996  43.1308221 102.0557966  80.2561434  42.3625368 102.2105900
  72.2678234  29.1397009 105.9517881  72.7912636  29.3859305 106.7144190
  72.0490567  29.9717044 105.5321018  67.6645515  31.4100683  93.8189005
  67.3358221  30.5298062  93.6364111  68.0184886  31.3548352  94.7065395
  76.9125094  43.0455586  98.3283991  76.7650056  42.1172294  98.5091561
  77.7378588  43.0675677  97.8441066  70.7787338  31.6973653  94.1864483
  71.1183411  32.2259574  93.4643092  71.2259459  32.0354059  94.9623050
  80.5159216  43.8684145  99.4148864  81.4405763  43.6627006  99.2773315
  80.3474519  43.6200546 100.3238205  73.4730779  30.0810704 103.6367551
  73.1327600  29.2818517 104.0388231  72.7669785  30.3812415 103.0644384
  74.1247251  27.1660016 102.0894874  74.9473320  26.6920495 101.9673765
  74.3685315  27.9450500 102.5893561  72.7655485  30.1948275  92.3857776
  73.4863848  30.5729528  91.8821493  72.1420790  30.9137152  92.4892754
  76.9086608  30.8993424  93.3216108  77.1250223  31.7818062  93.0204936
  76.4280676  30.5079637  92.5921750  71.6485830  33.8579137  99.8986853
  71.5030410  34.1719440 100.7911134  71.1711033  34.4764037  99.3457751
  73.5082213  30.8481685  99.9467742  73.4943781  29.9522778  99.6100040
  74.2254641  30.8552349 100.5806028  75.3608343  31.2819025 101.9920870
  75.1026121  32.2036096 101.9905200  74.8293384  30.8849460 102.6821334
  80.3054532  44.3869812  94.7710955  80.4791410  43.8216235  94.0184808
  80.7983423  45.1870707  94.5890445  66.1231492  36.3984481 102.8374514
  65.5784960  37.1744289 102.9694788  67.0010842  36.7455286 102.6793635
  72.9119109  29.7296065  95.2155313  73.0335020  28.8012711  95.4146200
  72.6221151  29.7434751  94.3033628  75.7810299  27.4150976  98.3522032
  75.8031996  27.4790309  97.3974012  76.1978358  26.5755484  98.5462539
  86.1593923  37.1506235  96.3901255  86.6025069  36.4013560  95.9920378
  85.2820434  37.1416372  96.0074987  81.2929705  43.7036577  91.8707854
  81.9880609  44.3243269  92.0895168  81.6352855  42.8531928  92.1460231
  66.9097514  35.5254378 105.7304671  66.1679250  35.6737013 106.3169301
  66.5890258  35.7862643 104.8671420  83.1921128  41.1536282  93.3995184
  83.7172452  41.4923555  92.6744504  83.1043480  40.2183298  93.2158319
  74.8541176  45.0670356 105.5285061  75.1628303  44.8219503 106.4007760
  75.6516658  45.2716994 105.0403931  74.8761788  47.2208265  97.7590437
  74.4366779  46.7284644  98.4523294  75.6269905  46.6781233  97.5182513
  67.3554127  43.4119806  97.7615066  68.1812147  43.1123578  97.3813709
  67.0048179  42.6427429  98.2104854  72.3235661  42.7646275  99.8312739
  71.7015670  42.1016980  99.5314967  72.9940528  42.7907406  99.1486387
  65.5562732  41.3306133  98.7203999  64.7194641  40.9028307  98.5388000
  65.5286378  41.5238576  99.6574790  72.3960188  31.2428063 109.4245245
  72.4448344  32.1190185 109.0423015  72.9382702  30.7005456 108.8516888
  82.8815034  41.7869186 108.7046382  82.0910577  41.7693325 108.1650882
  82.6448388  42.3257480 109.4595419  83.0012909  38.6361652 106.0179111
  83.0510914  38.4711660 106.9594634  82.8926832  37.7688911 105.6276992
  71.8849168  41.3150198  93.3071200  72.0337288  41.9985662  92.6537872
  72.6915611  41.2955288  93.8220655  80.2916671  34.6192580 107.3338417
  81.1926534  34.4799045 107.0422415  80.3664646  34.7847035 108.2736595
  74.6259477  31.9959435 106.1791604  73.7562786  32.2893001 105.9074192
  74.8618957  32.5799880 106.8998867  84.5031106  41.0558594 106.2621132
  84.2115914  41.4188574 107.0984593  83.8903237  40.3425602 106.0834464
  85.7026788  38.6211474  98.7823703  86.5373679  39.0601278  98.9461263
  85.8385917  38.1450127  97.9631948  82.7518294  36.1791208 104.7301190
  83.2272415  36.3718855 103.9220042  81.8283859  36.2350394 104.4844574
  69.6401800  37.3415376  94.3132269  69.3947842  36.4377706  94.5112479
  69.8097715  37.3432526  93.3711747  77.3298510  28.2139052 103.6957024
  77.8480454  28.9500079 103.3703513  76.9753643  28.5203045 104.5303783
  68.9097448  33.0743733  91.8118430  68.2166693  33.1488088  91.1558466
  68.6649200  32.3104077  92.3339947  77.5811105  24.6339334  99.2157921
  77.8612858  23.9662524  99.8418347  78.3661711  24.8268430  98.7032585
  75.3844573  43.8098328  90.7782947  74.8118540  44.4288515  90.3253419
  75.9577367  44.3597690  91.3122869  81.4519963  33.0556968 102.9629496
  82.4037386  33.1555066 102.9841720  81.2823413  32.2635237 103.4727580
  79.4734342  30.1412552 103.1488897  78.8784274  30.4217564 102.4535385
  79.1884039  30.6306453 103.9205638  78.6041833  44.0935478  91.9091529
  79.5372506  44.0281040  92.1124405  78.5165046  44.9291745  91.4506062
  81.2329849  43.4101349  88.8695477  81.1543481  43.0761212  89.7631235
  82.0539516  43.9023117  88.8686949  83.9308041  36.2763088 102.0771796
  83.8984361  35.3379089 102.2631479  84.5408664  36.3547125 101.3437620
  75.7691372  35.1459141  88.1199000  76.7150476  35.0165349  88.1887418
  75.3905616  34.4073803  88.5968428  84.0802529  33.0674132 102.1230079
  83.5641578  32.2832588 101.9360008  84.9642478  32.7392848 102.2876598
  81.7413256  26.8115147  98.0825891  81.5438077  26.5030235  98.9669223
  82.3512962  27.5376786  98.2123821  89.7484591  37.3379095 101.2177832
  90.4787979  37.0764383 101.7785536  89.1391536  36.6007817 101.2579900
  87.8299888  35.4786958 101.8152284  87.1033051  35.3442923 101.2068775
  87.4147175  35.7863786 102.6209002  75.6530064  39.1976887 109.5799657
  76.5733074  39.3755486 109.7739703  75.6179647  38.2532933 109.4279356
  73.9534289  33.0709118  88.0553885  73.0465744  32.7742230  88.1316598
  74.2310270  32.7738936  87.1888171  64.8712229  34.3915481  98.5052931
  64.5515013  33.5380789  98.2127305  64.3245657  34.6064059  99.2610899
  68.6492137  37.1077922 102.2222438  68.8678146  38.0395030 102.2410472
  69.0617910  36.7485896 103.0077242  75.5696354  27.6146007  94.2098126
  74.7597083  27.2693092  94.5853372  76.2580771  27.3053551  94.7985738
  77.4986903  26.6924054  95.8322423  78.0517941  27.1119507  96.4912446
  77.7356989  25.7659802  95.8745379  73.5220002  32.6811128 111.6125187
  73.4216729  33.6305485 111.5437278  73.3041544  32.3529367 110.7401257
  72.7233073  29.9296053  88.1965864  73.5852237  30.2550951  88.4561681
  72.9083417  29.1427549  87.6838930  64.7400489  38.0118392 100.4746053
  64.0463960  37.5972345  99.9616007  65.4873480  38.0538929  99.8779472
  80.8765710  28.8024579  95.3401087  80.2964379  29.4609383  94.9579139
  80.6101642  27.9801924  94.9288505  79.3269276  28.2029637  97.5422407
  79.8269055  28.3146171  96.7336726  79.9704884  27.8990690  98.1823216
  73.3851272  36.1108267 110.4290248  72.9018354  36.9108627 110.6354137
  73.4712211  36.1216211 109.4757692  66.6537232  37.9436646  98.3512068
  66.6307920  38.0424333  97.3993951  66.9637868  38.7901797  98.6729234
  69.3124609  40.0012801 102.4658682  70.2667863  39.9696744 102.3988614
  69.1137133  39.5403425 103.2808908  69.9023992  38.5713917 105.0329480
  70.7216881  39.0657996 105.0564317  70.1760799  37.6545885 105.0047047
  79.6590588  30.9624670  94.3957435  78.7716443  31.2474320  94.1777630
  80.0744577  30.8018433  93.5484712  83.0105124  30.9871191  98.1111775
  83.7865514  31.4767643  98.3836391  82.2853258  31.4129245  98.5683644
  85.4477683  31.6998810  99.1685715  86.0422173  31.4594546  98.4579023
  85.5204266  30.9805940  99.7959251  67.6674838  45.5432421  99.4828880
  67.5329306  44.7832822  98.9166878  67.2506901  46.2673321  99.0157669
  78.8033801  40.7269344  88.4905455  79.5069651  40.9319347  89.1063111
  78.0796450  41.2946106  88.7554539  79.6331612  36.4779205  94.6107725
  79.5766813  36.9347757  93.7715358  80.1859954  35.7169890  94.4330568
  83.4436417  32.2668937  95.4357845  83.1873352  31.8665573  96.2666053
  82.8189285  32.9812731  95.3107984  87.7548755  35.0065011  97.9429136
  87.1948313  35.0758200  98.7160698  87.1492259  34.8305995  97.2228633
  70.8243964  46.4401738  99.6947323  70.7076348  47.3847170  99.5926013
  70.0036410  46.1375299 100.0833122  80.7120499  41.1651873  90.5403915
  81.5466103  40.7333072  90.3581390  80.5504842  40.9933887  91.4680810
  80.3666391  37.6683987  91.9060255  80.3115195  37.5028258  90.9648699
  79.7412446  38.3760020  92.0622444  65.1558906  32.9052051 105.7321677
  65.8017769  32.3951005 106.2208902  64.9476057  33.6420733 106.3065102
  77.6812298  39.9732899 111.2313817  78.5503458  40.1473551 110.8700452
  77.2019050  40.7927315 111.1089547  73.6762516  27.1692096  91.4845573
  73.6641186  28.1133936  91.6413844  74.5685938  26.9862241  91.1905034
  71.8498478  47.0930000 102.9103251  72.7525725  47.1253610 103.2269746
  71.6235848  46.1630451 102.9249587  73.6052080  45.8460986  99.5713330
  72.6547711  45.8462848  99.4577702  73.9084566  45.0993721  99.0549364
  77.4914636  23.7634872  95.7391510  76.7247032  23.2093359  95.8848192
  77.9025341  23.8356741  96.6005661  69.4956397  30.0519668 109.8296691
  70.3587858  29.6956473 110.0400016  68.9221807  29.7133563 110.5172095
  89.3404774  51.6821525 100.6359092  89.9783184  51.5628272  99.9322432
  89.2225617  52.6302369 100.6947044  86.1494480  51.6348953 100.5720617
  85.8112992  51.5190017  99.6841152  87.0184248  51.2340118 100.5521623
  82.0081296  53.4884429  96.5617508  81.4446161  53.3974366  95.7933795
  81.8933691  52.6684334  97.0420000  86.6314263  52.7883804 106.5306822
  86.6202904  52.3936603 105.6587326  86.7934903  52.0549877 107.1240594
  79.5545728  54.9835621  99.4001728  80.3467020  54.6426445  98.9848027
  79.7942378  55.0930596 100.3203881  87.5880854  57.1555397  91.8731973
  86.9368834  57.7409477  91.4865986  88.3825217  57.6861592  91.9327010
  81.5136482  54.2444534  92.2719107  82.2867358  53.6973521  92.1331983
  81.8661880  55.1088783  92.4833568  83.3521524  55.5720916 105.4786006
  83.0611390  56.4766547 105.3632673  83.9878509  55.6137444 106.1930076
  84.2777731  52.9497765 102.0687366  84.8741303  52.7253787 101.3544329
  84.3352703  52.2082510 102.6712814  83.8502759  50.4037200  89.9037557
  84.1028280  49.8818721  89.1421020  82.9127319  50.2403345  90.0064240
  88.8946042  49.4072978  97.7112300  89.6809131  48.9892402  97.3602717
  89.1584747  50.3119071  97.8793948  89.0656120  54.8445829  92.4100957
  88.4301953  54.9180455  93.1221862  88.7353526  55.4339428  91.7320036
  94.2954469  49.3448212  98.6145279  95.0279641  48.7747428  98.8483108
  93.5393825  48.9569812  99.0551784  83.5699048  52.3065306  92.1061932
  83.4535306  51.6310209  92.7743016  83.6801308  51.8197680  91.2894085
  85.9130589  51.7675453  95.8108621  85.5488796  51.2406074  96.5221543
  86.7697705  51.3773922  95.6375106  91.8179890  43.0569786 103.0739887
  91.4863215  43.9265197 102.8501102  91.2225503  42.7406070 103.7533918
  85.5536076  46.7965353  90.8069970  85.7210478  47.6645589  91.1740441
  85.3633245  46.9592634  89.8831259  88.3111409  55.2582332 102.4735800
  88.0112132  56.1607371 102.3651607  87.9662469  54.9914515 103.3256953
  81.7623891  51.7096129  98.5072504  80.8374387  51.5772343  98.7150196
  82.0108304  52.4890348  99.0042447  91.7108553  47.7764872 100.1533237
  90.8025430  47.7080280  99.8591998  91.6596149  48.2536817 100.9815063
  85.5325297  49.2523010  91.7916636  85.4124922  49.6980061  92.6302117
  84.8377885  49.6008328  91.2330175  79.1232702  51.3529402  99.3416293
  79.2525083  51.6063881 100.2555705  78.4430153  51.9457110  99.0220949
  83.2932189  62.0226652  95.4406768  83.2156219  62.9734477  95.5195248
  82.6893833  61.6772525  96.0981694  85.7849419  49.1954517 108.0968135
  85.0082753  49.7548438 108.0870999  86.4239982  49.6811300 108.6183005
  93.5770199  45.9781310 101.9311111  92.9344580  46.2713843 101.2850906
  93.0725128  45.8634231 102.7364308  91.2310363  49.7244483  92.6196970
  92.1428219  49.9571870  92.4444668  90.7220010  50.3081528  92.0572049
  84.0395791  52.0039971 107.6586102  84.7810476  52.5425015 107.3820925
  83.3332777  52.6306260 107.8157653  89.5151131  54.1469111 106.2558263
  89.9234487  53.7051522 105.5112895  88.7928392  53.5721739 106.5092456
  85.8682201  49.0841718 103.6291820  86.7143396  49.5081132 103.7726469
  85.8080839  48.4275342 104.3230383  89.8379945  54.7070302 100.0110552
  89.2088808  54.8716016  99.3086620  89.4505608  55.1211911 100.7821516
  89.0181646  46.7446086 105.2872994  88.7742578  47.4988147 104.7507269
  89.2941577  47.1231434 106.1220241  90.9720109  53.2884699 103.9650259
  91.1837004  53.9316459 103.2884640  90.9249857  52.4547015 103.4972189
  88.5746338  45.9002519 100.8686831  87.7130817  46.1983773 101.1603569
  88.6008773  46.1172918  99.9367864  85.3907907  54.4444710  97.2760637
  85.8546253  54.7232413  96.4865260  85.1264705  53.5428155  97.0933728
  82.2831988  53.9916192 100.2140400  82.8533345  54.4203460  99.5757885
  82.8740100  53.7098776 100.9124586  84.3276793  50.5667862  94.0850202
  85.0300837  51.0188906  94.5524129  83.9957422  49.9251681  94.7130095
  82.7757155  49.1579619 108.4601412  82.1455815  49.8395900 108.6936808
  82.6693243  49.0462701 107.5154550  78.0702127  48.8251415  99.3867336
  77.2801181  49.0808944  98.9107446  78.5613375  49.6399753  99.4919376
  92.0865937  56.1656654 102.1372617  92.9083381  55.7636841 101.8555298
  92.0828340  56.0624888 103.0888732  80.0216873  49.1895994  96.3450812
  79.2248036  49.3014689  96.8634308  79.7942465  49.5282647  95.4791703
  85.8522540  55.7140698 104.2933327  85.9166973  56.1761105 105.1291499
  85.1433464  55.0838062 104.4215637  76.3539830  49.0781905 101.8182327
  76.6047869  49.9628915 102.0839902  76.8899379  48.8986507 101.0457418
 100.1771930  52.5095403  98.4857588  99.4235638  51.9402801  98.3301592
 100.3119471  52.4758067  99.4328223  85.5670558  57.3808805  94.1612307
  85.4316233  58.2260341  94.5897155  86.1080370  57.5828083  93.3978241
  82.0537898  43.4600385 110.8226663  81.6604843  42.9066583 111.4974307
  82.8704038  43.7710963 111.2133180  79.0199955  54.8984243  94.7340232
  79.5324476  55.6927493  94.8845797  79.6722668  54.2010533  94.6673834
  80.8294840  58.0149999  96.8162986  81.0061468  58.9367964  96.6283970
  81.6251674  57.7008419  97.2457365  84.9705859  44.8758264 108.4146919
  85.7115572  45.4765417 108.3351382  85.2023781  44.1335902 107.8564962
  80.1147197  50.0614631 106.6925149  80.0000712  49.1599888 106.9932248
  79.2591714  50.3078328 106.3409965  87.1939034  58.0032372 108.2912649
  86.7502889  57.2168750 107.9733554  87.8556248  58.1911522 107.6256540
  81.9526156  59.5328173 102.8173328  82.5033581  59.4045236 102.0450322
  81.1137631  59.8323062 102.4668221  89.2920272  58.2835171 106.3194051
  89.2738748  59.1044052 105.8274320  90.2140192  58.1589247 106.5444192
  85.7493327  55.7979301 107.1617559  86.2821663  55.0367589 106.9316867
  85.2207408  55.5052953 107.9041714  88.9163022  40.9039367 102.6911201
  88.5727291  41.7941009 102.6150311  89.2841984  40.7141025 101.8280786
  76.9848872  53.2272897  95.5099803  77.8224094  53.6369906  95.2933511
  77.1627140  52.2872340  95.4799997  88.8813304  50.8947978  91.1983636
  88.3659928  51.6652583  91.4372023  88.6090613  50.2213114  91.8216697
  86.4660415  45.7397679  96.2568874  85.6102012  45.3504529  96.0774513
  86.8787367  45.8189640  95.3968660  87.9959562  43.2744022 100.6560434
  87.4924358  43.2374157  99.8428239  88.2890169  44.1836765 100.7157091
  84.2402448  43.3582752  99.6626616  85.1055445  43.1625560  99.3032505
  84.3079957  43.1293104 100.5895973  88.6699607  48.7675070  93.0243417
  88.3649743  49.0821219  93.8753560  89.6230050  48.8456490  93.0670750
  87.1146039  54.9265293  94.6736371  86.5867401  54.1918053  94.3609609
  86.6133542  55.7039970  94.4276339  92.0938885  53.1214314  99.7903417
  91.4362560  53.8113575  99.8783546  92.8979285  53.5110746 100.1337404
  81.8464767  45.5884960  97.0342983  82.4208519  45.3660141  96.3016176
  82.4335749  45.6573654  97.7871584  90.9044344  51.4758687  97.8407359
  91.4176226  52.1088678  98.3429069  91.5545568  50.8759882  97.4750719
  82.1734354  47.6189421  91.0538868  81.3371666  47.9564107  91.3748143
  82.0339124  47.4838401  90.1166005  84.1487435  42.4626209  95.7618052
  83.4951847  42.1475226  95.1374667  84.1067909  41.8401949  96.4877875
  85.2598639  52.7445504  87.6771344  84.3525701  52.5134757  87.8762493
  85.7569671  51.9483123  87.8645326  87.3825175  48.9508142 100.0865700
  86.4647736  49.1723089  99.9287388  87.7985319  49.0254453  99.2277407
  88.1660223  50.3499558  95.2168380  88.9132042  50.8620955  94.9075502
  88.4351812  50.0283611  96.0772773  86.4386873  52.8458099  92.1995334
  85.5298092  52.5617131  92.2967804  86.4681957  53.2657177  91.3398641
  90.6139060  47.3856674  97.1987169  89.8761817  46.8734060  97.5297412
  90.8665833  46.9457056  96.3870446  90.7150687  40.1632926  97.7928939
  91.0209564  39.3030289  97.5054854  91.4403292  40.7550546  97.5927932
  77.0075043  50.5663613  96.1810536  76.8099443  49.9732973  95.4561603
  76.4521707  50.2615823  96.8986475  84.9871767  50.4586719  98.3005130
  85.0420377  49.5060556  98.2247606  84.1762969  50.6146158  98.7846428
  86.1362961  54.3866842  89.5383413  85.6982391  53.6702701  89.0789050
  86.8773402  54.6142957  88.9768504  82.9264127  49.0763779  96.0595508
  82.1131992  49.3757949  96.4660701  83.4223121  48.6819468  96.7769991
  85.0772705  59.0721536  97.9929773  85.0348884  59.2982382  97.0638305
  85.9935404  58.8384910  98.1415574  88.5238339  49.5405603 104.8910402
  88.8787726  49.7677076 105.7504868  89.1710470  49.8723980 104.2687658
  94.2536075  52.6624039  95.5959731  94.1153974  52.8525635  94.6680921
  93.8972294  53.4243422  96.0527783  82.4178202  46.6482134 101.6756743
  83.0577581  46.5070894 100.9779707  81.5855732  46.3616648 101.2995345
  94.2805455  54.7300566 100.6071003  94.7141962  54.6375855 101.4554057
  94.9937036  54.7058067  99.9691019  83.1938506  55.9484565  97.7891736
  83.9879104  55.4534885  97.5874311  82.4830198  55.4202428  97.4259441
  88.0133350  58.3302660 102.1404103  88.0670372  58.8993597 102.9081819
  87.1448131  58.5004545 101.7758141  79.5021269  50.0927647  93.8651489
  78.5718857  50.0312102  94.0821451  79.5978741  49.5703599  93.0688130
  79.4206818  46.6182459  96.4529730  79.6813635  47.5327793  96.3438891
  80.2423990  46.1506902  96.6026343  80.8931743  48.0320217 103.6228555
  81.5654797  47.8237579 102.9741204  80.0661530  47.8342303 103.1833787
  95.1421005  54.7724267 103.1403888  95.3356895  55.6770077 103.3863163
  95.0421623  54.3131686 103.9742473  86.7957315  44.6582157 105.6394216
  86.1485230  45.3572107 105.5458692  87.5658331  45.0918301 106.0070464
  90.2036113  54.9231010 108.7144769  90.0521620  54.6941561 107.7974853
  90.1940793  55.8801611 108.7276114  86.9721450  52.4962922 103.6991035
  87.9013510  52.6474082 103.5260003  86.5512480  52.5846943 102.8439682
  85.7709782  56.5213587 101.4689573  85.6320867  56.1532371 102.3415511
  84.9824378  57.0361226 101.2973531  86.3657933  61.6222683  92.8115109
  86.5409689  61.1510726  93.6260732  85.6790722  62.2488449  93.0396370
  87.3214997  55.8995190  98.8578411  86.9864829  55.8595959  99.7536061
  86.8218942  55.2339905  98.3848821  81.2959241  51.3062820 104.3830992
  81.1579039  50.5743058 104.9842531  82.2064164  51.2171720 104.1015180
  90.2574188  53.2451224  89.1315470  89.6403359  52.5198052  89.0348523
  89.7890677  54.0060584  88.7882545  83.9241541  51.0182779 103.8714672
  84.6341160  50.3775971 103.8301290  83.8810849  51.2695674 104.7940852
  91.9128320  57.9550132 106.7921251  91.8540866  57.2709352 106.1251834
  92.3147838  58.6969122 106.3401877  82.6370475  48.0047997 105.6910311
  82.1007832  47.5538735 106.3431907  82.0487184  48.1393906 104.9480775
  80.9319019  64.7712046  99.5854970  81.1715617  65.4030570 100.2633988
  80.0888215  64.4200086  99.8720329  82.0472734  47.4636648  88.2536775
  81.1702201  47.3425449  87.8899021  82.5230487  46.6722726  88.0015663
  91.9145727  55.9189716 105.0235230  91.0272506  55.5815638 105.1461629
  92.4844278  55.1872747 105.2603996  73.5674874  52.2513808  98.3478282
  74.2545914  51.9375538  97.7599297  73.4123003  53.1555173  98.0745533
  78.3709597  47.1404004 102.7763306  78.2867785  46.5329674 102.0413715
  77.5492303  47.6313023 102.7772802  85.4446881  60.5791168 101.9896474
  85.3717052  61.3846140 102.5015778  85.0024274  60.7783134 101.1644495
  85.2336660  59.8162939  95.4999295  84.4504182  60.3584619  95.5937520
  85.9329405  60.3336918  95.8993536  88.5433310  45.6257568  98.1433501
  89.0402010  44.8727530  97.8234571  87.7720292  45.6621885  97.5776710
  96.3963068  51.3297934  99.7851792  96.3852944  52.2122649  99.4145725
  95.5280447  50.9769484  99.5906329  87.9045564  60.4778003 104.1454632
  88.6173536  61.1125467 104.0730534  87.4135593  60.5741869 103.3294634
  89.6263091  54.3829255  95.7171924  88.6919370  54.5030718  95.5476628
  89.8039760  53.4801722  95.4531934  85.1268279  47.7674951  97.8705185
  84.7566067  47.2145991  98.5586091  85.6227372  47.1633084  97.3180185
  93.0135642  50.2246574  96.2521958  93.4796095  51.0574566  96.1782261
  93.4643143  49.7591556  96.9567217  82.9557478  58.2272446 104.9660203
  83.6566937  58.8608929 105.1189597  82.4852593  58.5687178 104.2055842
  90.9852305  42.5927161 100.2912859  90.0715385  42.8231388 100.4595066
  91.4145407  42.6765606 101.1426892  90.7558764  50.7817053 102.7912753
  90.1030214  51.0292961 102.1365206  91.1339144  49.9681192 102.4575231
  87.7165938  60.8176747  96.8940924  87.8988332  59.9998403  97.3568676
  88.5398924  61.0344439  96.4565814  88.0508103  59.7444932  94.1555972
  88.5795869  59.2337386  93.5426134  88.3136323  59.4287462  95.0201505
  86.8046337  51.5236864 109.2778791  86.1286974  51.4230994 109.9481166
  87.6273971  51.3676078 109.7414788  78.5525196  57.7608801 101.8991306
  79.1378633  57.0152489 102.0319210  78.3550034  58.0712758 102.7827970
  81.4063851  60.7960048  96.9153748  80.7374226  61.2806176  96.4317788
  81.2676721  61.0429269  97.8297127  73.1442850  50.3314401 100.6195749
  73.1826950  49.7977992 101.4132867  72.6383143  49.8049607 100.0006726
  85.5469120  62.8303792 103.5136407  86.0987428  62.9935413 104.2785492
  85.8875313  63.4208230 102.8416431  80.5233613  45.1778942 104.1158291
  80.5874939  46.0393773 103.7035689  80.4600733  44.5652943 103.3830650
  79.9985885  47.2502074 107.7631326  80.6257924  46.8679152 108.3768850
  79.1413804  47.0316276 108.1287018  90.3979994  57.6565049 109.3685061
  90.9419898  58.2695008 108.8740016  89.8166839  58.2144628 109.8852074
  76.7751428  49.0578503  93.6949680  77.0704869  48.1489182  93.6416734
  75.8739464  49.0366243  93.3730683  88.6837507  60.7785767 100.5000089
  88.5588646  59.9775507  99.9911034  89.3416598  61.2731961 100.0114059
  80.3045675  47.1334500  99.6777229  79.5832261  47.7470468  99.5384702
  81.0938931  47.6692265  99.5993875  90.7472415  58.5794788 102.1279639
  89.8002751  58.4600139 102.0557966  91.0955188  57.6917286 102.2105900
  83.1071989  44.4688926 105.9517881  83.6306390  44.7151223 106.7144190
  82.8884322  45.3008961 105.5321018  78.5039270  46.7392601  93.8189005
  78.1751976  45.8589980  93.6364111  78.8578640  46.6840270  94.7065395
  87.7518849  58.3747504  98.3283991  87.6043811  57.4464211  98.5091561
  88.5772342  58.3967594  97.8441066  81.6181093  47.0265571  94.1864483
  81.9577165  47.5551492  93.4643092  82.0653213  47.3645977  94.9623050
  91.3552970  59.1976062  99.4148864  92.2799518  58.9918924  99.2773315
  91.1868274  58.9492464 100.3238205  84.3124534  45.4102622 103.6367551
  83.9721354  44.6110435 104.0388231  83.6063540  45.7104332 103.0644384
  84.9641005  42.4951934 102.0894874  85.7867075  42.0212412 101.9673765
  85.2079069  43.2742418 102.5893561  83.6049240  45.5240192  92.3857776
  84.3257602  45.9021445  91.8821493  82.9814544  46.2429069  92.4892754
  87.7480363  46.2285341  93.3216108  87.9643977  47.1109979  93.0204936
  87.2674430  45.8371555  92.5921750  82.4879584  49.1871055  99.8986853
  82.3424165  49.5011358 100.7911134  82.0104788  49.8055955  99.3457751
  84.3475967  46.1773603  99.9467742  84.3337536  45.2814696  99.6100040
  85.0648395  46.1844266 100.5806028  86.2002098  46.6110943 101.9920870
  85.9419876  47.5328013 101.9905200  85.6687138  46.2141377 102.6821334
  76.9625246  51.7276399 102.8374514  76.4178714  52.5036207 102.9694788
  77.8404596  52.0747204 102.6793635  83.7512863  45.0587983  95.2155313
  83.8728774  44.1304629  95.4146200  83.4614905  45.0726669  94.3033628
  86.6204053  42.7442893  98.3522032  86.6425750  42.8082226  97.3974012
  87.0372112  41.9047402  98.5462539  96.9987678  52.4798153  96.3901255
  97.4418824  51.7305478  95.9920378  96.1214188  52.4708289  96.0074987
  77.7491268  50.8546295 105.7304671  77.0073004  51.0028931 106.3169301
  77.4284013  51.1154561 104.8671420  85.6934931  60.3962274 105.5285061
  86.0022057  60.1511420 106.4007760  86.4910413  60.6008912 105.0403931
  85.7155543  62.5500183  97.7590437  85.2760533  62.0576562  98.4523294
  86.4663660  62.0073151  97.5182513  78.1947882  58.7411724  97.7615066
  79.0205902  58.4415496  97.3813709  77.8441934  57.9719346  98.2104854
  83.1629415  58.0938192  99.8312739  82.5409424  57.4308897  99.5314967
  83.8334282  58.1199324  99.1486387  76.3956487  56.6598050  98.7203999
  75.5588395  56.2320225  98.5388000  76.3680132  56.8530494  99.6574790
  83.2353943  46.5719980 109.4245245  83.2842098  47.4482103 109.0423015
  83.7776457  46.0297373 108.8516888  93.7208788  57.1161104 108.7046382
  92.9304332  57.0985242 108.1650882  93.4842143  57.6549397 109.4595419
  93.8406663  53.9653570 106.0179111  93.8904668  53.8003577 106.9594634
  93.7320587  53.0980829 105.6276992  82.7242922  56.6442116  93.3071200
  82.8731042  57.3277580  92.6537872  83.5309365  56.6247206  93.8220655
  91.1310426  49.9484498 107.3338417  92.0320288  49.8090963 107.0422415
  91.2058400  50.1138953 108.2736595  85.4653231  47.3251353 106.1791604
  84.5956540  47.6184919 105.9074192  85.7012711  47.9091798 106.8998867
  95.3424860  56.3850511 106.2621132  95.0509668  56.7480492 107.0984593
  94.7296991  55.6717520 106.0834464  96.5420542  53.9503391  98.7823703
  97.3767434  54.3893195  98.9461263  96.6779671  53.4742044  97.9631948
  93.5912048  51.5083126 104.7301190  94.0666170  51.7010772 103.9220042
  92.6677614  51.5642312 104.4844574  80.4795555  52.6707293  94.3132269
  80.2341597  51.7669623  94.5112479  80.6491470  52.6724444  93.3711747
  88.1692265  43.5430970 103.6957024  88.6874209  44.2791997 103.3703513
  87.8147398  43.8494963 104.5303783  79.7491203  48.4035651  91.8118430
  79.0560447  48.4780006  91.1558466  79.5042954  47.6395994  92.3339947
  88.4204859  39.9631252  99.2157921  88.7006613  39.2954441  99.8418347
  89.2055466  40.1560348  98.7032585  86.2238328  59.1390246  90.7782947
  85.6512295  59.7580433  90.3253419  86.7971121  59.6889608  91.3122869
  92.2913717  48.3848886 102.9629496  93.2431140  48.4846984 102.9841720
  92.1217168  47.5927155 103.4727580  90.3128097  45.4704469 103.1488897
  89.7178029  45.7509482 102.4535385  90.0277794  45.9598370 103.9205638
  89.4435587  59.4227396  91.9091529  90.3766260  59.3572958  92.1124405
  89.3558800  60.2583663  91.4506062  94.7701795  51.6055006 102.0771796
  94.7378115  50.6671007 102.2631479  95.3802419  51.6839043 101.3437620
  86.6085126  50.4751059  88.1199000  87.5544231  50.3457267  88.1887418
  86.2299371  49.7365721  88.5968428  94.9196284  48.3966049 102.1230079
  94.4035332  47.6124506 101.9360008  95.8036232  48.0684766 102.2876598
  92.5807011  42.1407065  98.0825891  92.3831832  41.8322153  98.9669223
  93.1906716  42.8668704  98.2123821 100.5878345  52.6671013 101.2177832
 101.3181733  52.4056301 101.7785536  99.9785290  51.9299735 101.2579900
  98.6693642  50.8078875 101.8152284  97.9426806  50.6734840 101.2068775
  98.2540929  51.1155704 102.6209002  86.4923819  54.5268805 109.5799657
  87.4126828  54.7047404 109.7739703  86.4573402  53.5824850 109.4279356
  84.7928043  48.4001035  88.0553885  83.8859499  48.1034148  88.1316598
  85.0704024  48.1030853  87.1888171  75.7105984  49.7207399  98.5052931
  75.3908768  48.8672707  98.2127305  75.1639412  49.9355977  99.2610899
  79.4885891  52.4369840 102.2222438  79.7071901  53.3686947 102.2410472
  79.9011665  52.0777814 103.0077242  86.4090109  42.9437925  94.2098126
  85.5990837  42.5985010  94.5853372  87.0974526  42.6345469  94.7985738
  88.3380657  42.0215972  95.8322423  88.8911696  42.4411425  96.4912446
  88.5750744  41.0951720  95.8745379  84.3613756  48.0103045 111.6125187
  84.2610483  48.9597402 111.5437278  84.1435298  47.6821284 110.7401257
  83.5626828  45.2587970  88.1965864  84.4245992  45.5842869  88.4561681
  83.7477172  44.4719466  87.6838930  75.5794244  53.3410310 100.4746053
  74.8857715  52.9264263  99.9616007  76.3267235  53.3830847  99.8779472
  91.7159464  44.1316497  95.3401087  91.1358133  44.7901301  94.9579139
  91.4495397  43.3093841  94.9288505  90.1663031  43.5321555  97.5422407
  90.6662809  43.6438089  96.7336726  90.8098639  43.2282607  98.1823216
  84.2245026  51.4400184 110.4290248  83.7412108  52.2400544 110.6354137
  84.3105966  51.4508129 109.4757692  77.4930986  53.2728564  98.3512068
  77.4701674  53.3716251  97.3993951  77.8031623  54.1193715  98.6729234
  80.1518364  55.3304719 102.4658682  81.1061618  55.2988661 102.3988614
  79.9530888  54.8695343 103.2808908  80.7417746  53.9005835 105.0329480
  81.5610635  54.3949914 105.0564317  81.0154554  52.9837803 105.0047047
  90.4984342  46.2916587  94.3957435  89.6110197  46.5766238  94.1777630
  90.9138331  46.1310351  93.5484712  93.8498878  46.3163108  98.1111775
  94.6259269  46.8059561  98.3836391  93.1247013  46.7421162  98.5683644
  96.2871437  47.0290727  99.1685715  96.8815928  46.7886463  98.4579023
  96.3598021  46.3097858  99.7959251  78.5068593  60.8724338  99.4828880
  78.3723061  60.1124739  98.9166878  78.0900655  61.5965238  99.0157669
  89.6427556  56.0561262  88.4905455  90.3463406  56.2611264  89.1063111
  88.9190205  56.6238024  88.7554539  90.4725366  51.8071123  94.6107725
  90.4160567  52.2639675  93.7715358  91.0253709  51.0461808  94.4330568
  94.2830172  47.5960855  95.4357845  94.0267106  47.1957491  96.2666053
  93.6583040  48.3104649  95.3107984  98.5942510  50.3356928  97.9429136
  98.0342068  50.4050118  98.7160698  97.9886013  50.1597913  97.2228633
  81.6637719  61.7693655  99.6947323  81.5470103  62.7139088  99.5926013
  80.8430165  61.4667217 100.0833122  91.2060145  52.9975904  91.9060255
  91.1508949  52.8320176  90.9648699  90.5806201  53.7051937  92.0622444
  75.9952660  48.2343969 105.7321677  76.6411524  47.7242923 106.2208902
  75.7869811  48.9712650 106.3065102  88.5206053  55.3024816 111.2313817
  89.3897212  55.4765469 110.8700452  88.0412804  56.1219233 111.1089547
  84.5156271  42.4984013  91.4845573  84.5034941  43.4425853  91.6413844
  85.4079693  42.3154159  91.1905034  82.6892233  62.4221917 102.9103251
  83.5919479  62.4545528 103.2269746  82.4629603  61.4922368 102.9249587
  84.4445835  61.1752904  99.5713330  83.4941466  61.1754765  99.4577702
  84.7478321  60.4285638  99.0549364  88.3308390  39.0926790  95.7391510
  87.5640786  38.5385277  95.8848192  88.7419095  39.1648659  96.6005661
  80.3350151  45.3811586 109.8296691  81.1981613  45.0248391 110.0400016
  79.7615562  45.0425481 110.5172095 100.1798528  67.0113442 100.6359092
 100.8176938  66.8920190  99.9322432 100.0619371  67.9594286 100.6947044
  96.9888235  66.9640870 100.5720617  96.6506746  66.8481935  99.6841152
  97.8578003  66.5632035 100.5521623  97.4708018  68.1175722 106.5306822
  97.4596658  67.7228520 105.6587326  97.6328657  67.3841795 107.1240594
  90.3939482  70.3127538  99.4001728  91.1860774  69.9718363  98.9848027
  90.6336132  70.4222513 100.3203881  94.1915279  70.9012834 105.4786006
  93.9005145  71.8058465 105.3632673  94.8272263  70.9429361 106.1930076
  95.1171486  68.2789682 102.0687366  95.7135058  68.0545705 101.3544329
  95.1746457  67.5374428 102.6712814 105.1348224  64.6740129  98.6145279
 105.8673396  64.1039346  98.8483108 104.3787580  64.2861730  99.0551784
 102.6573644  58.3861703 103.0739887 102.3256969  59.2557114 102.8501102
 102.0619258  58.0697987 103.7533918  99.1505164  70.5874249 102.4735800
  98.8505887  71.4899288 102.3651607  98.8056223  70.3206433 103.3256953
  89.9626456  66.6821320  99.3416293  90.0918837  66.9355799 100.2555705
  89.2823908  67.2749028  99.0220949  94.1325944  77.3518570  95.4406768
  94.0549973  78.3026395  95.5195248  93.5287587  77.0064442  96.0981694
  96.6243173  64.5246435 108.0968135  95.8476507  65.0840355 108.0870999
  97.2633736  65.0103218 108.6183005 104.4163954  61.3073228 101.9311111
 103.7738334  61.6005761 101.2850906 103.9118882  61.1926148 102.7364308
  94.8789546  67.3331889 107.6586102  95.6204230  67.8716932 107.3820925
  94.1726531  67.9598177 107.8157653 100.3544885  69.4761029 106.2558263
 100.7628241  69.0343439 105.5112895  99.6322147  68.9013656 106.5092456
  96.7075955  64.4133636 103.6291820  97.5537151  64.8373049 103.7726469
  96.6474593  63.7567260 104.3230383 100.6773700  70.0362220 100.0110552
 100.0482562  70.2007934  99.3086620 100.2899362  70.4503829 100.7821516
 104.5562932  70.9716657  97.3654916 103.8713970  71.3515559  96.8151949
 104.6406781  71.5811984  98.0986863  99.8575401  62.0738004 105.2872994
  99.6136333  62.8280065 104.7507269 100.1335331  62.4523352 106.1220241
 101.8113863  68.6176616 103.9650259 102.0230759  69.2608376 103.2884640
 101.7643612  67.7838933 103.4972189  93.1225743  69.3208109 100.2140400
  93.6927100  69.7495378  99.5757885  93.7133855  69.0390694 100.9124586
  93.6150909  64.4871537 108.4601412  92.9849570  65.1687818 108.6936808
  93.5086997  64.3754618 107.5154550  88.9095882  64.1543333  99.3867336
  88.1194936  64.4100861  98.9107446  89.4007129  64.9691671  99.4919376
 102.9259691  71.4948572 102.1372617 103.7477135  71.0928759 101.8555298
 102.9222094  71.3916806 103.0888732  96.6916295  71.0432615 104.2933327
  96.7560727  71.5053022 105.1291499  95.9827219  70.4129980 104.4215637
  87.1933585  64.4073823 101.8182327  87.4441623  65.2920833 102.0839902
  87.7293133  64.2278425 101.0457418 111.0165684  67.8387320  98.4857588
 110.2629393  67.2694718  98.3301592 111.1513226  67.8049985  99.4328223
  92.8931652  58.7892303 110.8226663  92.4998598  58.2358501 111.4974307
  93.7097792  59.1002881 111.2133180  91.6688595  73.3441917  96.8162986
  91.8455223  74.2659882  96.6283970  92.4645428  73.0300336  97.2457365
  95.8099613  60.2050182 108.4146919  96.5509326  60.8057335 108.3351382
  96.0417536  59.4627819 107.8564962  90.9540951  65.3906549 106.6925149
  90.8394466  64.4891806 106.9932248  90.0985469  65.6370246 106.3409965
  92.7919910  74.8620091 102.8173328  93.3427335  74.7337154 102.0450322
  91.9531386  75.1614980 102.4668221 100.1314027  73.6127089 106.3194051
 100.1132502  74.4335970 105.8274320 101.0533947  73.4881164 106.5444192
  96.5887081  71.1271219 107.1617559  97.1215418  70.3659507 106.9316867
  96.0601162  70.8344870 107.9041714  99.7556776  56.2331285 102.6911201
  99.4121045  57.1232926 102.6150311 100.1235739  56.0432942 101.8280786
  87.8242627  68.5564815  95.5099803  88.6617849  68.9661823  95.2933511
  88.0020894  67.6164257  95.4799997  95.0796202  58.6874669  99.6626616
  95.9449199  58.4917478  99.3032505  95.1473711  58.4585021 100.5895973
 104.6941333  68.9772250  93.1336809 103.9170776  68.6383410  92.6891972
 105.3732814  68.9824873  92.4591774 102.9332640  68.4506232  99.7903417
 102.2756314  69.1405493  99.8783546 103.7373039  68.8402664 100.1337404
 101.7438099  66.8050604  97.8407359 102.2569980  67.4380596  98.3429069
 102.3939322  66.2051800  97.4750719  99.0060473  76.7834929  90.5968030
  98.3322172  77.0866625  91.2052988  99.3926295  77.5864009  90.2473487
 102.5099895  71.7856606  95.9686502 102.0562222  70.9447516  96.0251692
 101.8793862  72.4218004  96.3061282 100.9532834  73.6233102  96.9036320
 101.2455808  74.1838160  96.1848686 101.4631455  73.9161663  97.6589479
 101.5544442  55.4924844  97.7928939 101.8603319  54.6322207  97.5054854
 102.2797047  56.0842464  97.5927932  87.8468798  65.8955530  96.1810536
  87.6493198  65.3024891  95.4561603  87.2915462  65.5907741  96.8986475
  95.9166459  74.4013453  97.9929773  95.8742638  74.6274300  97.0638305
  96.8329158  74.1676828  98.1415574  99.3632093  64.8697521 104.8910402
  99.7181481  65.0968994 105.7504868 100.0104224  65.2015898 104.2687658
 105.0929830  67.9915957  95.5959731 104.9547729  68.1817553  94.6680921
 104.7366049  68.7535340  96.0527783  93.2571956  61.9774052 101.6756743
  93.8971335  61.8362811 100.9779707  92.4249487  61.6908565 101.2995345
 105.1199210  70.0592484 100.6071003 105.5535716  69.9667773 101.4554057
 105.8330790  70.0349984  99.9691019  94.0332260  71.2776482  97.7891736
  94.8272859  70.7826803  97.5874311  93.3223952  70.7494346  97.4259441
  98.8527104  73.6594578 102.1404103  98.9064127  74.2285514 102.9081819
  97.9841886  73.8296463 101.7758141  91.7325498  63.3612134 103.6228555
  92.4048551  63.1529496 102.9741204  90.9055284  63.1634220 103.1833787
 105.9814759  70.1016185 103.1403888 106.1750649  71.0061995 103.3863163
 105.8815377  69.6423604 103.9742473  97.6351070  59.9874075 105.6394216
  96.9878985  60.6864025 105.5458692  98.4052085  60.4210219 106.0070464
  97.8115204  67.8254840 103.6991035  98.7407264  67.9766000 103.5260003
  97.3906234  67.9138861 102.8439682  96.6103536  71.8505504 101.4689573
  96.4714622  71.4824289 102.3415511  95.8218132  72.3653144 101.2973531
  97.2051688  76.9514601  92.8115109  97.3803444  76.4802644  93.6260732
  96.5184476  77.5780367  93.0396370  98.1608751  71.2287107  98.8578411
  97.8258584  71.1887877  99.7536061  97.6612697  70.5631823  98.3848821
  92.1352995  66.6354737 104.3830992  91.9972793  65.9034976 104.9842531
  93.0457919  66.5463637 104.1015180  94.7635296  66.3474697 103.8714672
  95.4734914  65.7067889 103.8301290  94.7204604  66.5987591 104.7940852
  93.4764230  63.3339914 105.6910311  92.9401587  62.8830653 106.3431907
  92.8880938  63.4685823 104.9480775  91.7712773  80.1003964  99.5854970
  92.0109371  80.7322488 100.2633988  90.9281970  79.7492004  99.8720329
 102.7539482  71.2481634 105.0235230 101.8666261  70.9107556 105.1461629
 103.3238033  70.5164665 105.2603996  84.4068629  67.5805726  98.3478282
  85.0939669  67.2667456  97.7599297  84.2516758  68.4847090  98.0745533
  89.2103351  62.4695922 102.7763306  89.1261540  61.8621592 102.0413715
  88.3886057  62.9604940 102.7772802  96.2840635  75.9083086 101.9896474
  96.2110807  76.7138058 102.5015778  95.8418028  76.1075052 101.1644495
  96.0730415  75.1454856  95.4999295  95.2897937  75.6876536  95.5937520
  96.7723160  75.6628836  95.8993536 107.2356822  66.6589851  99.7851792
 107.2246699  67.5414567  99.4145725 106.3674202  66.3061402  99.5906329
  98.7439319  75.8069920 104.1454632  99.4567291  76.4417385 104.0730534
  98.2529347  75.9033786 103.3294634 103.8529397  65.5538492  96.2521958
 104.3189849  66.3866484  96.1782261 104.3036897  65.0883474  96.9567217
  93.7951232  73.5564364 104.9660203  94.4960692  74.1900847 105.1189597
  93.3246347  73.8979095 104.2055842 101.9205628  71.8982313  93.2508110
 102.1965472  71.7838908  94.1601984 101.0510127  71.4999798  93.2120283
 101.8246060  57.9219079 100.2912859 100.9109139  58.1523306 100.4595066
 102.2539161  58.0057523 101.1426892 101.5952518  66.1108971 102.7912753
 100.9423968  66.3584879 102.1365206 101.9732898  65.2973109 102.4575231
  98.5559692  76.1468664  96.8940924  98.7382087  75.3290320  97.3568676
  99.3792678  76.3636357  96.4565814  98.8901858  75.0736849  94.1555972
  99.4189624  74.5629304  93.5426134  99.1530077  74.7579380  95.0201505
  97.6440091  66.8528782 109.2778791  96.9680728  66.7522911 109.9481166
  98.4667725  66.6967996 109.7414788  89.3918950  73.0900719 101.8991306
  89.9772387  72.3444407 102.0319210  89.1943789  73.4004675 102.7827970
  92.2457605  76.1251966  96.9153748  91.5767981  76.6098094  96.4317788
  92.1070475  76.3721187  97.8297127  83.9836605  65.6606319 100.6195749
  84.0220704  65.1269910 101.4132867  83.4776898  65.1341524 100.0006726
  96.3862874  78.1595710 103.5136407  96.9381182  78.3227331 104.2785492
  96.7269068  78.7500147 102.8416431  91.3627367  60.5070859 104.1158291
  91.4268694  61.3685690 103.7035689  91.2994488  59.8944861 103.3830650
  90.8379640  62.5793992 107.7631326  91.4651679  62.1971069 108.3768850
  89.9807559  62.3608194 108.1287018  99.5231261  76.1077685 100.5000089
  99.3982401  75.3067425  99.9911034 100.1810352  76.6023879 100.0114059
  91.1439430  62.4626418  99.6777229  90.4226015  63.0762385  99.5384702
  91.9332685  62.9984182  99.5993875 101.5866170  73.9086705 102.1279639
 100.6396505  73.7892056 102.0557966 101.9348943  73.0209203 102.2105900
  93.9465743  59.7980844 105.9517881  94.4700145  60.0443141 106.7144190
  93.7278076  60.6300879 105.5321018  98.5912603  73.7039421  98.3283991
  98.4437565  72.7756129  98.5091561  99.4166097  73.7259512  97.8441066
 102.1946725  74.5267980  99.4148864 103.1193272  74.3210842  99.2773315
 102.0262028  74.2784381 100.3238205  95.1518288  60.7394539 103.6367551
  94.8115108  59.9402352 104.0388231  94.4457294  61.0396250 103.0644384
  95.8034760  57.8243852 102.0894874  96.6260829  57.3504330 101.9673765
  96.0472823  58.6034335 102.5893561  93.3273339  64.5162972  99.8986853
  93.1817919  64.8303275 100.7911134  92.8498542  65.1347873  99.3457751
  95.1869722  61.5065520  99.9467742  95.1731290  60.6106614  99.6100040
  95.9042150  61.5136184 100.5806028  97.0395852  61.9402861 101.9920870
  96.7813630  62.8619931 101.9905200  96.5080893  61.5433295 102.6821334
 101.9842041  75.0453648  94.7710955 102.1578919  74.4800070  94.0184808
 102.4770932  75.8454543  94.5890445  87.8019001  67.0568317 102.8374514
  87.2572469  67.8328125 102.9694788  88.6798351  67.4039121 102.6793635
 107.8381432  67.8090071  96.3901255 108.2812578  67.0597396  95.9920378
 106.9607943  67.8000207  96.0074987 102.9717214  74.3620412  91.8707854
 103.6668118  74.9827105  92.0895168 103.3140364  73.5115763  92.1460231
  88.5885023  66.1838213 105.7304671  87.8466759  66.3320848 106.3169301
  88.2677767  66.4446479 104.8671420 104.8708637  71.8120118  93.3995184
 105.3959961  72.1507390  92.6744504 104.7830989  70.8767133  93.2158319
  96.5328685  75.7254191 105.5285061  96.8415812  75.4803338 106.4007760
  97.3304167  75.9300830 105.0403931  96.5549297  77.8792101  97.7590437
  96.1154288  77.3868480  98.4523294  97.3057414  77.3365069  97.5182513
  89.0341636  74.0703642  97.7615066  89.8599656  73.7707414  97.3813709
  88.6835688  73.3011264  98.2104854  94.0023170  73.4230110  99.8312739
  93.3803179  72.7600815  99.5314967  94.6728036  73.4491242  99.1486387
  87.2350241  71.9889968  98.7203999  86.3982150  71.5612143  98.5388000
  87.2073887  72.1822411  99.6574790  94.0747697  61.9011898 109.4245245
  94.1235853  62.7774021 109.0423015  94.6170211  61.3589291 108.8516888
 104.6800418  69.2945488 106.0179111 104.7298423  69.1295495 106.9594634
 104.5714341  68.4272747 105.6276992  93.5636676  71.9734033  93.3071200
  93.7124797  72.6569498  92.6537872  94.3703120  71.9539123  93.8220655
 101.9704180  65.2776416 107.3338417 102.8714043  65.1382880 107.0422415
 102.0452155  65.4430870 108.2736595  96.3046986  62.6543270 106.1791604
  95.4350295  62.9476836 105.9074192  96.5406466  63.2383715 106.8998867
 107.3814297  69.2795309  98.7823703 108.2161188  69.7185113  98.9461263
 107.5173426  68.8033962  97.9631948 104.4305803  66.8375044 104.7301190
 104.9059924  67.0302690 103.9220042 103.5071368  66.8934230 104.4844574
  99.0086019  58.8722887 103.6957024  99.5267963  59.6083914 103.3703513
  98.6541152  59.1786881 104.5303783  99.2598614  55.2923170  99.2157921
  99.5400367  54.6246359  99.8418347 100.0449220  55.4852265  98.7032585
  97.0632082  74.4682164  90.7782947  96.4906049  75.0872351  90.3253419
  97.6364876  75.0181525  91.3122869 103.1307472  63.7140804 102.9629496
 104.0824895  63.8138901 102.9841720 102.9610922  62.9219072 103.4727580
 101.1521851  60.7996387 103.1488897 100.5571783  61.0801400 102.4535385
 100.8671548  61.2890288 103.9205638 100.2829342  74.7519314  91.9091529
 101.2160015  74.6864876  92.1124405 100.1952555  75.5875581  91.4506062
 102.9117358  74.0685184  88.8695477 102.8330990  73.7345048  89.7631235
 103.7327025  74.5606952  88.8686949 105.6095550  66.9346924 102.0771796
 105.5771870  65.9962924 102.2631479 106.2196173  67.0130960 101.3437620
 105.7590038  63.7257967 102.1230079 105.2429087  62.9416424 101.9360008
 106.6429987  63.3976684 102.2876598 103.4200765  57.4698982  98.0825891
 103.2225586  57.1614071  98.9669223 104.0300471  58.1960621  98.2123821
 111.4272100  67.9962930 101.2177832 112.1575488  67.7348218 101.7785536
 110.8179045  67.2591652 101.2579900 109.5087397  66.1370793 101.8152284
 108.7820560  66.0026758 101.2068775 109.0934684  66.4447622 102.6209002
  86.5499738  65.0499316  98.5052931  86.2302522  64.1964624  98.2127305
  86.0033166  65.2647894  99.2610899  90.3279646  67.7661757 102.2222438
  90.5465655  68.6978865 102.2410472  90.7405419  67.4069732 103.0077242
  99.1774412  57.3507889  95.8322423  99.7305450  57.7703343  96.4912446
  99.4144498  56.4243637  95.8745379  95.2007511  63.3394963 111.6125187
  95.1004238  64.2889320 111.5437278  94.9829053  63.0113202 110.7401257
  86.4187998  68.6702228 100.4746053  85.7251469  68.2556181  99.9616007
  87.1660989  68.7122764  99.8779472  95.0638781  66.7692102 110.4290248
  94.5805863  67.5692462 110.6354137  95.1499720  66.7800047 109.4757692
  88.3324741  68.6020482  98.3512068  88.3095429  68.7008169  97.3993951
  88.6425377  69.4485632  98.6729234  90.9912118  70.6596637 102.4658682
  91.9455372  70.6280579 102.3988614  90.7924642  70.1987260 103.2808908
  91.5811501  69.2297753 105.0329480  92.4004390  69.7241831 105.0564317
  91.8548308  68.3129721 105.0047047 104.6892633  61.6455026  98.1111775
 105.4653023  62.1351478  98.3836391 103.9640767  62.0713080  98.5683644
 107.1265192  62.3582645  99.1685715 107.7209682  62.1178381  98.4579023
 107.1991775  61.6389776  99.7959251  89.3462347  76.2016256  99.4828880
  89.2116815  75.4416657  98.9166878  88.9294410  76.9257156  99.0157669
 100.4821310  71.3853180  88.4905455 101.1857160  71.5903182  89.1063111
  99.7583959  71.9529941  88.7554539 105.1223926  62.9252773  95.4357845
 104.8660861  62.5249408  96.2666053 104.4976794  63.6396567  95.3107984
 109.4336264  65.6648846  97.9429136 108.8735822  65.7342035  98.7160698
 108.8279768  65.4889831  97.2228633  92.5031473  77.0985573  99.6947323
  92.3863857  78.0431006  99.5926013  91.6823919  76.7959135 100.0833122
 102.3908008  71.8235709  90.5403915 103.2253612  71.3916907  90.3581390
 102.2292351  71.6517722  91.4680810  86.8346415  63.5635886 105.7321677
  87.4805278  63.0534840 106.2208902  86.6263566  64.3004568 106.3065102
  93.5285987  77.7513835 102.9103251  94.4313234  77.7837445 103.2269746
  93.3023357  76.8214286 102.9249587  95.2839589  76.5044822  99.5713330
  94.3335220  76.5046683  99.4577702  95.5872075  75.7577556  99.0549364
  99.1702145  54.4218708  95.7391510  98.4034541  53.8677194  95.8848192
  99.5812850  54.4940577  96.6005661  91.1743906  60.7103504 109.8296691
  92.0375367  60.3540308 110.0400016  90.6009316  60.3717398 110.5172095
 103.6868805  84.1468264  96.5617508 103.1233670  84.0558201  95.7933795
 103.5721200  83.3268169  97.0420000 109.2668363  87.8139232  91.8731973
 108.6156343  88.3993313  91.4865986 110.0612726  88.3445427  91.9327010
 103.1923991  84.9028369  92.2719107 103.9654867  84.3557356  92.1331983
 103.5449389  85.7672619  92.4833568 105.5290268  81.0621035  89.9037557
 105.7815789  80.5402557  89.1421020 104.5914828  80.8987181  90.0064240
 110.5733551  80.0656814  97.7112300 111.3596640  79.6476237  97.3602717
 110.8372256  80.9702906  97.8793948 110.7443629  85.5029664  92.4100957
 110.1089462  85.5764291  93.1221862 110.4141035  86.0923263  91.7320036
 105.2486557  82.9649141  92.1061932 105.1322815  82.2894045  92.7743016
 105.3588817  82.4781515  91.2894085 107.5918098  82.4259288  95.8108621
 107.2276305  81.8989909  96.5221543 108.4485214  82.0357758  95.6375106
 107.2323585  77.4549188  90.8069970 107.3997987  78.3229425  91.1740441
 107.0420754  77.6176470  89.8831259 103.4411400  82.3679964  98.5072504
 102.5161896  82.2356178  98.7150196 103.6895813  83.1474183  99.0042447
 107.2112806  79.9106846  91.7916636 107.0912431  80.3563896  92.6302117
 106.5165394  80.2592163  91.2330175 100.8020211  82.0113237  99.3416293
 100.9312592  82.2647716 100.2555705 100.1217662  82.6040945  99.0220949
 112.9097872  80.3828319  92.6196970 113.8215728  80.6155706  92.4444668
 112.4007519  80.9665363  92.0572049 110.2533847  76.5586355 100.8686831
 109.3918326  76.8567608 101.1603569 110.2796282  76.7756754  99.9367864
 107.0695416  85.1028545  97.2760637 107.5333762  85.3816248  96.4865260
 106.8052214  84.2011990  97.0933728 106.0064302  81.2251698  94.0850202
 106.7088346  81.6772741  94.5524129 105.6744931  80.5835517  94.7130095
  99.7489636  79.4835250  99.3867336  98.9588690  79.7392779  98.9107446
 100.2400884  80.2983588  99.4919376 101.7004382  79.8479830  96.3450812
 100.9035545  79.9598524  96.8634308 101.4729974  80.1866482  95.4791703
  98.0327339  79.7365741 101.8182327  98.2835378  80.6212751 102.0839902
  98.5686888  79.5570342 101.0457418 107.2458067  88.0392640  94.1612307
 107.1103742  88.8844176  94.5897155 107.7867879  88.2411918  93.3978241
 100.6987464  85.5568078  94.7340232 101.2111985  86.3511329  94.8845797
 101.3510177  84.8594369  94.6673834 110.5950531  71.5623202 102.6911201
 110.2514800  72.4524844 102.6150311 110.9629493  71.3724860 101.8280786
  98.6636381  83.8856733  95.5099803  99.5011603  84.2953741  95.2933511
  98.8414649  82.9456175  95.4799997 110.5600813  81.5531813  91.1983636
 110.0447437  82.3236418  91.4372023 110.2878122  80.8796949  91.8216697
 108.1447924  76.3981514  96.2568874 107.2889521  76.0088365  96.0774513
 108.5574876  76.4773475  95.3968660 109.6747071  73.9327857 100.6560434
 109.1711867  73.8957993  99.8428239 109.9677678  74.8420600 100.7157091
 105.9189957  74.0166587  99.6626616 106.7842954  73.8209396  99.3032505
 105.9867466  73.7876939 100.5895973 115.5335087  84.3064168  93.1336809
 114.7564530  83.9675327  92.6891972 116.2126568  84.3116791  92.4591774
 110.3487116  79.4258905  93.0243417 110.0437252  79.7405055  93.8753560
 111.3017559  79.5040325  93.0670750 108.7933548  85.5849129  94.6736371
 108.2654910  84.8501888  94.3609609 108.2921051  86.3623805  94.4276339
 103.5252276  76.2468795  97.0342983 104.0996028  76.0243977  96.3016176
 104.1123258  76.3157490  97.7871584 103.8521863  78.2773256  91.0538868
 103.0159175  78.6147943  91.3748143 103.7126633  78.1422236  90.1166005
 105.8274944  73.1210044  95.7618052 105.1739356  72.8059061  95.1374667
 105.7855418  72.4985784  96.4877875 106.9386148  83.4029339  87.6771344
 106.0313210  83.1718592  87.8762493 107.4357180  82.6066958  87.8645326
 109.8454227  92.1126846  90.5968030 109.1715926  92.4158543  91.2052988
 110.2320049  92.9155927  90.2473487 109.8447732  81.0083393  95.2168380
 110.5919551  81.5204790  94.9075502 110.1139321  80.6867446  96.0772773
 108.1174382  83.5041934  92.1995334 107.2085601  83.2200967  92.2967804
 108.1469466  83.9241012  91.3398641 112.2926569  78.0440509  97.1987169
 111.5549326  77.5317896  97.5297412 112.5453342  77.6040891  96.3870446
 112.3938196  70.8216761  97.7928939 112.6997073  69.9614125  97.5054854
 113.1190801  71.4134382  97.5927932  98.6862552  81.2247448  96.1810536
  98.4886952  80.6316809  95.4561603  98.1309216  80.9199658  96.8986475
 106.6659276  81.1170554  98.3005130 106.7207886  80.1644391  98.2247606
 105.8550478  81.2729994  98.7846428 107.8150470  85.0450678  89.5383413
 107.3769900  84.3286536  89.0789050 108.5560911  85.2726792  88.9768504
 104.6051636  79.7347614  96.0595508 103.7919501  80.0341785  96.4660701
 105.1010630  79.3403303  96.7769991 104.0965711  77.3065970 101.6756743
 104.7365090  77.1654729 100.9779707 103.2643241  77.0200483 101.2995345
 101.1808778  80.7511482  93.8651489 100.2506366  80.6895937  94.0821451
 101.2766250  80.2287435  93.0688130 101.0994327  77.2766295  96.4529730
 101.3601144  78.1911628  96.3438891 101.9211499  76.8090737  96.6026343
 111.9361697  83.9035059  89.1315470 111.3190868  83.1781887  89.0348523
 111.4678186  84.6644419  88.7882545 103.7260243  78.1220484  88.2536775
 102.8489710  78.0009284  87.8899021 104.2017996  77.3306562  88.0015663
  95.2462383  82.9097643  98.3478282  95.9333423  82.5959373  97.7599297
  95.0910512  83.8139008  98.0745533 100.0497105  77.7987840 102.7763306
  99.9655294  77.1913509 102.0413715  99.2279812  78.2896858 102.7772802
 110.2220819  76.2841403  98.1433501 110.7189519  75.5311366  97.8234571
 109.4507801  76.3205720  97.5776710 106.8055788  78.4258786  97.8705185
 106.4353576  77.8729827  98.5586091 107.3014881  77.8216920  97.3180185
 112.6639814  73.2510997 100.2912859 111.7502894  73.4815224 100.4595066
 113.0932916  73.3349441 101.1426892  94.8230359  80.9898237 100.6195749
  94.8614459  80.4561827 101.4132867  94.3170652  80.4633442 100.0006726
 102.2021122  75.8362777 104.1158291 102.2662448  76.6977608 103.7035689
 102.1388242  75.2236779 103.3830650  98.4538937  79.7162339  93.6949680
  98.7492378  78.8073017  93.6416734  97.5526973  79.6950078  93.3730683
 101.9833184  77.7918335  99.6777229 101.2619770  78.4054303  99.5384702
 102.7726440  78.3276100  99.5993875 100.1826779  77.3976436  93.8189005
  99.8539485  76.5173815  93.6364111 100.5366149  77.3424105  94.7065395
 103.2968602  77.6849406  94.1864483 103.6364674  78.2135327  93.4643092
 103.7440722  78.0229812  94.9623050 106.6428514  73.1535769 102.0894874
 107.4654584  72.6796248 101.9673765 106.8866578  73.9326253 102.5893561
 105.2836749  76.1824028  92.3857776 106.0045111  76.5605281  91.8821493
 104.6602053  76.9012905  92.4892754 109.4267872  76.8869177  93.3216108
 109.6431486  77.7693815  93.0204936 108.9461939  76.4955390  92.5921750
 104.1667093  79.8454890  99.8986853 104.0211674  80.1595193 100.7911134
 103.6892297  80.4639790  99.3457751 106.0263476  76.8357438  99.9467742
 106.0125045  75.9398531  99.6100040 106.7435904  76.8428102 100.5806028
 105.4300372  75.7171818  95.2155313 105.5516283  74.7888464  95.4146200
 105.1402414  75.7310504  94.3033628 108.2991562  73.4026729  98.3522032
 108.3213259  73.4666062  97.3974012 108.7159621  72.5631237  98.5462539
  99.8735391  89.3995559  97.7615066 100.6993411  89.0999331  97.3813709
  99.5229443  88.6303182  98.2104854  98.0743996  87.3181886  98.7203999
  97.2375904  86.8904060  98.5388000  98.0467641  87.5114329  99.6574790
 104.4030431  87.3025951  93.3071200 104.5518551  87.9861415  92.6537872
 105.2096874  87.2831041  93.8220655 102.1583064  83.3291129  94.3132269
 101.9129106  82.4253459  94.5112479 102.3278979  83.3308279  93.3711747
 101.4278711  79.0619486  91.8118430 100.7347956  79.1363841  91.1558466
 101.1830463  78.2979830  92.3339947 110.0992368  70.6215087  99.2157921
 110.3794122  69.9538277  99.8418347 110.8842975  70.8144183  98.7032585
 107.9025837  89.7974081  90.7782947 107.3299804  90.4164269  90.3253419
 108.4758630  90.3473443  91.3122869 111.1223096  90.0811232  91.9091529
 112.0553769  90.0156793  92.1124405 111.0346309  90.9167498  91.4506062
 113.7511113  89.3977102  88.8695477 113.6724744  89.0636965  89.7631235
 114.5720780  89.8898870  88.8686949 108.2872635  81.1334894  88.1199000
 109.2331740  81.0041102  88.1887418 107.9086880  80.3949556  88.5968428
 114.2594520  72.7990900  98.0825891 114.0619341  72.4905988  98.9669223
 114.8694225  73.5252539  98.2123821 106.4715552  79.0584871  88.0553885
 105.5647008  78.7617983  88.1316598 106.7491533  78.7614689  87.1888171
  97.3893493  80.3791234  98.5052931  97.0696277  79.5256542  98.2127305
  96.8426921  80.5939812  99.2610899 108.0877618  73.6021760  94.2098126
 107.2778346  73.2568845  94.5853372 108.7762035  73.2929304  94.7985738
 110.0168166  72.6799807  95.8322423 110.5699205  73.0995260  96.4912446
 110.2538253  71.7535555  95.8745379 105.2414337  75.9171806  88.1965864
 106.1033501  76.2426704  88.4561681 105.4264681  75.1303302  87.6838930
  97.2581753  83.9994145 100.4746053  96.5645224  83.5848098  99.9616007
  98.0054744  84.0414682  99.8779472 113.3946973  74.7900332  95.3401087
 112.8145642  75.4485136  94.9579139 113.1282906  73.9677677  94.9288505
 111.8450540  74.1905390  97.5422407 112.3450318  74.3021924  96.7336726
 112.4886148  73.8866443  98.1823216  99.1718495  83.9312399  98.3512068
  99.1489183  84.0300086  97.3993951  99.4819132  84.7777550  98.6729234
 112.1771851  76.9500423  94.3957435 111.2897706  77.2350073  94.1777630
 112.5925840  76.7894186  93.5484712 111.3215065  86.7145097  88.4905455
 112.0250915  86.9195100  89.1063111 110.5977714  87.2821859  88.7554539
 112.1512875  82.4654959  94.6107725 112.0948076  82.9223510  93.7715358
 112.7041217  81.7045643  94.4330568 115.9617681  78.2544690  95.4357845
 115.7054615  77.8541326  96.2666053 115.3370549  78.9688484  95.3107984
 113.2301762  87.1527626  90.5403915 114.0647366  86.7208825  90.3581390
 113.0686105  86.9809640  91.4680810 112.8847654  83.6559740  91.9060255
 112.8296458  83.4904011  90.9648699 112.2593710  84.3635773  92.0622444
 106.1943780  73.1567849  91.4845573 106.1822450  74.1009689  91.6413844
 107.0867202  72.9737994  91.1905034 110.0095899  69.7510625  95.7391510
 109.2428295  69.1969112  95.8848192 110.4206604  69.8232494  96.6005661
 114.5653998  93.4512401  88.2536775 113.6883464  93.3301202  87.8899021
 115.0411751  92.6598479  88.0015663 116.0808091  91.2463723  88.1965864
 116.9427255  91.5718622  88.4561681 116.2658435  90.4595219  87.6838930
  48.4137757  -4.2101584  86.3100276  48.6534355  -3.5783060  86.9879295
  47.5706953  -4.5613544  86.5965636  60.3293788  -0.1637284  83.2862814
  59.7658653  -0.2547347  82.5179102  60.2146183  -0.9837379  83.7665307
  57.8758220   1.3313908  86.1247035  58.6679512   0.9904733  85.7093334
  58.1154870   1.4408883  87.0449188  65.9093347   3.5033684  78.5977279
  65.2581327   4.0887764  78.2111293  66.7037710   4.0339879  78.6572317
  59.8348974   0.5922821  78.9964414  60.6079850   0.0451808  78.8577289
  60.1874373   1.4567070  79.2078875  61.6734016   1.9199203  92.2031313
  61.3823882   2.8244834  92.0877979  62.3091001   1.9615731  92.9175382
  62.5990223  -0.7023948  88.7932673  63.1953796  -0.9267926  88.0789635
  62.6565195  -1.4439203  89.3958120  67.3868612   1.1924116  79.1346264
  66.7514445   1.2658742  79.8467168  67.0566018   1.7817715  78.4565343
  61.8911540  -1.3456407  78.8307238  61.7747799  -2.0211503  79.4988323
  62.0013800  -1.8324033  78.0139392  66.6323902   1.6060619  89.1981107
  66.3324625   2.5085658  89.0896914  66.2874961   1.3392802  90.0502259
  60.0836383  -1.9425584  85.2317811  59.1586880  -2.0749370  85.4395503
  60.3320796  -1.1631365  85.7287753  57.4445194  -2.2992311  86.0661600
  57.5737575  -2.0457832  86.9801012  56.7642645  -1.7064603  85.7466255
  61.6144681   8.3704939  82.1652074  61.5368711   9.3212764  82.2440555
  61.0106325   8.0250812  82.8227001  62.3608283  -1.6481742  94.3831408
  63.1022968  -1.1096698  94.1066232  61.6545269  -1.0215453  94.5402960
  68.1592438   1.0548589  86.7355859  67.5301300   1.2194303  86.0331926
  67.7718100   1.4690199  87.5066823  72.0381670   1.9903027  84.0900222
  71.3532708   2.3701928  83.5397256  72.1225519   2.5998354  84.8232170
  63.7120400   0.7922997  84.0005944  64.1758745   1.0710700  83.2110566
  63.4477198  -0.1093558  83.8179034  60.6044481   0.3394479  86.9385707
  61.1745838   0.7681747  86.3003191  61.1952592   0.0577063  87.6369893
  70.4078429   2.5134941  88.8617923  71.2295873   2.1115129  88.5800605
  70.4040832   2.4103176  89.8134039  64.1735033   2.0618985  91.0178634
  64.2379465   2.5239392  91.8536806  63.4645956   1.4316350  91.1460944
  63.8883050   3.7287092  80.8857614  63.7528725   4.5738628  81.3142462
  64.4292863   3.9306370  80.1223548  57.3412448   1.2462530  81.4585539
  57.8536968   2.0405781  81.6091104  57.9935160   0.5488821  81.3919141
  59.1507332   4.3628287  83.5408292  59.3273961   5.2846251  83.3529276
  59.9464166   4.0486706  83.9702672  65.5151527   4.3510659  95.0157956
  65.0715381   3.5647037  94.6978861  66.1768740   4.5389809  94.3501847
  60.2738648   5.8806460  89.5418635  60.8246073   5.7523524  88.7695629
  59.4350124   6.1801349  89.1913527  67.6132765   4.6313459  93.0439357
  67.5951240   5.4522340  92.5519627  68.5352685   4.5067534  93.2689499
  64.0705819   2.1457588  93.8862866  64.6034156   1.3845876  93.6562174
  63.5419900   1.8531240  94.6287020  55.3061364  -0.4248815  82.2345110
  56.1436586  -0.0151807  82.0178817  55.4839632  -1.3649373  82.2045304
  65.4358532   1.2743581  81.3981678  64.9079893   0.5396340  81.0854915
  64.9346034   2.0518257  81.1521646  66.4879211   7.8021298  77.3213337
  65.8140909   8.1052995  77.9298295  66.8745033   8.6050378  76.9718794
  64.7599365  -0.8063614  78.9240641  63.8510584  -1.0904581  79.0213111
  64.7894449  -0.3864536  78.0643948  69.9918633   2.8042975  82.6931808
  69.5380960   1.9633885  82.7496999  69.3612599   3.4404374  83.0306589
  68.4351572   4.6419472  83.6281627  68.7274546   5.2024529  82.9093992
  68.9450192   4.9348033  84.3834786  55.3287536  -3.0858100  82.9055843
  55.1311935  -3.6788739  82.1806910  54.7734200  -3.3905890  83.6231782
  64.4575453   0.7345129  76.2628719  64.0194883   0.0180988  75.8034357
  65.1985894   0.9621244  75.7013811  63.3985197   5.4199823  84.7175080
  63.3561376   5.6460669  83.7883612  64.3147896   5.1863198  84.8660881
  61.5150998   2.2962852  84.5137042  62.3091596   1.8013172  84.3119617
  60.8042690   1.7680715  84.1504748  66.3345842   4.6780948  88.8649410
  66.3882865   5.2471884  89.6327126  65.4660624   4.8482833  88.5003447
  68.5248606   1.2709297  95.4390076  68.3734112   1.0419849  94.5220159
  68.5153285   2.2279898  95.4521421  64.0922274   2.8691874  88.1934880
  63.9533360   2.5010658  89.0660818  63.3036870   3.3839513  88.0218837
  64.6870426   7.9700971  79.5360416  64.8622181   7.4989014  80.3506039
  64.0003214   8.5966737  79.7641677  65.6427489   2.2473477  85.5823717
  65.3077322   2.2074247  86.4781367  65.1431435   1.5818193  85.1094128
  70.2340812   4.3028419  93.5166557  70.1753358   3.6187640  92.8497140
  70.6360331   5.0447409  93.0647183  59.2531511  11.1190333  86.3100276
  59.4928109  11.7508857  86.9879295  58.4100708  10.7678373  86.5965636
  70.2358220   2.2668003  91.7480537  69.3484998   1.9293925  91.8706936
  70.8056771   1.5351035  91.9849302  51.8887367  -1.4007905  85.0723588
  52.5758406  -1.7146175  84.4844604  51.7335495  -0.4966540  84.7990840
  63.7659373   6.9269456  88.7141780  63.6929544   7.7324427  89.2261085
  63.3236766   7.1261422  87.8889802  63.5549153   6.1641226  82.2244602
  62.7716674   6.7062906  82.3182826  64.2541898   6.6815205  82.6238843
  66.2258056   6.8256290  90.8699939  66.9386029   7.4603755  90.7975840
  65.7348085   6.9220156  90.0539941  61.2769970   4.5750733  91.6905510
  61.9779429   5.2087216  91.8434904  60.8065085   4.9165465  90.9301149
  69.4024366   2.9168683  79.9753417  69.6784210   2.8025278  80.8847291
  68.5328865   2.5186168  79.9365590  66.0378430   7.1655034  83.6186230
  66.2200824   6.3476690  84.0813983  66.8611416   7.3822726  83.1811120
  66.3720595   6.0923219  80.8801279  66.9008362   5.5815674  80.2671441
  66.6348815   5.7765749  81.7446812  56.8737688   4.1087088  88.6236612
  57.4591125   3.3630776  88.7564517  56.6762526   4.4191045  89.5073276
  59.7276343   7.1438336  83.6399055  59.0586719   7.6284463  83.1563095
  59.5889213   7.3907556  84.5542433  51.4655343  -3.3207312  87.3441056
  51.5039442  -3.8543721  88.1378174  50.9595636  -3.8472106  86.7252033
  63.8681612   9.1782079  90.2381713  64.4199920   9.3413701  91.0030798
  64.2087805   9.7686517  89.5661738  68.7192486   4.0043337  96.0930368
  69.2632390   4.6173295  95.5985322  68.1379331   4.5622915  96.6097381
  67.0049999   7.1264055  87.2245395  66.8801139   6.3253795  86.7156341
  67.6629090   7.6210248  86.7359365  69.0684908   4.9273075  88.8524945
  68.1215243   4.8078426  88.7803272  69.4167681   4.0395573  88.9351207
  66.0731341   4.7225791  85.0529298  65.9256303   3.7942498  85.2336868
  66.8984834   4.7445882  84.5686373  69.6765463   5.5454350  86.1394170
  70.6012010   5.3397211  86.0018622  69.5080766   5.2970751  87.0483512
  69.4660779   6.0640017  81.4956262  69.6397656   5.4986440  80.7430114
  69.9589670   6.8640912  81.3135752  55.2837739  -1.9245314  89.5619821
  54.7391207  -1.1485506  89.6940095  56.1617089  -1.5774509  89.4038942
  70.4535951   5.3806782  78.5953160  71.1486856   6.0013474  78.8140475
  70.7959101   4.5302133  78.8705538  56.0703761  -2.7975417  92.4549978
  55.3285497  -2.6492782  93.0414608  55.7496505  -2.5367152  91.5916727
  72.3527374   2.8306487  80.1240491  72.8778699   3.1693760  79.3989811
  72.2649727   1.8953502  79.9403626  64.0147423   6.7440561  92.2530368
  64.3234550   6.4989708  93.1253067  64.8122905   6.9487199  91.7649238
  64.0368035   8.8978470  84.4835744  63.5973026   8.4054849  85.1768601
  64.7876152   8.3551438  84.2427819  56.5160374   5.0890011  84.4860372
  57.3418394   4.7893783  84.1059016  56.1654426   4.3197634  84.9350161
  61.4841907   4.4416479  86.5558046  60.8621917   3.7787185  86.2560274
  62.1546774   4.4677611  85.8731694  54.7168979   3.0076338  85.4449306
  53.8800888   2.5798512  85.2633307  54.6892625   3.2008781  86.3820097
  72.0421281   3.4639391  95.4291689  71.2516824   3.4463530  94.8896188
  71.8054635   4.0027684  96.1840725  61.0455414   2.9920403  80.0316506
  61.1943535   3.6755867  79.3783179  61.8521858   2.9725493  80.5465962
  73.6637352   2.7328799  92.9866439  73.3722161   3.0958779  93.8229900
  73.0509484   2.0195807  92.8079771  58.8008047  -0.9814420  81.0377575
  58.5554089  -1.8852090  81.2357785  58.9703962  -0.9797269  80.0957053
  64.5450820   5.4868533  77.5028254  63.9724787   6.1058720  77.0498726
  65.1183613   6.0367895  78.0368176  67.7648080   5.7705683  78.6336836
  68.6978753   5.7051245  78.8369712  67.6771292   6.6061950  78.1751369
  70.3936096   5.0871554  75.5940784  70.3149728   4.7531417  76.4876541
  71.2145763   5.5793322  75.5932256  64.8136311   0.8747092  96.3044963
  65.7339320   1.0525691  96.4985010  64.7785894  -0.0696862  96.1524662
  54.0318476  -3.9314314  85.2298238  53.7121260  -4.7849006  84.9372612
  53.4851904  -3.7165736  85.9856205  57.8098383  -1.2151873  88.9467744
  58.0284393  -0.2834765  88.9655778  58.2224157  -1.5743899  89.7322548
  53.9006736  -0.3111403  87.1991359  53.2070207  -0.7257450  86.6861314
  54.6479727  -0.2690866  86.6024778  55.8143478  -0.3793149  85.0757374
  55.7914166  -0.2805462  84.1239257  56.1244115   0.4672002  85.3974540
  58.4730856   1.6783006  89.1903989  59.4274110   1.6466948  89.1233920
  58.2743380   1.2173630  90.0054215  59.0630238   0.2484122  91.7574786
  59.8823127   0.7428201  91.7809624  59.3367046  -0.6683910  91.7292354
  56.8281085   7.2202626  86.2074187  56.6935553   6.4603027  85.6412185
  56.4113147   7.9443525  85.7402975  67.9640048   2.4039549  75.2150762
  68.6675898   2.6089552  75.8308417  67.2402697   2.9716311  75.4799845
  59.9850211   8.1171943  86.4192629  59.8682595   9.0617375  86.3171320
  59.1642657   7.8145504  86.8078428  69.8726745   2.8422078  77.2649222
  70.7072349   2.4103277  77.0826697  69.7111088   2.6704092  78.1926116
  66.8418545   1.6503104  97.9559124  67.7109704   1.8243756  97.5945759
  66.3625296   2.4697520  97.8334853  61.0104725   8.7700205  89.6348558
  61.9131972   8.8023815  89.9515053  60.7842095   7.8400655  89.6494893
  62.7658327   7.5231191  86.2958636  61.8153958   7.5233053  86.1823009
  63.0690813   6.7763926  85.7794671  78.5011021  13.3591729  87.3604399
  79.1389430  13.2398477  86.6567739  78.3831863  14.3072573  87.4192351
  75.3100727  13.3119158  87.2965923  74.9719238  13.1960222  86.4086458
  76.1790495  12.9110323  87.2766930  71.1687543  15.1654634  83.2862814
  70.6052408  15.0744571  82.5179102  71.0539938  14.3454538  83.7665307
  75.7920510  14.4654009  93.2552129  75.7809151  14.0706808  92.3832633
  75.9541149  13.7320082  93.8485900  68.7151974  16.6605826  86.1247035
  69.5073266  16.3196650  85.7093334  68.9548625  16.7700801  87.0449188
  76.7487101  18.8325602  78.5977279  76.0975081  19.4179682  78.2111293
  77.5431464  19.3631797  78.6572317  70.6742728  15.9214739  78.9964414
  71.4473604  15.3743726  78.8577289  71.0268127  16.7858988  79.2078875
  72.5127771  17.2491121  92.2031313  72.2217637  18.1536752  92.0877979
  73.1484755  17.2907649  92.9175382  73.4383978  14.6267970  88.7932673
  74.0347550  14.4023992  88.0789635  73.4958949  13.8852715  89.3958120
  73.0109006  12.0807405  76.6282863  73.2634527  11.5588926  75.8666327
  72.0733565  11.9173550  76.7309547  78.0552289  11.0843183  84.4357607
  78.8415378  10.6662606  84.0848024  78.3190993  11.9889276  84.6039255
  78.2262366  16.5216034  79.1346264  77.5908199  16.5950660  79.8467168
  77.8959773  17.1109632  78.4565343  83.4560716  11.0218417  85.3390585
  84.1885888  10.4517633  85.5728415  82.7000072  10.6340017  85.7797091
  72.7305295  13.9835511  78.8307238  72.6141553  13.3080414  79.4988323
  72.8407555  13.4967885  78.0139392  75.0736836  13.4445658  82.5353928
  74.7095043  12.9176279  83.2466849  75.9303952  13.0544127  82.3620413
  80.9786136   4.7339991  89.7985194  80.6469461   5.6035402  89.5746409
  80.3831750   4.4176275  90.4779224  74.7142323   8.4735558  77.5315276
  74.8816725   9.3415794  77.8985747  74.5239492   8.6362839  76.6076565
  77.4717656  16.9352537  89.1981107  77.1718379  17.8377575  89.0896914
  77.1268716  16.6684720  90.0502259  70.9230138  13.3866333  85.2317811
  69.9980634  13.2542548  85.4395503  71.1714551  14.1660553  85.7287753
  80.8714800   9.4535077  86.8778544  79.9631677   9.3850485  86.5837305
  80.8202396   9.9307022  87.7060369  74.6931544  10.9293215  78.5161943
  74.5731169  11.3750266  79.3547423  73.9984132  11.2778533  77.9575481
  68.2838949  13.0299607  86.0661600  68.4131330  13.2834086  86.9801012
  67.6036400  13.6227315  85.7466255  72.4538436  23.6996857  82.1652074
  72.3762466  24.6504682  82.2440555  71.8500079  23.3542729  82.8227001
  74.9455666  10.8724722  94.8213441  74.1689000  11.4318643  94.8116306
  75.5846229  11.3581505  95.3428311  82.7376446   7.6551515  88.6556418
  82.0950826   7.9484048  88.0096212  82.2331375   7.5404436  89.4609614
  80.3916610  11.4014688  79.3442277  81.3034466  11.6342075  79.1689975
  79.8826257  11.9851733  78.7817356  73.2002038  13.6810176  94.3831408
  73.9416722  14.2195220  94.1066232  72.4939023  14.3076465  94.5402960
  78.6757378  15.8239316  92.9803570  79.0840734  15.3821727  92.2358202
  77.9534639  15.2491944  93.2337763  75.0288448  10.7611923  90.3537127
  75.8749643  11.1851337  90.4971776  74.9687085  10.1045547  91.0475690
  78.9986192  16.3840507  86.7355859  78.3695055  16.5486221  86.0331926
  78.6111854  16.7982116  87.5066823  82.8775424  17.3194945  84.0900222
  82.1926462  17.6993846  83.5397256  82.9619273  17.9290271  84.8232170
  78.1787893   8.4216291  92.0118300  77.9348825   9.1758352  91.4752576
  78.4547823   8.8001639  92.8465547  80.1326356  14.9654904  90.6895566
  80.3443251  15.6086664  90.0129947  80.0856104  14.1317220  90.2217496
  77.7352585   7.5772724  87.5932138  76.8737064   7.8753978  87.8848876
  77.7615019   7.7943123  86.6613171  74.5514154  16.1214915  84.0005944
  75.0152500  16.4002618  83.2110566  74.2870952  15.2198360  83.8179034
  71.4438235  15.6686396  86.9385707  72.0139592  16.0973665  86.3003191
  72.0346347  15.3868981  87.6369893  73.4883040  12.2438067  80.8095509
  74.1907083  12.6959111  81.2769435  73.1563669  11.6021886  81.4375402
  71.9363402  10.8349824  95.1846718  71.3062062  11.5166105  95.4182115
  71.8299490  10.7232906  94.2399856  67.2308374  10.5021620  86.1112642
  66.4407428  10.7579148  85.6352753  67.7219621  11.3169958  86.2164683
  81.2472184  17.8426859  88.8617923  82.0689627  17.4407046  88.5800605
  81.2434587  17.7395093  89.8134039  69.1823119  10.8666199  83.0696119
  68.3854283  10.9784893  83.5879615  68.9548712  11.2052851  82.2037010
  75.0128787  17.3910902  91.0178634  75.0773220  17.8531310  91.8536806
  74.3039711  16.7608267  91.1460944  65.5146077  10.7552110  88.5427633
  65.7654115  11.6399120  88.8085209  66.0505625  10.5756712  87.7702725
  89.3378177  14.1865608  85.2102895  88.5841885  13.6173006  85.0546899
  89.4725718  14.1528272  86.1573529  74.7276805  19.0579010  80.8857614
  74.5922480  19.9030546  81.3142462  75.2686617  19.2598288  80.1223548
  71.2144144   5.1370590  97.5471969  70.8211090   4.5836788  98.2219613
  72.0310285   5.4481168  97.9378487  68.1806202  16.5754448  81.4585539
  68.6930723  17.3697698  81.6091104  68.8328915  15.8780738  81.3919141
  69.9901087  19.6920204  83.5408292  70.1667715  20.6138169  83.3529276
  70.7857920  19.3778623  83.9702672  74.1312105   6.5528469  95.1392226
  74.8721819   7.1535622  95.0596688  74.3630028   5.8106107  94.5810268
  69.2753443  11.7384836  93.4170455  69.1606959  10.8370093  93.7177554
  68.4197961  11.9848533  93.0655272  76.3545281  19.6802576  95.0157956
  75.9109135  18.8938955  94.6978861  77.0162495  19.8681727  94.3501847
  71.1132402  21.2098378  89.5418635  71.6639827  21.0815441  88.7695629
  70.2743878  21.5093267  89.1913527  78.4526519  19.9605376  93.0439357
  78.4344995  20.7814257  92.5519627  79.3746439  19.8359452  93.2689499
  74.9099573  17.4749506  93.8862866  75.4427910  16.7137794  93.6562174
  74.3813654  17.1823158  94.6287020  66.1455119  14.9043102  82.2345110
  66.9830341  15.3140111  82.0178817  66.3233387  13.9642544  82.2045304
  78.0419551  12.5718183  77.9228943  77.5266174  13.3422788  78.1617330
  77.7696859  11.8983319  78.5462004  75.6266662   7.4167884  82.9814181
  74.7708258   7.0274734  82.8019820  76.0393614   7.4959844  82.1213966
  77.1565809   4.9514227  87.3805741  76.6530604   4.9144362  86.5673546
  77.4496416   5.8606970  87.4402397  73.4008695   5.0352957  86.3871922
  74.2661691   4.8395765  86.0277812  73.4686203   4.8063308  87.3141279
  83.0153825  15.3250538  79.8582116  82.2383268  14.9861697  79.4137278
  83.6945306  15.3303161  79.1837081  77.8305854  10.4445275  79.7488724
  77.5255990  10.7591424  80.5998867  78.7836296  10.5226695  79.7916057
  76.2752286  16.6035498  81.3981678  75.7473648  15.8688258  81.0854915
  75.7739789  17.3810175  81.1521646  81.2545132  14.7984519  86.5148724
  80.5968807  15.4883780  86.6028853  82.0585531  15.1880951  86.8582710
  71.0071014   7.2655165  83.7588289  71.5814766   7.0430346  83.0261482
  71.5941996   7.3343859  84.5116891  80.0650591  13.1528891  84.5652666
  80.5782473  13.7858883  85.0674376  80.7151815  12.5530087  84.1996026
  71.3340601   9.2959626  77.7784175  70.4977913   9.6334312  78.0993449
  71.1945370   9.1608605  76.8411311  73.3093681   4.1396414  82.4863359
  72.6558094   3.8245431  81.8619973  73.2674156   3.5172154  83.2123182
  74.4204886  14.4215709  74.4016651  73.5131948  14.1904962  74.6007800
  74.9175918  13.6253328  74.5890632  77.3272965  23.1313216  77.3213337
  76.6534664  23.4344913  77.9298295  77.7138787  23.9342296  76.9718794
  76.5431422  10.6278347  86.8111006  75.6253983  10.8493294  86.6532694
  76.9591565  10.7024658  85.9522714  77.3266469  12.0269763  81.9413687
  78.0738288  12.5391160  81.6320809  77.5958059  11.7053815  82.8018080
  75.5993120  14.5228303  78.9240641  74.6904339  14.2387336  79.0213111
  75.6288203  14.9427382  78.0643948  80.8312387  18.1334893  82.6931808
  80.3774714  17.2925803  82.7496999  80.2006354  18.7696291  83.0306589
  79.7745307   9.0626879  83.9232476  79.0368063   8.5504265  84.2542718
  80.0272080   8.6227261  83.1115753  79.2745326  19.9711390  83.6281627
  79.5668301  20.5316447  82.9093992  79.7843947  20.2639951  84.3834786
  66.1681290  12.2433818  82.9055843  65.9705690  11.6503178  82.1806910
  65.6127954  11.9386028  83.6231782  74.1478014  12.1356924  85.0250436
  74.2026623  11.1830760  84.9492913  73.3369216  12.2916363  85.5091735
  75.2969207  16.0637047  76.2628719  74.8588637  15.3472906  75.8034357
  76.0379648  16.2913162  75.7013811  72.0870374  10.7533984  82.7840815
  71.2738239  11.0528154  83.1906007  72.5829368  10.3589673  83.5015297
  74.2378952  20.7491741  84.7175080  74.1955130  20.9752587  83.7883612
  75.1541650  20.5155115  84.8660881  77.6844585  11.2175808  91.6155709
  78.0393973  11.4447281  92.4750175  78.3316717  11.5494185  90.9932964
  83.4142322  14.3394244  82.3205038  83.2760221  14.5295840  81.3926227
  83.0578541  15.1013627  82.7773089  71.5784448   8.3252339  88.4002050
  72.2183828   8.1841098  87.7025013  70.7461979   8.0386853  88.0240652
  83.4411702  16.4070771  87.3316310  83.8748209  16.3146060  88.1799364
  84.1543283  16.3828272  86.6936326  72.3544752  17.6254770  84.5137042
  73.1485351  17.1305090  84.3119617  71.6436445  17.0972633  84.1504748
  77.1739597  20.0072865  88.8649410  77.2276619  20.5763802  89.6327126
  76.3054378  20.1774750  88.5003447  68.6627516  11.7697851  80.5896795
  67.7325104  11.7082307  80.8066757  68.7584988  11.2473804  79.7933436
  68.5813065   8.2952664  83.1775037  68.8419882   9.2097998  83.0684197
  69.4030237   7.8277107  83.3271650  70.0537990   9.7090421  90.3473861
  70.7261044   9.5007784  89.6986510  69.2267777   9.5112507  89.9079094
  84.3027251  16.4494472  89.8649195  84.4963142  17.3540282  90.1108470
  84.2027870  15.9901891  90.6987780  75.9563562   6.3352362  92.3639522
  75.3091477   7.0342312  92.2703999  76.7264578   6.7688506  92.7315770
  79.3642360  16.6001215  95.4390076  79.2127867  16.3711766  94.5220159
  79.3547040  17.5571816  95.4521421  76.1327697  14.1733127  90.4236342
  77.0619757  14.3244287  90.2505309  75.7118727  14.2617148  89.5684988
  74.9316028  18.1983792  88.1934880  74.7927114  17.8302576  89.0660818
  74.1430625  18.7131431  88.0218837  75.5264180  23.2992888  79.5360416
  75.7015936  22.8280931  80.3506039  74.8396968  23.9258654  79.7641677
  76.4821243  17.5765394  85.5823717  76.1471076  17.5366164  86.4781367
  75.9825189  16.9110110  85.1094128  70.4565487  12.9833024  91.1076299
  70.3185285  12.2513263  91.7087838  71.3670411  12.8941925  90.8260486
  79.4180435  14.9221429  75.8560777  78.8009606  14.1968257  75.7593830
  78.9496924  15.6830789  75.5127851  73.0847788  12.6952984  90.5959978
  73.7947407  12.0546176  90.5546597  73.0417096  12.9465879  91.5186159
  81.0734567  19.6320337  93.5166557  81.0147113  18.9479557  92.8497140
  81.4754085  20.3739327  93.0647183  71.7976722   9.6818202  92.4155618
  71.2614079   9.2308940  93.0677214  71.2093431   9.8164110  91.6726082
  70.0925266  26.4482251  86.3100276  70.3321864  27.0800775  86.9879295
  69.2494462  26.0970291  86.5965636  71.2078981   9.1406853  74.9782081
  70.3308447   9.0195654  74.6144328  71.6836734   8.3492931  74.7260970
  81.0751974  17.5959921  91.7480537  80.1878753  17.2585843  91.8706936
  81.6450525  16.8642952  91.9849302  62.7281121  13.9284013  85.0723588
  63.4152161  13.6145743  84.4844604  62.5729250  14.8325377  84.7990840
  67.5315843   8.8174209  89.5008612  67.4474032   8.2099879  88.7659022
  66.7098550   9.3083228  89.5018108  74.6053127  22.2561373  88.7141780
  74.5323299  23.0616345  89.2261085  74.1630521  22.4553339  87.8889802
  74.3942907  21.4933143  82.2244602  73.6110429  22.0354824  82.3182826
  75.0935652  22.0107123  82.6238843  77.7039557   7.3027773  84.8678807
  78.2008257   6.5497735  84.5479877  76.9326539   7.3392090  84.3022017
  85.5569315  13.0068138  86.5097099  85.5459191  13.8892854  86.1391032
  84.6886694  12.6539689  86.3151636  77.0651811  22.1548207  90.8699939
  77.7779783  22.7895672  90.7975840  76.5741840  22.2512073  90.0539941
  78.7869338  16.0599460  82.4417231  77.8525617  16.1800923  82.2721935
  78.9646006  15.1571927  82.1777240  74.2874526   9.4445156  84.5950492
  73.9172313   8.8916196  85.2831397  74.7833618   8.8403289  84.0425492
  82.1741889  11.9016779  82.9767265  82.6402341  12.7344771  82.9027567
  82.6249390  11.4361761  83.6812523  72.1163724  19.9042651  91.6905510
  72.8173184  20.5379134  91.8434904  71.6458839  20.2457382  90.9301149
  80.2418120  18.2460601  79.9753417  80.5177964  18.1317195  80.8847291
  79.3722619  17.8478086  79.9365590  79.9165010  12.4587258  89.5158060
  79.2636461  12.7063166  88.8610513  80.2945390  11.6451397  89.1820537
  76.8772184  22.4946952  83.6186230  77.0594579  21.6768607  84.0813983
  77.7005170  22.7114644  83.1811120  77.2114350  21.4215137  80.8801279
  77.7402116  20.9107591  80.2671441  77.4742569  21.1057667  81.7446812
  75.9652583  13.2007069  96.0024097  75.2893220  13.1001199  96.6726472
  76.7880217  13.0446283  96.4660094  67.7131443  19.4379006  88.6236612
  68.2984879  18.6922694  88.7564517  67.5156281  19.7482963  89.5073276
  70.5670098  22.4730253  83.6399055  69.8980473  22.9576381  83.1563095
  70.4282967  22.7199474  84.5542433  62.3049097  12.0084606  87.3441056
  62.3433197  11.4748197  88.1378174  61.7989390  11.4819812  86.7252033
  74.7075366  24.5073997  90.2381713  75.2593674  24.6705618  91.0030798
  75.0481560  25.0978435  89.5661738  69.6839860   6.8549147  90.8403598
  69.7481186   7.7163978  90.4280996  69.6206980   6.2423148  90.1075956
  69.1592132   8.9272279  94.4876632  69.7864171   8.5449357  95.1014156
  68.3020051   8.7086481  94.8532325  79.5586241  19.3335254  96.0930368
  80.1026145  19.9465213  95.5985322  78.9773086  19.8914833  96.6097381
  65.9357675  10.7348708  80.4194987  66.2311116   9.8259387  80.3662041
  65.0345711  10.7136448  80.0975989  77.8443754  22.4555972  87.2245395
  77.7194893  21.6545712  86.7156341  78.5022845  22.9502166  86.7359365
  69.4651922   8.8104705  86.4022536  68.7438508   9.4240673  86.2630009
  70.2545178   9.3462470  86.3239182  79.9078662  20.2564992  88.8524945
  78.9608998  20.1370344  88.7803272  80.2561435  19.3687491  88.9351207
  72.2678235   6.1459131  92.6763187  72.7912637   6.3921428  93.4389497
  72.0490569   6.9779166  92.2566325  67.6645516   8.4162806  80.5434312
  67.3358223   7.5360185  80.3609418  68.0184887   8.3610475  81.4310701
  76.9125095  20.0517709  85.0529298  76.7650058  19.1234416  85.2336868
  77.7378589  20.0737799  84.5686373  70.7787340   8.7035776  80.9109790
  71.1183412   9.2321697  80.1888398  71.2259460   9.0416182  81.6868356
  80.5159217  20.8746267  86.1394170  81.4405765  20.6689129  86.0018622
  80.3474521  20.6262669  87.0483512  73.4730780   7.0872827  90.3612858
  73.1327601   6.2880640  90.7633538  72.7669787   7.3874537  89.7889691
  74.1247252   4.1722139  88.8140181  74.9473322   3.6982617  88.6919071
  74.3685316   4.9512623  89.3138867  72.7655487   7.2010397  79.1103083
  73.4863849   7.5791650  78.6066799  72.1420791   7.9199274  79.2138061
  76.9086610   7.9055546  80.0461415  77.1250224   8.7880184  79.7450243
  76.4280677   7.5141760  79.3167057  71.6485831  10.8641260  86.6232159
  71.5030412  11.1781563  87.5156441  71.1711035  11.4826160  86.0703058
  73.5082214   7.8543808  86.6713049  73.4943783   6.9584901  86.3345347
  74.2254642   7.8614471  87.3051335  75.3608345   8.2881148  88.7166176
  75.1026122   9.2098218  88.7150507  74.8293385   7.8911582  89.4066641
  80.3054533  21.3931935  81.4956262  80.4791411  20.8278357  80.7430114
  80.7983425  22.1932830  81.3135752  66.1231493  13.4046604  89.5619821
  65.5784961  14.1806412  89.6940095  67.0010843  13.7517408  89.4038942
  72.9119110   6.7358188  81.9400619  73.0335021   5.8074834  82.1391507
  72.6221152   6.7496874  81.0278935  75.7810300   4.4213098  85.0767339
  75.8031997   4.4852431  84.1219319  76.1978359   3.5817607  85.2707845
  86.1593925  14.1568358  83.1146562  86.6025071  13.4075683  82.7165685
  85.2820435  14.1478494  82.7320294  81.2929706  20.7098699  78.5953160
  81.9880610  21.3305392  78.8140475  81.6352856  19.8594050  78.8705538
  66.9097515  12.5316500  92.4549978  66.1679251  12.6799136  93.0414608
  66.5890259  12.7924766  91.5916727  83.1921129  18.1598405  80.1240491
  83.7172453  18.4985678  79.3989811  83.1043482  17.2245420  79.9403626
  74.8541178  22.0732478  92.2530368  75.1628304  21.8281625  93.1253067
  75.6516660  22.2779117  91.7649238  74.8761790  24.2270388  84.4835744
  74.4366780  23.7346767  85.1768601  75.6269907  23.6843356  84.2427819
  67.3554129  20.4181929  84.4860372  68.1812149  20.1185701  84.1059016
  67.0048181  19.6489551  84.9350161  72.3235662  19.7708397  86.5558046
  71.7015671  19.1079102  86.2560274  72.9940529  19.7969529  85.8731694
  65.5562734  18.3368255  85.4449306  64.7194642  17.9090430  85.2633307
  65.5286379  18.5300699  86.3820097  72.3960189   8.2490185  96.1490552
  72.4448345   9.1252308  95.7668321  72.9382704   7.7067578  95.5762195
  82.8815035  18.7931308  95.4291689  82.0910579  18.7755447  94.8896188
  82.6448390  19.3319602  96.1840725  83.0012910  15.6423775  92.7424417
  83.0510915  15.4773782  93.6839940  82.8926833  14.7751034  92.3522298
  71.8849169  18.3212321  80.0316506  72.0337289  19.0047785  79.3783179
  72.6915612  18.3017411  80.5465962  80.2916672  11.6254703  94.0583724
  81.1926535  11.4861168  93.7667722  80.3664647  11.7909158  94.9981902
  74.6259478   9.0021558  92.9036910  73.7562787   9.2955124  92.6319499
  74.8618958   9.5862003  93.6244174  84.5031107  18.0620716  92.9866439
  84.2115915  18.4250697  93.8229900  83.8903238  17.3487725  92.8079771
  85.7026789  15.6273596  85.5069009  86.5373681  16.0663400  85.6706570
  85.8385918  15.1512249  84.6877255  82.7518295  13.1853331  91.4546497
  83.2272417  13.3780977  90.6465348  81.8283861  13.2412517  91.2089881
  69.6401802  14.3477498  81.0377575  69.3947844  13.4439828  81.2357785
  69.8097716  14.3494649  80.0957053  77.3298512   5.2201175  90.4202331
  77.8480455   5.9562201  90.0948819  76.9753644   5.5265168  91.2549090
  68.9097449  10.0805856  78.5363737  68.2166694  10.1550211  77.8803773
  68.6649201   9.3166199  79.0585254  75.3844574  20.8160451  77.5028254
  74.8118541  21.4350638  77.0498726  75.9577368  21.3659813  78.0368176
  81.4519964  10.0619091  89.6874803  82.4037387  10.1617189  89.7087027
  81.2823415   9.2697360  90.1972887  79.4734344   7.1474674  89.8734203
  78.8784276   7.4279687  89.1780692  79.1884040   7.6368575  90.6450945
  78.6041834  21.0997601  78.6336836  79.5372507  21.0343163  78.8369712
  78.5165047  21.9353868  78.1751369  81.2329851  20.4163471  75.5940784
  81.1543482  20.0823335  76.4876541  82.0539518  20.9085239  75.5932256
  83.9308042  13.2825211  88.8017102  83.8984362  12.3441211  88.9876786
  84.5408666  13.3609247  88.0682927  75.7691373  12.1521264  74.8444306
  76.7150478  12.0227472  74.9132724  75.3905618  11.4135926  75.3213734
  84.0802530  10.0736254  88.8475385  83.5641579   9.2894711  88.6605314
  84.9642479   9.7454971  89.0121905  89.7484592  14.3441218  87.9423139
  90.4787980  14.0826506  88.5030842  89.1391537  13.6069940  87.9825207
  87.8299889  12.4849080  88.5397590  87.1033052  12.3505045  87.9314082
  87.4147176  12.7925909  89.3454308  75.6530065  16.2039010  96.3044963
  76.5733075  16.3817609  96.4985010  75.6179648  15.2595055  96.1524662
  73.9534290  10.0771240  74.7799191  73.0465745   9.7804353  74.8561905
  74.2310271   9.7801058  73.9133478  64.8712230  11.3977604  85.2298238
  64.5515015  10.5442912  84.9372612  64.3245659  11.6126182  85.9856205
  68.6492138  14.1140045  88.9467744  68.8678148  15.0457152  88.9655778
  69.0617912  13.7548019  89.7322548  75.5696356   4.6208130  80.9343433
  74.7597084   4.2755215  81.3098679  76.2580773   4.3115674  81.5231044
  73.5220003   9.6873250  98.3370493  73.4216730  10.6367607  98.2682584
  73.3041545   9.3591489  97.4646563  72.7233075   6.9358175  74.9211171
  73.5852239   7.2613074  75.1806988  72.9083419   6.1489671  74.4084236
  64.7400490  15.0180515  87.1991359  64.0463962  14.6034468  86.6861314
  65.4873481  15.0601052  86.6024778  80.8765711   5.8086702  82.0646394
  80.2964380   6.4671506  81.6824446  80.6101644   4.9864046  81.6533811
  79.3269277   5.2091759  84.2667714  79.8269056   5.3208294  83.4582033
  79.9704885   4.9052812  84.9068522  73.3851273  13.1170389  97.1535555
  72.9018355  13.9170749  97.3599444  73.4712212  13.1278334  96.2002999
  66.6537233  14.9498769  85.0757374  66.6307921  15.0486456  84.1239257
  66.9637869  15.7963920  85.3974540  69.3124611  17.0074924  89.1903989
  70.2667864  16.9758866  89.1233920  69.1137134  16.5465548  90.0054215
  69.9023993  15.5776040  91.7574786  70.7216882  16.0720119  91.7809624
  70.1760801  14.6608008  91.7292354  79.6590589   7.9686792  81.1202742
  78.7716444   8.2536443  80.9022937  80.0744578   7.8080556  80.2730019
  83.0105125   7.9933313  84.8357081  83.7865515   8.4829766  85.1081698
  82.2853259   8.4191367  85.2928951  85.4477684   8.7060932  85.8931022
  86.0422175   8.4656668  85.1824330  85.5204268   7.9868063  86.5204558
  67.6674840  22.5494543  86.2074187  67.5329307  21.7894944  85.6412185
  67.2506902  23.2735443  85.7402975  78.8033803  17.7331467  75.2150762
  79.5069653  17.9381469  75.8308417  78.0796451  18.3008229  75.4799845
  79.6331613  13.4841328  81.3353032  79.5766814  13.9409880  80.4960664
  80.1859955  12.7232013  81.1575875  83.4436419   9.2731060  82.1603152
  83.1873353   8.8727696  82.9911359  82.8189287   9.9874854  82.0353291
  87.7548757  12.0127133  84.6674443  87.1948315  12.0820323  85.4406005
  87.1492260  11.8368118  83.9473939  70.8243965  23.4463860  86.4192629
  70.7076350  24.3909293  86.3171320  70.0036412  23.1437422  86.8078428
  80.7120500  18.1713996  77.2649222  81.5466104  17.7395195  77.0826697
  80.5504843  17.9996010  78.1926116  80.3666392  14.6746109  78.6305561
  80.3115196  14.5090381  77.6894005  79.7412447  15.3822142  78.7867751
  65.1558907   9.9114174  92.4566983  65.8017771   9.4013128  92.9454209
  64.9476058  10.6482855  93.0310409  77.6812299  16.9795021  97.9559124
  78.5503459  17.1535673  97.5945759  77.2019051  17.7989438  97.8334853
  73.6762518   4.1754218  78.2090880  73.6641187   5.1196058  78.3659151
  74.5685939   3.9924364  77.9150341  71.8498480  24.0992122  89.6348558
  72.7525726  24.1315732  89.9515053  71.6235850  23.1692573  89.6494893
  73.6052082  22.8523109  86.2958636  72.6547713  22.8524970  86.1823009
  73.9084568  22.1055843  85.7794671  69.4956398   7.0581791  96.5541998
  70.3587860   6.7018596  96.7645322  68.9221809   6.7195686  97.2417402
  89.3404775  28.6883647  87.3604399  89.9783185  28.5690395  86.6567739
  89.2225618  29.6364491  87.4192351  86.1494481  28.6411075  87.2965923
  85.8112993  28.5252140  86.4086458  87.0184250  28.2402240  87.2766930
  82.0081297  30.4946552  83.2862814  81.4446162  30.4036489  82.5179102
  81.8933692  29.6746456  83.7665307  86.6314264  29.7945927  93.2552129
  86.6202905  29.3998725  92.3832633  86.7934904  29.0612000  93.8485900
  79.5545729  31.9897743  86.1247035  80.3467021  31.6488568  85.7093334
  79.7942379  32.0992718  87.0449188  87.5880856  34.1617519  78.5977279
  86.9368835  34.7471600  78.2111293  88.3825219  34.6923714  78.6572317
  81.5136483  31.2506657  78.9964414  82.2867359  30.7035644  78.8577289
  81.8661882  32.1150906  79.2078875  83.3521525  32.5783039  92.2031313
  83.0611391  33.4828670  92.0877979  83.9878510  32.6199566  92.9175382
  84.2777732  29.9559887  88.7932673  84.8741305  29.7315910  88.0789635
  84.3352704  29.2144633  89.3958120  83.8502761  27.4099323  76.6282863
  84.1028281  26.8880844  75.8666327  82.9127320  27.2465468  76.7309547
  88.8946044  26.4135101  84.4357607  89.6809133  25.9954524  84.0848024
  89.1584748  27.3181193  84.6039255  89.0656121  31.8507951  79.1346264
  88.4301954  31.9242578  79.8467168  88.7353527  32.4401550  78.4565343
  94.2954471  26.3510334  85.3390585  95.0279643  25.7809551  85.5728415
  93.5393826  25.9631935  85.7797091  83.5699049  29.3127429  78.8307238
  83.4535308  28.6372332  79.4988323  83.6801309  28.8259803  78.0139392
  85.9130590  28.7737576  82.5353928  85.5488798  28.2468197  83.2466849
  86.7697706  28.3836045  82.3620413  91.8179891  20.0631908  89.7985194
  91.4863216  20.9327319  89.5746409  91.2225504  19.7468192  90.4779224
  85.5536077  23.8027475  77.5315276  85.7210480  24.6707712  77.8985747
  85.3633246  23.9654757  76.6076565  88.3111411  32.2644454  89.1981107
  88.0112134  33.1669493  89.0896914  87.9662470  31.9976638  90.0502259
  81.7623892  28.7158251  85.2317811  80.8374388  28.5834465  85.4395503
  82.0108305  29.4952470  85.7287753  91.7108554  24.7826994  86.8778544
  90.8025432  24.7142403  86.5837305  91.6596150  25.2598939  87.7060369
  85.5325298  26.2585133  78.5161943  85.4124923  26.7042184  79.3547423
  84.8377887  26.6070451  77.9575481  79.1232703  28.3591525  86.0661600
  79.2525084  28.6126004  86.9801012  78.4430154  28.9519233  85.7466255
  83.2932190  39.0288775  82.1652074  83.2156220  39.9796600  82.2440555
  82.6893834  38.6834647  82.8227001  85.7849420  26.2016640  94.8213441
  85.0082754  26.7610560  94.8116306  86.4239983  26.6873423  95.3428311
  93.5770201  22.9843433  88.6556418  92.9344581  23.2775966  88.0096212
  93.0725129  22.8696353  89.4609614  91.2310364  26.7306606  79.3442277
  92.1428220  26.9633993  79.1689975  90.7220011  27.3143650  78.7817356
  84.0395792  29.0102093  94.3831408  84.7810477  29.5487137  94.1066232
  83.3332778  29.6368382  94.5402960  89.5151132  31.1531234  92.9803570
  89.9234488  30.7113644  92.2358202  88.7928394  30.5783861  93.2337763
  85.8682202  26.0903841  90.3537127  86.7143397  26.5143254  90.4971776
  85.8080840  25.4337465  91.0475690  89.8379947  31.7132425  86.7355859
  89.2088809  31.8778139  86.0331926  89.4505609  32.1274034  87.5066823
  93.7169179  32.6486862  84.0900222  93.0320217  33.0285764  83.5397256
  93.8013028  33.2582189  84.8232170  89.0181647  23.7508209  92.0118300
  88.7742579  24.5050270  91.4752576  89.2941578  24.1293557  92.8465547
  90.9720110  30.2946821  90.6895566  91.1837005  30.9378581  90.0129947
  90.9249858  29.4609138  90.2217496  88.5746339  22.9064642  87.5932138
  87.7130818  23.2045896  87.8848876  88.6008774  23.1235041  86.6613171
  85.3907909  31.4506833  84.0005944  85.8546254  31.7294536  83.2110566
  85.1264707  30.5490277  83.8179034  82.2831990  30.9978314  86.9385707
  82.8533347  31.4265583  86.3003191  82.8740101  30.7160899  87.6369893
  84.3276795  27.5729985  80.8095509  85.0300838  28.0251029  81.2769435
  83.9957423  26.9313804  81.4375402  82.7757156  26.1641742  95.1846718
  82.1455817  26.8458022  95.4182115  82.6693244  26.0524823  94.2399856
  78.0702129  25.8313538  86.1112642  77.2801183  26.0871066  85.6352753
  78.5613376  26.6461875  86.2164683  92.0865938  33.1718777  88.8617923
  92.9083382  32.7698964  88.5800605  92.0828341  33.0687011  89.8134039
  80.0216874  26.1958117  83.0696119  79.2248037  26.3076811  83.5879615
  79.7942466  26.5344769  82.2037010  85.8522542  32.7202820  91.0178634
  85.9166974  33.1823227  91.8536806  85.1433465  32.0900185  91.1460944
  76.3539832  26.0844028  88.5427633  76.6047870  26.9691038  88.8085209
  76.8899380  25.9048630  87.7702725 100.1771931  29.5157525  85.2102895
  99.4235640  28.9464923  85.0546899 100.3119472  29.4820190  86.1573529
  85.5670559  34.3870928  80.8857614  85.4316234  35.2322463  81.3142462
  86.1080372  34.5890205  80.1223548  82.0537899  20.4662507  97.5471969
  81.6604844  19.9128706  98.2219613  82.8704039  20.7773086  97.9378487
  79.0199957  31.9046366  81.4585539  79.5324477  32.6989616  81.6091104
  79.6722669  31.2072656  81.3919141  80.8294841  35.0212122  83.5408292
  81.0061470  35.9430087  83.3529276  81.6251675  34.7070541  83.9702672
  84.9705860  21.8820387  95.1392226  85.7115573  22.4827540  95.0596688
  85.2023783  21.1398024  94.5810268  80.1147198  27.0676754  93.4170455
  80.0000713  26.1662011  93.7177554  79.2591716  27.3140451  93.0655272
  87.1939036  35.0094494  95.0157956  86.7502890  34.2230873  94.6978861
  87.8556249  35.1973645  94.3501847  81.9526157  36.5390296  89.5418635
  82.5033582  36.4107359  88.7695629  81.1137633  36.8385185  89.1913527
  89.2920274  35.2897294  93.0439357  89.2738749  36.1106175  92.5519627
  90.2140194  35.1651369  93.2689499  85.7493328  32.8041424  93.8862866
  86.2821665  32.0429712  93.6562174  85.2207409  32.5115075  94.6287020
  88.9163023  17.9101489  89.4156507  88.5727292  18.8003131  89.3395618
  89.2841985  17.7203147  88.5526092  76.9848873  30.2335020  82.2345110
  77.8224095  30.6432028  82.0178817  77.1627141  29.2934462  82.2045304
  88.8813306  27.9010101  77.9228943  88.3659929  28.6714705  78.1617330
  88.6090614  27.2275237  78.5462004  86.4660417  22.7459801  82.9814181
  85.6102013  22.3566652  82.8019820  86.8787368  22.8251762  82.1213966
  87.9959563  20.2806145  87.3805741  87.4924359  20.2436280  86.5673546
  88.2890170  21.1898887  87.4402397  84.2402449  20.3644874  86.3871922
  85.1055446  20.1687683  86.0277812  84.3079958  20.1355226  87.3141279
  93.8547580  30.6542455  79.8582116  93.0777022  30.3153615  79.4137278
  94.5339061  30.6595078  79.1837081  88.6699609  25.7737193  79.7488724
  88.3649744  26.0883342  80.5998867  89.6230051  25.8518613  79.7916057
  87.1146041  31.9327416  81.3981678  86.5867402  31.1980176  81.0854915
  86.6133543  32.7102092  81.1521646  92.0938887  30.1276436  86.5148724
  91.4362561  30.8175698  86.6028853  92.8979286  30.5172868  86.8582710
  81.8464768  22.5947082  83.7588289  82.4208520  22.3722264  83.0261482
  82.4335751  22.6635777  84.5116891  90.9044345  28.4820809  84.5652666
  91.4176227  29.1150801  85.0674376  91.5545569  27.8822005  84.1996026
  82.1734355  24.6251543  77.7784175  81.3371668  24.9626230  78.0993449
  82.0339125  24.4900523  76.8411311  84.1487436  19.4688331  82.4863359
  83.4951848  19.1537348  81.8619973  84.1067910  18.8464072  83.2123182
  85.2598641  29.7507626  74.4016651  84.3525702  29.5196880  74.6007800
  85.7569673  28.9545246  74.5890632  88.1666720  38.4605133  77.3213337
  87.4928418  38.7636830  77.9298295  88.5532542  39.2634214  76.9718794
  87.3825176  25.9570265  86.8111006  86.4647738  26.1785212  86.6532694
  87.7985320  26.0316575  85.9522714  88.1660224  27.3561680  81.9413687
  88.9132043  27.8683078  81.6320809  88.4351814  27.0345733  82.8018080
  86.4386874  29.8520221  78.9240641  85.5298093  29.5679254  79.0213111
  86.4681958  30.2719300  78.0643948  91.6706142  33.4626811  82.6931808
  91.2168469  32.6217721  82.7496999  91.0400108  34.0988209  83.0306589
  90.6139061  24.3918797  83.9232476  89.8761818  23.8796183  84.2542718
  90.8665835  23.9519178  83.1115753  90.1139081  35.3003307  83.6281627
  90.4062055  35.8608364  82.9093992  90.6237701  35.5931868  84.3834786
  90.7150688  17.1695049  84.5174245  91.0209565  16.3092412  84.2300160
  91.4403293  17.7612669  84.3173239  77.0075045  27.5725735  82.9055843
  76.8099444  26.9795096  82.1806910  76.4521709  27.2677945  83.6231782
  84.9871768  27.4648842  85.0250436  85.0420378  26.5122678  84.9492913
  84.1762970  27.6208281  85.5091735  86.1362962  31.3928965  76.2628719
  85.6982392  30.6764824  75.8034357  86.8773403  31.6205080  75.7013811
  82.9264128  26.0825901  82.7840815  82.1131994  26.3820072  83.1906007
  83.4223122  25.6881590  83.5015297  85.0772706  36.0783658  84.7175080
  85.0348885  36.3044505  83.7883612  85.9935405  35.8447033  84.8660881
  88.5238340  26.5467726  91.6155709  88.8787728  26.7739199  92.4750175
  89.1710471  26.8786103  90.9932964  94.2536077  29.6686162  82.3205038
  94.1153975  29.8587758  81.3926227  93.8972296  30.4305545  82.7773089
  82.4178203  23.6544257  88.4002050  83.0577582  23.5133016  87.7025013
  81.5855733  23.3678770  88.0240652  94.2805456  31.7362689  87.3316310
  94.7141963  31.6437978  88.1799364  94.9937037  31.7120189  86.6936326
  83.1938507  32.9546687  84.5137042  83.9879105  32.4597008  84.3119617
  82.4830199  32.4264551  84.1504748  88.0133351  35.3364783  88.8649410
  88.0670374  35.9055719  89.6327126  87.1448133  35.5066668  88.5003447
  79.5021270  27.0989769  80.5896795  78.5718858  27.0374225  80.8066757
  79.5978742  26.5765722  79.7933436  79.4206819  23.6244582  83.1775037
  79.6813637  24.5389915  83.0684197  80.2423992  23.1569025  83.3271650
  80.8931745  25.0382339  90.3473861  81.5654798  24.8299701  89.6986510
  80.0661531  24.8404425  89.9079094  95.1421006  31.7786389  89.8649195
  95.3356896  32.6832200  90.1108470  95.0421624  31.3193809  90.6987780
  86.7957317  21.6644280  92.3639522  86.1485232  22.3634230  92.2703999
  87.5658332  22.0980424  92.7315770  90.2036115  31.9293132  95.4390076
  90.0521621  31.7003684  94.5220159  90.1940794  32.8863734  95.4521421
  86.9721451  29.5025045  90.4236342  87.9013511  29.6536205  90.2505309
  86.5512481  29.5909066  89.5684988  85.7709783  33.5275709  88.1934880
  85.6320868  33.1594494  89.0660818  84.9824379  34.0423349  88.0218837
  86.3657935  38.6284806  79.5360416  86.5409690  38.1572849  80.3506039
  85.6790723  39.2550572  79.7641677  87.3214998  32.9057312  85.5823717
  86.9864831  32.8658082  86.4781367  86.8218944  32.2402028  85.1094128
  81.2959242  28.3124942  91.1076299  81.1579040  27.5805181  91.7087838
  82.2064165  28.2233842  90.8260486  90.2574190  30.2513346  75.8560777
  89.6403360  29.5260175  75.7593830  89.7890678  31.0122707  75.5127851
  83.9241543  28.0244901  90.5959978  84.6341161  27.3838094  90.5546597
  83.8810851  28.2757796  91.5186159  91.9128321  34.9612255  93.5166557
  91.8540867  34.2771475  92.8497140  92.3147840  35.7031245  93.0647183
  82.6370477  25.0110119  92.4155618  82.1007834  24.5600858  93.0677214
  82.0487185  25.1456028  91.6726082  80.9319020  41.7774169  86.3100276
  81.1715618  42.4092693  86.9879295  80.0888217  41.4262209  86.5965636
  82.0472735  24.4698771  74.9782081  81.1702202  24.3487572  74.6144328
  82.5230489  23.6784849  74.7260970  91.9145729  32.9251839  91.7480537
  91.0272507  32.5877761  91.8706936  92.4844280  32.1934870  91.9849302
  73.5674876  29.2575930  85.0723588  74.2545915  28.9437661  84.4844604
  73.4123004  30.1617295  84.7990840  78.3709598  24.1466127  89.5008612
  78.2867787  23.5391797  88.7659022  77.5492304  24.6375145  89.5018108
  85.4446882  37.5853291  88.7141780  85.3717053  38.3908263  89.2261085
  85.0024275  37.7845257  87.8889802  85.2336662  36.8225061  82.2244602
  84.4504183  37.3646741  82.3182826  85.9329407  37.3399041  82.6238843
  88.5433312  22.6319691  84.8678807  89.0402011  21.8789653  84.5479877
  87.7720293  22.6684007  84.3022017  96.3963069  28.3360056  86.5097099
  96.3852945  29.2184772  86.1391032  95.5280448  27.9831607  86.3151636
  87.9045565  37.4840125  90.8699939  88.6173538  38.1187590  90.7975840
  87.4135594  37.5803991  90.0539941  89.6263092  31.3891378  82.4417231
  88.6919371  31.5092840  82.2721935  89.8039761  30.4863845  82.1777240
  85.1268280  24.7737074  84.5950492  84.7566068  24.2208114  85.2831397
  85.6227373  24.1695207  84.0425492  93.0135644  27.2308697  82.9767265
  93.4796096  28.0636689  82.9027567  93.4643144  26.7653679  83.6812523
  82.9557479  35.2334569  91.6905510  83.6566938  35.8671052  91.8434904
  82.4852594  35.5749300  90.9301149  91.0811875  33.5752518  79.9753417
  91.3571719  33.4609113  80.8847291  90.2116374  33.1770003  79.9365590
  90.9852306  19.5989284  87.0158166  90.0715386  19.8293511  87.1840373
  91.4145408  19.6827728  87.8672198  90.7558765  27.7879176  89.5158060
  90.1030215  28.0355083  88.8610513  91.1339145  26.9743314  89.1820537
  87.7165939  37.8238869  83.6186230  87.8988333  37.0060525  84.0813983
  88.5398925  38.0406561  83.1811120  88.0508104  36.7507054  80.8801279
  88.5795871  36.2399509  80.2671441  88.3136324  36.4349585  81.7446812
  86.8046338  28.5298987  96.0024097  86.1286975  28.4293116  96.6726472
  87.6273972  28.3738201  96.4660094  78.5525197  34.7670924  88.6236612
  79.1378634  34.0214612  88.7564517  78.3550035  35.0774880  89.5073276
  81.4063852  37.8022171  83.6399055  80.7374228  38.2868299  83.1563095
  81.2676722  38.0491391  84.5542433  73.1442852  27.3376524  87.3441056
  73.1826951  26.8040115  88.1378174  72.6383145  26.8111729  86.7252033
  85.5469121  39.8365915  90.2381713  86.0987429  39.9997536  91.0030798
  85.8875314  40.4270352  89.5661738  80.5233614  22.1841064  90.8403598
  80.5874941  23.0455895  90.4280996  80.4600734  21.5715066  90.1075956
  79.9985887  24.2564197  94.4876632  80.6257925  23.8741274  95.1014156
  79.1413805  24.0378399  94.8532325  90.3979995  34.6627172  96.0930368
  90.9419899  35.2757130  95.5985322  89.8166840  35.2206750  96.6097381
  76.7751429  26.0640626  80.4194987  77.0704870  25.1551304  80.3662041
  75.8739465  26.0428365  80.0975989  88.6837508  37.7847890  87.2245395
  88.5588648  36.9837630  86.7156341  89.3416599  38.2794083  86.7359365
  80.3045676  24.1396623  86.4022536  79.5832262  24.7532590  86.2630009
  81.0938932  24.6754387  86.3239182  90.7472416  35.5856910  88.8524945
  89.8002752  35.4662261  88.7803272  91.0955190  34.6979408  88.9351207
  83.1071990  21.4751049  92.6763187  83.6306392  21.7213346  93.4389497
  82.8884323  22.3071084  92.2566325  78.5039271  23.7454724  80.5434312
  78.1751977  22.8652103  80.3609418  78.8578642  23.6902392  81.4310701
  87.7518850  35.3809626  85.0529298  87.6043812  34.4526334  85.2336868
  88.5772343  35.4029717  84.5686373  81.6181094  24.0327693  80.9109790
  81.9577167  24.5613615  80.1888398  82.0653215  24.3708100  81.6868356
  91.3552972  36.2038185  86.1394170  92.2799519  35.9981046  86.0018622
  91.1868275  35.9554586  87.0483512  84.3124535  22.4164744  90.3612858
  83.9721355  21.6172557  90.7633538  83.6063541  22.7166455  89.7889691
  84.9641007  19.5014057  88.8140181  85.7867076  19.0274535  88.6919071
  85.2079070  20.2804540  89.3138867  83.6049241  22.5302315  79.1103083
  84.3257604  22.9083568  78.6066799  82.9814545  23.2491192  79.2138061
  87.7480364  23.2347464  80.0461415  87.9643978  24.1172102  79.7450243
  87.2674431  22.8433677  79.3167057  82.4879585  26.1933177  86.6232159
  82.3424166  26.5073480  87.5156441  82.0104789  26.8118078  86.0703058
  84.3475968  23.1835725  86.6713049  84.3337537  22.2876819  86.3345347
  85.0648396  23.1906389  87.3051335  86.2002099  23.6173065  88.7166176
  85.9419877  24.5390136  88.7150507  85.6687139  23.2203500  89.4066641
  91.1448288  36.7223853  81.4956262  91.3185165  36.1570275  80.7430114
  91.6377179  37.5224747  81.3135752  76.9625248  28.7338522  89.5619821
  76.4178716  29.5098330  89.6940095  77.8404598  29.0809326  89.4038942
  83.7512864  22.0650106  81.9400619  83.8728775  21.1366752  82.1391507
  83.4614907  22.0788791  81.0278935  86.6204055  19.7505016  85.0767339
  86.6425752  19.8144349  84.1219319  87.0372114  18.9109525  85.2707845
  96.9987679  29.4860275  83.1146562  97.4418825  28.7367601  82.7165685
  96.1214189  29.4770412  82.7320294  92.1323460  36.0390617  78.5953160
  92.8274365  36.6597310  78.8140475  92.4746610  35.1885968  78.8705538
  77.7491270  27.8608418  92.4549978  77.0073006  28.0091053  93.0414608
  77.4284014  28.1216684  91.5916727  94.0314883  33.4890322  80.1240491
  94.5566208  33.8277595  79.3989811  93.9437236  32.5537338  79.9403626
  85.6934932  37.4024396  92.2530368  86.0022059  37.1573543  93.1253067
  86.4910414  37.6071035  91.7649238  85.7155544  39.5562306  84.4835744
  85.2760534  39.0638684  85.1768601  86.4663661  39.0135273  84.2427819
  78.1947883  35.7473847  84.4860372  79.0205903  35.4477618  84.1059016
  77.8441935  34.9781469  84.9350161  83.1629416  35.1000315  86.5558046
  82.5409426  34.4371020  86.2560274  83.8334283  35.1261447  85.8731694
  76.3956488  33.6660173  85.4449306  75.5588397  33.2382347  85.2633307
  76.3680134  33.8592616  86.3820097  83.2353944  23.5782103  96.1490552
  83.2842099  24.4544226  95.7668321  83.7776458  23.0359496  95.5762195
  93.7208790  34.1223226  95.4291689  92.9304333  34.1047365  94.8896188
  93.4842144  34.6611520  96.1840725  93.8406665  30.9715692  92.7424417
  93.8904669  30.8065700  93.6839940  93.7320588  30.1042952  92.3522298
  82.7242923  33.6504238  80.0316506  82.8731044  34.3339703  79.3783179
  83.5309367  33.6309328  80.5465962  91.1310427  26.9546621  94.0583724
  92.0320290  26.8153085  93.7667722  91.2058401  27.1201075  94.9981902
  85.4653232  24.3313475  92.9036910  84.5956542  24.6247041  92.6319499
  85.7012713  24.9153920  93.6244174  95.3424861  33.3912634  92.9866439
  95.0509670  33.7542615  93.8229900  94.7296993  32.6779642  92.8079771
  96.5420544  30.9565514  85.5069009  97.3767435  31.3955318  85.6706570
  96.6779673  30.4804167  84.6877255  93.5912050  28.5145249  91.4546497
  94.0666171  28.7072895  90.6465348  92.6677615  28.5704434  91.2089881
  80.4795556  29.6769416  81.0377575  80.2341598  28.7731746  81.2357785
  80.6491471  29.6786566  80.0957053  88.1692266  20.5493092  90.4202331
  88.6874210  21.2854119  90.0948819  87.8147399  20.8557085  91.2549090
  79.7491204  25.4097773  78.5363737  79.0560449  25.4842128  77.8803773
  79.5042956  24.6458117  79.0585254  88.4204860  16.9693375  85.9403227
  88.7006614  16.3016564  86.5663654  89.2055467  17.1622470  85.4277891
  86.2238329  36.1452369  77.5028254  85.6512296  36.7642556  77.0498726
  86.7971122  36.6951730  78.0368176  92.2913719  25.3911009  89.6874803
  93.2431142  25.4909106  89.7087027  92.1217169  24.5989277  90.1972887
  90.3128098  22.4766592  89.8734203  89.7178030  22.7571605  89.1780692
  90.0277795  22.9660493  90.6450945  89.4435589  36.4289519  78.6336836
  90.3766262  36.3635080  78.8369712  89.3558801  37.2645786  78.1751369
  92.0723605  35.7455389  75.5940784  91.9937237  35.4115253  76.4876541
  92.8933272  36.2377157  75.5932256  94.7701796  28.6117128  88.8017102
  94.7378117  27.6733129  88.9876786  95.3802420  28.6901165  88.0682927
  86.6085127  27.4813181  74.8444306  87.5544232  27.3519389  74.9132724
  86.2299372  26.7427843  75.3213734  94.9196285  25.4028172  88.8475385
  94.4035334  24.6186628  88.6605314  95.8036233  25.0746888  89.0121905
  92.5807012  19.1469187  84.8071198  92.3831833  18.8384276  85.6914530
  93.1906717  19.8730826  84.9369128 100.5878346  29.6733135  87.9423139
 101.3181735  29.4118423  88.5030842  99.9785292  28.9361857  87.9825207
  98.6693643  27.8140998  88.5397590  97.9426807  27.6796963  87.9314082
  98.2540930  28.1217826  89.3454308  86.4923820  31.5330928  96.3044963
  87.4126829  31.7109527  96.4985010  86.4573403  30.5886973  96.1524662
  84.7928044  25.4063158  74.7799191  83.8859500  25.1096270  74.8561905
  85.0704025  25.1092976  73.9133478  75.7105985  26.7269521  85.2298238
  75.3908769  25.8734829  84.9372612  75.1639413  26.9418099  85.9856205
  79.4885892  29.4431962  88.9467744  79.7071902  30.3749070  88.9655778
  79.9011666  29.0839937  89.7322548  86.4090110  19.9500047  80.9343433
  85.5990838  19.6047132  81.3098679  87.0974527  19.6407591  81.5231044
  88.3380658  19.0278094  82.5567729  88.8911697  19.4473548  83.2157752
  88.5750745  18.1013842  82.5990685  84.3613758  25.0165168  98.3370493
  84.2610485  25.9659525  98.2682584  84.1435300  24.6883407  97.4646563
  83.5626829  22.2650093  74.9211171  84.4245993  22.5904991  75.1806988
  83.7477173  21.4781589  74.4084236  75.5794245  30.3472433  87.1991359
  74.8857716  29.9326385  86.6861314  76.3267236  30.3892969  86.6024778
  91.7159466  21.1378619  82.0646394  91.1358135  21.7963423  81.6824446
  91.4495398  20.3155964  81.6533811  90.1663032  20.5383677  84.2667714
  90.6662810  20.6500212  83.4582033  90.8098640  20.2344730  84.9068522
  84.2245028  28.4462307  97.1535555  83.7412109  29.2462667  97.3599444
  84.3105967  28.4570252  96.2002999  77.4930987  30.2790686  85.0757374
  77.4701675  30.3778374  84.1239257  77.8031624  31.1255837  85.3974540
  80.1518365  32.3366841  89.1903989  81.1061619  32.3050784  89.1233920
  79.9530889  31.8757465  90.0054215  80.7417747  30.9067958  91.7574786
  81.5610636  31.4012036  91.7809624  81.0154555  29.9899926  91.7292354
  90.4984344  23.2978710  81.1202742  89.6110199  23.5828360  80.9022937
  90.9138333  23.1372473  80.2730019  93.8498880  23.3225231  84.8357081
  94.6259270  23.8121683  85.1081698  93.1247014  23.7483285  85.2928951
  96.2871438  24.0352850  85.8931022  96.8815929  23.7948586  85.1824330
  96.3598022  23.3159981  86.5204558  78.5068594  37.8786461  86.2074187
  78.3723062  37.1186862  85.6412185  78.0900656  38.6027361  85.7402975
  89.6427557  33.0623385  75.2150762  90.3463407  33.2673387  75.8308417
  88.9190206  33.6300146  75.4799845  90.4725367  28.8133246  81.3353032
  90.4160569  29.2701797  80.4960664  91.0253710  28.0523930  81.1575875
  94.2830173  24.6022978  82.1603152  94.0267107  24.2019613  82.9911359
  93.6583041  25.3166772  82.0353291  98.5942511  27.3419051  84.6674443
  98.0342069  27.4112240  85.4406005  97.9886014  27.1660036  83.9473939
  81.6637720  38.7755778  86.4192629  81.5470104  39.7201210  86.3171320
  80.8430166  38.4729340  86.8078428  91.5514254  33.5005914  77.2649222
  92.3859858  33.0687112  77.0826697  91.3898597  33.3287927  78.1926116
  91.2060147  30.0038027  78.6305561  91.1508950  29.8382298  77.6894005
  90.5806202  30.7114060  78.7867751  75.9952662  25.2406091  92.4566983
  76.6411525  24.7305045  92.9454209  75.7869813  25.9774773  93.0310409
  88.5206054  32.3086939  97.9559124  89.3897213  32.4827591  97.5945759
  88.0412805  33.1281356  97.8334853  84.5156272  19.5046136  78.2090880
  84.5034942  20.4487976  78.3659151  85.4079694  19.3216281  77.9150341
  82.6892234  39.4284040  89.6348558  83.5919481  39.4607650  89.9515053
  82.4629604  38.4984491  89.6494893  84.4445836  38.1815026  86.2958636
  83.4941467  38.1816888  86.1823009  84.7478322  37.4347761  85.7794671
  88.3308392  16.0988913  82.4636816  87.5640787  15.5447399  82.6093499
  88.7419096  16.1710781  83.3250968  80.3350153  22.3873708  96.5541998
  81.1981614  22.0310513  96.7645322  79.7615563  22.0487603  97.2417402
 100.1798530  44.0175565  87.3604399 100.8176939  43.8982312  86.6567739
 100.0619372  44.9656409  87.4192351  96.9888236  43.9702993  87.2965923
  96.6506747  43.8544058  86.4086458  97.8578004  43.5694158  87.2766930
  92.8475051  45.8238469  83.2862814  92.2839917  45.7328406  82.5179102
  92.7327447  45.0038374  83.7665307  97.4708019  45.1237845  93.2552129
  97.4596660  44.7290643  92.3832633  97.6328658  44.3903917  93.8485900
  90.3939483  47.3189661  86.1247035  91.1860775  46.9780486  85.7093334
  90.6336134  47.4284636  87.0449188  98.4274610  49.4909437  78.5977279
  97.7762590  50.0763517  78.2111293  99.2218973  50.0215632  78.6572317
  92.3530237  46.5798574  78.9964414  93.1261113  46.0327561  78.8577289
  92.7055636  47.4442824  79.2078875  94.1915280  47.9074956  92.2031313
  93.9005146  48.8120587  92.0877979  94.8272264  47.9491484  92.9175382
  95.1171487  45.2851805  88.7932673  95.7135059  45.0607827  88.0789635
  95.1746458  44.5436550  89.3958120  94.6896515  42.7391240  76.6282863
  94.9422036  42.2172762  75.8666327  93.7521074  42.5757386  76.7309547
  99.7339798  41.7427019  84.4357607 100.5202887  41.3246442  84.0848024
  99.9978502  42.6473111  84.6039255  99.9049875  47.1799869  79.1346264
  99.2695708  47.2534495  79.8467168  99.5747282  47.7693468  78.4565343
 105.1348225  41.6802252  85.3390585 105.8673397  41.1101469  85.5728415
 104.3787581  41.2923852  85.7797091  94.4092804  44.6419346  78.8307238
  94.2929062  43.9664250  79.4988323  94.5195064  44.1551720  78.0139392
  96.7524345  44.1029493  82.5353928  96.3882552  43.5760114  83.2466849
  97.6091461  43.7127962  82.3620413 102.6573645  35.3923826  89.7985194
 102.3256970  36.2619237  89.5746409 102.0619259  35.0760110  90.4779224
  96.3929832  39.1319393  77.5315276  96.5604234  39.9999629  77.8985747
  96.2027001  39.2946675  76.6076565  99.1505165  47.5936372  89.1981107
  98.8505888  48.4961411  89.0896914  98.8056225  47.3268555  90.0502259
  92.6017646  44.0450169  85.2317811  91.6768143  43.9126383  85.4395503
  92.8502060  44.8244388  85.7287753 102.5502309  40.1118912  86.8778544
 101.6419186  40.0434321  86.5837305 102.4989905  40.5890857  87.7060369
  96.3719053  41.5877051  78.5161943  96.2518678  42.0334101  79.3547423
  95.6771641  41.9362368  77.9575481  89.9626458  43.6883442  86.0661600
  90.0918839  43.9417921  86.9801012  89.2823909  44.2811150  85.7466255
  94.1325945  54.3580692  82.1652074  94.0549975  55.3088517  82.2440555
  93.5287588  54.0126565  82.8227001  96.6243175  41.5308558  94.8213441
  95.8476509  42.0902478  94.8116306  97.2633738  42.0165341  95.3428311
 104.4163955  38.3135351  88.6556418 103.7738335  38.6067884  88.0096212
 103.9118884  38.1988271  89.4609614 102.0704119  42.0598524  79.3442277
 102.9821975  42.2925910  79.1689975 101.5613766  42.6435568  78.7817356
  94.8789547  44.3394011  94.3831408  95.6204231  44.8779055  94.1066232
  94.1726532  44.9660300  94.5402960 100.3544887  46.4823152  92.9803570
 100.7628243  46.0405562  92.2358202  99.6322148  45.9075779  93.2337763
  96.7075957  41.4195758  90.3537127  97.5537152  41.8435172  90.4971776
  96.6474594  40.7629383  91.0475690 100.6773701  47.0424342  86.7355859
 100.0482564  47.2070056  86.0331926 100.2899363  47.4565952  87.5066823
 104.5562933  47.9778780  84.0900222 103.8713971  48.3577681  83.5397256
 104.6406782  48.5874107  84.8232170  99.8575402  39.0800127  92.0118300
  99.6136334  39.8342187  91.4752576 100.1335332  39.4585474  92.8465547
 101.8113865  45.6238739  90.6895566 102.0230760  46.2670499  90.0129947
 101.7643613  44.7901056  90.2217496  99.4140094  38.2356560  87.5932138
  98.5524573  38.5337813  87.8848876  99.4402528  38.4526959  86.6613171
  96.2301663  46.7798750  84.0005944  96.6940009  47.0586453  83.2110566
  95.9658461  45.8782195  83.8179034  93.1225744  46.3270232  86.9385707
  93.6927101  46.7557500  86.3003191  93.7133856  46.0452817  87.6369893
  95.1670549  42.9021903  80.8095509  95.8694592  43.3542946  81.2769435
  94.8351178  42.2605722  81.4375402  93.6150911  41.4933659  95.1846718
  92.9849571  42.1749940  95.4182115  93.5086999  41.3816741  94.2399856
  88.9095883  41.1605455  86.1112642  88.1194937  41.4162984  85.6352753
  89.4007130  41.9753793  86.2164683 102.9259693  48.5010694  88.8617923
 103.7477136  48.0990882  88.5800605 102.9222095  48.3978929  89.8134039
  90.8610628  41.5250035  83.0696119  90.0641792  41.6368729  83.5879615
  90.6336221  41.8636687  82.2037010  96.6916296  48.0494738  91.0178634
  96.7560729  48.5115145  91.8536806  95.9827220  47.4192103  91.1460944
  87.1933586  41.4135946  88.5427633  87.4441624  42.2982956  88.8085209
  87.7293134  41.2340547  87.7702725 111.0165686  44.8449443  85.2102895
 110.2629394  44.2756841  85.0546899 111.1513227  44.8112107  86.1573529
  96.4064314  49.7162845  80.8857614  96.2709989  50.5614381  81.3142462
  96.9474126  49.9182123  80.1223548  92.8931653  35.7954425  97.5471969
  92.4998599  35.2420624  98.2219613  93.7097794  36.1065004  97.9378487
  89.8593711  47.2338283  81.4585539  90.3718232  48.0281534  81.6091104
  90.5116424  46.5364574  81.3919141  91.6688596  50.3504040  83.5408292
  91.8455224  51.2722004  83.3529276  92.4645429  50.0362459  83.9702672
  95.8099614  37.2112304  95.1392226  96.5509328  37.8119457  95.0596688
  96.0417537  36.4689942  94.5810268  90.9540952  42.3968671  93.4170455
  90.8394468  41.4953929  93.7177554  90.0985470  42.6432368  93.0655272
  98.0332790  50.3386412  95.0157956  97.5896644  49.5522790  94.6978861
  98.6950004  50.5265562  94.3501847 100.1314028  50.6189212  93.0439357
 100.1132504  51.4398093  92.5519627 101.0533948  50.4943287  93.2689499
  96.5887082  48.1333341  93.8862866  97.1215419  47.3721629  93.6562174
  96.0601163  47.8406993  94.6287020  99.7556777  33.2393407  89.4156507
  99.4121047  34.1295049  89.3395618 100.1235740  33.0495065  88.5526092
  87.8242628  45.5626938  82.2345110  88.6617850  45.9723946  82.0178817
  88.0020896  44.6226380  82.2045304  99.7207060  43.2302018  77.9228943
  99.2053683  44.0006623  78.1617330  99.4484368  42.5567154  78.5462004
  97.3054171  38.0751719  82.9814181  96.4495767  37.6858569  82.8019820
  97.7181123  38.1543680  82.1213966  98.8353318  35.6098062  87.3805741
  98.3318113  35.5728197  86.5673546  99.1283925  36.5190805  87.4402397
  95.0796204  35.6936792  86.3871922  95.9449200  35.4979601  86.0277812
  95.1473712  35.4647144  87.3141279 104.6941334  45.9834373  79.8582116
 103.9170777  45.6445532  79.4137278 105.3732815  45.9886996  79.1837081
  99.5093363  41.1029110  79.7488724  99.2043499  41.4175260  80.5998867
 100.4623805  41.1810530  79.7916057  97.9539795  47.2619334  81.3981678
  97.4261157  46.5272093  81.0854915  97.4527298  48.0394010  81.1521646
 102.9332641  45.4568354  86.5148724 102.2756315  46.1467616  86.6028853
 103.7373040  45.8464786  86.8582710  92.6858523  37.9239000  83.7588289
  93.2602275  37.7014181  83.0261482  93.2729505  37.9927694  84.5116891
 101.7438100  43.8112727  84.5652666 102.2569982  44.4442719  85.0674376
 102.3939324  43.2113922  84.1996026  93.0128110  39.9543461  77.7784175
  92.1765422  40.2918148  78.0993449  92.8732879  39.8192441  76.8411311
  94.9881190  34.7980249  82.4863359  94.3345603  34.4829266  81.8619973
  94.9461664  34.1755989  83.2123182  96.0992395  45.0799544  74.4016651
  95.1919457  44.8488797  74.6007800  96.5963427  44.2837163  74.5890632
  99.0060474  53.7897051  77.3213337  98.3322173  54.0928748  77.9298295
  99.3926296  54.5926131  76.9718794  98.2218931  41.2862182  86.8111006
  97.3041492  41.5077129  86.6532694  98.6379074  41.3608493  85.9522714
  99.0053978  42.6853598  81.9413687  99.7525797  43.1974995  81.6320809
  99.2745568  42.3637651  82.8018080  97.2780629  45.1812139  78.9240641
  96.3691848  44.8971172  79.0213111  97.3075712  45.6011217  78.0643948
 102.5099896  48.7918728  82.6931808 102.0562223  47.9509638  82.7496999
 101.8793863  49.4280127  83.0306589 101.4532816  39.7210714  83.9232476
 100.7155572  39.2088101  84.2542718 101.7059589  39.2811096  83.1115753
 100.9532835  50.6295225  83.6281627 101.2455810  51.1900282  82.9093992
 101.4631456  50.9223786  84.3834786 101.5544443  32.4986966  84.5174245
 101.8603320  31.6384330  84.2300160 102.2797048  33.0904587  84.3173239
  87.8468799  42.9017653  82.9055843  87.6493199  42.3087014  82.1806910
  87.2915463  42.5969863  83.6231782  95.8265523  42.7940759  85.0250436
  95.8814132  41.8414596  84.9492913  95.0156725  42.9500199  85.5091735
  96.9756716  46.7220882  76.2628719  96.5376146  46.0056741  75.8034357
  97.7167157  46.9496997  75.7013811  93.7657883  41.4117819  82.7840815
  92.9525748  41.7111990  83.1906007  94.2616877  41.0173508  83.5015297
  95.9166461  51.4075576  84.7175080  95.8742639  51.6336422  83.7883612
  96.8329159  51.1738951  84.8660881  99.3632094  41.8759644  91.6155709
  99.7181482  42.1031117  92.4750175 100.0104226  42.2078020  90.9932964
 105.0929831  44.9978080  82.3205038 104.9547730  45.1879675  81.3926227
 104.7366050  45.7597462  82.7773089  93.2571957  38.9836175  88.4002050
  93.8971337  38.8424934  87.7025013  92.4249488  38.6970688  88.0240652
 105.1199211  47.0654607  87.3316310 105.5535718  46.9729896  88.1799364
 105.8330792  47.0412107  86.6936326  94.0332261  48.2838605  84.5137042
  94.8272860  47.7888925  84.3119617  93.3223954  47.7556468  84.1504748
  98.8527106  50.6656701  88.8649410  98.9064128  51.2347637  89.6327126
  97.9841887  50.8358586  88.5003447  90.3415025  42.4281687  80.5896795
  89.4112613  42.3666142  80.8066757  90.4372497  41.9057640  79.7933436
  90.2600574  38.9536500  83.1775037  90.5207391  39.8681833  83.0684197
  91.0817746  38.4860942  83.3271650  91.7325499  40.3674257  90.3473861
  92.4048553  40.1591619  89.6986510  90.9055286  40.1696343  89.9079094
 105.9814760  47.1078307  89.8649195 106.1750650  48.0124118  90.1108470
 105.8815379  46.6485726  90.6987780  97.6351071  36.9936198  92.3639522
  96.9878986  37.6926147  92.2703999  98.4052087  37.4272342  92.7315770
 101.0429869  47.2585050  95.4390076 100.8915375  47.0295602  94.5220159
 101.0334549  48.2155651  95.4521421  97.8115205  44.8316963  90.4236342
  98.7407265  44.9828122  90.2505309  97.3906236  44.9200983  89.5684988
  96.6103537  48.8567627  88.1934880  96.4714623  48.4886411  89.0660818
  95.8218134  49.3715267  88.0218837  97.2051689  53.9576724  79.5360416
  97.3803445  53.4864767  80.3506039  96.5184477  54.5842490  79.7641677
  98.1608752  48.2349230  85.5823717  97.8258585  48.1950000  86.4781367
  97.6612698  47.5693946  85.1094128  92.1352996  43.6416860  91.1076299
  91.9972794  42.9097099  91.7087838  93.0457920  43.5525760  90.8260486
 101.0967944  45.5805264  75.8560777 100.4797115  44.8552092  75.7593830
 100.6284433  46.3414624  75.5127851  94.7635297  43.3536819  90.5959978
  95.4734916  42.7130011  90.5546597  94.7204605  43.6049714  91.5186159
 102.7522076  50.2904172  93.5166557 102.6934622  49.6063393  92.8497140
 103.1541594  51.0323162  93.0647183  93.4764231  40.3402037  92.4155618
  92.9401588  39.8892775  93.0677214  92.8880939  40.4747946  91.6726082
  92.8866490  39.7990688  74.9782081  92.0095956  39.6779489  74.6144328
  93.3624243  39.0076767  74.7260970 102.7539483  48.2543756  91.7480537
 101.8666262  47.9169678  91.8706936 103.3238034  47.5226788  91.9849302
  84.4068630  44.5867848  85.0723588  85.0939670  44.2729578  84.4844604
  84.2516759  45.4909213  84.7990840  89.2103352  39.4758045  89.5008612
  89.1261541  38.8683714  88.7659022  88.3886059  39.9667063  89.5018108
  96.0730416  52.1516979  82.2244602  95.2897938  52.6938659  82.3182826
  96.7723161  52.6690958  82.6238843  99.3827066  37.9611608  84.8678807
  99.8795766  37.2081571  84.5479877  98.6114048  37.9975925  84.3022017
 107.2356824  43.6651974  86.5097099 107.2246700  44.5476689  86.1391032
 106.3674203  43.3123525  86.3151636  98.7439320  52.8132043  90.8699939
  99.4567292  53.4479508  90.7975840  98.2529349  52.9095909  90.0539941
 100.4656847  46.7183295  82.4417231  99.5313126  46.8384758  82.2721935
 100.6433515  45.8155762  82.1777240  95.9662035  40.1028991  84.5950492
  95.5959822  39.5500032  85.2831397  96.4621127  39.4987125  84.0425492
 103.8529398  42.5600615  82.9767265 104.3189850  43.3928606  82.9027567
 104.3036899  42.0945596  83.6812523  93.7951233  50.5626486  91.6905510
  94.4960693  51.1962969  91.8434904  93.3246348  50.9041218  90.9301149
 101.9205629  48.9044436  79.9753417 102.1965473  48.7901031  80.8847291
 101.0510128  48.5061921  79.9365590 101.8246061  34.9281202  87.0158166
 100.9109141  35.1585429  87.1840373 102.2539162  35.0119646  87.8672198
 101.5952519  43.1171094  89.5158060 100.9423970  43.3647001  88.8610513
 101.9732899  42.3035232  89.1820537  98.5559693  53.1530787  83.6186230
  98.7382088  52.3352443  84.0813983  99.3792679  53.3698479  83.1811120
  98.8901859  52.0798972  80.8801279  99.4189625  51.5691427  80.2671441
  99.1530078  51.7641502  81.7446812  97.6440092  43.8590905  96.0024097
  96.9680729  43.7585034  96.6726472  98.4667726  43.7030119  96.4660094
  89.3918952  50.0962841  88.6236612  89.9772388  49.3506529  88.7564517
  89.1943790  50.4066798  89.5073276  83.9836606  42.6668442  87.3441056
  84.0220706  42.1332032  88.1378174  83.4776899  42.1403647  86.7252033
  91.3627369  37.5132982  90.8403598  91.4268695  38.3747813  90.4280996
  91.2994489  36.9006984  90.1075956  90.8379641  39.5856115  94.4876632
  91.4651680  39.2033192  95.1014156  89.9807560  39.3670316  94.8532325
 101.2373750  49.9919090  96.0930368 101.7813654  50.6049048  95.5985322
 100.6560594  50.5498668  96.6097381  87.6145184  41.3932544  80.4194987
  87.9098625  40.4843222  80.3662041  86.7133220  41.3720283  80.0975989
  99.5231263  53.1139808  87.2245395  99.3982402  52.3129548  86.7156341
 100.1810354  53.6086001  86.7359365  91.1439431  39.4688540  86.4022536
  90.4226017  40.0824508  86.2630009  91.9332687  40.0046305  86.3239182
 101.5866171  50.9148828  88.8524945 100.6396507  50.7954179  88.7803272
 101.9348944  50.0271326  88.9351207  93.9465744  36.8042967  92.6763187
  94.4700146  37.0505263  93.4389497  93.7278078  37.6363002  92.2566325
  89.3433025  39.0746641  80.5434312  89.0145732  38.1944020  80.3609418
  89.6972396  39.0194310  81.4310701  98.5912604  50.7101544  85.0529298
  98.4437567  49.7818251  85.2336868  99.4166098  50.7321635  84.5686373
  92.4574849  39.3619611  80.9109790  92.7970921  39.8905532  80.1888398
  92.9046969  39.7000017  81.6868356 102.1946726  51.5330103  86.1394170
 103.1193274  51.3272964  86.0018622 102.0262029  51.2846504  87.0483512
  95.1518289  37.7456662  90.3612858  94.8115110  36.9464475  90.7633538
  94.4457296  38.0458373  89.7889691  95.8034761  34.8305974  88.8140181
  96.6260831  34.3566452  88.6919071  96.0472825  35.6096458  89.3138867
  94.4442996  37.8594233  79.1103083  95.1651358  38.2375486  78.6066799
  93.8208300  38.5783110  79.2138061  98.5874119  38.5639382  80.0461415
  98.8037733  39.4464020  79.7450243  98.1068186  38.1725595  79.3167057
  93.3273340  41.5225095  86.6232159  93.1817921  41.8365398  87.5156441
  92.8498544  42.1409995  86.0703058  95.1869723  38.5127643  86.6713049
  95.1731292  37.6168736  86.3345347  95.9042151  38.5198307  87.3051335
  97.0395854  38.9464983  88.7166176  96.7813631  39.8682054  88.7150507
  96.5080894  38.5495418  89.4066641 101.9842042  52.0515770  81.4956262
 102.1578920  51.4862193  80.7430114 102.4770934  52.8516665  81.3135752
  87.8019002  44.0630439  89.5619821  87.2572470  44.8390247  89.6940095
  88.6798352  44.4101244  89.4038942  94.5906619  37.3942023  81.9400619
  94.7122530  36.4658669  82.1391507  94.3008661  37.4080709  81.0278935
  97.4597809  35.0796934  85.0767339  97.4819506  35.1436267  84.1219319
  97.8765868  34.2401442  85.2707845 107.8381434  44.8152193  83.1146562
 108.2812580  44.0659518  82.7165685 106.9607944  44.8062330  82.7320294
 102.9717215  51.3682535  78.5953160 103.6668119  51.9889227  78.8140475
 103.3140365  50.5177886  78.8705538  88.5885024  43.1900336  92.4549978
  87.8466760  43.3382971  93.0414608  88.2677768  43.4508601  91.5916727
 104.8708638  48.8182240  80.1240491 105.3959962  49.1569513  79.3989811
 104.7830990  47.8829255  79.9403626  96.5328687  52.7316314  92.2530368
  96.8415813  52.4865461  93.1253067  97.3304169  52.9362952  91.7649238
  96.5549299  54.8854223  84.4835744  96.1154289  54.3930602  85.1768601
  97.3057416  54.3427191  84.2427819  89.0341638  51.0765764  84.4860372
  89.8599658  50.7769536  84.1059016  88.6835690  50.3073387  84.9350161
  94.0023171  50.4292233  86.5558046  93.3803180  49.7662938  86.2560274
  94.6728038  50.4553364  85.8731694  87.2350243  48.9952091  85.4449306
  86.3982151  48.5674265  85.2633307  87.2073888  49.1884534  86.3820097
  94.0747698  38.9074021  96.1490552  94.1235854  39.7836143  95.7668321
  94.6170213  38.3651414  95.5762195 104.5602544  49.4515144  95.4291689
 103.7698088  49.4339283  94.8896188 104.3235899  49.9903437  96.1840725
 104.6800419  46.3007610  92.7424417 104.7298424  46.1357618  93.6839940
 104.5714342  45.4334869  92.3522298  93.5636678  48.9796156  80.0316506
  93.7124798  49.6631620  79.3783179  94.3703121  48.9601246  80.5465962
 101.9704181  42.2838538  94.0583724 102.8714044  42.1445003  93.7667722
 102.0452156  42.4492993  94.9981902  96.3046987  39.6605393  92.9036910
  95.4350296  39.9538959  92.6319499  96.5406467  40.2445838  93.6244174
 106.1818616  48.7204552  92.9866439 105.8903424  49.0834532  93.8229900
 105.5690747  48.0071560  92.8079771 107.3814298  46.2857431  85.5069009
 108.2161190  46.7247236  85.6706570 107.5173427  45.8096085  84.6877255
 104.4305804  43.8437166  91.4546497 104.9059926  44.0364813  90.6465348
 103.5071370  43.8996352  91.2089881  91.3189311  45.0061333  81.0377575
  91.0735353  44.1023663  81.2357785  91.4885225  45.0078484  80.0957053
  99.0086021  35.8785010  90.4202331  99.5267964  36.6146037  90.0948819
  98.6541153  36.1849003  91.2549090  90.5884958  40.7389691  78.5363737
  89.8954203  40.8134046  77.8803773  90.3436710  39.9750035  79.0585254
  99.2598615  32.2985292  85.9403227  99.5400369  31.6308481  86.5663654
 100.0449222  32.4914388  85.4277891  97.0632083  51.4744286  77.5028254
  96.4906050  52.0934473  77.0498726  97.6364877  52.0243648  78.0368176
 103.1307473  40.7202926  89.6874803 104.0824896  40.8201024  89.7087027
 102.9610924  39.9281195  90.1972887 101.1521853  37.8058510  89.8734203
 100.5571785  38.0863522  89.1780692 100.8671549  38.2952411  90.6450945
 100.2829343  51.7581436  78.6336836 101.2160016  51.6926998  78.8369712
 100.1952556  52.5937703  78.1751369 102.9117360  51.0747307  75.5940784
 102.8330991  50.7407170  76.4876541 103.7327027  51.5669075  75.5932256
 105.6095551  43.9409046  88.8017102 105.5771871  43.0025047  88.9876786
 106.2196175  44.0193083  88.0682927  97.4478882  42.8105099  74.8444306
  98.3937986  42.6811307  74.9132724  97.0693127  42.0719761  75.3213734
 105.7590039  40.7320090  88.8475385 105.2429088  39.9478546  88.6605314
 106.6429988  40.4038806  89.0121905 103.4200766  34.4761105  84.8071198
 103.2225587  34.1676193  85.6914530 104.0300472  35.2022744  84.9369128
 111.4272101  45.0025053  87.9423139 112.1575489  44.7410341  88.5030842
 110.8179046  44.2653775  87.9825207 109.5087398  43.1432916  88.5397590
 108.7820561  43.0088880  87.9314082 109.0934685  43.4509744  89.3454308
  97.3317574  46.8622845  96.3044963  98.2520584  47.0401444  96.4985010
  97.2967157  45.9178891  96.1524662  95.6321799  40.7355075  74.7799191
  94.7253254  40.4388188  74.8561905  95.9097780  40.4384894  73.9133478
  86.5499739  42.0561439  85.2298238  86.2302524  41.2026747  84.9372612
  86.0033167  42.2710017  85.9856205  90.3279647  44.7723880  88.9467744
  90.5465657  45.7040988  88.9655778  90.7405421  44.4131854  89.7322548
  97.2483865  35.2791965  80.9343433  96.4384593  34.9339050  81.3098679
  97.9368282  34.9699509  81.5231044  99.1774413  34.3570012  82.5567729
  99.7305452  34.7765465  83.2157752  99.4144499  33.4305760  82.5990685
  95.2007512  40.3457086  98.3370493  95.1004239  41.2951443  98.2682584
  94.9829054  40.0175325  97.4646563  94.4020584  37.5942011  74.9211171
  95.2639748  37.9196909  75.1806988  94.5870928  36.8073507  74.4084236
  86.4187999  45.6764350  87.1991359  85.7251471  45.2618303  86.6861314
  87.1660990  45.7184887  86.6024778 102.5553220  36.4670537  82.0646394
 101.9751889  37.1255341  81.6824446 102.2889153  35.6447882  81.6533811
 101.0056786  35.8675595  84.2667714 101.5056565  35.9792129  83.4582033
 101.6492394  35.5636648  84.9068522  95.0638782  43.7754224  97.1535555
  94.5805864  44.5754585  97.3599444  95.1499721  43.7862169  96.2002999
  88.3324742  45.6082604  85.0757374  88.3095430  45.7070291  84.1239257
  88.6425378  46.4547755  85.3974540  90.9912120  47.6658759  89.1903989
  91.9455373  47.6342701  89.1233920  90.7924643  47.2049383  90.0054215
  91.5811502  46.2359875  91.7574786  92.4004391  46.7303954  91.7809624
  91.8548310  45.3191843  91.7292354 101.3378098  38.6270628  81.1202742
 100.4503953  38.9120278  80.9022937 101.7532087  38.4664391  80.2730019
 104.6892634  38.6517148  84.8357081 105.4653024  39.1413601  85.1081698
 103.9640768  39.0775203  85.2928951 107.1265193  39.3644768  85.8931022
 107.7209684  39.1240504  85.1824330 107.1991777  38.6451898  86.5204558
  89.3462349  53.2078379  86.2074187  89.2116816  52.4478780  85.6412185
  88.9294411  53.9319279  85.7402975 100.4821312  48.3915302  75.2150762
 101.1857162  48.5965305  75.8308417  99.7583960  48.9592064  75.4799845
 101.3119122  44.1425163  81.3353032 101.2554323  44.5993715  80.4960664
 101.8647464  43.3815848  81.1575875 105.1223928  39.9314895  82.1603152
 104.8660862  39.5311531  82.9911359 104.4976796  40.6458689  82.0353291
 109.4336266  42.6710969  84.6674443 108.8735824  42.7404158  85.4406005
 108.8279769  42.4951953  83.9473939 102.3908009  48.8297831  77.2649222
 103.2253613  48.3979030  77.0826697 102.2292352  48.6579845  78.1926116
 102.0453901  45.3329945  78.6305561 101.9902705  45.1674216  77.6894005
 101.4199956  46.0405978  78.7867751  86.8346416  40.5698009  92.4566983
  87.4805280  40.0596963  92.9454209  86.6263567  41.3066691  93.0310409
  99.3599808  47.6378857  97.9559124 100.2290968  47.8119509  97.5945759
  98.8806560  48.4573273  97.8334853  95.3550027  34.8338054  78.2090880
  95.3428696  35.7779894  78.3659151  96.2473448  34.6508199  77.9150341
  99.1702146  31.4280830  82.4636816  98.4034542  30.8739317  82.6093499
  99.5812851  31.5002699  83.3250968  91.1743907  37.7165626  96.5541998
  92.0375369  37.3602431  96.7645322  90.6009318  37.3779521  97.2417402
 111.0192284  59.3467483  87.3604399 111.6570694  59.2274230  86.6567739
 110.9013127  60.2948326  87.4192351 107.8281990  59.2994911  87.2965923
 107.4900502  59.1835975  86.4086458 108.6971758  58.8986076  87.2766930
 103.6868806  61.1530387  83.2862814 103.1233671  61.0620324  82.5179102
 103.5721201  60.3330291  83.7665307 108.3101773  60.4529762  93.2552129
 108.2990414  60.0582561  92.3832633 108.4722413  59.7195835  93.8485900
 109.2668365  64.8201355  78.5977279 108.6156344  65.4055435  78.2111293
 110.0612728  65.3507550  78.6572317 103.1923992  61.9090492  78.9964414
 103.9654868  61.3619479  78.8577289 103.5449391  62.7734741  79.2078875
 105.0309034  63.2366874  92.2031313 104.7398900  64.1412505  92.0877979
 105.6666019  63.2783402  92.9175382 105.5290270  58.0683158  76.6282863
 105.7815790  57.5464679  75.8666327 104.5914829  57.9049303  76.7309547
 110.5733552  57.0718936  84.4357607 111.3596642  56.6538360  84.0848024
 110.8372257  57.9765029  84.6039255 110.7443630  62.5091787  79.1346264
 110.1089463  62.5826413  79.8467168 110.4141036  63.0985385  78.4565343
 115.9741980  57.0094170  85.3390585 116.7067152  56.4393386  85.5728415
 115.2181335  56.6215770  85.7797091 105.2486558  59.9711264  78.8307238
 105.1322817  59.2956167  79.4988323 105.3588818  59.4843638  78.0139392
 107.5918099  59.4321411  82.5353928 107.2276307  58.9052032  83.2466849
 108.4485215  59.0419880  82.3620413 113.4967400  50.7215744  89.7985194
 113.1650725  51.5911155  89.5746409 112.9013013  50.4052028  90.4779224
 107.2323586  54.4611311  77.5315276 107.3997989  55.3291547  77.8985747
 107.0420755  54.6238592  76.6076565 109.9898920  62.9228290  89.1981107
 109.6899643  63.8253328  89.0896914 109.6449979  62.6560473  90.0502259
 103.4411401  59.3742086  85.2317811 102.5161897  59.2418301  85.4395503
 103.6895814  60.1536306  85.7287753 113.3896063  55.4410830  86.8778544
 112.4812941  55.3726238  86.5837305 113.3383659  55.9182775  87.7060369
 107.2112807  56.9168968  78.5161943 107.0912432  57.3626019  79.3547423
 106.5165396  57.2654286  77.9575481 104.9719699  69.6872610  82.1652074
 104.8943729  70.6380435  82.2440555 104.3681343  69.3418482  82.8227001
 107.4636929  56.8600475  94.8213441 106.6870263  57.4194396  94.8116306
 108.1027492  57.3457258  95.3428311 115.2557710  53.6427268  88.6556418
 114.6132090  53.9359801  88.0096212 114.7512638  53.5280189  89.4609614
 112.9097873  57.3890441  79.3442277 113.8215729  57.6217828  79.1689975
 112.4007520  57.9727486  78.7817356 105.7183301  59.6685929  94.3831408
 106.4597986  60.2070973  94.1066232 105.0120287  60.2952218  94.5402960
 111.1938641  61.8115069  92.9803570 111.6021997  61.3697480  92.2358202
 110.4715903  61.2367697  93.2337763 107.5469711  56.7487676  90.3537127
 108.3930906  57.1727090  90.4971776 107.4868349  56.0921300  91.0475690
 111.5167456  62.3716260  86.7355859 110.8876318  62.5361974  86.0331926
 111.1293118  62.7857869  87.5066823 115.3956688  63.3070698  84.0900222
 114.7107726  63.6869599  83.5397256 115.4800537  63.9166024  84.8232170
 110.6969156  54.4092044  92.0118300 110.4530088  55.1634105  91.4752576
 110.9729087  54.7877392  92.8465547 112.6507619  60.9530657  90.6895566
 112.8624514  61.5962417  90.0129947 112.6037367  60.1192973  90.2217496
 110.2533848  53.5648477  87.5932138 109.3918327  53.8629731  87.8848876
 110.2796283  53.7818876  86.6613171 107.0695418  62.1090668  84.0005944
 107.5333763  62.3878371  83.2110566 106.8052216  61.2074113  83.8179034
 106.0064304  58.2313820  80.8095509 106.7088347  58.6834864  81.2769435
 105.6744932  57.5897639  81.4375402 104.4544665  56.8225577  95.1846718
 103.8243326  57.5041858  95.4182115 104.3480753  56.7108659  94.2399856
 113.7653447  63.8302612  88.8617923 114.5870891  63.4282799  88.5800605
 113.7615850  63.7270846  89.8134039 101.7004383  56.8541952  83.0696119
 100.9035546  56.9660646  83.5879615 101.4729975  57.1928604  82.2037010
 107.5310051  63.3786655  91.0178634 107.5954483  63.8407063  91.8536806
 106.8220974  62.7484020  91.1460944 107.2458068  65.0454763  80.8857614
 107.1103743  65.8906299  81.3142462 107.7867881  65.2474041  80.1223548
 103.7325408  51.1246343  97.5471969 103.3392353  50.5712541  98.2219613
 104.5491548  51.4356921  97.9378487 102.5082350  65.6795957  83.5408292
 102.6848979  66.6013922  83.3529276 103.3039184  65.3654376  83.9702672
 106.6493369  52.5404222  95.1392226 107.3903082  53.1411375  95.0596688
 106.8811292  51.7981860  94.5810268 108.8726545  65.6678329  95.0157956
 108.4290399  64.8814708  94.6978861 109.5343758  65.8557480  94.3501847
 110.9707783  65.9481129  93.0439357 110.9526258  66.7690010  92.5519627
 111.8927703  65.8235205  93.2689499 107.4280837  63.4625259  93.8862866
 107.9609174  62.7013547  93.6562174 106.8994918  63.1698911  94.6287020
 110.5950532  48.5685325  89.4156507 110.2514801  49.4586967  89.3395618
 110.9629494  48.3786982  88.5526092 110.5600815  58.5593936  77.9228943
 110.0447438  59.3298541  78.1617330 110.2878123  57.8859072  78.5462004
 108.1447926  53.4043637  82.9814181 107.2889522  53.0150487  82.8019820
 108.5574877  53.4835598  82.1213966 109.6747072  50.9389980  87.3805741
 109.1711868  50.9020115  86.5673546 109.9677679  51.8482723  87.4402397
 105.9189958  51.0228710  86.3871922 106.7842955  50.8271518  86.0277812
 105.9867467  50.7939061  87.3141279 115.5335089  61.3126291  79.8582116
 114.7564531  60.9737450  79.4137278 116.2126570  61.3178914  79.1837081
 110.3487118  56.4321028  79.7488724 110.0437253  56.7467177  80.5998867
 111.3017560  56.5102448  79.7916057 108.7933550  62.5911251  81.3981678
 108.2654911  61.8564011  81.0854915 108.2921052  63.3685928  81.1521646
 113.7726396  60.7860272  86.5148724 113.1150070  61.4759533  86.6028853
 114.5766795  61.1756704  86.8582710 103.5252277  53.2530918  83.7588289
 104.0996029  53.0306099  83.0261482 104.1123260  53.3219612  84.5116891
 112.5831854  59.1404645  84.5652666 113.0963736  59.7734636  85.0674376
 113.2333078  58.5405840  84.1996026 103.8521864  55.2835379  77.7784175
 103.0159177  55.6210065  78.0993449 103.7126634  55.1484358  76.8411311
 105.8274945  50.1272167  82.4863359 105.1739357  49.8121184  81.8619973
 105.7855419  49.5047907  83.2123182 106.9386150  60.4091462  74.4016651
 106.0313211  60.1780715  74.6007800 107.4357182  59.6129081  74.5890632
 109.8454229  69.1188969  77.3213337 109.1715927  69.4220666  77.9298295
 110.2320051  69.9218049  76.9718794 109.0612685  56.6154100  86.8111006
 108.1435247  56.8369047  86.6532694 109.4772829  56.6900411  85.9522714
 109.8447733  58.0145516  81.9413687 110.5919552  58.5266913  81.6320809
 110.1139323  57.6929568  82.8018080 108.1174383  60.5104056  78.9240641
 107.2085602  60.2263089  79.0213111 108.1469467  60.9303135  78.0643948
 113.3493651  64.1210646  82.6931808 112.8955978  63.2801556  82.7496999
 112.7187617  64.7572044  83.0306589 112.2926570  55.0502632  83.9232476
 111.5549327  54.5380018  84.2542718 112.5453344  54.6103014  83.1115753
 111.7926590  65.9587143  83.6281627 112.0849564  66.5192200  82.9093992
 112.3025210  66.2515704  84.3834786 112.3938197  47.8278884  84.5174245
 112.6997074  46.9676247  84.2300160 113.1190802  48.4196504  84.3173239
  98.6862554  58.2309571  82.9055843  98.4886953  57.6378931  82.1806910
  98.1309218  57.9261781  83.6231782 106.6659277  58.1232677  85.0250436
 106.7207887  57.1706513  84.9492913 105.8550479  58.2792116  85.5091735
 107.8150471  62.0512800  76.2628719 107.3769901  61.3348659  75.8034357
 108.5560912  62.2788915  75.7013811 104.6051637  56.7409737  82.7840815
 103.7919503  57.0403907  83.1906007 105.1010631  56.3465426  83.5015297
 106.7560215  66.7367494  84.7175080 106.7136394  66.9628340  83.7883612
 107.6722914  66.5030868  84.8660881 110.2025849  57.2051561  91.6155709
 110.5575237  57.4323034  92.4750175 110.8497980  57.5369938  90.9932964
 115.9323586  60.3269997  82.3205038 115.7941484  60.5171593  81.3926227
 115.5759805  61.0889380  82.7773089 104.0965712  54.3128092  88.4002050
 104.7365091  54.1716851  87.7025013 103.2643242  54.0262606  88.0240652
 115.9592965  62.3946524  87.3316310 116.3929472  62.3021813  88.1799364
 116.6724546  62.3704025  86.6936326 109.6920860  65.9948618  88.8649410
 109.7457883  66.5639555  89.6327126 108.8235642  66.1650503  88.5003447
 101.1808779  57.7573605  80.5896795 100.2506367  57.6958060  80.8066757
 101.2766251  57.2349557  79.7933436 101.0994328  54.2828417  83.1775037
 101.3601146  55.1973751  83.0684197 101.9211501  53.8152860  83.3271650
 116.8208515  62.4370225  89.8649195 117.0144405  63.3416035  90.1108470
 116.7209133  61.9777644  90.6987780 108.4744826  52.3228115  92.3639522
 107.8272741  53.0218065  92.2703999 109.2445841  52.7564259  92.7315770
 111.8823624  62.5876968  95.4390076 111.7309130  62.3587519  94.5220159
 111.8728303  63.5447569  95.4521421 108.6508960  60.1608880  90.4236342
 109.5801020  60.3120040  90.2505309 108.2299990  60.2492901  89.5684988
 108.0445444  69.2868641  79.5360416 108.2197199  68.8156684  80.3506039
 107.3578232  69.9134407  79.7641677 109.0002507  63.5641147  85.5823717
 108.6652340  63.5241917  86.4781367 108.5006453  62.8985863  85.1094128
 111.9361699  60.9097182  75.8560777 111.3190869  60.1844010  75.7593830
 111.4678187  61.6706542  75.5127851 113.5915830  65.6196090  93.5166557
 113.5328376  64.9355310  92.8497140 113.9935349  66.3615080  93.0647183
 102.6106529  72.4358004  86.3100276 102.8503127  73.0676528  86.9879295
 101.7675725  72.0846044  86.5965636 103.7260244  55.1282606  74.9782081
 102.8489711  55.0071407  74.6144328 104.2017998  54.3368684  74.7260970
 113.5933237  63.5835674  91.7480537 112.7060016  63.2461596  91.8706936
 114.1631789  62.8518705  91.9849302 107.1234391  68.2437126  88.7141780
 107.0504562  69.0492098  89.2261085 106.6811784  68.4429092  87.8889802
 106.9124171  67.4808896  82.2244602 106.1291692  68.0230577  82.3182826
 107.6116916  67.9982876  82.6238843 110.2220821  53.2903526  84.8678807
 110.7189520  52.5373488  84.5479877 109.4507802  53.3267843  84.3022017
 118.0750578  58.9943891  86.5097099 118.0640454  59.8768607  86.1391032
 117.2067957  58.6415442  86.3151636 109.5833074  68.1423960  90.8699939
 110.2961047  68.7771425  90.7975840 109.0923103  68.2387826  90.0539941
 111.3050601  62.0475213  82.4417231 110.3706880  62.1676676  82.2721935
 111.4827270  61.1447680  82.1777240 106.8055789  55.4320909  84.5950492
 106.4353577  54.8791949  85.2831397 107.3014882  54.8279042  84.0425492
 114.6923153  57.8892532  82.9767265 115.1583605  58.7220524  82.9027567
 115.1430653  57.4237514  83.6812523 112.7599384  64.2336354  79.9753417
 113.0359228  64.1192948  80.8847291 111.8903883  63.8353839  79.9365590
 112.6639815  50.2573119  87.0158166 111.7502895  50.4877346  87.1840373
 113.0932917  50.3411563  87.8672198 112.4346274  58.4463011  89.5158060
 111.7817724  58.6938919  88.8610513 112.8126654  57.6327150  89.1820537
 109.3953448  68.4822705  83.6186230 109.5775842  67.6644360  84.0813983
 110.2186434  68.6990397  83.1811120 109.7295613  67.4090890  80.8801279
 110.2583380  66.8983344  80.2671441 109.9923833  67.0933420  81.7446812
 108.4833847  59.1882822  96.0024097 107.8074484  59.0876952  96.6726472
 109.3061481  59.0322036  96.4660094 103.0851361  68.4606006  83.6399055
 102.4161736  68.9452134  83.1563095 102.9464231  68.7075227  84.5542433
 107.2256630  70.4949750  90.2381713 107.7774938  70.6581371  91.0030798
 107.5662823  71.0854188  89.5661738 102.2021123  52.8424900  90.8403598
 102.2662450  53.7039731  90.4280996 102.1388243  52.2298901  90.1075956
 101.6773396  54.9148032  94.4876632 102.3045434  54.5325110  95.1014156
 100.8201314  54.6962234  94.8532325 112.0767504  65.3211007  96.0930368
 112.6207408  65.9340966  95.5985322 111.4954349  65.8790586  96.6097381
  98.4538938  56.7224461  80.4194987  98.7492379  55.8135140  80.3662041
  97.5526974  56.7012201  80.0975989 110.3625017  68.4431725  87.2245395
 110.2376157  67.6421465  86.7156341 111.0204108  68.9377919  86.7359365
 101.9833185  54.7980458  86.4022536 101.2619771  55.4116426  86.2630009
 102.7726441  55.3338223  86.3239182 112.4259925  66.2440746  88.8524945
 111.4790261  66.1246097  88.7803272 112.7742699  65.3563244  88.9351207
 104.7859499  52.1334884  92.6763187 105.3093901  52.3797181  93.4389497
 104.5671832  52.9654919  92.2566325 100.1826780  54.4038559  80.5434312
  99.8539486  53.5235938  80.3609418 100.5366151  54.3486228  81.4310701
 109.4306359  66.0393462  85.0529298 109.2831321  65.1110169  85.2336868
 110.2559852  66.0613552  84.5686373 103.2968603  54.6911529  80.9109790
 103.6364676  55.2197450  80.1888398 103.7440724  55.0291935  81.6868356
 113.0340481  66.8622020  86.1394170 113.9587028  66.6564882  86.0018622
 112.8655784  66.6138422  87.0483512 105.9912044  53.0748580  90.3612858
 105.6508864  52.2756393  90.7633538 105.2851050  53.3750290  89.7889691
 106.6428516  50.1597892  88.8140181 107.4654585  49.6858370  88.6919071
 106.8866579  50.9388376  89.3138867 105.2836750  53.1886150  79.1103083
 106.0045113  53.5667403  78.6066799 104.6602054  53.9075027  79.2138061
 109.4267873  53.8931299  80.0461415 109.6431487  54.7755937  79.7450243
 108.9461940  53.5017513  79.3167057 106.0263477  53.8419561  86.6713049
 106.0125046  52.9460654  86.3345347 106.7435905  53.8490224  87.3051335
 107.8789608  54.2756901  88.7166176 107.6207386  55.1973971  88.7150507
 107.3474648  53.8787335  89.4066641 112.8235797  67.3807688  81.4956262
 112.9972674  66.8154110  80.7430114 113.3164688  68.1808583  81.3135752
 105.4300373  52.7233941  81.9400619 105.5516284  51.7950587  82.1391507
 105.1402416  52.7372627  81.0278935 108.2991564  50.4088851  85.0767339
 108.3213260  50.4728184  84.1219319 108.7159623  49.5693360  85.2707845
 113.8110969  66.6974452  78.5953160 114.5061874  67.3181145  78.8140475
 114.1534119  65.8469804  78.8705538 115.7102392  64.1474158  80.1240491
 116.2353717  64.4861431  79.3989811 115.6224745  63.2121173  79.9403626
 107.3722441  68.0608231  92.2530368 107.6809568  67.8157378  93.1253067
 108.1697923  68.2654870  91.7649238 107.3943053  70.2146141  84.4835744
 106.9548043  69.7222520  85.1768601 108.1451170  69.6719109  84.2427819
 104.9141453  54.2365938  96.1490552 104.9629608  55.1128061  95.7668321
 105.4563967  53.6943331  95.5762195 115.3996298  64.7807061  95.4291689
 114.6091842  64.7631200  94.8896188 115.1629653  65.3195355  96.1840725
 115.5194174  61.6299528  92.7424417 115.5692178  61.4649535  93.6839940
 115.4108097  60.7626787  92.3522298 104.4030432  64.3088074  80.0316506
 104.5518553  64.9923538  79.3783179 105.2096876  64.2893164  80.5465962
 112.8097936  57.6130456  94.0583724 113.7107799  57.4736921  93.7667722
 112.8845910  57.7784911  94.9981902 107.1440741  54.9897311  92.9036910
 106.2744051  55.2830877  92.6319499 107.3800222  55.5737756  93.6244174
 117.0212370  64.0496469  92.9866439 116.7297179  64.4126450  93.8229900
 116.4084502  63.3363478  92.8079771 115.2699559  59.1729084  91.4546497
 115.7453680  59.3656730  90.6465348 114.3465124  59.2288270  91.2089881
 102.1583065  60.3353251  81.0377575 101.9129107  59.4315581  81.2357785
 102.3278980  60.3370402  80.0957053 109.8479775  51.2076928  90.4202331
 110.3661719  51.9437954  90.0948819 109.4934908  51.5140921  91.2549090
 101.4278713  56.0681609  78.5363737 100.7347958  56.1425964  77.8803773
 101.1830465  55.3041952  79.0585254 110.0992369  47.6277210  85.9403227
 110.3794123  46.9600399  86.5663654 110.8842976  47.8206306  85.4277891
 107.9025838  66.8036204  77.5028254 107.3299805  67.4226391  77.0498726
 108.4758631  67.3535566  78.0368176 113.9701228  56.0494844  89.6874803
 114.9218651  56.1492942  89.7087027 113.8004678  55.2573113  90.1972887
 111.9915607  53.1350427  89.8734203 111.3965539  53.4155440  89.1780692
 111.7065304  53.6244328  90.6450945 111.1223098  67.0873354  78.6336836
 112.0553771  67.0218916  78.8369712 111.0346310  67.9229621  78.1751369
 113.7511114  66.4039224  75.5940784 113.6724746  66.0699088  76.4876541
 114.5720781  66.8960992  75.5932256 116.4489305  59.2700964  88.8017102
 116.4165626  58.3316964  88.9876786 117.0589929  59.3485000  88.0682927
 108.2872636  58.1397017  74.8444306 109.2331741  58.0103225  74.9132724
 107.9086881  57.4011679  75.3213734 116.5983794  56.0612007  88.8475385
 116.0822843  55.2770464  88.6605314 117.4823742  55.7330724  89.0121905
 114.2594521  49.8053023  84.8071198 114.0619342  49.4968111  85.6914530
 114.8694226  50.5314662  84.9369128 108.1711329  62.1914763  96.3044963
 109.0914338  62.3693362  96.4985010 108.1360912  61.2470808  96.1524662
 106.4715553  56.0646993  74.7799191 105.5647009  55.7680106  74.8561905
 106.7491534  55.7676811  73.9133478 108.0877619  50.6083883  80.9343433
 107.2778347  50.2630968  81.3098679 108.7762036  50.2991427  81.5231044
 110.0168167  49.6861930  82.5567729 110.5699206  50.1057383  83.2157752
 110.2538254  48.7597678  82.5990685 106.0401267  55.6749003  98.3370493
 105.9397994  56.6243360  98.2682584 105.8222809  55.3467242  97.4646563
 105.2414338  52.9233928  74.9211171 106.1033502  53.2488827  75.1806988
 105.4264682  52.1365424  74.4084236 113.3946975  51.7962455  82.0646394
 112.8145644  52.4547259  81.6824446 113.1282907  50.9739799  81.6533811
 111.8450541  51.1967513  84.2667714 112.3450319  51.3084047  83.4582033
 112.4886149  50.8928565  84.9068522 105.9032537  59.1046142  97.1535555
 105.4199618  59.9046502  97.3599444 105.9893476  59.1154087  96.2002999
 112.1771853  53.9562545  81.1202742 111.2897708  54.2412196  80.9022937
 112.5925842  53.7956309  80.2730019 115.5286389  53.9809066  84.8357081
 116.3046779  54.4705519  85.1081698 114.8034523  54.4067120  85.2928951
 100.1856103  68.5370296  86.2074187 100.0510571  67.7770697  85.6412185
  99.7688165  69.2611196  85.7402975 111.3215066  63.7207220  75.2150762
 112.0250916  63.9257222  75.8308417 110.5977715  64.2883982  75.4799845
 112.1512876  59.4717081  81.3353032 112.0948078  59.9285633  80.4960664
 112.7041219  58.7107766  81.1575875 115.9617682  55.2606813  82.1603152
 115.7054616  54.8603449  82.9911359 115.3370550  55.9750607  82.0353291
 103.3425229  69.4339613  86.4192629 103.2257613  70.3785046  86.3171320
 102.5217675  69.1313175  86.8078428 113.2301763  64.1589749  77.2649222
 114.0647367  63.7270948  77.0826697 113.0686106  63.9871763  78.1926116
 112.8847656  60.6621862  78.6305561 112.8296459  60.4966134  77.6894005
 112.2593711  61.3697895  78.7867751 110.1993563  62.9670774  97.9559124
 111.0684722  63.1411427  97.5945759 109.7200314  63.7865191  97.8334853
 106.1943781  50.1629971  78.2090880 106.1822451  51.1071811  78.3659151
 107.0867203  49.9800117  77.9150341 104.3679743  70.0867875  89.6348558
 105.2706990  70.1191486  89.9515053 104.1417113  69.1568326  89.6494893
 106.1233345  68.8398862  86.2958636 105.1728976  68.8400723  86.1823009
 106.4265831  68.0931596  85.7794671 110.0095901  46.7572748  82.4636816
 109.2428296  46.2031235  82.6093499 110.4206605  46.8294617  83.3250968
 102.0137662  53.0457544  96.5541998 102.8769123  52.6894349  96.7645322
 101.4403072  52.7071439  97.2417402 114.5262560  76.4822305  83.2862814
 113.9627426  76.3912242  82.5179102 114.4114956  75.6622209  83.7665307
 112.0726992  77.9773496  86.1247035 112.8648284  77.6364321  85.7093334
 112.3123643  78.0868471  87.0449188 114.0317746  77.2382410  78.9964414
 114.8048622  76.6911397  78.8577289 114.3843145  78.1026659  79.2078875
 115.8702789  78.5658792  92.2031313 115.5792655  79.4704423  92.0877979
 116.5059773  78.6075319  92.9175382 116.7958996  75.9435640  88.7932673
 117.3922568  75.7191663  88.0789635 116.8533967  75.2020386  89.3958120
 116.3684024  73.3975076  76.6282863 116.6209545  72.8756597  75.8666327
 115.4308583  73.2341221  76.7309547 116.0880313  75.3003182  78.8307238
 115.9716571  74.6248085  79.4988323 116.1982573  74.8135556  78.0139392
 118.0717341  69.7903228  77.5315276 118.2391743  70.6583465  77.8985747
 117.8814510  69.9530510  76.6076565 114.2805155  74.7034004  85.2317811
 113.3555652  74.5710218  85.4395503 114.5289569  75.4828223  85.7287753
 118.0506562  72.2460886  78.5161943 117.9306187  72.6917937  79.3547423
 117.3559150  72.5946204  77.9575481 111.6413967  74.3467278  86.0661600
 111.7706348  74.6001757  86.9801012 110.9611418  74.9394986  85.7466255
 115.8113454  85.0164528  82.1652074 115.7337483  85.9672353  82.2440555
 115.2075097  84.6710400  82.8227001 116.5577056  74.9977846  94.3831408
 117.2991740  75.5362890  94.1066232 115.8514041  75.6244135  94.5402960
 114.8013253  76.9854067  86.9385707 115.3714610  77.4141336  86.3003191
 115.3921365  76.7036652  87.6369893 116.8458058  73.5605738  80.8095509
 117.5482101  74.0126782  81.2769435 116.5138687  72.9189557  81.4375402
 115.2938420  72.1517495  95.1846718 114.6637080  72.8333775  95.4182115
 115.1874508  72.0400576  94.2399856 110.5883392  71.8189291  86.1112642
 109.7982446  72.0746819  85.6352753 111.0794639  72.6337629  86.2164683
 112.5398137  72.1833870  83.0696119 111.7429301  72.2952564  83.5879615
 112.3123730  72.5220522  82.2037010 108.8721095  72.0719781  88.5427633
 109.1229133  72.9566791  88.8085209 109.4080643  71.8924383  87.7702725
 114.5719162  66.4538260  97.5471969 114.1786108  65.9004459  98.2219613
 115.3885303  66.7648839  97.9378487 111.5381220  77.8922119  81.4585539
 112.0505741  78.6865369  81.6091104 112.1903933  77.1948409  81.3919141
 113.3476105  81.0087875  83.5408292 113.5242733  81.9305840  83.3529276
 114.1432938  80.6946294  83.9702672 117.4887123  67.8696140  95.1392226
 118.2296837  68.4703293  95.0596688 117.7205046  67.1273777  94.5810268
 112.6328461  73.0552507  93.4170455 112.5181976  72.1537764  93.7177554
 111.7772979  73.3016204  93.0655272 114.4707420  82.5266049  89.5418635
 115.0214845  82.3983112  88.7695629 113.6318896  82.8260938  89.1913527
 109.5030137  76.2210773  82.2345110 110.3405359  76.6307781  82.0178817
 109.6808405  75.2810215  82.2045304 116.7583713  66.3520627  86.3871922
 117.6236709  66.1563436  86.0277812 116.8261221  66.1230979  87.3141279
 114.3646032  68.5822835  83.7588289 114.9389784  68.3598017  83.0261482
 114.9517014  68.6511530  84.5116891 114.6915619  70.6127296  77.7784175
 113.8552931  70.9501983  78.0993449 114.5520388  70.4776276  76.8411311
 116.6668699  65.4564084  82.4863359 116.0133112  65.1413101  81.8619973
 116.6249173  64.8339825  83.2123182 109.5256308  73.5601488  82.9055843
 109.3280708  72.9670849  82.1806910 108.9702972  73.2553698  83.6231782
 117.5053032  73.4524595  85.0250436 117.5601641  72.4998431  84.9492913
 116.6944234  73.6084034  85.5091735 115.4445392  72.0701655  82.7840815
 114.6313257  72.3695825  83.1906007 115.9404386  71.6757343  83.5015297
 114.9359466  69.6420010  88.4002050 115.5758846  69.5008769  87.7025013
 114.1036997  69.3554523  88.0240652 115.7119770  78.9422440  84.5137042
 116.5060369  78.4472761  84.3119617 115.0011463  78.4140304  84.1504748
 112.0202534  73.0865522  80.5896795 111.0900122  73.0249978  80.8066757
 112.1160006  72.5641475  79.7933436 111.9388083  69.6120335  83.1775037
 112.1994900  70.5265668  83.0684197 112.7605255  69.1444778  83.3271650
 113.4113008  71.0258092  90.3473861 114.0836062  70.8175454  89.6986510
 112.5842795  70.8280178  89.9079094 113.8140505  74.3000695  91.1076299
 113.6760303  73.5680934  91.7087838 114.7245429  74.2109595  90.8260486
 116.4422806  74.0120654  90.5959978 117.1522425  73.3713847  90.5546597
 116.3992114  74.2633549  91.5186159 115.1551740  70.9985872  92.4155618
 114.6189097  70.5476611  93.0677214 114.5668448  71.1331781  91.6726082
 113.4500284  87.7649922  86.3100276 113.6896882  88.3968446  86.9879295
 112.6069480  87.4137962  86.5965636 114.5653999  70.4574524  74.9782081
 113.6883465  70.3363325  74.6144328 115.0411752  69.6660602  74.7260970
 106.0856139  75.2451684  85.0723588 106.7727179  74.9313414  84.4844604
 105.9304268  76.1493048  84.7990840 110.8890861  70.1341880  89.5008612
 110.8049050  69.5267550  88.7659022 110.0673568  70.6250898  89.5018108
 117.9628145  83.5729044  88.7141780 117.8898317  84.3784016  89.2261085
 117.5205538  83.7721010  87.8889802 117.6449544  70.7612827  84.5950492
 117.2747331  70.2083867  85.2831397 118.1408636  70.1570960  84.0425492
 115.4738742  81.2210322  91.6905510 116.1748202  81.8546805  91.8434904
 115.0033857  81.5625053  90.9301149 111.0706460  80.7546677  88.6236612
 111.6559897  80.0090365  88.7564517 110.8731299  81.0650633  89.5073276
 113.9245116  83.7897924  83.6399055 113.2555491  84.2744052  83.1563095
 113.7857985  84.0367144  84.5542433 105.6624115  73.3252277  87.3441056
 105.7008215  72.7915868  88.1378174 105.1564408  72.7987482  86.7252033
 113.0414878  68.1716817  90.8403598 113.1056204  69.0331648  90.4280996
 112.9781998  67.5590819  90.1075956 112.5167150  70.2439950  94.4876632
 113.1439189  69.8617027  95.1014156 111.6595069  70.0254152  94.8532325
 109.2932693  72.0516379  80.4194987 109.5886134  71.1427057  80.3662041
 108.3920729  72.0304118  80.0975989 112.8226940  70.1272376  86.4022536
 112.1013526  70.7408343  86.2630009 113.6120196  70.6630140  86.3239182
 115.6253253  67.4626802  92.6763187 116.1487655  67.7089099  93.4389497
 115.4065587  68.2946837  92.2566325 111.0220534  69.7330477  80.5434312
 110.6933241  68.8527856  80.3609418 111.3759905  69.6778145  81.4310701
 114.1362358  70.0203446  80.9109790 114.4758430  70.5489368  80.1888398
 114.5834478  70.3583853  81.6868356 116.8305798  68.4040497  90.3612858
 116.4902619  67.6048310  90.7633538 116.1244805  68.7042208  89.7889691
 116.1230505  68.5178068  79.1103083 116.8438867  68.8959321  78.6066799
 115.4995809  69.2366945  79.2138061 115.0060849  72.1808930  86.6232159
 114.8605430  72.4949233  87.5156441 114.5286053  72.7993831  86.0703058
 116.8657232  69.1711478  86.6713049 116.8518801  68.2752572  86.3345347
 117.5829660  69.1782142  87.3051335 109.4806511  74.7214275  89.5619821
 108.9359979  75.4974083  89.6940095 110.3585861  75.0685079  89.4038942
 116.2694128  68.0525859  81.9400619 116.3910039  67.1242505  82.1391507
 115.9796170  68.0664544  81.0278935 110.2672533  73.8484171  92.4549978
 109.5254269  73.9966806  93.0414608 109.9465277  74.1092437  91.5916727
 110.7129147  81.7349600  84.4860372 111.5387167  81.4353372  84.1059016
 110.3623199  80.9657222  84.9350161 115.6810680  81.0876068  86.5558046
 115.0590689  80.4246773  86.2560274 116.3515547  81.1137200  85.8731694
 108.9137752  79.6535926  85.4449306 108.0769660  79.2258100  85.2633307
 108.8861397  79.8468369  86.3820097 115.7535207  69.5657856  96.1490552
 115.8023363  70.4419979  95.7668321 116.2957722  69.0235249  95.5762195
 115.2424187  79.6379991  80.0316506 115.3912307  80.3215456  79.3783179
 116.0490630  79.6185081  80.5465962 117.9834496  70.3189228  92.9036910
 117.1137805  70.6122794  92.6319499 118.2193976  70.9029673  93.6244174
 112.9976820  75.6645169  81.0377575 112.7522862  74.7607499  81.2357785
 113.1672734  75.6662319  80.0957053 112.2672467  71.3973526  78.5363737
 111.5741712  71.4717881  77.8803773 112.0224219  70.6333870  79.0585254
 117.3109308  71.3938911  74.7799191 116.4040763  71.0972024  74.8561905
 117.5885289  71.0968729  73.9133478 108.2287248  72.7145274  85.2298238
 107.9090033  71.8610582  84.9372612 107.6820676  72.9293852  85.9856205
 112.0067156  75.4307715  88.9467744 112.2253166  76.3624823  88.9655778
 112.4192930  75.0715690  89.7322548 116.8795021  71.0040921  98.3370493
 116.7791748  71.9535278  98.2682584 116.6616563  70.6759160  97.4646563
 116.0808093  68.2525846  74.9211171 116.9427257  68.5780744  75.1806988
 116.2658437  67.4657342  74.4084236 108.0975508  76.3348186  87.1991359
 107.4038980  75.9202138  86.6861314 108.8448499  76.3768722  86.6024778
 116.7426291  74.4338060  97.1535555 116.2593373  75.2338420  97.3599444
 116.8287230  74.4446005  96.2002999 110.0112251  76.2666439  85.0757374
 109.9882939  76.3654127  84.1239257 110.3212887  77.1131590  85.3974540
 112.6699629  78.3242595  89.1903989 113.6242882  78.2926537  89.1233920
 112.4712152  77.8633218  90.0054215 113.2599011  76.8943711  91.7574786
 114.0791900  77.3887789  91.7809624 113.5335819  75.9775679  91.7292354
 111.0249857  83.8662214  86.2074187 110.8904325  83.1062615  85.6412185
 110.6081920  84.5903114  85.7402975 114.1818983  84.7631531  86.4192629
 114.0651368  85.7076964  86.3171320 113.3611430  84.4605093  86.8078428
 108.5133925  71.2281844  92.4566983 109.1592789  70.7180798  92.9454209
 108.3051076  71.9650526  93.0310409 117.0337536  65.4921889  78.2090880
 117.0216205  66.4363729  78.3659151 117.9260957  65.3092034  77.9150341
 115.2073497  85.4159793  89.6348558 116.1100744  85.4483403  89.9515053
 114.9810868  84.4860244  89.6494893 116.9627100  84.1690779  86.2958636
 116.0122731  84.1692641  86.1823009 117.2659586  83.4223514  85.7794671
 112.8531416  68.3749461  96.5541998 113.7162878  68.0186266  96.7645322
 112.2796827  68.0363356  97.2417402 116.9249894  90.5743601  85.0723588
 117.6120933  90.2605331  84.4844604 116.7698022  91.4784966  84.7990840
 116.5017870  88.6544195  87.3441056 116.5401969  88.1207785  88.1378174
 115.9958163  88.1279400  86.7252033  70.0925267   3.4544374  73.0345583
  70.3321865   4.0862898  73.7124601  69.2494463   3.1032414  73.3210942
  82.0081298   7.5008674  70.0108121  81.4446163   7.4098611  69.2424409
  81.8933693   6.6808579  70.4910613  79.5545730   8.9959866  72.8492341
  80.3467022   8.6550691  72.4338641  79.7942380   9.1054841  73.7694495
  87.5880857  11.1679642  65.3222586  86.9368837  11.7533722  64.9356600
  88.3825220  11.6985837  65.3817623  81.5136484   8.2568779  65.7209720
  82.2867360   7.7097766  65.5822596  81.8661883   9.1213028  65.9324182
  83.3521527   9.5845161  78.9276620  83.0611393  10.4890792  78.8123286
  83.9878511   9.6261689  79.6420689  84.2777734   6.9622010  75.5177979
  84.8741306   6.7378032  74.8034942  84.3352705   6.2206755  76.1203427
  89.0656122   8.8570074  65.8591570  88.4301955   8.9304700  66.5712475
  88.7353529   9.4463673  65.1810649  83.5699051   6.3189551  65.5552545
  83.4535309   5.6434455  66.2233629  83.6801311   5.8321925  64.7384698
  88.3111412   9.2706577  75.9226413  88.0112135  10.1731616  75.8142220
  87.9662471   9.0038760  76.7747566  81.7623893   5.7220374  71.9563118
  80.8374390   5.5896588  72.1640809  82.0108306   6.5014593  72.4533060
  79.1232704   5.3653647  72.7906907  79.2525085   5.6188126  73.7046318
  78.4430156   5.9581355  72.4711562  83.2932192  16.0350897  68.8897381
  83.2156221  16.9858722  68.9685861  82.6893835  15.6896770  69.5472307
  84.0395794   6.0164216  81.1076715  84.7810478   6.5549260  80.8311538
  83.3332779   6.6430505  81.2648267  89.8379948   8.7194547  73.4601165
  89.2088810   8.8840261  72.7577233  89.4505610   9.1336157  74.2312129
  93.7169180   9.6548985  70.8145529  93.0320218  10.0347886  70.2642562
  93.8013029  10.2644312  71.5477477  85.3907910   8.4568955  70.7251250
  85.8546255   8.7356658  69.9355873  85.1264708   7.5552400  70.5424341
  82.2831991   8.0040437  73.6631014  82.8533348   8.4327705  73.0248498
  82.8740103   7.7223021  74.3615199  92.0865939  10.1780899  75.5863230
  92.9083383   9.7761087  75.3045911  92.0828342  10.0749134  76.5379346
  85.8522543   9.7264943  77.7423940  85.9166975  10.1885350  78.5782112
  85.1433467   9.0962308  77.8706250  85.5670560  11.3933050  67.6102921
  85.4316235  12.2384586  68.0387768  86.1080373  11.5952328  66.8468854
  79.0199958   8.9108488  68.1830846  79.5324478   9.7051738  68.3336410
  79.6722671   8.2134779  68.1164447  80.8294843  12.0274245  70.2653599
  81.0061471  12.9492209  70.0774583  81.6251676  11.7132664  70.6947979
  87.1939037  12.0156617  81.7403263  86.7502891  11.2292995  81.4224167
  87.8556250  12.2035767  81.0747154  81.9526158  13.5452418  76.2663941
  82.5033583  13.4169482  75.4940935  81.1137634  13.8447307  75.9158834
  89.2920275  12.2959417  79.7684664  89.2738750  13.1168298  79.2764933
  90.2140195  12.1713492  79.9934805  85.7493329   9.8103546  80.6108172
  86.2821666   9.0491834  80.3807480  85.2207410   9.5177198  81.3532327
  76.9848875   7.2397143  68.9590416  77.8224097   7.6494151  68.7424124
  77.1627142   6.2996585  68.9290610  87.1146042   8.9389539  68.1226984
  86.5867403   8.2042298  67.8100222  86.6133545   9.7164215  67.8766953
  88.1666721  15.4667256  64.0458644  87.4928420  15.7698953  64.6543601
  88.5532543  16.2696336  63.6964101  86.4386875   6.8582344  65.6485948
  85.5298095   6.5741377  65.7458417  86.4681959   7.2781422  64.7889254
  91.6706143  10.4688933  69.4177115  91.2168470   9.6279843  69.4742306
  91.0400110  11.1050332  69.7551895  90.1139082  12.3065430  70.3526933
  90.4062056  12.8670487  69.6339299  90.6237703  12.5993991  71.1080092
  77.0075046   4.5787858  69.6301150  76.8099446   3.9857219  68.9052216
  76.4521710   4.2740068  70.3477088  86.1362963   8.3991087  62.9874026
  85.6982393   7.6826946  62.5279663  86.8773404   8.6267202  62.4259117
  85.0772707  13.0845781  71.4420386  85.0348886  13.3106627  70.5128918
  85.9935406  12.8509156  71.5906188  83.1938508   9.9608810  71.2382349
  83.9879107   9.4659130  71.0364924  82.4830200   9.4326673  70.8750055
  88.0133353  12.3426906  75.5894717  88.0670375  12.9117842  76.3572433
  87.1448134  12.5128791  75.2248754  90.2036116   8.9355255  82.1635382
  90.0521622   8.7065807  81.2465466  90.1940795   9.8925856  82.1766727
  85.7709784  10.5337832  74.9180186  85.6320870  10.1656616  75.7906124
  84.9824380  11.0485471  74.7464144  86.3657936  15.6346928  66.2605723
  86.5409692  15.1634972  67.0751345  85.6790724  16.2612695  66.4886983
  87.3214999   9.9119435  72.3069024  86.9864832   9.8720205  73.2026674
  86.8218945   9.2464151  71.8339434  91.9128322  11.9674377  80.2411864
  91.8540869  11.2833598  79.5742447  92.3147841  12.7093367  79.7892490
  80.9319021  18.7836291  73.0345583  81.1715620  19.4154815  73.7124601
  80.0888218  18.4324331  73.3210942  91.9145730   9.9313961  78.4725844
  91.0272509   9.5939883  78.5952243  92.4844281   9.1996993  78.7094609
  73.5674877   6.2638053  71.7968895  74.2545917   5.9499783  71.2089910
  73.4123006   7.1679418  71.5236147  85.4446883  14.5915414  75.4387087
  85.3717055  15.3970385  75.9506391  85.0024276  14.7907380  74.6135108
  85.2336663  13.8287184  68.9489908  84.4504185  14.3708864  69.0428133
  85.9329408  14.3461163  69.3484150  87.9045567  14.4902248  77.5945246
  88.6173539  15.1249713  77.5221147  87.4135595  14.5866114  76.7785247
  82.9557480  12.2396691  78.4150816  83.6566940  12.8733174  78.5680211
  82.4852595  12.5811423  77.6546456  91.0811876  10.5814641  66.6998723
  91.3571720  10.4671236  67.6092597  90.2116375  10.1832126  66.6610896
  87.7165940  14.8300992  70.3431537  87.8988335  14.0122648  70.8059289
  88.5398926  15.0468684  69.9056427  88.0508106  13.7569177  67.6046586
  88.5795872  13.2461632  66.9916748  88.3136325  13.4411707  68.4692119
  78.5525198  11.7733046  75.3481919  79.1378635  11.0276734  75.4809823
  78.3550037  12.0837003  76.2318583  81.4063853  14.8084294  70.3644361
  80.7374229  15.2930421  69.8808401  81.2676723  15.0553514  71.2787740
  73.1442853   4.3438646  74.0686362  73.1826953   3.8102237  74.8623480
  72.6383146   3.8173852  73.4497339  85.5469122  16.8428037  76.9627020
  86.0987430  17.0059659  77.7276105  85.8875316  17.4332475  76.2907045
  90.3979996  11.6689295  82.8175674  90.9419900  12.2819253  82.3230629
  89.8166841  12.2268873  83.3342687  88.6837509  14.7910013  73.9490702
  88.5588649  13.9899753  73.4401647  89.3416600  15.2856206  73.4604672
  90.7472418  12.5919033  75.5770252  89.8002753  12.4724384  75.5048579
  91.0955191  11.7041531  75.6596513  87.7518851  12.3871749  71.7774604
  87.6043813  11.4588456  71.9582174  88.5772345  12.4091840  71.2931680
  91.3552973  13.2100308  72.8639477  92.2799520  13.0043169  72.7263928
  91.1868276  12.9616709  73.7728819  91.1448289  13.7285975  68.2201568
  91.3185167  13.1632398  67.4675421  91.6377180  14.5286870  68.0381058
  76.9625249   5.7400644  76.2865127  76.4178717   6.5160452  76.4185402
  77.8404599   6.0871449  76.1284249  92.1323462  13.0452740  65.3198467
  92.8274366  13.6659432  65.5385781  92.4746612  12.1948091  65.5950845
  77.7491271   4.8670540  79.1795284  77.0073007   5.0153176  79.7659915
  77.4284015   5.1278806  78.3162034  94.0314885  10.4952445  66.8485798
  94.5566209  10.8339718  66.1235118  93.9437237   9.5599460  66.6648932
  85.6934933  14.4086519  78.9775674  86.0022060  14.1635665  79.8498374
  86.4910415  14.6133157  78.4894544  85.7155545  16.5624428  71.2081051
  85.2760536  16.0700807  71.9013907  86.4663662  16.0197396  70.9673126
  78.1947884  12.7535969  71.2105679  79.0205904  12.4539741  70.8304322
  77.8441936  11.9843592  71.6595467  83.1629418  12.1062437  73.2803352
  82.5409427  11.4433142  72.9805580  83.8334285  12.1323569  72.5977000
  76.3956489  10.6722296  72.1694612  75.5588398  10.2444470  71.9878614
  76.3680135  10.8654739  73.1065404  93.7208791  11.1285349  82.1536996
  92.9304334  11.1109488  81.6141495  93.4842145  11.6673642  82.9086032
  82.7242925  10.6566361  66.7561813  82.8731045  11.3401825  66.1028486
  83.5309368  10.6371451  67.2711269  95.3424863  10.3974757  79.7111746
  95.0509671  10.7604737  80.5475207  94.7296994   9.6841765  79.5325078
  80.4795557   6.6831538  67.7622882  80.2341599   5.7793868  67.9603092
  80.6491472   6.6848689  66.8202360  86.2238330  13.1514491  64.2273560
  85.6512297  13.7704678  63.7744032  86.7971124  13.7013853  64.7613482
  89.4435590  13.4351641  65.3582143  90.3766263  13.3697203  65.5615018
  89.3558803  14.2707908  64.8996675  92.0723606  12.7517512  62.3186090
  91.9937238  12.4177375  63.2121848  92.8933273  13.2439280  62.3177563
  86.4923821   8.5393050  83.0290270  87.4126831   8.7171649  83.2230316
  86.4573404   7.5949095  82.8769969  75.7105986   3.7331644  71.9543544
  75.3908770   2.8796952  71.6617918  75.1639414   3.9480222  72.7101512
  79.4885894   6.4494085  75.6713051  79.7071903   7.3811193  75.6901085
  79.9011667   6.0902059  76.4567855  75.5794246   7.3534555  73.9236666
  74.8857718   6.9388508  73.4106620  76.3267237   7.3955092  73.3270085
  77.4930989   7.2852809  71.8002681  77.4701677   7.3840496  70.8484564
  77.8031625   8.1317960  72.1219847  80.1518366   9.3428964  75.9149295
  81.1061620   9.3112906  75.8479227  79.9530890   8.8819588  76.7299521
  80.7417749   7.9130080  78.4820093  81.5610638   8.4074159  78.5054930
  81.0154556   6.9962048  78.4537661  78.5068595  14.8848584  72.9319493
  78.3723063  14.1248984  72.3657491  78.0900658  15.6089483  72.4648282
  89.6427558  10.0685507  61.9396069  90.3463408  10.2735510  62.5553724
  88.9190207  10.6362269  62.2045152  81.6637721  15.7817901  73.1437936
  81.5470105  16.7263333  73.0416626  80.8430167  15.4791462  73.5323735
  91.5514256  10.5068036  63.9894529  92.3859860  10.0749235  63.8072003
  91.3898599  10.3350050  64.9171423  88.5206055   9.3149061  84.6804431
  89.3897215   9.4889714  84.3191066  88.0412807  10.1343478  84.5580160
  82.6892235  16.4346162  76.3593864  83.5919482  16.4669773  76.6760359
  82.4629605  15.5046613  76.3740200  84.4445837  15.1877149  73.0203943
  83.4941468  15.1879011  72.9068315  84.7478323  14.4409884  72.5039978
 100.1798531  21.0237687  74.0849705 100.8176941  20.9044435  73.3813045
 100.0619374  21.9718531  74.1437657  96.9888237  20.9765116  74.0211230
  96.6506749  20.8606180  73.1331765  97.8578005  20.5756281  74.0012236
  92.8475053  22.8300592  70.0108121  92.2839918  22.7390529  69.2424409
  92.7327448  22.0100496  70.4910613  97.4708020  22.1299967  79.9797436
  97.4596661  21.7352766  79.1077939  97.6328660  21.3966040  80.5731207
  90.3939485  24.3251784  72.8492341  91.1860777  23.9842608  72.4338641
  90.6336135  24.4346759  73.7694495  98.4274611  26.4971560  65.3222586
  97.7762591  27.0825640  64.9356600  99.2218974  27.0277755  65.3817623
  92.3530239  23.5860697  65.7209720  93.1261115  23.0389684  65.5822596
  92.7055637  24.4504946  65.9324182  94.1915281  24.9137079  78.9276620
  93.9005147  25.8182710  78.8123286  94.8272266  24.9553607  79.6420689
  95.1171488  22.2913928  75.5177979  95.7135060  22.0669950  74.8034942
  95.1746460  21.5498673  76.1203427  94.6896516  19.7453363  63.3528170
  94.9422037  19.2234884  62.5911633  93.7521076  19.5819508  63.4554854
  99.7339799  18.7489141  71.1602913 100.5202888  18.3308564  70.8093330
  99.9978504  19.6535233  71.3284562  99.9049877  24.1861992  65.8591570
  99.2695710  24.2596618  66.5712475  99.5747283  24.7755590  65.1810649
 105.1348226  18.6864374  72.0635892 105.8673398  18.1163591  72.2973721
 104.3787582  18.2985975  72.5042397  94.4092805  21.6481469  65.5552545
  94.2929063  20.9726372  66.2233629  94.5195065  21.1613843  64.7384698
  96.7524346  21.1091616  69.2599234  96.3882553  20.5822237  69.9712156
  97.6091462  20.7190085  69.0865720 102.6573647  12.3985949  76.5230500
 102.3256972  13.2681360  76.2991715 102.0619260  12.0822233  77.2024531
  96.3929833  16.1381516  64.2560583  96.5604235  17.0061752  64.6231054
  96.2027002  16.3008797  63.3321872  99.1505166  24.5998495  75.9226413
  98.8505889  25.5023533  75.8142220  98.8056226  24.3330678  76.7747566
  92.6017648  21.0512291  71.9563118  91.6768144  20.9188506  72.1640809
  92.8502061  21.8306511  72.4533060 102.5502310  17.1181035  73.6023851
 101.6419187  17.0496443  73.3082612 102.4989906  17.5952980  74.4305676
  96.3719054  18.5939173  65.2407250  96.2518679  19.0396224  66.0792730
  95.6771642  18.9424491  64.6820788  89.9626459  20.6945565  72.7906907
  90.0918840  20.9480044  73.7046318  89.2823910  21.2873273  72.4711562
  94.1325946  31.3642815  68.8897381  94.0549976  32.3150640  68.9685861
  93.5287590  31.0188687  69.5472307  96.6243176  18.5370680  81.5458748
  95.8476510  19.0964600  81.5361612  97.2633739  19.0227463  82.0673618
 104.4163956  15.3197473  75.3801724 103.7738337  15.6130006  74.7341519
 103.9118885  15.2050393  76.1854921 102.0704120  19.0660646  66.0687584
 102.9821976  19.2988033  65.8935281 101.5613767  19.6497691  65.5062662
  94.8789548  21.3456134  81.1076715  95.6204233  21.8841178  80.8311538
  94.1726534  21.9722422  81.2648267 100.3544888  23.4885274  79.7048876
 100.7628244  23.0467685  78.9603509  99.6322149  22.9137902  79.9583069
  96.7075958  18.4257881  77.0782433  97.5537153  18.8497294  77.2217082
  96.6474596  17.7691505  77.7720996 100.6773702  24.0486465  73.4601165
 100.0482565  24.2132179  72.7577233 100.2899365  24.4628074  74.2312129
 104.5562934  24.9840903  70.8145529 103.8713972  25.3639804  70.2642562
 104.6406784  25.5936229  71.5477477  99.8575403  16.0862249  78.7363607
  99.6136335  16.8404310  78.1997883 100.1335334  16.4647597  79.5710854
 101.8113866  22.6300862  77.4140872 102.0230761  23.2732622  76.7375254
 101.7643614  21.7963178  76.9462803  99.4140095  15.2418682  74.3177445
  98.5524574  15.5399936  74.6094182  99.4402530  15.4589081  73.3858477
  96.2301664  23.7860873  70.7251250  96.6940010  24.0648576  69.9355873
  95.9658462  22.8844317  70.5424341  93.1225745  23.3332354  73.6631014
  93.6927102  23.7619623  73.0248498  93.7133857  23.0514939  74.3615199
  95.1670550  19.9084025  67.5340815  95.8694594  20.3605069  68.0014742
  94.8351179  19.2667844  68.1620709  93.6150912  18.4995782  81.9092025
  92.9849572  19.1812063  82.1427422  93.5087000  18.3878863  80.9645163
  88.9095884  18.1667578  72.8357949  88.1194938  18.4225106  72.3598060
  89.4007132  18.9815916  72.9409990 102.9259694  25.5072817  75.5863230
 103.7477138  25.1053004  75.3045911 102.9222097  25.4041051  76.5379346
  90.8610630  18.5312157  69.7941426  90.0641793  18.6430851  70.3124921
  90.6336222  18.8698809  68.9282316  96.6916297  25.0556860  77.7423940
  96.7560730  25.5177268  78.5782112  95.9827221  24.4254225  77.8706250
  87.1933587  18.4198068  75.2672940  87.4441626  19.3045078  75.5330516
  87.7293136  18.2402670  74.4948032 111.0165687  21.8511566  71.9348201
 110.2629395  21.2818964  71.7792206 111.1513228  21.8174230  72.8818836
  96.4064315  26.7224968  67.6102921  96.2709990  27.5676504  68.0387768
  96.9474127  26.9244246  66.8468854  92.8931655  12.8016548  84.2717276
  92.4998600  12.2482746  84.9464920  93.7097795  13.1127126  84.6623793
  89.8593712  24.2400406  68.1830846  90.3718233  25.0343656  68.3336410
  90.5116425  23.5426696  68.1164447  91.6688597  27.3566162  70.2653599
  91.8455225  28.2784127  70.0774583  92.4645431  27.0424581  70.6947979
  95.8099616  14.2174427  81.8637532  96.5509329  14.8181580  81.7841995
  96.0417538  13.4752065  81.3055575  90.9540954  19.4030794  80.1415762
  90.8394469  18.5016051  80.4422861  90.0985471  19.6494491  79.7900579
  98.0332791  27.3448534  81.7403263  97.5896646  26.5584913  81.4224167
  98.6950005  27.5327685  81.0747154  92.7919913  28.8744336  76.2663941
  93.3427338  28.7461399  75.4940935  91.9531388  29.1739225  75.9158834
 100.1314029  27.6251334  79.7684664 100.1132505  28.4460215  79.2764933
 101.0533949  27.5005410  79.9934805  96.5887084  25.1395464  80.6108172
  97.1215420  24.3783752  80.3807480  96.0601165  24.8469116  81.3532327
  87.8242629  22.5689060  68.9590416  88.6617851  22.9786069  68.7424124
  88.0020897  21.6288502  68.9290610  99.7207061  20.2364141  64.6474249
  99.2053685  21.0068745  64.8862637  99.4484370  19.5629277  65.2707311
  97.3054172  15.0813842  69.7059488  96.4495769  14.6920692  69.5265126
  97.7181124  15.1605802  68.8459273  98.8353319  12.6160185  74.1051047
  98.3318115  12.5790320  73.2918853  99.1283926  13.5252928  74.1647704
  95.0796205  12.6998915  73.1117229  95.9449202  12.5041723  72.7523119
  95.1473714  12.4709266  74.0386586 104.6941335  22.9896496  66.5827423
 103.9170778  22.6507655  66.1382585 105.3732816  22.9949119  65.9082388
  99.5093364  18.1091233  66.4734030  99.2043500  18.4237382  67.3244174
 100.4623807  18.1872653  66.5161363  97.9539796  24.2681456  68.1226984
  97.4261158  23.5334216  67.8100222  97.4527299  25.0456133  67.8766953
 102.9332642  22.4630477  73.2394031 102.2756317  23.1529738  73.3274159
 103.7373042  22.8526909  73.5828017  92.6858524  14.9301123  70.4833596
  93.2602276  14.7076304  69.7506789  93.2729506  14.9989817  71.2362197
 101.7438101  20.8174849  71.2897972 102.2569983  21.4504841  71.7919682
 102.3939325  20.2176045  70.9241332  93.0128111  16.9605584  64.5029481
  92.1765423  17.2980270  64.8238756  92.8732881  16.8254563  63.5656618
  94.9881192  11.8042371  69.2108665  94.3345604  11.4891389  68.5865280
  94.9461666  11.1818112  69.9368488  96.0992396  22.0861667  61.1261957
  95.1919458  21.8550920  61.3253106  96.5963428  21.2899286  61.3135939
  99.0060475  30.7959174  64.0458644  98.3322174  31.0990870  64.6543601
  99.3926297  31.5988254  63.6964101  98.2218932  18.2924305  73.5356313
  97.3041493  18.5139252  73.3778001  98.6379076  18.3670615  72.6768020
  99.0053980  19.6915721  68.6658993  99.7525799  20.2037118  68.3566115
  99.2745569  19.3699773  69.5263387  97.2780630  22.1874261  65.6485948
  96.3691849  21.9033294  65.7458417  97.3075714  22.6073340  64.7889254
 102.5099897  25.7980851  69.4177115 102.0562224  24.9571761  69.4742306
 101.8793864  26.4342249  69.7551895 101.4532817  16.7272837  70.6477783
 100.7155574  16.2150223  70.9788025 101.7059590  16.2873219  69.8361059
 100.9532837  27.6357348  70.3526933 101.2455811  28.1962405  69.6339299
 101.4631457  27.9285909  71.1080092  87.8468800  19.9079776  69.6301150
  87.6493200  19.3149136  68.9052216  87.2915464  19.6031986  70.3477088
  95.8265524  19.8002882  71.7495743  95.8814134  18.8476718  71.6738219
  95.0156726  19.9562321  72.2337041  96.9756718  23.7283005  62.9874026
  96.5376148  23.0118864  62.5279663  97.7167159  23.9559120  62.4259117
  93.7657884  18.4179942  69.5086122  92.9525749  18.7174112  69.9151314
  94.2616878  18.0235631  70.2260604  95.9166462  28.4137699  71.4420386
  95.8742641  28.6398545  70.5128918  96.8329161  28.1801073  71.5906188
  99.3632096  18.8821766  78.3401016  99.7181483  19.1093239  79.1995481
 100.0104227  19.2140143  77.7178271 105.0929832  22.0040202  69.0450345
 104.9547731  22.1941798  68.1171534 104.7366051  22.7659585  69.5018396
  93.2571959  15.9898297  75.1247357  93.8971338  15.8487056  74.4270320
  92.4249489  15.7032811  74.7485959 105.1199212  24.0716729  74.0561616
 105.5535719  23.9792018  74.9044670 105.8330793  24.0474230  73.4181632
  94.0332263  25.2900728  71.2382349  94.8272861  24.7951048  71.0364924
  93.3223955  24.7618591  70.8750055  98.8527107  27.6718823  75.5894717
  98.9064129  28.2409760  76.3572433  97.9841888  27.8420708  75.2248754
  90.3415026  19.4343809  67.3142102  89.4112614  19.3728265  67.5312064
  90.4372498  18.9119762  66.5178743  90.2600575  15.9598622  69.9020343
  90.5207392  16.8743956  69.7929504  91.0817747  15.4923065  70.0516956
  91.7325500  17.3736379  77.0719168  92.4048554  17.1653742  76.4231817
  90.9055287  17.1758465  76.6324400 105.9814762  24.1140430  76.5894502
 106.1750652  25.0186240  76.8353776 105.8815380  23.6547849  77.4233087
  97.6351072  13.9998320  79.0884829  96.9878987  14.6988270  78.9949305
  98.4052088  14.4334464  79.4561077 101.0429870  24.2647173  82.1635382
 100.8915377  24.0357724  81.2465466 101.0334550  25.2217774  82.1766727
  97.8115207  21.8379085  77.1481649  98.7407267  21.9890245  76.9750616
  97.3906237  21.9263106  76.2930295  96.6103539  25.8629750  74.9180186
  96.4714624  25.4948534  75.7906124  95.8218135  26.3777389  74.7464144
  97.2051691  30.9638846  66.2605723  97.3803446  30.4926889  67.0751345
  96.5184479  31.5904612  66.4886983  98.1608754  25.2411352  72.3069024
  97.8258586  25.2012122  73.2026674  97.6612699  24.5756068  71.8339434
  92.1352998  20.6478982  77.8321605  91.9972796  19.9159221  78.4333144
  93.0457921  20.5587883  77.5505793 101.0967945  22.5867387  62.5806084
 100.4797116  21.8614215  62.4839136 100.6284434  23.3476747  62.2373158
  94.7635298  20.3598942  77.3205285  95.4734917  19.7192134  77.2791903
  94.7204606  20.6111837  78.2431466 102.7522077  27.2966295  80.2411864
 102.6934623  26.6125515  79.5742447 103.1541595  28.0385285  79.7892490
  93.4764232  17.3464160  79.1400924  92.9401589  16.8954898  79.7922521
  92.8880941  17.4810068  78.3971389  91.7712776  34.1128209  73.0345583
  92.0109374  34.7446733  73.7124601  90.9281972  33.7616249  73.3210942
  92.8866491  16.8052811  61.7027388  92.0095958  16.6841612  61.3389635
  93.3624244  16.0138889  61.4506277 102.7539484  25.2605879  78.4725844
 101.8666263  24.9231801  78.5952243 103.3238035  24.5288910  78.7094609
  84.4068631  21.5929971  71.7968895  85.0939671  21.2791701  71.2089910
  84.2516760  22.4971335  71.5236147  89.2103354  16.4820167  76.2253919
  89.1261542  15.8745837  75.4904329  88.3886060  16.9729186  76.2263415
  96.2840638  29.9207331  75.4387087  96.2110809  30.7262303  75.9506391
  95.8418031  30.1199297  74.6135108  96.0730417  29.1579101  68.9489908
  95.2897939  29.7000782  69.0428133  96.7723162  29.6753081  69.3484150
  99.3827067  14.9673731  71.5924114  99.8795767  14.2143693  71.2725184
  98.6114049  15.0038048  71.0267323 107.2356825  20.6714096  73.2342405
 107.2246701  21.5538812  72.8636338 106.3674204  20.3185647  73.0396942
  98.7439321  29.8194165  77.5945246  99.4567293  30.4541630  77.5221147
  98.2529350  29.9158031  76.7785247 100.4656848  23.7245418  69.1662537
  99.5313127  23.8446881  68.9967242 100.6433517  22.8217885  68.9022547
  95.9662036  17.1091114  71.3195798  95.5959824  16.5562154  72.0076704
  96.4621129  16.5049247  70.7670798 103.8529399  19.5662737  69.7012571
 104.3189852  20.3990729  69.6272874 104.3036900  19.1007719  70.4057830
  93.7951235  27.5688609  78.4150816  94.4960694  28.2025092  78.5680211
  93.3246350  27.9103340  77.6546456 101.9205631  25.9106559  66.6998723
 102.1965474  25.7963153  67.6092597 101.0510129  25.5124043  66.6610896
 101.5952521  20.1233216  76.2403367 100.9423971  20.3709124  75.5855819
 101.9732901  19.3097354  75.9065844  98.5559695  30.1592909  70.3431537
  98.7382089  29.3414565  70.8059289  99.3792681  30.3760602  69.9056427
  98.8901860  29.0861095  67.6046586  99.4189626  28.5753549  66.9916748
  99.1530080  28.7703625  68.4692119  97.6440094  20.8653027  82.7269404
  96.9680731  20.7647157  83.3971779  98.4667728  20.7092241  83.1905401
  89.3918953  27.1024964  75.3481919  89.9772390  26.3568652  75.4809823
  89.1943791  27.4128921  76.2318583  92.2457608  30.1376211  70.3644361
  91.5767983  30.6222339  69.8808401  92.1070478  30.3845432  71.2787740
  83.9836608  19.6730564  74.0686362  84.0220707  19.1394155  74.8623480
  83.4776900  19.1465770  73.4497339  96.3862877  32.1719955  76.9627020
  96.9381185  32.3351576  77.7276105  96.7269070  32.7624393  76.2907045
  91.3627370  14.5195105  77.5648905  91.4268696  15.3809936  77.1526302
  91.2994490  13.9069106  76.8321263  90.8379642  16.5918237  81.2121939
  91.4651681  16.2095314  81.8259463  89.9807561  16.3732439  81.5777631
 101.2373751  26.9981212  82.8175674 101.7813655  27.6111171  82.3230629
 100.6560596  27.5560791  83.3342687  87.6145185  18.3994666  67.1440294
  87.9098626  17.4905345  67.0907347  86.7133221  18.3782406  66.8221296
  99.5231264  30.1201930  73.9490702  99.3982403  29.3191670  73.4401647
 100.1810355  30.6148124  73.4604672  91.1439432  16.4750663  73.1267842
  90.4226018  17.0886631  72.9875316  91.9332688  17.0108428  73.0484488
 101.5866172  27.9210950  75.5770252 100.6396508  27.8016302  75.5048579
 101.9348945  27.0333448  75.6596513  93.9465746  13.8105089  79.4008494
  94.4700147  14.0567386  80.1634803  93.7278079  14.6425124  78.9811631
  89.3433027  16.0808764  67.2679619  89.0145733  15.2006143  67.0854725
  89.6972397  16.0256433  68.1556008  98.5912606  27.7163667  71.7774604
  98.4437568  26.7880374  71.9582174  99.4166099  27.7383757  71.2931680
  92.4574850  16.3681734  67.6355096  92.7970922  16.8967655  66.9133705
  92.9046970  16.7062140  68.4113663 102.1946727  28.5392225  72.8639477
 103.1193275  28.3335087  72.7263928 102.0262031  28.2908627  73.7728819
  95.1518291  14.7518784  77.0858164  94.8115111  13.9526598  77.4878844
  94.4457297  15.0520495  76.5134998  95.8034762  11.8368097  75.5385488
  96.6260832  11.3628575  75.4164378  96.0472826  12.6158581  76.0384174
  94.4442997  14.8656355  65.8348389  95.1651359  15.2437608  65.3312106
  93.8208301  15.5845232  65.9383367  98.5874120  15.5701504  66.7706722
  98.8037734  16.4526142  66.4695550  98.1068187  15.1787718  66.0412364
  93.3273341  18.5287218  73.3477466  93.1817922  18.8427521  74.2401748
  92.8498545  19.1472118  72.7948365  95.1869724  15.5189765  73.3958356
  95.1731293  14.6230859  73.0590654  95.9042152  15.5260429  74.0296642
  97.0395855  15.9527106  75.4411483  96.7813633  16.8744176  75.4395814
  96.5080895  15.5557540  76.1311947 101.9842044  29.0577893  68.2201568
 102.1578921  28.4924315  67.4675421 102.4770935  29.8578788  68.0381058
  87.8019003  21.0692562  76.2865127  87.2572471  21.8452370  76.4185402
  88.6798353  21.4163366  76.1284249  94.5906620  14.4004146  68.6645926
  94.7122531  13.4720792  68.8636813  94.3008662  14.4142832  67.7524241
  97.4597810  12.0859056  71.8012646  97.4819507  12.1498389  70.8464625
  97.8765869  11.2463565  71.9953152 107.8381435  21.8214316  69.8391868
 108.2812581  21.0721641  69.4410992 106.9607945  21.8124452  69.4565600
 102.9717216  28.3744657  65.3198467 103.6668121  28.9951350  65.5385781
 103.3140366  27.5240008  65.5950845  88.5885025  20.1962458  79.1795284
  87.8466761  20.3445094  79.7659915  88.2677770  20.4570724  78.3162034
 104.8708639  25.8244363  66.8485798 105.3959963  26.1631636  66.1235118
 104.7830992  24.8891378  66.6648932  96.5328688  29.7378436  78.9775674
  96.8415814  29.4927583  79.8498374  97.3304170  29.9425075  78.4894544
  96.5549300  31.8916346  71.2081051  96.1154290  31.3992725  71.9013907
  97.3057417  31.3489314  70.9673126  89.0341639  28.0827887  71.2105679
  89.8599659  27.7831659  70.8304322  88.6835691  27.3135509  71.6595467
  94.0023172  27.4354355  73.2803352  93.3803181  26.7725060  72.9805580
  94.6728039  27.4615487  72.5977000  87.2350244  26.0014213  72.1694612
  86.3982152  25.5736388  71.9878614  87.2073889  26.1946657  73.1065404
  94.0747700  15.9136143  82.8735858  94.1235855  16.7898266  82.4913628
  94.6170214  15.3713536  82.3007502 104.5602545  26.4577266  82.1536996
 103.7698089  26.4401405  81.6141495 104.3235900  26.9965560  82.9086032
 104.6800420  23.3069733  79.4669724 104.7298425  23.1419740  80.4085247
 104.5714344  22.4396992  79.0767605  93.5636679  25.9858278  66.7561813
  93.7124799  26.6693743  66.1028486  94.3703122  25.9663369  67.2711269
 101.9704183  19.2900661  80.7829031 102.8714045  19.1507126  80.4913029
 102.0452157  19.4555116  81.7227208  96.3046988  16.6667516  79.6282217
  95.4350297  16.9601082  79.3564806  96.5406468  17.2507961  80.3489481
 106.1818617  25.7266674  79.7111746 105.8903425  26.0896655  80.5475207
 105.5690748  25.0133683  79.5325078 107.3814299  23.2919554  72.2314316
 108.2161191  23.7309358  72.3951876 107.5173428  22.8158207  71.4122562
 104.4305805  20.8499289  78.1791804 104.9059927  21.0426935  77.3710655
 103.5071371  20.9058475  77.9335187  91.3189312  22.0123456  67.7622882
  91.0735354  21.1085786  67.9603092  91.4885227  22.0140607  66.8202360
  99.0086022  12.8847132  77.1447637  99.5267966  13.6208159  76.8194126
  98.6541155  13.1911126  77.9794397  90.5884960  17.7451814  65.2609043
  89.8954204  17.8196169  64.6049079  90.3436711  16.9812157  65.7830560
  97.0632085  28.4806409  64.2273560  96.4906052  29.0996596  63.7744032
  97.6364878  29.0305771  64.7613482 103.1307474  17.7265049  76.4120109
 104.0824897  17.8263147  76.4332333 102.9610925  16.9343318  76.9218194
 101.1521854  14.8120632  76.5979510 100.5571786  15.0925645  75.9025999
 100.8671551  15.3014533  77.3696251 100.2829344  28.7643559  65.3582143
 101.2160017  28.6989121  65.5615018 100.1952557  29.5999826  64.8996675
 102.9117361  28.0809429  62.3186090 102.8330993  27.7469293  63.2121848
 103.7327028  28.5731197  62.3177563 105.6095552  20.9471169  75.5262409
 105.5771872  20.0087169  75.7122093 106.2196176  21.0255205  74.7928234
  97.4478883  19.8167222  61.5689613  98.3937988  19.6873430  61.6378031
  97.0693128  19.0781884  62.0459041 105.7590041  17.7382212  75.5720692
 105.2429089  16.9540669  75.3850621 106.6429989  17.4100929  75.7367211
 111.4272102  22.0087176  74.6668446 112.1575490  21.7472464  75.2276149
 110.8179047  21.2715897  74.7070514 109.5087399  20.1495038  75.2642897
 108.7820563  20.0151003  74.6559388 109.0934686  20.4571867  76.0699615
  97.3317576  23.8684968  83.0290270  98.2520585  24.0463567  83.2230316
  97.2967159  22.9241013  82.8769969  95.6321800  17.7417198  61.5044498
  94.7253256  17.4450311  61.5807212  95.9097781  17.4447016  60.6378784
  86.5499741  19.0623561  71.9543544  86.2302525  18.2088870  71.6617918
  86.0033169  19.2772140  72.7101512  90.3279648  21.7786002  75.6713051
  90.5465658  22.7103110  75.6901085  90.7405422  21.4193977  76.4567855
  97.2483866  12.2854088  67.6588739  96.4384594  11.9401173  68.0343985
  97.9368283  11.9761631  68.2476351  95.2007513  17.3519208  85.0615800
  95.1004240  18.3013565  84.9927891  94.9829055  17.0237447  84.1891870
  94.4020585  14.6004133  61.6456477  95.2639749  14.9259032  61.9052295
  94.5870929  13.8135629  61.1329543  86.4188001  22.6826473  73.9236666
  85.7251472  22.2680426  73.4106620  87.1660992  22.7247009  73.3270085
 102.5553221  13.4732660  68.7891700 101.9751890  14.1317464  68.4069753
 102.2889154  12.6510004  68.3779118 101.0056788  12.8737717  70.9913021
 101.5056566  12.9854252  70.1827339 101.6492396  12.5698770  71.6313829
  95.0638783  20.7816347  83.8780862  94.5805865  21.5816707  84.0844751
  95.1499723  20.7924292  82.9248306  88.3324743  22.6144727  71.8002681
  88.3095431  22.7132414  70.8484564  88.6425380  23.4609878  72.1219847
  90.9912121  24.6720882  75.9149295  91.9455375  24.6404824  75.8479227
  90.7924645  24.2111505  76.7299521  91.5811503  23.2421998  78.4820093
  92.4004392  23.7366076  78.5054930  91.8548311  22.3253966  78.4537661
 101.3378099  15.6332750  67.8448049 100.4503954  15.9182401  67.6268243
 101.7532088  15.4726513  66.9975325 104.6892635  15.6579271  71.5602388
 105.4653026  16.1475724  71.8327005 103.9640770  16.0837325  72.0174257
 107.1265194  16.3706890  72.6176328 107.7209685  16.1302626  71.9069637
 107.1991778  15.6514021  73.2449865  89.3462350  30.2140501  72.9319493
  89.2116818  29.4540902  72.3657491  88.9294412  30.9381401  72.4648282
 100.4821313  25.3977425  61.9396069 101.1857163  25.6027427  62.5553724
  99.7583962  25.9654187  62.2045152 101.3119123  21.1487286  68.0598339
 101.2554324  21.6055837  67.2205971 101.8647466  20.3877971  67.8821181
 105.1223929  16.9377018  68.8848458 104.8660863  16.5373654  69.7156666
 104.4976797  17.6520812  68.7598597 109.4336267  19.6773091  71.3919750
 108.8735825  19.7466280  72.1651312 108.8279770  19.5014076  70.6719246
  92.5031476  31.1109818  73.1437936  92.3863860  32.0555251  73.0416626
  91.6823922  30.8083380  73.5323735 102.3908010  25.8359954  63.9894529
 103.2253614  25.4041152  63.8072003 102.2292353  25.6641968  64.9171423
 102.0453902  22.3392067  65.3550868 101.9902706  22.1736339  64.4139312
 101.4199958  23.0468100  65.5113058  86.8346417  17.5760132  79.1812290
  87.4805281  17.0659086  79.6699515  86.6263568  18.3128813  79.7555715
  99.3599810  24.6440979  84.6804431 100.2290969  24.8181631  84.3191066
  98.8806561  25.4635396  84.5580160  95.3550028  11.8400176  64.9336186
  95.3428698  12.7842016  65.0904457  96.2473450  11.6570322  64.6395647
  93.5285990  31.7638080  76.3593864  94.4313236  31.7961690  76.6760359
  93.3023360  30.8338531  76.3740200  95.2839592  30.5169067  73.0203943
  94.3335223  30.5170928  72.9068315  95.5872078  29.7701801  72.5039978
  91.1743908  14.7227749  83.2787304  92.0375370  14.3664554  83.4890629
  90.6009319  14.3841644  83.9662709 111.0192285  36.3529605  74.0849705
 111.6570695  36.2336352  73.3813045 110.9013128  37.3010449  74.1437657
 107.8281992  36.3057033  74.0211230 107.4900503  36.1898098  73.1331765
 108.6971760  35.9048198  74.0012236 103.6868807  38.1592510  70.0108121
 103.1233672  38.0682447  69.2424409 103.5721202  37.3392414  70.4910613
 108.3101775  37.4591885  79.9797436 108.2990415  37.0644683  79.1077939
 108.4722414  36.7257958  80.5731207 101.2333239  39.6543701  72.8492341
 102.0254531  39.3134526  72.4338641 101.4729889  39.7638676  73.7694495
 109.2668366  41.8263477  65.3222586 108.6156346  42.4117558  64.9356600
 110.0612729  42.3569672  65.3817623 103.1923993  38.9152614  65.7209720
 103.9654869  38.3681602  65.5822596 103.5449392  39.7796864  65.9324182
 105.0309036  40.2428997  78.9276620 104.7398902  41.1474628  78.8123286
 105.6666020  40.2845524  79.6420689 105.9565243  37.6205845  75.5177979
 106.5528815  37.3961868  74.8034942 106.0140214  36.8790591  76.1203427
 105.5290271  35.0745281  63.3528170 105.7815792  34.5526802  62.5911633
 104.5914830  34.9111426  63.4554854 110.5733554  34.0781059  71.1602913
 111.3596643  33.6600482  70.8093330 110.8372258  34.9827151  71.3284562
 110.7443631  39.5153909  65.8591570 110.1089464  39.5888536  66.5712475
 110.4141038  40.1047508  65.1810649 115.9741981  34.0156292  72.0635892
 116.7067153  33.4455509  72.2973721 115.2181337  33.6277893  72.5042397
 105.2486560  36.9773387  65.5552545 105.1322818  36.3018290  66.2233629
 105.3588820  36.4905760  64.7384698 107.5918101  36.4383534  69.2599234
 107.2276308  35.9114155  69.9712156 108.4485217  36.0482003  69.0865720
 113.4967401  27.7277866  76.5230500 113.1650726  28.5973277  76.2991715
 112.9013015  27.4114150  77.2024531 107.2323588  31.4673433  64.2560583
 107.3997990  32.3353670  64.6231054 107.0420757  31.6300715  63.3321872
 109.9898921  39.9290412  75.9226413 109.6899644  40.8315451  75.8142220
 109.6449980  39.6622595  76.7747566 103.4411402  36.3804209  71.9563118
 102.5161899  36.2480423  72.1640809 103.6895815  37.1598428  72.4533060
 113.3896065  32.4472952  73.6023851 112.4812942  32.3788361  73.3082612
 113.3383660  32.9244897  74.4305676 107.2112808  33.9231091  65.2407250
 107.0912434  34.3688142  66.0792730 106.5165397  34.2716409  64.6820788
 100.8020213  36.0237483  72.7906907 100.9312594  36.2771962  73.7046318
 100.1217665  36.6165191  72.4711562 104.9719701  46.6934733  68.8897381
 104.8943730  47.6442558  68.9685861 104.3681344  46.3480605  69.5472307
 107.4636930  33.8662598  81.5458748 106.6870264  34.4256518  81.5361612
 108.1027493  34.3519381  82.0673618 115.2557711  30.6489391  75.3801724
 114.6132091  30.9421924  74.7341519 114.7512639  30.5342311  76.1854921
 112.9097875  34.3952564  66.0687584 113.8215731  34.6279951  65.8935281
 112.4007522  34.9789608  65.5062662 105.7183303  36.6748051  81.1076715
 106.4597987  37.2133095  80.8311538 105.0120288  37.3014340  81.2648267
 111.1938642  38.8177192  79.7048876 111.6021998  38.3759602  78.9603509
 110.4715904  38.2429819  79.9583069 107.5469712  33.7549799  77.0782433
 108.3930908  34.1789212  77.2217082 107.4868350  33.0983423  77.7720996
 111.5167457  39.3778382  73.4601165 110.8876319  39.5424097  72.7577233
 111.1293119  39.7919992  74.2312129 115.3956689  40.3132820  70.8145529
 114.7107727  40.6931722  70.2642562 115.4800538  40.9228147  71.5477477
 110.6969158  31.4154167  78.7363607 110.4530090  32.1696228  78.1997883
 110.9729088  31.7939515  79.5710854 112.6507620  37.9592779  77.4140872
 112.8624516  38.6024539  76.7375254 112.6037369  37.1255096  76.9462803
 110.2533849  30.5710600  74.3177445 109.3918328  30.8691854  74.6094182
 110.2796284  30.7880999  73.3858477 107.0695419  39.1152791  70.7251250
 107.5333764  39.3940494  69.9355873 106.8052217  38.2136235  70.5424341
 103.9619500  38.6624272  73.6631014 104.5320857  39.0911540  73.0248498
 104.5527612  38.3806857  74.3615199 106.0064305  35.2375943  67.5340815
 106.7088348  35.6896987  68.0014742 105.6744933  34.5959762  68.1620709
 104.4544666  33.8287700  81.9092025 103.8243327  34.5103980  82.1427422
 104.3480754  33.7170781  80.9645163  99.7489639  33.4959496  72.8357949
  98.9588693  33.7517024  72.3598060 100.2400886  34.3107833  72.9409990
 113.7653448  40.8364735  75.5863230 114.5870892  40.4344922  75.3045911
 113.7615851  40.7332969  76.5379346 101.7004384  33.8604075  69.7941426
 100.9035547  33.9722769  70.3124921 101.4729976  34.1990727  68.9282316
 107.5310052  40.3848778  77.7423940 107.5954484  40.8469185  78.5782112
 106.8220976  39.7546143  77.8706250  98.0327342  33.7489986  75.2672940
  98.2835380  34.6336996  75.5330516  98.5686890  33.5694588  74.4948032
 107.2458069  42.0516886  67.6102921 107.1103744  42.8968421  68.0387768
 107.7867882  42.2536163  66.8468854 103.7325409  28.1308465  84.2717276
 103.3392355  27.5774664  84.9464920 104.5491549  28.4419044  84.6623793
 100.6987467  39.5692324  68.1830846 101.2111987  40.3635574  68.3336410
 101.3510180  38.8718614  68.1164447 102.5082352  42.6858080  70.2653599
 102.6848980  43.6076045  70.0774583 103.3039185  42.3716499  70.6947979
 106.6493370  29.5466344  81.8637532 107.3903083  30.1473498  81.7841995
 106.8811293  28.8043982  81.3055575 101.7934708  34.7322712  80.1415762
 101.6788223  33.8307969  80.4422861 100.9379226  34.9786409  79.7900579
 108.8726546  42.6740452  81.7403263 108.4290400  41.8876831  81.4224167
 109.5343759  42.8619603  81.0747154 103.6313667  44.2036254  76.2663941
 104.1821092  44.0753317  75.4940935 102.7925143  44.5031143  75.9158834
 110.9707784  42.9543252  79.7684664 110.9526259  43.7752133  79.2764933
 111.8927704  42.8297327  79.9934805 107.4280838  40.4687381  80.6108172
 107.9609175  39.7075670  80.3807480 106.8994919  40.1761033  81.3532327
 110.5950533  25.5747447  76.1401814 110.2514802  26.4649089  76.0640925
 110.9629496  25.3849105  75.2771399  98.6636384  37.8980978  68.9590416
  99.5011606  38.3077986  68.7424124  98.8414651  36.9580420  68.9290610
 110.5600816  35.5656059  64.6474249 110.0447439  36.3360663  64.8862637
 110.2878124  34.8921195  65.2707311 108.1447927  30.4105759  69.7059488
 107.2889523  30.0212610  69.5265126 108.5574879  30.4897720  68.8459273
 109.6747073  27.9452103  74.1051047 109.1711869  27.9082238  73.2918853
 109.9677680  28.8544845  74.1647704 105.9189959  28.0290832  73.1117229
 106.7842956  27.8333641  72.7523119 105.9867468  27.8001184  74.0386586
 115.5335090  38.3188413  66.5827423 114.7564533  37.9799573  66.1382585
 116.2126571  38.3241036  65.9082388 110.3487119  33.4383151  66.4734030
 110.0437255  33.7529300  67.3244174 111.3017561  33.5164571  66.5161363
 108.7933551  39.5973374  68.1226984 108.2654912  38.8626134  67.8100222
 108.2921054  40.3748050  67.8766953 113.7726397  37.7922394  73.2394031
 113.1150071  38.4821656  73.3274159 114.5766796  38.1818826  73.5828017
 103.5252278  30.2593040  70.4833596 104.0996030  30.0368222  69.7506789
 104.1123261  30.3281735  71.2362197 112.5831856  36.1466767  71.2897972
 113.0963737  36.7796759  71.7919682 113.2333079  35.5467963  70.9241332
 103.8521866  32.2897501  64.5029481 103.0159178  32.6272188  64.8238756
 103.7126635  32.1546481  63.5656618 105.8274946  27.1334289  69.2108665
 105.1739358  26.8183306  68.5865280 105.7855420  26.5110030  69.9368488
 106.9386151  37.4153584  61.1261957 106.0313213  37.1842838  61.3253106
 107.4357183  36.6191203  61.3135939 109.8454230  46.1251091  64.0458644
 109.1715929  46.4282788  64.6543601 110.2320052  46.9280172  63.6964101
 109.0612686  33.6216223  73.5356313 108.1435248  33.8431170  73.3778001
 109.4772830  33.6962533  72.6768020 109.8447734  35.0207638  68.6658993
 110.5919553  35.5329036  68.3566115 110.1139324  34.6991691  69.5263387
 108.1174384  37.5166179  65.6485948 107.2085604  37.2325212  65.7458417
 108.1469468  37.9365258  64.7889254 113.3493652  41.1272769  69.4177115
 112.8955979  40.2863678  69.4742306 112.7187619  41.7634167  69.7551895
 112.2926571  32.0564755  70.6477783 111.5549328  31.5442141  70.9788025
 112.5453345  31.6165136  69.8361059 111.7926591  42.9649265  70.3526933
 112.0849565  43.5254322  69.6339299 112.3025212  43.2577826  71.1080092
 112.3938199  24.8341007  71.2419552 112.6997076  23.9738370  70.9545467
 113.1190804  25.4258627  71.0418546  98.6862555  35.2371693  69.6301150
  98.4886955  34.6441054  68.9052216  98.1309219  34.9323903  70.3477088
 106.6659278  35.1294800  71.7495743 106.7207888  34.1768636  71.6738219
 105.8550480  35.2854239  72.2337041 107.8150472  39.0574923  62.9874026
 107.3769902  38.3410782  62.5279663 108.5560913  39.2851038  62.4259117
 104.6051638  33.7471859  69.5086122 103.7919504  34.0466030  69.9151314
 105.1010633  33.3527548  70.2260604 106.7560216  43.7429616  71.4420386
 106.7136395  43.9690463  70.5128918 107.6722915  43.5092991  71.5906188
 110.2025850  34.2113684  78.3401016 110.5575238  34.4385157  79.1995481
 110.8497981  34.5432061  77.7178271 115.9323587  37.3332120  69.0450345
 115.7941486  37.5233716  68.1171534 115.5759806  38.0951503  69.5018396
 104.0965713  31.3190215  75.1247357 104.7365092  31.1778974  74.4270320
 103.2643244  31.0324728  74.7485959 115.9592967  39.4008647  74.0561616
 116.3929473  39.3083936  74.9044670 116.6724547  39.3766147  73.4181632
 104.8726017  40.6192645  71.2382349 105.6666616  40.1242966  71.0364924
 104.1617709  40.0910509  70.8750055 109.6920862  43.0010741  75.5894717
 109.7457884  43.5701677  76.3572433 108.8235643  43.1712626  75.2248754
 101.1808780  34.7635727  67.3142102 100.2506369  34.7020183  67.5312064
 101.2766252  34.2411680  66.5178743 101.0994330  31.2890540  69.9020343
 101.3601147  32.2035873  69.7929504 101.9211502  30.8214983  70.0516956
 102.5719255  32.7028297  77.0719168 103.2442308  32.4945659  76.4231817
 101.7449041  32.5050383  76.6324400 116.8208516  39.4432347  76.5894502
 117.0144406  40.3478158  76.8353776 116.7209134  38.9839767  77.4233087
 108.4744827  29.3290238  79.0884829 107.8272742  30.0280188  78.9949305
 109.2445842  29.7626382  79.4561077 111.8823625  39.5939090  82.1635382
 111.7309131  39.3649642  81.2465466 111.8728304  40.5509692  82.1766727
 108.6508961  37.1671003  77.1481649 109.5801021  37.3182163  76.9750616
 108.2299991  37.2555024  76.2930295 107.4497293  41.1921667  74.9180186
 107.3108379  40.8240452  75.7906124 106.6611889  41.7069307  74.7464144
 108.0445445  46.2930764  66.2605723 108.2197201  45.8218807  67.0751345
 107.3578233  46.9196530  66.4886983 109.0002508  40.5703270  72.3069024
 108.6652341  40.5304040  73.2026674 108.5006454  39.9047986  71.8339434
 102.9746752  35.9770900  77.8321605 102.8366550  35.2451139  78.4333144
 103.8851676  35.8879800  77.5505793 111.9361700  37.9159304  62.5806084
 111.3190870  37.1906133  62.4839136 111.4678188  38.6768665  62.2373158
 105.6029053  35.6890859  77.3205285 106.3128671  35.0484052  77.2791903
 105.5598361  35.9403754  78.2431466 113.5915831  42.6258213  80.2411864
 113.5328378  41.9417433  79.5742447 113.9935350  43.3677203  79.7892490
 104.3157987  32.6756077  79.1400924 103.7795344  32.2246816  79.7922521
 103.7274695  32.8101986  78.3971389 102.6106530  49.4420127  73.0345583
 102.8503129  50.0738651  73.7124601 101.7675727  49.0908167  73.3210942
 103.7260246  32.1344729  61.7027388 102.8489712  32.0133529  61.3389635
 104.2017999  31.3430807  61.4506277 113.5933239  40.5897797  78.4725844
 112.7060018  40.2523718  78.5952243 114.1631790  39.8580828  78.7094609
  95.2462386  36.9221888  71.7968895  95.9333426  36.6083618  71.2089910
  95.0910515  37.8263253  71.5236147 100.0497108  31.8112085  76.2253919
  99.9655297  31.2037755  75.4904329  99.2279814  32.3021103  76.2263415
 107.1234392  45.2499249  75.4387087 107.0504564  46.0554221  75.9506391
 106.6811785  45.4491215  74.6135108 106.9124172  44.4871019  68.9489908
 106.1291694  45.0292699  69.0428133 107.6116917  45.0044999  69.3484150
 110.2220822  30.2965649  71.5924114 110.7189521  29.5435611  71.2725184
 109.4507803  30.3329965  71.0267323 118.0750579  36.0006014  73.2342405
 118.0640456  36.8830729  72.8636338 117.2067959  35.6477565  73.0396942
 109.5833076  45.1486083  77.5945246 110.2961048  45.7833548  77.5221147
 109.0923104  45.2449949  76.7785247 111.3050603  39.0537336  69.1662537
 110.3706881  39.1738798  68.9967242 111.4827271  38.1509803  68.9022547
 106.8055791  32.4383032  71.3195798 106.4353578  31.8854072  72.0076704
 107.3014883  31.8341165  70.7670798 114.6923154  34.8954655  69.7012571
 115.1583606  35.7282647  69.6272874 115.1430654  34.4299637  70.4057830
 104.6344989  42.8980527  78.4150816 105.3354449  43.5317009  78.5680211
 104.1640104  43.2395258  77.6546456 112.7599385  41.2398476  66.6998723
 113.0359229  41.1255071  67.6092597 111.8903884  40.8415961  66.6610896
 112.6639817  27.2635242  73.7403473 111.7502896  27.4939469  73.9085680
 113.0932918  27.3473686  74.5917505 112.4346275  35.4525134  76.2403367
 111.7817725  35.7001041  75.5855819 112.8126655  34.6389272  75.9065844
 109.3953449  45.4884827  70.3431537 109.5775844  44.6706483  70.8059289
 110.2186435  45.7052519  69.9056427 109.7295615  44.4153012  67.6046586
 110.2583381  43.9045467  66.9916748 109.9923834  44.0995542  68.4692119
 108.4833848  36.1944945  82.7269404 107.8074485  36.0939074  83.3971779
 109.3061482  36.0384159  83.1905401 100.2312707  42.4316882  75.3481919
 100.8166144  41.6860569  75.4809823 100.0337546  42.7420838  76.2318583
 103.0851362  45.4668129  70.3644361 102.4161738  45.9514257  69.8808401
 102.9464232  45.7137349  71.2787740  94.8230362  35.0022482  74.0686362
  94.8614462  34.4686072  74.8623480  94.3170655  34.4757687  73.4497339
 107.2256631  47.5011872  76.9627020 107.7774939  47.6643494  77.7276105
 107.5662825  48.0916310  76.2907045 102.2021124  29.8487022  77.5648905
 102.2662451  30.7101853  77.1526302 102.1388245  29.2361024  76.8321263
 101.6773397  31.9210155  81.2121939 102.3045436  31.5387232  81.8259463
 100.8201316  31.7024357  81.5777631 112.0767505  42.3273130  82.8175674
 112.6207409  42.9403088  82.3230629 111.4954350  42.8852708  83.3342687
  98.4538940  33.7286584  67.1440294  98.7492381  32.8197262  67.0907347
  97.5526975  33.7074323  66.8221296 110.3625018  45.4493848  73.9490702
 110.2376158  44.6483588  73.4401647 111.0204109  45.9440041  73.4604672
 101.9833187  31.8042581  73.1267842 101.2619772  32.4178548  72.9875316
 102.7726442  32.3400345  73.0484488 112.4259927  43.2502868  75.5770252
 111.4790262  43.1308219  75.5048579 112.7742700  42.3625366  75.6596513
 104.7859500  29.1397007  79.4008494 105.3093902  29.3859304  80.1634803
 104.5671833  29.9717042  78.9811631 100.1826781  31.4100682  67.2679619
  99.8539487  30.5298061  67.0854725 100.5366152  31.3548350  68.1556008
 109.4306360  43.0455584  71.7774604 109.2831322  42.1172292  71.9582174
 110.2559854  43.0675675  71.2931680 103.2968604  31.6973651  67.6355096
 103.6364677  32.2259573  66.9133705 103.7440725  32.0354058  68.4113663
 113.0340482  43.8684143  72.8639477 113.9587029  43.6627004  72.7263928
 112.8655785  43.6200544  73.7728819 105.9912045  30.0810702  77.0858164
 105.6508865  29.2818515  77.4878844 105.2851051  30.3812413  76.5134998
 106.6428517  27.1660015  75.5385488 107.4654586  26.6920493  75.4164378
 106.8866580  27.9450498  76.0384174 105.2836751  30.1948273  65.8348389
 106.0045114  30.5729526  65.3312106 104.6602056  30.9137150  65.9383367
 109.4267874  30.8993422  66.7706722 109.6431489  31.7818060  66.4695550
 108.9461941  30.5079635  66.0412364 104.1667096  33.8579135  73.3477466
 104.0211676  34.1719438  74.2401748 103.6892299  34.4764036  72.7948365
 106.0263479  30.8481683  73.3958356 106.0125047  29.9522776  73.0590654
 106.7435907  30.8552347  74.0296642 107.8789609  31.2819023  75.4411483
 107.6207387  32.2036094  75.4395814 107.3474650  30.8849458  76.1311947
 112.8235798  44.3869810  68.2201568 112.9972676  43.8216233  67.4675421
 113.3164689  45.1870705  68.0381058  98.6412758  36.3984480  76.2865127
  98.0966226  37.1744288  76.4185402  99.5192108  36.7455284  76.1284249
 105.4300375  29.7296063  68.6645926 105.5516286  28.8012710  68.8636813
 105.1402417  29.7434749  67.7524241 108.2991565  27.4150974  71.8012646
 108.3213262  27.4790307  70.8464625 108.7159624  26.5755483  71.9953152
 113.8110971  43.7036575  65.3198467 114.5061875  44.3243268  65.5385781
 114.1534121  42.8531926  65.5950845  99.4278780  35.5254376  79.1795284
  98.6860516  35.6737011  79.7659915  99.1071524  35.7862641  78.3162034
 115.7102394  41.1536280  66.8485798 116.2353718  41.4923553  66.1235118
 115.6224746  40.2183296  66.6648932 107.3722442  45.0670354  78.9775674
 107.6809569  44.8219501  79.8498374 108.1697924  45.2716993  78.4894544
 107.3943054  47.2208264  71.2081051 106.9548045  46.7284642  71.9013907
 108.1451171  46.6781231  70.9673126  99.8735393  43.4119805  71.2105679
 100.6993413  43.1123576  70.8304322  99.5229445  42.6427427  71.6595467
 104.8416927  42.7646273  73.2803352 104.2196936  42.1016978  72.9805580
 105.5121793  42.7907405  72.5977000  98.0743998  41.3306131  72.1694612
  97.2375907  40.9028305  71.9878614  98.0467644  41.5238574  73.1065404
 104.9141454  31.2428061  82.8735858 104.9629610  32.1190184  82.4913628
 105.4563968  30.7005454  82.3007502 115.3996300  41.7869184  82.1536996
 114.6091843  41.7693323  81.6141495 115.1629654  42.3257478  82.9086032
 115.5194175  38.6361650  79.4669724 115.5692180  38.4711658  80.4085247
 115.4108098  37.7688909  79.0767605 104.4030433  41.3150196  66.7561813
 104.5518554  41.9985661  66.1028486 105.2096877  41.2955286  67.2711269
 112.8097937  34.6192578  80.7829031 113.7107800  34.4799043  80.4913029
 112.8845912  34.7847033  81.7227208 107.1440743  31.9959433  79.6282217
 106.2744052  32.2892999  79.3564806 107.3800223  32.5799878  80.3489481
 117.0212372  41.0558592  79.7111746 116.7297180  41.4188573  80.5475207
 116.4084503  40.3425600  79.5325078 115.2699560  36.1791207  78.1791804
 115.7453681  36.3718853  77.3710655 114.3465125  36.2350392  77.9335187
 102.1583066  37.3415374  67.7622882 101.9129108  36.4377704  67.9603092
 102.3278981  37.3432524  66.8202360 109.8479776  28.2139050  77.1447637
 110.3661720  28.9500077  76.8194126 109.4934909  28.5203043  77.9794397
 101.4278714  33.0743731  65.2609043 100.7347959  33.1488086  64.6049079
 101.1830466  32.3104075  65.7830560 110.0992371  24.6339333  72.6648534
 110.3794124  23.9662522  73.2908961 110.8842977  24.8268428  72.1523198
 107.9025839  43.8098327  64.2273560 107.3299806  44.4288514  63.7744032
 108.4758633  44.3597688  64.7613482 113.9701229  33.0556967  76.4120109
 114.9218652  33.1555064  76.4332333 113.8004679  32.2635235  76.9218194
 111.9915608  30.1412550  76.5979510 111.3965540  30.4217563  75.9025999
 111.7065305  30.6306451  77.3696251 111.1223099  44.0935477  65.3582143
 112.0553772  44.0281038  65.5615018 111.0346312  44.9291744  64.8996675
 113.7511115  43.4101347  62.3186090 113.6724747  43.0761211  63.2121848
 114.5720782  43.9023115  62.3177563 116.4489307  36.2763086  75.5262409
 116.4165627  35.3379087  75.7122093 117.0589930  36.3547123  74.7928234
 108.2872638  35.1459139  61.5689613 109.2331742  35.0165347  61.6378031
 107.9086882  34.4073801  62.0459041 116.5983795  33.0674130  75.5720692
 116.0822844  32.2832586  75.3850621 117.4823744  32.7392846  75.7367211
 114.2594522  26.8115145  71.5316505 114.0619343  26.5030234  72.4159837
 114.8694228  27.5376784  71.6614435 108.1711330  39.1976885  83.0290270
 109.0914340  39.3755484  83.2230316 108.1360913  38.2532931  82.8769969
 106.4715555  33.0709116  61.5044498 105.5647010  32.7742228  61.5807212
 106.7491536  32.7738934  60.6378784  97.3893495  34.3915479  71.9543544
  97.0696279  33.5380787  71.6617918  96.8426923  34.6064057  72.7101512
 101.1673403  37.1077920  75.6713051 101.3859412  38.0395028  75.6901085
 101.5799176  36.7485895  76.4567855 108.0877620  27.6146005  67.6588739
 107.2778349  27.2693090  68.0343985 108.7762037  27.3053549  68.2476351
 110.0168169  26.6924052  69.2813036 110.5699207  27.1119506  69.9403059
 110.2538255  25.7659800  69.3235992 106.0401268  32.6811126  85.0615800
 105.9397995  33.6305483  84.9927891 105.8222810  32.3529365  84.1891870
 105.2414339  29.9296051  61.6456477 106.1033503  30.2550949  61.9052295
 105.4264683  29.1427547  61.1329543  97.2581755  38.0118391  73.9236666
  96.5645226  37.5972343  73.4106620  98.0054746  38.0538927  73.3270085
 113.3946976  28.8024577  68.7891700 112.8145645  29.4609381  68.4069753
 113.1282908  27.9801922  68.3779118 111.8450542  28.2029635  70.9913021
 112.3450321  28.3146170  70.1827339 112.4886150  27.8990688  71.6313829
 105.9032538  36.1108265  83.8780862 105.4199620  36.9108625  84.0844751
 105.9893477  36.1216210  82.9248306  99.1718498  37.9436644  71.8002681
  99.1489186  38.0424332  70.8484564  99.4819134  38.7901795  72.1219847
 101.8305875  40.0012799  75.9149295 102.7849129  39.9696742  75.8479227
 101.6318399  39.5403423  76.7299521 102.4205258  38.5713915  78.4820093
 103.2398147  39.0657994  78.5054930 102.6942065  37.6545884  78.4537661
 112.1771854  30.9624668  67.8448049 111.2897709  31.2474318  67.6268243
 112.5925843  30.8018431  66.9975325 115.5286390  30.9871189  71.5602388
 116.3046780  31.4767641  71.8327005 114.8034524  31.4129243  72.0174257
 100.1856104  45.5432419  72.9319493 100.0510572  44.7832820  72.3657491
  99.7688167  46.2673319  72.4648282 111.3215067  40.7269342  61.9396069
 112.0250917  40.9319345  62.5553724 110.5977716  41.2946104  62.2045152
 112.1512878  36.4779204  68.0598339 112.0948079  36.9347755  67.2205971
 112.7041220  35.7169888  67.8821181 115.9617683  32.2668936  68.8848458
 115.7054618  31.8665571  69.7156666 115.3370551  32.9812730  68.7598597
 103.3425230  46.4401736  73.1437936 103.2257614  47.3847168  73.0416626
 102.5217676  46.1375297  73.5323735 113.2301765  41.1651872  63.9894529
 114.0647369  40.7333070  63.8072003 113.0686108  40.9933885  64.9171423
 112.8847657  37.6683985  65.3550868 112.8296461  37.5028256  64.4139312
 112.2593712  38.3760018  65.5113058  97.6740172  32.9052049  79.1812290
  98.3199035  32.3951003  79.6699515  97.4657323  33.6420731  79.7555715
 110.1993564  39.9732897  84.6804431 111.0684724  40.1473549  84.3191066
 109.7200316  40.7927314  84.5580160 106.1943782  27.1692094  64.9336186
 106.1822452  28.1133934  65.0904457 107.0867204  26.9862239  64.6395647
 104.3679744  47.0929998  76.3593864 105.2706991  47.1253608  76.6760359
 104.1417114  46.1630449  76.3740200 106.1233346  45.8460984  73.0203943
 105.1728977  45.8462846  72.9068315 106.4265832  45.0993719  72.5039978
 110.0095902  23.7634871  69.1882123 109.2428298  23.2093357  69.3338805
 110.4206607  23.8356739  70.0496275 102.0137663  30.0519666  83.2787304
 102.8769124  29.6956471  83.4890629 101.4403073  29.7133561  83.9662709
 114.5262562  53.4884427  70.0108121 113.9627427  53.3974364  69.2424409
 114.4114957  52.6684332  70.4910613 112.0726994  54.9835619  72.8492341
 112.8648286  54.6426444  72.4338641 112.3123644  55.0930594  73.7694495
 114.0317748  54.2444532  65.7209720 114.8048624  53.6973519  65.5822596
 114.3843146  55.1088781  65.9324182 115.8702790  55.5720914  78.9276620
 115.5792656  56.4766545  78.8123286 116.5059775  55.6137442  79.6420689
 116.7958997  52.9497763  75.5177979 117.3922569  52.7253785  74.8034942
 116.8533969  52.2082508  76.1203427 116.3684025  50.4037198  63.3528170
 116.6209546  49.8818720  62.5911633 115.4308585  50.2403344  63.4554854
 116.0880314  52.3065304  65.5552545 115.9716572  51.6310208  66.2233629
 116.1982574  51.8197678  64.7384698 118.0717342  46.7965351  64.2560583
 118.2391744  47.6645587  64.6231054 117.8814511  46.9592633  63.3321872
 114.2805157  51.7096127  71.9563118 113.3555653  51.5772341  72.1640809
 114.5289570  52.4890346  72.4533060 118.0506563  49.2523009  65.2407250
 117.9306188  49.6980059  66.0792730 117.3559151  49.6008326  64.6820788
 111.6413968  51.3529400  72.7906907 111.7706349  51.6063879  73.7046318
 110.9611419  51.9457108  72.4711562 115.8113455  62.0226650  68.8897381
 115.7337485  62.9734475  68.9685861 115.2075099  61.6772523  69.5472307
 116.5577057  52.0039969  81.1076715 117.2991742  52.5425013  80.8311538
 115.8514043  52.6306258  81.2648267 114.8013254  53.9916190  73.6631014
 115.3714611  54.4203458  73.0248498 115.3921366  53.7098774  74.3615199
 116.8458059  50.5667861  67.5340815 117.5482103  51.0188904  68.0014742
 116.5138688  49.9251679  68.1620709 115.2938421  49.1579617  81.9092025
 114.6637081  49.8395898  82.1427422 115.1874509  49.0462699  80.9645163
 110.5883393  48.8251413  72.8357949 109.7982447  49.0808942  72.3598060
 111.0794641  49.6399751  72.9409990 112.5398139  49.1895993  69.7941426
 111.7429302  49.3014687  70.3124921 112.3123731  49.5282645  68.9282316
 108.8721096  49.0781904  75.2672940 109.1229135  49.9628914  75.5330516
 109.4080645  48.8986505  74.4948032 114.5719164  43.4600383  84.2717276
 114.1786109  42.9066582  84.9464920 115.3885304  43.7710962  84.6623793
 111.5381221  54.8984241  68.1830846 112.0505742  55.6927492  68.3336410
 112.1903934  54.2010532  68.1164447 113.3476106  58.0149998  70.2653599
 113.5242734  58.9367962  70.0774583 114.1432940  57.7008417  70.6947979
 117.4887125  44.8758262  81.8637532 118.2296838  45.4765415  81.7841995
 117.7205047  44.1335900  81.3055575 112.6328463  50.0614629  80.1415762
 112.5181978  49.1599887  80.4422861 111.7772980  50.3078326  79.7900579
 114.4707422  59.5328171  76.2663941 115.0214847  59.4045235  75.4940935
 113.6318897  59.8323060  75.9158834 109.5030138  53.2272896  68.9590416
 110.3405360  53.6369904  68.7424124 109.6808406  52.2872338  68.9290610
 116.7583714  43.3582750  73.1117229 117.6236711  43.1625559  72.7523119
 116.8261223  43.1293102  74.0386586 114.3646033  45.5884958  70.4833596
 114.9389785  45.3660139  69.7506789 114.9517015  45.6573652  71.2362197
 114.6915620  47.6189419  64.5029481 113.8552932  47.9564105  64.8238756
 114.5520390  47.4838399  63.5656618 116.6668701  42.4626207  69.2108665
 116.0133113  42.1475224  68.5865280 116.6249175  41.8401947  69.9368488
 109.5256309  50.5663611  69.6301150 109.3280709  49.9732972  68.9052216
 108.9702973  50.2615821  70.3477088 117.5053033  50.4586717  71.7495743
 117.5601643  49.5060554  71.6738219 116.6944235  50.6146156  72.2337041
 115.4445393  49.0763777  69.5086122 114.6313258  49.3757948  69.9151314
 115.9404387  48.6819466  70.2260604 114.9359468  46.6482133  75.1247357
 115.5758847  46.5070892  74.4270320 114.1036998  46.3616646  74.7485959
 115.7119772  55.9484563  71.2382349 116.5060370  55.4534883  71.0364924
 115.0011464  55.4202426  70.8750055 112.0202535  50.0927645  67.3142102
 111.0900123  50.0312100  67.5312064 112.1160007  49.5703598  66.5178743
 111.9388084  46.6182458  69.9020343 112.1994901  47.5327791  69.7929504
 112.7605256  46.1506900  70.0516956 113.4113009  48.0320215  77.0719168
 114.0836063  47.8237577  76.4231817 112.5842796  47.8342301  76.6324400
 113.8140507  51.3062818  77.8321605 113.6760305  50.5743057  78.4333144
 114.7245430  51.2171718  77.5505793 116.4422807  51.0182777  77.3205285
 117.1522426  50.3775969  77.2791903 116.3992115  51.2695672  78.2431466
 115.1551741  48.0047995  79.1400924 114.6189098  47.5538733  79.7922521
 114.5668450  48.1393904  78.3971389 113.4500285  64.7712044  73.0345583
 113.6896883  65.4030568  73.7124601 112.6069481  64.4200084  73.3210942
 114.5654000  47.4636646  61.7027388 113.6883467  47.3425447  61.3389635
 115.0411753  46.6722725  61.4506277 106.0856140  52.2513806  71.7968895
 106.7727180  51.9375536  71.2089910 105.9304269  53.1555171  71.5236147
 110.8890862  47.1404003  76.2253919 110.8049051  46.5329672  75.4904329
 110.0673569  47.6313021  76.2263415 117.9628147  60.5791167  75.4387087
 117.8898318  61.3846138  75.9506391 117.5205540  60.7783133  74.6135108
 117.6449545  47.7674949  71.3195798 117.2747333  47.2145990  72.0076704
 118.1408638  47.1633083  70.7670798 115.4738744  58.2272444  78.4150816
 116.1748203  58.8608927  78.5680211 115.0033859  58.5687176  77.6546456
 111.0706462  57.7608799  75.3481919 111.6559899  57.0152487  75.4809823
 110.8731300  58.0712756  76.2318583 113.9245117  60.7960047  70.3644361
 113.2555492  61.2806174  69.8808401 113.7857987  61.0429267  71.2787740
 105.6624116  50.3314399  74.0686362 105.7008216  49.7977990  74.8623480
 105.1564409  49.8049605  73.4497339 113.0414879  45.1778940  77.5648905
 113.1056205  46.0393771  77.1526302 112.9781999  44.5652942  76.8321263
 112.5167151  47.2502073  81.2121939 113.1439190  46.8679150  81.8259463
 111.6595070  47.0316274  81.5777631 109.2932694  49.0578502  67.1440294
 109.5886135  48.1489180  67.0907347 108.3920730  49.0366241  66.8221296
 112.8226941  47.1334498  73.1267842 112.1013527  47.7470466  72.9875316
 113.6120197  47.6692263  73.0484488 115.6253255  44.4688925  79.4008494
 116.1487656  44.7151221  80.1634803 115.4065588  45.3008960  78.9811631
 111.0220536  46.7392599  67.2679619 110.6933242  45.8589978  67.0854725
 111.3759906  46.6840268  68.1556008 114.1362359  47.0265569  67.6355096
 114.4758431  47.5551490  66.9133705 114.5834479  47.3645975  68.4113663
 116.8305800  45.4102620  77.0858164 116.4902620  44.6110433  77.4878844
 116.1244806  45.7104331  76.5134998 116.1230506  45.5240191  65.8348389
 116.8438868  45.9021443  65.3312106 115.4995810  46.2429067  65.9383367
 115.0060850  49.1871053  73.3477466 114.8605431  49.5011356  74.2401748
 114.5286054  49.8055953  72.7948365 116.8657233  46.1773601  73.3958356
 116.8518802  45.2814694  73.0590654 117.5829661  46.1844265  74.0296642
 109.4806512  51.7276397  76.2865127 108.9359980  52.5036205  76.4185402
 110.3585862  52.0747202  76.1284249 116.2694129  45.0587981  68.6645926
 116.3910040  44.1304627  68.8636813 115.9796171  45.0726667  67.7524241
 110.2672534  50.8546294  79.1795284 109.5254270  51.0028929  79.7659915
 109.9465279  51.1154559  78.3162034 110.7129148  58.7411722  71.2105679
 111.5387168  58.4415494  70.8304322 110.3623200  57.9719345  71.6595467
 115.6810681  58.0938190  73.2803352 115.0590690  57.4308895  72.9805580
 116.3515548  58.1199322  72.5977000 108.9137753  56.6598049  72.1694612
 108.0769661  56.2320223  71.9878614 108.8861398  56.8530492  73.1065404
 115.7535209  46.5719978  82.8735858 115.8023364  47.4482101  82.4913628
 116.2957723  46.0297372  82.3007502 115.2424188  56.6442114  66.7561813
 115.3912308  57.3277578  66.1028486 116.0490631  56.6247204  67.2711269
 117.9834497  47.3251351  79.6282217 117.1137806  47.6184917  79.3564806
 118.2193977  47.9091796  80.3489481 112.9976821  52.6707291  67.7622882
 112.7522863  51.7669621  67.9603092 113.1672736  52.6724442  66.8202360
 112.2672468  48.4035649  65.2609043 111.5741713  48.4780004  64.6049079
 112.0224220  47.6395993  65.7830560 117.3109309  48.4001033  61.5044498
 116.4040765  48.1034146  61.5807212 117.5885290  48.1030851  60.6378784
 108.2287250  49.7207397  71.9543544 107.9090034  48.8672705  71.6617918
 107.6820678  49.9355975  72.7101512 112.0067157  52.4369838  75.6713051
 112.2253167  53.3686946  75.6901085 112.4192931  52.0777812  76.4567855
 116.8795022  48.0103044  85.0615800 116.7791749  48.9597401  84.9927891
 116.6616564  47.6821282  84.1891870 116.0808094  45.2587969  61.6456477
 116.9427258  45.5842867  61.9052295 116.2658438  44.4719465  61.1329543
 108.0975510  53.3410308  73.9236666 107.4038981  52.9264261  73.4106620
 108.8448501  53.3830845  73.3270085 116.7426292  51.4400182  83.8780862
 116.2593374  52.2400543  84.0844751 116.8287232  51.4508127  82.9248306
 110.0112252  53.2728562  71.8002681 109.9882940  53.3716249  70.8484564
 110.3212889  54.1193713  72.1219847 112.6699630  55.3304717  75.9149295
 113.6242883  55.2988659  75.8479227 112.4712154  54.8695341  76.7299521
 113.2599012  53.9005833  78.4820093 114.0791901  54.3949912  78.5054930
 113.5335820  52.9837801  78.4537661 111.0249859  60.8724337  72.9319493
 110.8904327  60.1124737  72.3657491 110.6081921  61.5965236  72.4648282
 114.1818985  61.7693654  73.1437936 114.0651369  62.7139086  73.0416626
 113.3611431  61.4667215  73.5323735 108.5133926  48.2343967  79.1812290
 109.1592790  47.7242921  79.6699515 108.3051077  48.9712649  79.7555715
 117.0337537  42.4984012  64.9336186 117.0216207  43.4425852  65.0904457
 117.9260959  42.3154157  64.6395647 115.2073499  62.4221916  76.3593864
 116.1100745  62.4545526  76.6760359 114.9810869  61.4922366  76.3740200
 116.9627101  61.1752902  73.0203943 116.0122732  61.1754764  72.9068315
 117.2659587  60.4285637  72.5039978 112.8531417  45.3811584  83.2787304
 113.7162879  45.0248389  83.4890629 112.2796828  45.0425479  83.9662709
 116.9249895  67.5805724  71.7968895 117.6120935  67.2667454  71.2089910
 116.7698024  68.4847088  71.5236147 116.5017871  65.6606317  74.0686362
 116.5401970  65.1269908  74.8623480 115.9958164  65.1341523  73.4497339
  91.7712777  11.1190332  59.7590890  92.0109375  11.7508856  60.4369908
  90.9281974  10.7678372  60.0456249 103.6868808  15.1654632  56.7353428
 103.1233674  15.0744569  55.9669715 103.5721204  14.3454537  57.2155920
 101.2333240  16.6605824  59.5737648 102.0254532  16.3196648  59.1583947
 101.4729891  16.7700799  60.4939801 109.2668367  18.8325600  52.0467893
 108.6156347  19.4179680  51.6601906 110.0612730  19.3631795  52.1062930
 103.1923994  15.9214737  52.4455027 103.9654870  15.3743724  52.3067903
 103.5449393  16.7858986  52.6569488 105.0309037  17.2491119  65.6521926
 104.7398903  18.1536750  65.5368592 105.6666021  17.2907647  66.3665996
 105.9565244  14.6267968  62.2423286 106.5528816  14.4023990  61.5280249
 106.0140215  13.8852713  62.8448734 110.7443632  16.5216032  52.5836877
 110.1089465  16.5950658  53.2957781 110.4141039  17.1109631  51.9055956
 105.2486561  13.9835509  52.2797852 105.1322819  13.3080413  52.9478936
 105.3588821  13.4967883  51.4630005 109.9898922  16.9352535  62.6471720
 109.6899645  17.8377574  62.5387527 109.6449982  16.6684718  63.4992873
 103.4411403  13.3866332  58.6808424 102.5161900  13.2542546  58.8886116
 103.6895817  14.1660551  59.1778367 100.8020215  13.0299605  59.5152213
 100.9312596  13.2834084  60.4291625 100.1217666  13.6227313  59.1956868
 104.9719702  23.6996855  55.6142688 104.8943732  24.6504680  55.6931168
 104.3681345  23.3542728  56.2717614 105.7183304  13.6810174  67.8322021
 106.4597988  14.2195218  67.5556845 105.0120289  14.3076463  67.9893573
 111.5167458  16.3840505  60.1846472 110.8876321  16.5486219  59.4822540
 111.1293120  16.7982115  60.9557436 115.3956690  17.3194943  57.5390836
 114.7107728  17.6993844  56.9887869 115.4800539  17.9290270  58.2722783
 107.0695420  16.1214913  57.4496557 107.5333766  16.4002616  56.6601179
 106.8052218  15.2198358  57.2669648 103.9619501  15.6686395  60.3876320
 104.5320858  16.0973663  59.7493805 104.5527613  15.3868979  61.0860506
 113.7653450  17.8426857  62.3108536 114.5870893  17.4407045  62.0291218
 113.7615852  17.7395092  63.2624652 107.5310053  17.3910901  64.4669247
 107.5954486  17.8531308  65.3027419 106.8220977  16.7608266  64.5951557
 107.2458071  19.0579008  54.3348227 107.1103746  19.9030544  54.7633075
 107.7867883  19.2598286  53.5714161 100.6987468  16.5754446  54.9076152
 101.2111989  17.3697696  55.0581717 101.3510181  15.8780737  54.8409754
 102.5082353  19.6920202  56.9898906 102.6848981  20.6138167  56.8019889
 103.3039186  19.3778622  57.4193285 108.8726547  19.6802575  68.4648569
 108.4290401  18.8938953  68.1469474 109.5343761  19.8681725  67.7992460
 103.6313668  21.2098376  62.9909248 104.1821093  21.0815440  62.2186242
 102.7925144  21.5093265  62.6404141 110.9707785  19.9605375  66.4929971
 110.9526261  20.7814256  66.0010240 111.8927705  19.8359450  66.7180112
 107.4280839  17.4749504  67.3353479 107.9609176  16.7137792  67.1052787
 106.8994920  17.1823156  68.0777633  98.6636385  14.9043100  55.6835723
  99.5011607  15.3140109  55.4669431  98.8414653  13.9642543  55.6535917
 108.7933552  16.6035497  54.8472291 108.2654914  15.8688256  54.5345528
 108.2921055  17.3810173  54.6012259 109.8454231  23.1313214  50.7703950
 109.1715930  23.4344911  51.3788908 110.2320053  23.9342294  50.4209407
 108.1174386  14.5228302  52.3731254 107.2085605  14.2387334  52.4703724
 108.1469469  14.9427380  51.5134561 113.3493653  18.1334891  56.1422422
 112.8955980  17.2925801  56.1987612 112.7187620  18.7696290  56.4797202
 111.7926592  19.9711388  57.0772240 112.0849567  20.5316445  56.3584605
 112.3025213  20.2639949  57.8325399  98.6862556  12.2433816  56.3546456
  98.4886956  11.6503177  55.6297523  98.1309220  11.9386026  57.0722395
 107.8150473  16.0637045  49.7119333 107.3769903  15.3472904  49.2524970
 108.5560914  16.2913160  49.1504424 106.7560218  20.7491739  58.1665693
 106.7136396  20.9752585  57.2374225 107.6722916  20.5155114  58.3151494
 104.8726018  17.6254768  57.9627656 105.6666617  17.1305088  57.7610231
 104.1617711  17.0972631  57.5995361 109.6920863  20.0072863  62.3140023
 109.7457885  20.5763800  63.0817739 108.8235644  20.1774749  61.9494061
 111.8823626  16.6001213  68.8880689 111.7309133  16.3711764  67.9710772
 111.8728306  17.5571814  68.9012034 107.4497294  18.1983790  61.6425493
 107.3108380  17.8302574  62.5151431 106.6611891  18.7131429  61.4709451
 108.0445446  23.2992886  52.9851029 108.2197202  22.8280930  53.7996652
 107.3578234  23.9258653  53.2132290 109.0002509  17.5765393  59.0314331
 108.6652342  17.5366163  59.9271981 108.5006455  16.9110109  58.5584741
 113.5915833  19.6320335  66.9657171 113.5328379  18.9479555  66.2987754
 113.9935351  20.3739325  66.5137797 102.6106532  26.4482249  59.7590890
 102.8503130  27.0800773  60.4369908 101.7675728  26.0970289  60.0456249
 113.5933240  17.5959919  65.1971150 112.7060019  17.2585841  65.3197549
 114.1631791  16.8642951  65.4339916  95.2462387  13.9284011  58.5214202
  95.9333427  13.6145741  57.9335217  95.0910516  14.8325376  58.2481453
 107.1234393  22.2561372  62.1632394 107.0504565  23.0616343  62.6751698
 106.6811787  22.4553337  61.3380415 106.9124173  21.4933142  55.6735215
 106.1291695  22.0354822  55.7673440 107.6116918  22.0107121  56.0729456
 109.5833077  22.1548206  64.3190552 110.2961049  22.7895670  64.2466454
 109.0923106  22.2512072  63.5030554 104.6344990  19.9042649  65.1396123
 105.3354450  20.5379132  65.2925517 104.1640105  20.2457381  64.3791762
 112.7599386  18.2460599  53.4244030 113.0359230  18.1317193  54.3337904
 111.8903885  17.8478084  53.3856203 109.3953450  22.4946950  57.0676844
 109.5775845  21.6768606  57.5304596 110.2186436  22.7114642  56.6301734
 109.7295616  21.4215135  54.3291892 110.2583382  20.9107589  53.7162054
 109.9923835  21.1057665  55.1937425 100.2312709  19.4379004  62.0727226
 100.8166145  18.6922692  62.2055130 100.0337547  19.7482961  62.9563890
 103.0851364  22.4730252  57.0889668 102.4161739  22.9576379  56.6053708
 102.9464233  22.7199472  58.0033047  94.8230363  12.0084604  60.7931669
  94.8614463  11.4748195  61.5868787  94.3170656  11.4819810  60.1742646
 107.2256632  24.5073995  63.6872326 107.7774940  24.6705617  64.4521412
 107.5662826  25.0978433  63.0152351 112.0767507  19.3335253  69.5420981
 112.6207411  19.9465211  69.0475936 111.4954351  19.8914831  70.0587994
 110.3625020  22.4555971  60.6736009 110.2376159  21.6545710  60.1646954
 111.0204111  22.9502164  60.1849979 112.4259928  20.2564991  62.3015559
 111.4790264  20.1370342  62.2293885 112.7742701  19.3687489  62.3841820
 109.4306361  20.0517707  58.5019911 109.2831324  19.1234414  58.6827481
 110.2559855  20.0737798  58.0176986 113.0340483  20.8746266  59.5884784
 113.9587031  20.6689127  59.4509235 112.8655787  20.6262667  60.4974125
 112.8235799  21.3931933  54.9446875 112.9972677  20.8278356  54.1920728
 113.3164691  22.1932828  54.7626365  98.6412759  13.4046602  63.0110434
  98.0966227  14.1806410  63.1430708  99.5192109  13.7517407  62.8529555
 113.8110972  20.7098697  52.0443773 114.5061876  21.3305390  52.2631088
 114.1534122  19.8594049  52.3196151  99.4278781  12.5316498  65.9040591
  98.6860517  12.6799134  66.4905221  99.1071525  12.7924764  65.0407340
 115.7102395  18.1598403  53.5731104 116.2353719  18.4985676  52.8480424
 115.6224748  17.2245418  53.3894239 107.3722444  22.0732477  65.7020981
 107.6809570  21.8281623  66.5743680 108.1697926  22.2779115  65.2139851
 107.3943056  24.2270386  57.9326357 106.9548046  23.7346765  58.6259214
 108.1451173  23.6843354  57.6918433  99.8735395  20.4181927  57.9350985
 100.6993415  20.1185699  57.5549629  99.5229447  19.6489550  58.3840774
 104.8416928  19.7708395  60.0048659 104.2196937  19.1079100  59.7050887
 105.5121795  19.7969527  59.3222307  98.0744000  18.3368254  58.8939919
  97.2375908  17.9090428  58.7123920  98.0467645  18.5300697  59.8310710
 115.3996301  18.7931307  68.8782302 114.6091845  18.7755446  68.3386802
 115.1629656  19.3319600  69.6331339 104.4030435  18.3212319  53.4807120
 104.5518555  19.0047783  52.8273792 105.2096878  18.3017409  53.9956575
 117.0212373  18.0620715  66.4357052 116.7297181  18.4250695  67.2720513
 116.4084504  17.3487723  66.2570384 102.1583068  14.3477496  54.4868188
 101.9129110  13.4439826  54.6848399 102.3278982  14.3494647  53.5447666
 107.9025840  20.8160449  50.9518867 107.3299807  21.4350636  50.4989339
 108.4758634  21.3659811  51.4858789 111.1223100  21.0997599  52.0827449
 112.0553773  21.0343161  52.2860325 111.0346313  21.9353866  51.6241982
 113.7511117  20.4163470  49.0431397 113.6724748  20.0823333  49.9367155
 114.5720784  20.9085238  49.0422869 108.1711331  16.2039008  69.7535576
 109.0914341  16.3817607  69.9475623 108.1360914  15.2595053  69.6015276
  97.3893496  11.3977602  58.6788851  97.0696281  10.5442910  58.3863225
  96.8426925  11.6126180  59.4346818 101.1673404  14.1140043  62.3958358
 101.3859414  15.0457151  62.4146391 101.5799178  13.7548017  63.1813161
  97.2581756  15.0180513  60.6481973  96.5645228  14.6034466  60.1351927
  98.0054747  15.0601050  60.0515392  99.1718499  14.9498767  58.5247988
  99.1489187  15.0486454  57.5729871  99.4819135  15.7963918  58.8465154
 101.8305877  17.0074922  62.6394602 102.7849130  16.9758864  62.5724534
 101.6318400  16.5465546  63.4544828 102.4205259  15.5776038  65.2065400
 103.2398148  16.0720117  65.2300237 102.6942067  14.6608006  65.1782967
 100.1856106  22.5494542  59.6564800 100.0510573  21.7894942  59.0902798
  99.7688168  23.2735441  59.1893589 111.3215069  17.7331465  48.6641375
 112.0250919  17.9381468  49.2799031 110.5977717  18.3008227  48.9290459
 103.3425231  23.4463859  59.8683243 103.2257616  24.3909291  59.7661933
 102.5217678  23.1437420  60.2569042 113.2301766  18.1713994  50.7139835
 114.0647370  17.7395193  50.5317310 113.0686109  17.9996008  51.6416730
 110.1993565  16.9795019  71.4049737 111.0684725  17.1535672  71.0436372
 109.7200317  17.7989436  71.2825467 104.3679746  24.0992120  63.0839171
 105.2706992  24.1315731  63.4005666 104.1417116  23.1692571  63.0985507
 106.1233348  22.8523107  59.7449250 105.1728979  22.8524969  59.6313622
 106.4265834  22.1055842  59.2285284 114.5262563  30.4946550  56.7353428
 113.9627428  30.4036487  55.9669715 114.4114958  29.6746454  57.2155920
 112.0726995  31.9897741  59.5737648 112.8648287  31.6488566  59.1583947
 112.3123645  32.0992717  60.4939801 114.0317749  31.2506655  52.4455027
 114.8048625  30.7035642  52.3067903 114.3843148  32.1150904  52.6569488
 115.8702791  32.5783037  65.6521926 115.5792657  33.4828668  65.5368592
 116.5059776  32.6199565  66.3665996 116.7958998  29.9559886  62.2423286
 117.3922571  29.7315908  61.5280249 116.8533970  29.2144631  62.8448734
 116.3684027  27.4099321  50.0773477 116.6209547  26.8880842  49.3156940
 115.4308586  27.2465466  50.1800160 116.0880315  29.3127427  52.2797852
 115.9716574  28.6372330  52.9478936 116.1982575  28.8259801  51.4630005
 118.0717343  23.8027474  50.9805889 118.2391746  24.6707710  51.3476361
 117.8814512  23.9654755  50.0567179 114.2805158  28.7158249  58.6808424
 113.3555654  28.5834463  58.8886116 114.5289571  29.4952469  59.1778367
 118.0506564  26.2585131  51.9652556 117.9306189  26.7042182  52.8038037
 117.3559153  26.6070449  51.4066094 111.6413969  28.3591523  59.5152213
 111.7706350  28.6126002  60.4291625 110.9611420  28.9519231  59.1956868
 115.8113456  39.0288773  55.6142688 115.7337486  39.9796598  55.6931168
 115.2075100  38.6834645  56.2717614 116.5577058  29.0102092  67.8322021
 117.2991743  29.5487136  67.5556845 115.8514044  29.6368380  67.9893573
 114.8013256  30.9978312  60.3876320 115.3714613  31.4265581  59.7493805
 115.3921367  30.7160897  61.0860506 116.8458061  27.5729983  54.2586122
 117.5482104  28.0251027  54.7260048 116.5138689  26.9313802  54.8866015
 115.2938422  26.1641740  68.6337331 114.6637083  26.8458021  68.8672728
 115.1874510  26.0524821  67.6890470 110.5883395  25.8313536  59.5603256
 109.7982449  26.0871064  59.0843366 111.0794642  26.6461874  59.6655296
 112.5398140  26.1958115  56.5186732 111.7429303  26.3076809  57.0370228
 112.3123732  26.5344767  55.6527623 108.8721098  26.0844026  61.9918246
 109.1229136  26.9691036  62.2575822 109.4080646  25.9048628  61.2193338
 114.5719165  20.4662506  70.9962582 114.1786110  19.9128704  71.6710227
 115.3885305  20.7773084  71.3869100 111.5381223  31.9046364  54.9076152
 112.0505743  32.6989614  55.0581717 112.1903935  31.2072654  54.8409754
 113.3476107  35.0212120  56.9898906 113.5242736  35.9430085  56.8019889
 114.1432941  34.7070539  57.4193285 117.4887126  21.8820385  68.5882839
 118.2296839  22.4827538  68.5087302 117.7205049  21.1398023  68.0300882
 112.6328464  27.0676752  66.8661069 112.5181979  26.1662009  67.1668168
 111.7772982  27.3140449  66.5145885 114.4707423  36.5390294  62.9909248
 115.0214848  36.4107357  62.2186242 113.6318899  36.8385183  62.6404141
 109.5030139  30.2335018  55.6835723 110.3405361  30.6432027  55.4669431
 109.6808407  29.2934460  55.6535917 116.7583715  20.3644873  59.8362536
 117.6236712  20.1687681  59.4768425 116.8261224  20.1355224  60.7631892
 114.3646034  22.5947081  57.2078903 114.9389786  22.3722262  56.4752095
 114.9517017  22.6635775  57.9607504 114.6915621  24.6251542  51.2274788
 113.8552934  24.9626228  51.5484063 114.5520391  24.4900521  50.2901925
 116.6668702  19.4688329  55.9353972 116.0133114  19.1537347  55.3110587
 116.6249176  18.8464070  56.6613795 109.5256311  27.5725733  56.3546456
 109.3280710  26.9795094  55.6297523 108.9702975  27.2677944  57.0722395
 117.5053034  27.4648840  58.4741049 117.5601644  26.5122676  58.3983526
 116.6944236  27.6208279  58.9582348 115.4445394  26.0825900  56.2331428
 114.6313260  26.3820070  56.6396620 115.9404388  25.6881588  56.9505911
 114.9359469  23.6544255  61.8492663 115.5758848  23.5133014  61.1515627
 114.1036999  23.3678769  61.4731265 115.7119773  32.9546686  57.9627656
 116.5060371  32.4597006  57.7610231 115.0011465  32.4264549  57.5995361
 112.0202536  27.0989767  54.0387408 111.0900124  27.0374223  54.2557371
 112.1160008  26.5765720  53.2424050 111.9388085  23.6244580  56.6265650
 112.1994903  24.5389913  56.5174811 112.7605258  23.1569023  56.7762263
 113.4113011  25.0382337  63.7964475 114.0836064  24.8299700  63.1477124
 112.5842797  24.8404423  63.3569707 113.8140508  28.3124940  64.5566912
 113.6760306  27.5805179  65.1578451 114.7245431  28.2233840  64.2751100
 116.4422809  28.0244900  64.0450591 117.1522427  27.3838092  64.0037210
 116.3992117  28.2757795  64.9676772 115.1551743  25.0110118  65.8646231
 114.6189100  24.5600856  66.5167827 114.5668451  25.1456026  65.1216695
 113.4500286  41.7774167  59.7590890 113.6896884  42.4092691  60.4369908
 112.6069483  41.4262207  60.0456249 114.5654001  24.4698769  48.4272695
 113.6883468  24.3487570  48.0634941 115.0411755  23.6784847  48.1751583
 106.0856142  29.2575929  58.5214202 106.7727181  28.9437659  57.9335217
 105.9304270  30.1617293  58.2481453 110.8890864  24.1466125  62.9499225
 110.8049052  23.5391795  62.2149635 110.0673570  24.6375144  62.9508722
 117.9628148  37.5853289  62.1632394 117.8898319  38.3908261  62.6751698
 117.5205541  37.7845255  61.3380415 117.6449546  24.7737072  58.0441105
 117.2747334  24.2208112  58.7322011 118.1408639  24.1695205  57.4916105
 115.4738745  35.2334567  65.1396123 116.1748204  35.8671050  65.2925517
 115.0033860  35.5749298  64.3791762 111.0706463  34.7670922  62.0727226
 111.6559900  34.0214610  62.2055130 110.8731301  35.0774879  62.9563890
 113.9245118  37.8022169  57.0889668 113.2555493  38.2868297  56.6053708
 113.7857988  38.0491390  58.0033047 105.6624118  27.3376522  60.7931669
 105.7008217  26.8040113  61.5868787 105.1564411  26.8111728  60.1742646
 113.0414880  22.1841063  64.2894211 113.1056207  23.0455893  63.8771609
 112.9782000  21.5715064  63.5566570 112.5167153  24.2564195  67.9367245
 113.1439191  23.8741272  68.5504770 111.6595071  24.0378397  68.3022938
 109.2932695  26.0640624  53.8685600 109.5886136  25.1551303  53.8152654
 108.3920731  26.0428364  53.5466603 112.8226942  24.1396621  59.8513149
 112.1013528  24.7532588  59.7120622 113.6120198  24.6754386  59.7729795
 115.6253256  21.4751047  66.1253801 116.1487658  21.7213344  66.8880110
 115.4065589  22.3071082  65.7056938 111.0220537  23.7454722  53.9924925
 110.6933243  22.8652101  53.8100031 111.3759908  23.6902391  54.8801315
 114.1362360  24.0327692  54.3600403 114.4758433  24.5613613  53.6379011
 114.5834481  24.3708098  55.1358970 116.8305801  22.4164742  63.8103471
 116.4902621  21.6172555  64.2124151 116.1244807  22.7166453  63.2380304
 116.1230507  22.5302313  52.5593696 116.8438870  22.9083566  52.0557413
 115.4995811  23.2491190  52.6628674 115.0060851  26.1933175  60.0722773
 114.8605432  26.5073479  60.9647054 114.5286055  26.8118076  59.5193671
 116.8657234  23.1835723  60.1203662 116.8518803  22.2876817  59.7835960
 117.5829662  23.1906387  60.7541948 109.4806514  28.7338520  63.0110434
 108.9359982  29.5098328  63.1430708 110.3585863  29.0809324  62.8529555
 116.2694130  22.0650104  55.3891232 116.3910041  21.1366750  55.5882120
 115.9796173  22.0788790  54.4769548 110.2672535  27.8608416  65.9040591
 109.5254272  28.0091051  66.4905221 109.9465280  28.1216682  65.0407340
 110.7129149  35.7473845  57.9350985 111.5387169  35.4477617  57.5549629
 110.3623201  34.9781467  58.3840774 115.6810682  35.1000313  60.0048659
 115.0590692  34.4371018  59.7050887 116.3515549  35.1261445  59.3222307
 108.9137754  33.6660171  58.8939919 108.0769663  33.2382346  58.7123920
 108.8861400  33.8592615  59.8310710 115.7535210  23.5782101  69.5981165
 115.8023365  24.4544224  69.2158935 116.2957724  23.0359494  69.0252808
 115.2424189  33.6504236  53.4807120 115.3912310  34.3339701  52.8273792
 116.0490633  33.6309326  53.9956575 117.9834498  24.3313473  66.3527524
 117.1137808  24.6247040  66.0810112 118.2193979  24.9153918  67.0734787
 112.9976822  29.6769414  54.4868188 112.7522864  28.7731744  54.6848399
 113.1672737  29.6786564  53.5447666 112.2672470  25.4097772  51.9854350
 111.5741715  25.4842127  51.3294386 112.0224222  24.6458115  52.5075867
 117.3109310  25.4063156  48.2289805 116.4040766  25.1096269  48.3052518
 117.5885291  25.1092974  47.3624091 108.2287251  26.7269519  58.6788851
 107.9090035  25.8734828  58.3863225 107.6820679  26.9418098  59.4346818
 112.0067158  29.4431960  62.3958358 112.2253168  30.3749068  62.4146391
 112.4192932  29.0839935  63.1813161 116.8795024  25.0165166  71.7861107
 116.7791751  25.9659523  71.7173198 116.6616566  24.6883405  70.9137177
 116.0808095  22.2650091  48.3701784 116.9427259  22.5904990  48.6297601
 116.2658439  21.4781587  47.8574850 108.0975511  30.3472431  60.6481973
 107.4038982  29.9326384  60.1351927 108.8448502  30.3892967  60.0515392
 116.7426294  28.4462305  70.6026168 116.2593375  29.2462665  70.8090057
 116.8287233  28.4570250  69.6493612 110.0112253  30.2790685  58.5247988
 109.9882941  30.3778372  57.5729871 110.3212890  31.1255835  58.8465154
 112.6699631  32.3366840  62.6394602 113.6242885  32.3050782  62.5724534
 112.4712155  31.8757463  63.4544828 113.2599013  30.9067956  65.2065400
 114.0791902  31.4012034  65.2300237 113.5335821  29.9899924  65.1782967
 111.0249860  37.8786459  59.6564800 110.8904328  37.1186860  59.0902798
 110.6081922  38.6027359  59.1893589 114.1818986  38.7755776  59.8683243
 114.0651370  39.7201209  59.7661933 113.3611432  38.4729338  60.2569042
 108.5133928  25.2406090  65.9057597 109.1592791  24.7305044  66.3944822
 108.3051079  25.9774771  66.4801022 117.0337538  19.5046134  51.6581493
 117.0216208  20.4487974  51.8149764 117.9260960  19.3216280  51.3640954
 115.2073500  39.4284038  63.0839171 116.1100747  39.4607648  63.4005666
 114.9810870  38.4984489  63.0985507 116.9627102  38.1815025  59.7449250
 116.0122733  38.1816886  59.6313622 117.2659588  37.4347759  59.2285284
 112.8531419  22.3873707  70.0032611 113.7162880  22.0310512  70.2135936
 112.2796829  22.0487602  70.6908015 116.9249896  44.5867846  58.5214202
 117.6120936  44.2729576  57.9335217 116.7698025  45.4909211  58.2481453
 116.5017872  42.6668440  60.7931669 116.5401972  42.1332030  61.5868787
 115.9958165  42.1403645  60.1742646 113.4500287  18.7836289  46.4836196
 113.6896886  19.4154814  47.1615215 112.6069484  18.4324329  46.7701555
 116.9249897  21.5929969  45.2459508 117.6120937  21.2791699  44.6580524
 116.7698026  22.4971334  44.9726760 116.5017873  19.6730562  47.5176975
 116.5401973  19.1394153  48.3114094 115.9958166  19.1465768  46.8987953
  23.1304189  61.4543013 117.1477414  22.4565888  61.7574709 117.7562372
  23.5170011  62.2572093 116.7982871  27.0361075  58.7393268 115.4204861
  26.9574706  58.4053132 116.3140618  27.8570741  59.2315036 115.4196333
  24.6065026  56.0561264 115.0414839  25.3100876  56.2611266 115.6572495
  23.8827675  56.6238026 115.3063922  27.8112521  68.8176349 123.1126891
  27.2477386  68.7266285 122.3443179  27.6964916  67.9976253 123.5929384
  33.3912080  72.4847316 118.4241356  32.7400059  73.0701397 118.0375370
  34.1856442  73.0153511 118.4836394  27.3167707  69.5736453 118.8228491
  28.0898583  69.0265440 118.6841366  27.6693106  70.4380703 119.0342952
  29.6533984  65.7329119 116.4546941  29.9059505  65.2110641 115.6930404
  28.7158544  65.5695265 116.5573624  34.6977267  64.7364898 124.2621684
  35.4840357  64.3184321 123.9112101  34.9615972  65.6410990 124.4303332
  34.8687345  70.1737748 118.9610341  34.2333178  70.2472375 119.6731245
  34.5384751  70.7631347 118.2829420  40.0985694  64.6740131 125.1654662
  40.8310866  64.1039348 125.3992492  39.3425050  64.2861732 125.6061168
  29.3730273  67.6357225 118.6571315  29.2566531  66.9602129 119.3252400
  29.4832533  67.1489599 117.8403469  31.7161814  67.0967373 122.3618005
  31.3520021  66.5697994 123.0730926  32.5728930  66.7065842 122.1884490
  31.3567301  62.1257272 117.3579353  31.5241703  62.9937509 117.7249824
  31.1664470  62.2884554 116.4340642  31.3356522  64.5814930 118.3426020
  31.2156147  65.0271981 119.1811500  30.6409110  64.9300247 117.7839558
  37.0341588  65.0536403 119.1706354  37.9459444  65.2863790 118.9954052
  36.5251235  65.6373447 118.6081433  35.6411170  70.0362221 126.5619936
  35.0120033  70.2007936 125.8596003  35.2536833  70.4503831 127.3330900
  39.5200402  70.9716659 123.9164299  38.8351441  71.3515561 123.3661333
  39.6044252  71.5811986 124.6496247  31.1939132  69.7736629 123.8270021
  31.6577478  70.0524332 123.0374643  30.9295930  68.8720074 123.6443111
  30.1308018  65.8959782 120.6359586  30.8332062  66.3480826 121.1033512
  29.7988647  65.2543601 121.2639479  37.8897162  71.4948574 128.6882000
  38.7114606  71.0928761 128.4064682  37.8859565  71.3916808 129.6398116
  45.9803155  67.8387322 125.0366972  45.2266863  67.2694720 124.8810976
  46.1150696  67.8049987 125.9837606  31.3701783  72.7100724 120.7121691
  31.2347458  73.5552260 121.1406539  31.9111596  72.9120002 119.9487625
  34.6844529  66.2239897 117.7493020  34.1691153  66.9944502 117.9881407
  34.4121838  65.5505034 118.3726081  39.6578803  68.9772252 119.6846193
  38.8808246  68.6383412 119.2401355  40.3370284  68.9824875 119.0101158
  34.4730832  64.0966990 119.5752801  34.1680968  64.4113139 120.4262944
  35.4261275  64.1748409 119.6180134  32.9177264  70.2557213 121.2245755
  32.3898626  69.5209972 120.9118992  32.4164767  71.0331889 120.9785723
  37.8970110  68.4506233 126.3412801  37.2393785  69.1405495 126.4292930
  38.7010510  68.8402665 126.6846787  36.7075569  66.8050606 124.3916743
  37.2207451  67.4380598 124.8938453  37.3576793  66.2051802 124.0260103
  27.9765579  62.9481340 117.6048252  27.1402891  63.2856027 117.9257526
  27.8370349  62.8130320 116.6675389  31.0629864  68.0737423 114.2280728
  30.1556926  67.8426677 114.4271877  31.5600896  67.2775042 114.4154709
  33.9697943  76.7834930 117.1477414  33.2959642  77.0866627 117.7562372
  34.3563765  77.5864011 116.7982871  33.9691448  65.6791477 121.7677764
  34.7163267  66.1912874 121.4584886  34.2383037  65.3575530 122.6282157
  32.2418098  68.1750018 118.7504718  31.3329317  67.8909051 118.8477188
  32.2713182  68.5949097 117.8908025  37.4737365  71.7856607 122.5195885
  37.0199692  70.9447517 122.5761076  36.8431332  72.4218006 122.8570666
  35.9170305  73.6233104 123.4545704  36.2093279  74.1838161 122.7358069
  36.4268925  73.9161665 124.2098863  31.9394186  69.7158762 116.0892796
  31.5013616  68.9994621 115.6298434  32.6804627  69.9434876 115.5277888
  40.0567301  67.9915959 122.1469115  39.9185199  68.1817555 121.2190304
  39.7003519  68.7535342 122.6037166  40.0836680  70.0592486 127.1580387
  40.5173187  69.9667775 128.0063441  40.7968261  70.0349986 126.5200403
  25.3052494  65.4219566 120.4160872  24.3750082  65.3604022 120.6330834
  25.4009966  64.8995519 119.6197513  32.1689159  76.9514603 119.3624493
  32.3440914  76.4802646 120.1770116  31.4821947  77.5780369 119.5905754
  33.1246222  71.2287109 125.4087794  32.7896054  71.1887879 126.3045444
  32.6250167  70.5631825 124.9358205  36.0605413  68.5743143 115.6824854
  35.4434584  67.8489971 115.5857907  35.5921902  69.3352504 115.3391928
  27.8503959  62.7928568 114.8046158  26.9733426  62.6717368 114.4408405
  28.3261712  62.0014646 114.5525047  31.0367885  75.1454858 122.0508679
  30.2535407  75.6876538 122.1446903  31.7360630  75.6628838 122.4502920
  42.1994293  66.6589853 126.3361176  42.1884169  67.5414568 125.9655109
  41.3311672  66.3061404 126.1415713  35.4294316  69.7121175 122.2681308
  34.4950595  69.8322637 122.0986012  35.6070985  68.8093641 122.0041317
  38.8166867  65.5538494 122.8031342  39.2827320  66.3866486 122.7291644
  39.2674368  65.0883476 123.5076600  36.8843099  71.8982315 119.8017494
  37.1602942  71.7838910 120.7111368  36.0147597  71.4999800 119.7629667
  33.5197163  76.1468666 123.4450307  33.7019557  75.3290322 123.9078060
  34.3430149  76.3636358 123.0075197  33.8539328  75.0736851 120.7065356
  34.3827095  74.5629306 120.0935518  34.1167548  74.7579381 121.5710889
  33.5550074  73.7039423 124.8793375  33.4075036  72.7756131 125.0600945
  34.3803567  73.7259514 124.3950450  37.1584195  74.5267982 125.9658247
  38.0830743  74.3210843 125.8282699  36.9899499  74.2784383 126.8747589
  29.4080465  60.8532112 118.9367160  30.1288827  61.2313365 118.4330876
  28.7845769  61.5720989 119.0402138  33.5511588  61.5577261 119.8725492
  33.7675202  62.4401899 119.5714320  33.0705655  61.1663474 119.1431134
  36.9479512  75.0453649 121.3220339  37.1216389  74.4800072 120.5694191
  37.4408403  75.8454544 121.1399829  42.8018903  67.8090072 122.9410639
  43.2450049  67.0597398 122.5429762  41.9245413  67.8000209 122.5584371
  37.9354684  74.3620414 118.4217237  38.6305589  74.9827106 118.6404552
  38.2777834  73.5115765 118.6969615  39.8346107  71.8120119 119.9504568
  40.3597431  72.1507392 119.2253888  39.7468460  70.8767135 119.7667703
  28.5274147  71.9734035 119.8580583  28.6762267  72.6569499 119.2047256
  29.3340590  71.9539125 120.3730039  42.3451767  69.2795311 125.3333086
  43.1798659  69.7185115 125.4970647  42.4810896  68.8033964 124.5141332
  26.2826780  67.9999213 120.8641652  26.0372822  67.0961543 121.0621862
  26.4522695  68.0016363 119.9221130  25.5522428  63.7327570 118.3627814
  24.8591672  63.8071925 117.7067850  25.3074179  62.9687914 118.8849331
  32.0269553  74.4682165 117.3292331  31.4543520  75.0872353 116.8762803
  32.6002346  75.0181527 117.8632253  35.2466812  74.7519316 118.4600913
  36.1797485  74.6864877 118.6633789  35.1590025  75.5875582 118.0015446
  37.8754829  74.0685186 115.4204861  37.7968461  73.7345050 116.3140618
  38.6964496  74.5606954 115.4196333  32.4116351  65.8042978 114.6708383
  33.3575456  65.6749186 114.7396801  32.0330596  65.0657640 115.1477811
  46.3909570  67.9962932 127.7687216  47.1212959  67.7348220 128.3294919
  45.7816516  67.2591654 127.8089284  44.4724867  66.1370795 128.3661667
  43.7458031  66.0026760 127.7578159  44.0572154  66.4447623 129.1718385
  30.5959268  63.7292955 114.6063268  29.6890724  63.4326067 114.6825982
  30.8735249  63.4322773 113.7397555  29.3658053  60.5879890 114.7475248
  30.2277217  60.9134788 115.0071065  29.5508397  59.8011386 114.2348313
  37.5190689  59.4608416 121.8910471  36.9389358  60.1193220 121.5088523
  37.2526622  58.6385761 121.4797888  36.3015567  61.6208507 120.9466819
  35.4141422  61.9058157 120.7287014  36.7169556  61.4602270 120.0994096
  35.4458781  71.3853181 115.0414839  36.1494631  71.5903184 115.6572495
  34.7221430  71.9529943 115.3063922  36.2756591  67.1363043 121.1617109
  36.2191792  67.5931594 120.3224741  36.8284934  66.3753727 120.9839952
  40.0861397  62.9252774 121.9867229  39.8298331  62.5249410 122.8175436
  39.4614265  63.6396568 121.8617368  44.3973735  65.6648848 124.4938520
  43.8373293  65.7342037 125.2670082  43.7917238  65.4889832 123.7738016
  37.3545478  71.8235711 117.0913299  38.1891082  71.3916909 116.9090774
  37.1929821  71.6517724 118.0190193  37.0091370  68.3267824 118.4569638
  36.9540174  68.1612095 117.5158082  36.3837426  69.0343857 118.6131828
  30.3187496  57.8275933 118.0354957  30.3066166  58.7717773 118.1923228
  31.2110918  57.6446078 117.7414418  38.6506275  84.1468266 123.1126891
  38.0871140  84.0558203 122.3443179  38.5358670  83.3268171 123.5929384
  44.2305834  87.8139234 118.4241356  43.5793814  88.3993314 118.0375370
  45.0250197  88.3445429 118.4836394  38.1561461  84.9028371 118.8228491
  38.9292337  84.3557358 118.6841366  38.5086860  85.7672620 119.0342952
  40.4927739  81.0621037 116.4546941  40.7453260  80.5402558 115.6930404
  39.5552298  80.8987183 116.5573624  45.5371022  80.0656816 124.2621684
  46.3234111  79.6476239 123.9112101  45.8009726  80.9702908 124.4303332
  45.7081099  85.5029666 118.9610341  45.0726932  85.5764292 119.6731245
  45.3778506  86.0923265 118.2829420  40.2124028  82.9649143 118.6571315
  40.0960286  82.2894047 119.3252400  40.3226288  82.4781517 117.8403469
  42.5555569  82.4259290 122.3618005  42.1913776  81.8989911 123.0730926
  43.4122685  82.0357759 122.1884490  42.1961056  77.4549190 117.3579353
  42.3635458  78.3229426 117.7249824  42.0058225  77.6176472 116.4340642
  42.1750276  79.9106847 118.3426020  42.0549902  80.3563898 119.1811500
  41.4802865  80.2592165 117.7839558  47.8735343  80.3828321 119.1706354
  48.7853199  80.6155707 118.9954052  47.3644990  80.9665365 118.6081433
  45.2171317  76.5586357 127.4196215  44.3555796  76.8567610 127.7112953
  45.2433752  76.7756755 126.4877248  42.0332887  85.1028547 123.8270021
  42.4971232  85.3816250 123.0374643  41.7689685  84.2011992 123.6443111
  40.9701773  81.2251700 120.6359586  41.6725816  81.6772743 121.1033512
  40.6382401  80.5835518 121.2639479  36.6641852  79.8479831 122.8960196
  35.8673016  79.9598526 123.4143692  36.4367444  80.1866484 122.0301087
  42.2095537  88.0392642 120.7121691  42.0741212  88.8844178 121.1406539
  42.7505350  88.2411920 119.9487625  45.5588001  71.5623204 129.2420584
  45.2152270  72.4524846 129.1659695  45.9266964  71.3724862 128.3790169
  45.5238284  81.5531815 117.7493020  45.0084907  82.3236420 117.9881407
  45.2515592  80.8796951 118.3726081  43.1085395  76.3981516 122.8078258
  42.2526991  76.0088366 122.6283897  43.5212347  76.4773477 121.9478043
  44.6384541  73.9327859 127.2069818  44.1349337  73.8957994 126.3937623
  44.9315148  74.8420602 127.2666474  40.8827427  74.0166589 126.2135999
  41.7480424  73.8209398 125.8541889  40.9504936  73.7876941 127.1405356
  50.4972558  84.3064170 119.6846193  49.7202001  83.9675329 119.2401355
  51.1764039  84.3116793 119.0101158  45.3124587  79.4258907 119.5752801
  45.0074723  79.7405056 120.4262944  46.2655029  79.5040327 119.6180134
  43.7571019  85.5849131 121.2245755  43.2292380  84.8501890 120.9118992
  43.2558522  86.3623807 120.9785723  38.4889746  76.2468797 123.5852366
  39.0633498  76.0243978 122.8525559  39.0760729  76.3157491 124.3380968
  38.8159334  78.2773258 117.6048252  37.9796646  78.6147944 117.9257526
  38.6764103  78.1422238 116.6675389  40.7912414  73.1210046 122.3127436
  40.1376826  72.8059063 121.6884050  40.7492888  72.4985786 123.0387259
  41.9023619  83.4029341 114.2280728  40.9950681  83.1718594 114.4271877
  42.3994651  82.6066960 114.4154709  44.8091698  92.1126848 117.1477414
  44.1353397  92.4158545 117.7562372  45.1957520  92.9155928 116.7982871
  44.8085202  81.0083395 121.7677764  45.5557021  81.5204792 121.4584886
  45.0776792  80.6867448 122.6282157  43.0811852  83.5041936 118.7504718
  42.1723072  83.2200968 118.8477188  43.1106936  83.9241014 117.8908025
  47.2564039  78.0440511 123.7496553  46.5186796  77.5317897 124.0806795
  47.5090813  77.6040893 122.9379830  47.3575667  70.8216763 124.3438322
  47.6634544  69.9614127 124.0564237  48.0828272  71.4134383 124.1437316
  41.6296746  81.1170556 124.8514513  41.6845356  80.1644393 124.7756990
  40.8187948  81.2729995 125.3355812  42.7787940  85.0450679 116.0892796
  42.3407370  84.3286538 115.6298434  43.5198381  85.2726794 115.5277888
  39.5689106  79.7347616 122.6104892  38.7556972  80.0341787 123.0170084
  40.0648101  79.3403305 123.3279374  39.0603181  77.3065972 128.2266127
  39.7002560  77.1654731 127.5289090  38.2280712  77.0200485 127.8504729
  36.1446249  80.7511484 120.4160872  35.2143837  80.6895939 120.6330834
  36.2403721  80.2287436 119.6197513  36.0631798  77.2766297 123.0039114
  36.3238615  78.1911630 122.8948274  36.8848970  76.8090739 123.1535727
  46.8999168  83.9035061 115.6824854  46.2828338  83.1781889 115.5857907
  46.4315656  84.6644421 115.3391928  38.6897714  78.1220485 114.8046158
  37.8127180  78.0009286 114.4408405  39.1655467  77.3306564 114.5525047
  45.1858290  76.2841405 124.6942884  45.6826989  75.5311367 124.3743954
  44.4145271  76.3205722 124.1286094  41.7693259  78.4258788 124.4214569
  41.3991046  77.8729828 125.1095474  42.2652351  77.8216922 123.8689569
  47.6277285  73.2510999 126.8422243  46.7140364  73.4815225 127.0104450
  48.0570386  73.3349443 127.6936275  33.4176408  79.7162341 120.2459064
  33.7129849  78.8073019 120.1926118  32.5164443  79.6950080 119.9240066
  35.1464249  77.3976438 120.3698389  34.8176955  76.5173817 120.1873495
  35.5003620  77.3424107 121.2574778  38.2606072  77.6849408 120.7373867
  38.6002145  78.2135329 120.0152475  38.7078193  78.0229814 121.5132433
  41.6065985  73.1535771 128.6404258  42.4292054  72.6796249 128.5183148
  41.8504049  73.9326255 129.1402944  40.2474219  76.1824030 118.9367160
  40.9682582  76.5605282 118.4330876  39.6239524  76.9012906 119.0402138
  44.3905342  76.8869179 119.8725492  44.6068957  77.7693816 119.5714320
  43.9099410  76.4955392 119.1431134  40.9900947  76.8357440 126.4977126
  40.9762515  75.9398533 126.1609424  41.7073375  76.8428103 127.1315412
  40.3937843  75.7171820 121.7664696  40.5153754  74.7888466 121.9655584
  40.1039885  75.7310506 120.8543012  43.2629033  73.4026730 124.9031416
  43.2850730  73.4666064 123.9483396  43.6797092  72.5631239 125.0971922
  39.3667902  87.3025953 119.8580583  39.5156022  87.9861417 119.2047256
  40.1734345  87.2831043 120.3730039  37.1220535  83.3291130 120.8641652
  36.8766576  82.4253460 121.0621862  37.2916449  83.3308281 119.9221130
  36.3916182  79.0619488 118.3627814  35.6985427  79.1363843 117.7067850
  36.1467934  78.2979832 118.8849331  45.0629839  70.6215089 125.7667304
  45.3431592  69.9538278 126.3927731  45.8480445  70.8144185 125.2541968
  42.8663307  89.7974083 117.3292331  42.2937274  90.4164270 116.8762803
  43.4396101  90.3473445 117.8632253  46.0860567  90.0811233 118.4600913
  47.0191240  90.0156795 118.6633789  45.9983780  90.9167500 118.0015446
  48.7148584  89.3977104 115.4204861  48.6362215  89.0636967 116.3140618
  49.5358250  89.8898872 115.4196333  43.2510106  81.1334896 114.6708383
  44.1969210  81.0041104 114.7396801  42.8724351  80.3949558 115.1477811
  49.2231990  72.7990902 124.6335275  49.0256811  72.4905990 125.5178607
  49.8331696  73.5252541 124.7633205  41.4353023  79.0584872 114.6063268
  40.5284478  78.7617985 114.6825982  41.7129004  78.7614690 113.7397555
  43.0515088  73.6021762 120.7607510  42.2415817  73.2568847 121.1362756
  43.7399505  73.2929306 121.3495121  44.9805637  72.6799809 122.3831806
  45.5336675  73.0995262 123.0421829  45.2175723  71.7535557 122.4254762
  40.2051807  75.9171808 114.7475248  41.0670971  76.2426706 115.0071065
  40.3902151  75.1303303 114.2348313  48.3584444  74.7900334 121.8910471
  47.7783113  75.4485138 121.5088523  48.0920376  73.9677679 121.4797888
  46.8088010  74.1905392 124.0931791  47.3087789  74.3021926 123.2846110
  47.4523618  73.8866445 124.7332599  47.1409322  76.9500424 120.9466819
  46.2535177  77.2350075 120.7287014  47.5563311  76.7894188 120.0994096
  46.2852535  86.7145099 115.0414839  46.9888385  86.9195102 115.6572495
  45.5615184  87.2821861 115.3063922  47.1150346  82.4654960 121.1617109
  47.0585547  82.9223512 120.3224741  47.6678688  81.7045645 120.9839952
  50.9255151  78.2544692 121.9867229  50.6692086  77.8541328 122.8175436
  50.3008020  78.9688486 121.8617368  48.1939233  87.1527628 117.0913299
  49.0284837  86.7208827 116.9090774  48.0323576  86.9809642 118.0190193
  47.8485125  83.6559742 118.4569638  47.7933929  83.4904013 117.5158082
  47.2231180  84.3635774 118.6131828  41.1581250  73.1567851 118.0354957
  41.1459920  74.1009690 118.1923228  42.0504672  72.9737996 117.7414418
  44.9733370  69.7510627 122.2900893  44.2065766  69.1969114 122.4357576
  45.3844075  69.8232496 123.1515045  49.5291468  93.4512403 114.8046158
  48.6520935  93.3301204 114.4408405  50.0049221  92.6598481 114.5525047
  51.0445562  91.2463725 114.7475248  51.9064726  91.5718624 115.0071065
  51.2295906  90.4595221 114.2348313  23.1304190  38.4605135 103.8722721
  22.4565889  38.7636832 104.4807678  23.5170012  39.2634216 103.5228178
  27.0361076  35.7455391 102.1450167  26.9574707  35.4115254 103.0385925
  27.8570743  36.2377159 102.1441640  24.6065028  33.0623386 101.7660146
  25.3100878  33.2673389 102.3817801  23.8827676  33.6300148 102.0309229
  27.8112522  45.8238471 109.8372198  27.2477387  45.7328408 109.0688486
  27.6964917  45.0038376 110.3174691  33.3912081  49.4909439 105.1486663
  32.7400061  50.0763519 104.7620677  34.1856444  50.0215634 105.2081700
  27.3167708  46.5798576 105.5473797  28.0898584  46.0327563 105.4086673
  27.6693107  47.4442825 105.7588259  29.6533986  42.7391242 103.1792247
  29.9059506  42.2172763 102.4175710  28.7158545  42.5757388 103.2818931
  34.6977269  41.7427020 110.9866990  35.4840358  41.3246444 110.6357407
  34.9615973  42.6473113 111.1548639  34.8687346  47.1799871 105.6855647
  34.2333179  47.2534497 106.3976552  34.5384752  47.7693470 105.0074726
  40.0985696  41.6802254 111.8899969  40.8310868  41.1101470 112.1237798
  39.3425051  41.2923854 112.3306474  29.3730274  44.6419348 105.3816622
  29.2566533  43.9664251 106.0497706  29.4832534  44.1551722 104.5648775
  31.7161815  44.1029495 109.0863311  31.3520023  43.5760116 109.7976233
  32.5728931  43.7127964 108.9129797  31.3567302  39.1319395 104.0824660
  31.5241705  39.9999631 104.4495131  31.1664471  39.2946677 103.1585949
  31.3356523  41.5877052 105.0671327  31.2156148  42.0334103 105.9056807
  30.6409112  41.9362370 104.5084865  29.0963415  54.3580694 108.7161458
  29.0187445  55.3088519 108.7949938  28.4925059  54.0126567 109.3736384
  37.0341589  42.0598526 105.8951661  37.9459446  42.2925912 105.7199358
  36.5251236  42.6435570 105.3326739  35.6411172  47.0424344 113.2865242
  35.0120034  47.2070058 112.5841310  35.2536834  47.4565954 114.0576206
  39.5200404  47.9778782 110.6409606  38.8351442  48.3577683 110.0906639
  39.6044253  48.5874108 111.3741554  31.1939134  46.7798752 110.5515327
  31.6577479  47.0586455 109.7619950  30.9295932  45.8782197 110.3688418
  30.1308020  42.9021904 107.3604892  30.8332063  43.3542948 107.8278819
  29.7988648  42.2605723 107.9884786  37.8897163  48.5010696 115.4127307
  38.7114607  48.0990884 115.1309988  37.8859566  48.3978930 116.3643423
  45.9803156  44.8449445 111.7612278  45.2266865  44.2756843 111.6056283
  46.1150697  44.8112109 112.7082913  31.3701784  49.7162847 107.4366998
  31.2347459  50.5614383 107.8651845  31.9111597  49.9182125 106.6732931
  24.8231182  47.2338285 108.0094923  25.3355702  48.0281535 108.1600487
  25.4753894  46.5364576 107.9428524  26.6326066  50.3504041 110.0917676
  26.8092695  51.2722006 109.9038660  27.4282900  50.0362461 110.5212056
  34.6844531  43.2302020 104.4738326  34.1691154  44.0006625 104.7126714
  34.4121839  42.5567156 105.0971388  39.6578805  45.9834375 106.4091500
  38.8808247  45.6445534 105.9646662  40.3370286  45.9886998 105.7346465
  34.4730834  41.1029112 106.2998107  34.1680969  41.4175261 107.1508251
  35.4261276  41.1810532 106.3425440  32.9177266  47.2619335 107.9491061
  32.3898627  46.5272095 107.6364299  32.4164768  48.0394012 107.7031030
  37.8970112  45.4568356 113.0658108  37.2393786  46.1467617 113.1538236
  38.7010511  45.8464788 113.4092094  36.7075570  43.8112729 111.1162049
  37.2207452  44.4442720 111.6183759  37.3576794  43.2113924 110.7505409
  27.9765580  39.9543463 104.3293558  27.1402893  40.2918149 104.6502833
  27.8370350  39.8192443 103.3920695  31.0629866  45.0799546 100.9526034
  30.1556928  44.8488799 101.1517183  31.5600898  44.2837165 101.1400016
  33.9697945  53.7897053 103.8722721  33.2959643  54.0928750 104.4807678
  34.3563767  54.5926133 103.5228178  33.9691449  42.6853600 108.4923070
  34.7163268  43.1974997 108.1830192  34.2383039  42.3637653 109.3527464
  32.2418099  45.1812141 105.4750025  31.3329318  44.8971173 105.5722494
  32.2713183  45.6011219 104.6153331  37.4737367  48.7918730 109.2441192
  37.0199694  47.9509640 109.3006383  36.8431333  49.4280128 109.5815972
  35.9170306  50.6295227 110.1791010  36.2093280  51.1900284 109.4603376
  36.4268926  50.9223788 110.9344169  31.9394187  46.7220884 102.8138103
  31.5013617  46.0056743 102.3543740  32.6804628  46.9496999 102.2523194
  30.8803931  51.4075578 111.2684463  30.8380110  51.6336424 110.3392995
  31.7966630  51.1738952 111.4170265  40.0567302  44.9978081 108.8714422
  39.9185200  45.1879677 107.9435611  39.7003521  45.7597464 109.3282473
  40.0836681  47.0654608 113.8825693  40.5173188  46.9729897 114.7308747
  40.7968262  47.0412109 113.2445709  28.9969732  48.2838607 111.0646426
  29.7910330  47.7888927 110.8629001  28.2861424  47.7556470 110.7014132
  33.8164576  50.6656702 115.4158794  33.8701599  51.2347639 116.1836510
  32.9479358  50.8358587 115.0512831  25.3052495  42.4281689 107.1406179
  24.3750083  42.3666144 107.3576141  25.4009967  41.9057641 106.3442820
  32.1689160  53.9576725 106.0869800  32.3440915  53.4864769 106.9015422
  31.4821948  54.5842492 106.3151060  33.1246223  48.2349232 112.1333101
  32.7896056  48.1950002 113.0290751  32.6250169  47.5693947 111.6603511
  36.0605415  45.5805266 102.4070161  35.4434585  44.8552094 102.3103213
  35.5921903  46.3414626 102.0637235  26.7350245  57.1066088 112.8609660
  26.9746843  57.7384612 113.5388678  25.8919442  56.7554128 113.1475019
  27.8503961  39.7990690 101.5291465  26.9733427  39.6779491 101.1653712
  28.3261714  39.0076769 101.2770354  31.2478107  52.9145211 115.2651164
  31.1748278  53.7200182 115.7770468  30.8055500  53.1137176 114.4399185
  31.0367887  52.1516981 108.7753985  30.2535408  52.6938661 108.8692210
  31.7360632  52.6690960 109.1748227  42.1994294  43.6651976 113.0606482
  42.1884170  44.5476691 112.6900415  41.3311674  43.3123526 112.8661019
  35.4294317  46.7183297 108.9926614  34.4950596  46.8384760 108.8231319
  35.6070986  45.8155764 108.7286624  38.8166869  42.5600617 109.5276648
  39.2827321  43.3928608 109.4536951  39.2674369  42.0945598 110.2321907
  36.8843100  48.9044438 106.5262800  37.1602944  48.7901032 107.4356674
  36.0147599  48.5061923 106.4874974  33.5197164  53.1530789 110.1695614
  33.7019558  52.3352445 110.6323366  34.3430150  53.3698481 109.7320504
  33.8539329  52.0798974 107.4310663  34.3827096  51.5691428 106.8180825
  34.1167549  51.7641504 108.2956196  27.2095077  53.1314090 110.1908438
  26.5405453  53.6160218 109.7072479  27.0707947  53.3783311 111.1051817
  31.3500346  55.1657834 116.7891097  31.9018654  55.3289455 117.5540182
  31.6906539  55.7562272 116.1171122  34.4868733  53.1139810 113.7754779
  34.3619873  52.3129549 113.2665724  35.1447824  53.6086003 113.2868749
  36.5503642  50.9148830 115.4034329  35.6033977  50.7954181 115.3312656
  36.8986415  50.0271328 115.4860591  33.5550075  50.7101546 111.6038681
  33.4075037  49.7818253 111.7846251  34.3803568  50.7321637 111.1195757
  37.1584197  51.5330105 112.6903554  38.0830744  51.3272966 112.5528005
  36.9899500  51.2846506 113.5992896  29.4080466  37.8594234 105.6612466
  30.1288829  38.2375487 105.1576183  28.7845770  38.5783111 105.7647444
  33.5511589  38.5639383 106.5970799  33.7675204  39.4464021 106.2959627
  33.0705656  38.1725597 105.8676441  36.9479513  52.0515772 108.0465646
  37.1216390  51.4862194 107.2939498  37.4408404  52.8516667 107.8645135
  42.8018904  44.8152195 109.6655945  43.2450050  44.0659520 109.2675069
  41.9245414  44.8062331 109.2829677  37.9354685  51.3682536 105.1462544
  38.6305590  51.9889229 105.3649858  38.2777836  50.5177888 105.4214922
  39.8346108  48.8182242 106.6749875  40.3597433  49.1569515 105.9499195
  39.7468461  47.8829257 106.4913009  31.5186769  54.8854225 111.0345128
  31.0791760  54.3930604 111.7277984  32.2694886  54.3427193 110.7937203
  23.9979108  51.0765766 111.0369756  24.8237128  50.7769538 110.6568399
  23.6473160  50.3073389 111.4859544  28.9660641  50.4292234 113.1067429
  28.3440651  49.7662939 112.8069657  29.6365508  50.4553366 112.4241077
  28.5274148  48.9796158 106.5825890  28.6762269  49.6631622 105.9292563
  29.3340592  48.9601248 107.0975346  42.3451769  46.2857433 112.0578393
  43.1798660  46.7247237 112.2215953  42.4810898  45.8096086 111.2386639
  26.2826781  45.0061335 107.5886959  26.0372823  44.1023665 107.7867169
  26.4522696  45.0078486 106.6466437  25.5522429  40.7389693 105.0873120
  24.8591674  40.8134048 104.4313156  25.3074181  39.9750036 105.6094637
  32.0269554  51.4744288 104.0537637  31.4543521  52.0934475 103.6008109
  32.6002347  52.0243650 104.5877559  35.2466814  51.7581438 105.1846220
  36.1797487  51.6927000 105.3879095  35.1590026  52.5937705 104.7260752
  37.8754830  51.0747309 102.1450167  37.7968462  50.7407172 103.0385925
  38.6964497  51.5669076 102.1441640  32.4116352  42.8105101 101.3953690
  33.3575457  42.6811309 101.4642108  32.0330597  42.0719763 101.8723118
  46.3909571  45.0025055 114.4932523  47.1212960  44.7410343 115.0540226
  45.7816517  44.2653777 114.5334591  44.4724868  43.1432917 115.0906974
  43.7458032  43.0088882 114.4823465  44.0572155  43.4509746 115.8963692
  30.5959269  40.7355077 101.3308575  29.6890725  40.4388190 101.4071289
  30.8735250  40.4384895 100.4642861  29.3658054  37.5942012 101.4720554
  30.2277218  37.9196911 101.7316372  29.5508398  36.8073508 100.9593620
  37.5190691  36.4670539 108.6155777  36.9389360  37.1255343 108.2333830
  37.2526623  35.6447884 108.2043195  36.3015569  38.6270629 107.6712126
  35.4141424  38.9120280 107.4532320  36.7169558  38.4664393 106.8239402
  24.3099819  53.2078380 112.7583570  24.1754287  52.4478781 112.1921568
  23.8931881  53.9319280 112.2912359  35.4458782  48.3915304 101.7660146
  36.1494632  48.5965306 102.3817801  34.7221431  48.9592066 102.0309229
  36.2756592  44.1425165 107.8862416  36.2191794  44.5993717 107.0470048
  36.8284935  43.3815850 107.7085258  40.0861398  39.9314897 108.7112535
  39.8298332  39.5311533 109.5420743  39.4614266  40.6458691 108.5862674
  44.3973736  42.6710970 111.2183827  43.8373294  42.7404160 111.9915389
  43.7917239  42.4951955 110.4983323  27.4668945  54.1047697 112.9702013
  27.3501329  55.0493130 112.8680703  26.6461391  53.8021259 113.3587812
  37.3545479  48.8297833 103.8158606  38.1891083  48.3979032 103.6336080
  37.1929822  48.6579847 104.7435500  37.0091372  45.3329946 105.1814945
  36.9540175  45.1674218 104.2403389  36.3837427  46.0405979 105.3377135
  30.3187497  34.8338055 104.7600263  30.3066167  35.7779895 104.9168534
  31.2110919  34.6508201 104.4659724  30.2477061  53.5106946 112.8468020
  29.2972692  53.5108807 112.7332392  30.5509547  52.7639680 112.3304055
  45.9829755  59.3467484 113.9113782  46.6208165  59.2274232 113.2077122
  45.8650597  60.2948328 113.9701734  42.7919461  59.2994912 113.8475307
  42.4537972  59.1835977 112.9595842  43.6609229  58.8986077 113.8276313
  38.6506277  61.1530389 109.8372198  38.0871142  61.0620326 109.0688486
  38.5358672  60.3330293 110.3174691  43.2739244  60.4529764 119.8061513
  43.2627885  60.0582562 118.9342016  43.4359883  59.7195837 120.3995284
  36.1970708  62.6481580 112.6756418  36.9892000  62.3072405 112.2602718
  36.4367359  62.7576555 113.5958572  44.2305835  64.8201356 105.1486663
  43.5793815  65.4055437 104.7620677  45.0250198  65.3507551 105.2081700
  38.1561462  61.9090494 105.5473797  38.9292338  61.3619481 105.4086673
  38.5086861  62.7734743 105.7588259  39.9946505  63.2366876 118.7540697
  39.7036371  64.1412507 118.6387363  40.6303489  63.2783404 119.4684766
  40.9202712  60.6143724 115.3442056  41.5166284  60.3899747 114.6299019
  40.9777683  59.8728470 115.9467504  40.4927740  58.0683160 103.1792247
  40.7453261  57.5464681 102.4175710  39.5552299  57.9049305 103.2818931
  45.5371023  57.0718938 110.9866990  46.3234112  56.6538361 110.6357407
  45.8009727  57.9765030 111.1548639  45.7081100  62.5091788 105.6855647
  45.0726933  62.5826415 106.3976552  45.3778507  63.0985387 105.0074726
  50.9379450  57.0094171 111.8899969  51.6704622  56.4393388 112.1237798
  50.1818806  56.6215772 112.3306474  40.2124029  59.9711266 105.3816622
  40.0960287  59.2956169 106.0497706  40.3226289  59.4843640 104.5648775
  42.5555570  59.4321413 109.0863311  42.1913777  58.9052034 109.7976233
  43.4122686  59.0419882 108.9129797  48.4604871  50.7215745 116.3494577
  48.1288195  51.5911156 116.1255792  47.8650484  50.4052029 117.0288608
  42.1961057  54.4611313 104.0824660  42.3635459  55.3291549 104.4495131
  42.0058226  54.6238594 103.1585949  44.9536390  62.9228291 115.7490490
  44.6537113  63.8253330 115.6406297  44.6087450  62.6560475 116.6011643
  38.4048872  59.3742088 111.7827195  37.4799368  59.2418302 111.9904886
  38.6533285  60.1536308 112.2797137  48.3533534  55.4410832 113.4287928
  47.4450411  55.3726240 113.1346689  48.3021130  55.9182777 114.2569753
  42.1750278  56.9168970 105.0671327  42.0549903  57.3626021 105.9056807
  41.4802866  57.2654288 104.5084865  35.7657683  59.0175362 112.6170984
  35.8950064  59.2709841 113.5310395  35.0855134  59.6103070 112.2975639
  39.9357170  69.6872612 108.7161458  39.8581200  70.6380437 108.7949938
  39.3318813  69.3418484 109.3736384  42.4274400  56.8600477 121.3722825
  41.6507734  57.4194397 121.3625689  43.0664963  57.3457260 121.8937695
  50.2195180  53.6427270 115.2065801  49.5769560  53.9359803 114.5605596
  49.7150109  53.5280190 116.0118998  47.8735344  57.3890443 105.8951661
  48.7853200  57.6217830 105.7199358  47.3644991  57.9727487 105.3326739
  40.6820772  59.6685931 120.9340792  41.4235456  60.2070975 120.6575615
  39.9757757  60.2952219 121.0912344  46.1576112  61.8115071 119.5312953
  46.5659468  61.3697482 118.7867586  45.4353373  61.2367699 119.7847146
  42.5107182  56.7487678 116.9046510  43.3568377  57.1727091 117.0481159
  42.4505819  56.0921302 117.5985073  46.4804926  62.3716262 113.2865242
  45.8513789  62.5361976 112.5841310  46.0930588  62.7857871 114.0576206
  50.3594158  63.3070700 110.6409606  49.6745196  63.6869601 110.0906639
  50.4438007  63.9166026 111.3741554  45.6606627  54.4092046 118.5627684
  45.4167559  55.1634107 118.0261960  45.9366557  54.7877394 119.3974931
  47.6145090  60.9530659 117.2404949  47.8261985  61.5962418 116.5639331
  47.5674838  60.1192975 116.7726880  45.2171319  53.5648479 114.1441522
  44.3555798  53.8629733 114.4358259  45.2433753  53.7818878 113.2122554
  42.0332888  62.1090670 110.5515327  42.4971234  62.3878373 109.7619950
  41.7689686  61.2074114 110.3688418  38.9256969  61.6562151 113.4895091
  39.4958326  62.0849420 112.8512575  39.5165081  61.3744736 114.1879276
  40.9701774  58.2313822 107.3604892  41.6725817  58.6834866 107.8278819
  40.6382403  57.5897641 107.9884786  39.4182136  56.8225579 121.7356102
  38.7880796  57.5041860 121.9691499  39.3118224  56.7108660 120.7909240
  34.7127108  56.4897375 112.6622026  33.9226162  56.7454903 112.1862137
  35.2038355  57.3045713 112.7674067  48.7290918  63.8302614 115.4127307
  49.5508361  63.4282801 115.1309988  48.7253321  63.7270848 116.3643423
  36.6641853  56.8541954 109.6205503  35.8673017  56.9660648 110.1388998
  36.4367446  57.1928606 108.7546393  42.4947521  63.3786657 117.5688017
  42.5591954  63.8407064 118.4046189  41.7858445  62.7484022 117.6970327
  32.9964811  56.7427865 115.0937017  33.2472850  57.6274875 115.3594593
  33.5324359  56.5632467 114.3212109  56.8196911  60.1741362 111.7612278
  56.0660619  59.6048760 111.6056283  56.9544452  60.1404027 112.7082913
  42.2095539  65.0454765 107.4366998  42.0741214  65.8906300 107.8651845
  42.7505351  65.2474042 106.6732931  35.6624936  62.5630203 108.0094923
  36.1749457  63.3573453 108.1600487  36.3147649  61.8656493 107.9428524
  37.4719821  65.6795959 110.0917676  37.6486449  66.6013924 109.9038660
  38.2676654  65.3654378 110.5212056  36.7572177  57.7260591 119.9679839
  36.6425693  56.8245848 120.2686938  35.9016695  57.9724288 119.6164656
  43.8364015  65.6678331 121.5667340  43.3927869  64.8814710 121.2488244
  44.4981229  65.8557482 120.9011231  38.5951136  67.1974133 116.0928018
  39.1458561  67.0691196 115.3205012  37.7562612  67.4969022 115.7422911
  45.9345253  65.9481131 119.5948741  45.9163729  66.7690012 119.1029010
  46.8565173  65.8235206 119.8198882  42.3918307  63.4625261 120.4372249
  42.9246644  62.7013549 120.2071557  41.8632388  63.1698912 121.1796404
  45.5588002  48.5685327 115.9665891  45.2152272  49.4586968 115.8905002
  45.9266965  48.3786984 115.1035476  33.6273853  60.8918857 108.7854493
  34.4649075  61.3015865 108.5688201  33.8052121  59.9518299 108.7554687
  45.5238285  58.5593938 104.4738326  45.0084908  59.3298542 104.7126714
  45.2515594  57.8859074 105.0971388  43.1085396  53.4043638 109.5323565
  42.2526992  53.0150489 109.3529203  43.5212348  53.4835599 108.6723350
  44.6384543  50.9389982 113.9315124  44.1349338  50.9020117 113.1182930
  44.9315150  51.8482724 113.9911781  40.8827429  51.0228711 112.9381306
  41.7480425  50.8271520 112.5787196  40.9504938  50.7939063 113.8650663
  50.4972559  61.3126292 106.4091500  49.7202002  60.9737452 105.9646662
  51.1764040  61.3178916 105.7346465  45.3124588  56.4321030 106.2998107
  45.0074724  56.7467179 107.1508251  46.2655030  56.5102450 106.3425440
  43.7571020  62.5911253 107.9491061  43.2292382  61.8564013 107.6364299
  43.2558523  63.3685929 107.7031030  48.7363866  60.7860274 113.0658108
  48.0787541  61.4759535 113.1538236  49.5404265  61.1756706 113.4092094
  38.4889748  53.2530919 110.3097673  39.0633500  53.0306101 109.5770866
  39.0760730  53.3219614 111.0626274  47.5469325  59.1404646 111.1162049
  48.0601207  59.7734638 111.6183759  48.1970549  58.5405842 110.7505409
  38.8159335  55.2835380 104.3293558  37.9796647  55.6210067 104.6502833
  38.6764104  55.1484360 103.3920695  40.7912415  50.1272168 109.0372742
  40.1376828  49.8121185 108.4129357  40.7492890  49.5047909 109.7632565
  41.9023620  60.4091463 100.9526034  40.9950682  60.1780717 101.1517183
  42.3994652  59.6129083 101.1400016  44.8091699  69.1188971 103.8722721
  44.1353398  69.4220667 104.4807678  45.1957521  69.9218051 103.5228178
  44.0250156  56.6154102 113.3620390  43.1072717  56.8369049 113.2042078
  44.4410299  56.6900412 112.5032097  44.8085204  58.0145518 108.4923070
  45.5557022  58.5266915 108.1830192  45.0776793  57.6929570 109.3527464
  43.0811854  60.5104058 105.4750025  42.1723073  60.2263091 105.5722494
  43.1106937  60.9303137 104.6153331  48.3131121  64.1210648 109.2441192
  47.8593448  63.2801558 109.3006383  47.6825088  64.7572046 109.5815972
  47.2564041  55.0502634 110.4741860  46.5186797  54.5380020 110.8052102
  47.5090814  54.6103015 109.6625136  46.7564060  65.9587144 110.1791010
  47.0487035  66.5192202 109.4603376  47.2662681  66.2515705 110.9344169
  47.3575668  47.8278886 111.0683629  47.6634545  46.9676249 110.7809544
  48.0828273  48.4196506 110.8682623  33.6500024  58.2309572 109.4565227
  33.4524424  57.6378933 108.7316293  33.0946688  57.9261783 110.1741166
  41.6296748  58.1232679 111.5759820  41.6845358  57.1706515 111.5002296
  40.8187950  58.2792118 112.0601118  42.7787941  62.0512802 102.8138103
  42.3407371  61.3348661 102.3543740  43.5198382  62.2788917 102.2523194
  39.5689108  56.7409739 109.3350199  38.7556973  57.0403909 109.7415391
  40.0648102  56.3465427 110.0524681  41.7197686  66.7367496 111.2684463
  41.6773864  66.9628342 110.3392995  42.6360384  66.5030870 111.4170265
  45.1663319  57.2051563 118.1665093  45.5212707  57.4323036 119.0259558
  45.8135451  57.5369940 117.5442348  50.8961056  60.3269999 108.8714422
  50.7578955  60.5171595 107.9435611  50.5397275  61.0889382 109.3282473
  39.0603182  54.3128094 114.9511434  39.7002562  54.1716853 114.2534397
  38.2280713  54.0262608 114.5750036  50.9230436  62.3946526 113.8825693
  51.3566943  62.3021815 114.7308747  51.6362017  62.3704026 113.2445709
  39.8363486  63.6130525 111.0646426  40.6304085  63.1180845 110.8629001
  39.1255179  63.0848388 110.7014132  44.6558331  65.9948620 115.4158794
  44.7095353  66.5639556 116.1836510  43.7873112  66.1650505 115.0512831
  36.1446250  57.7573606 107.1406179  35.2143838  57.6958062 107.3576141
  36.2403722  57.2349559 106.3442820  36.0631799  54.2828419 109.7284420
  36.3238616  55.1973752 109.6193581  36.8848971  53.8152862 109.8781033
  37.5356724  55.6966176 116.8983245  38.2079778  55.4883538 116.2495894
  36.7086511  55.4988262 116.4588477  51.7845985  62.4370227 116.4158579
  51.9781876  63.3416037 116.6617853  51.6846604  61.9777646 117.2497164
  43.4382296  52.3228117 118.9148906  42.7910211  53.0218067 118.8213382
  44.2083312  52.7564261 119.2825154  46.8461094  62.5876969 121.9899459
  46.6946601  62.3587521 121.0729543  46.8365774  63.5447571 122.0030804
  43.6146431  60.1608882 116.9745726  44.5438491  60.3120042 116.8014693
  43.1937461  60.2492903 116.1194372  42.4134762  64.1859547 114.7444263
  42.2745848  63.8178331 115.6170201  41.6249359  64.7007186 114.5728221
  43.0082914  69.2868643 106.0869800  43.1834670  68.8156686 106.9015422
  42.3215702  69.9134409 106.3151060  43.9639977  63.5641149 112.1333101
  43.6289810  63.5241919 113.0290751  43.4643923  62.8985865 111.6603511
  37.9384221  58.9708779 117.6585682  37.8004019  58.2389018 118.2597221
  38.8489145  58.8817679 117.3769870  46.8999169  60.9097184 102.4070161
  46.2828340  60.1844012 102.3103213  46.4315658  61.6706544 102.0637235
  40.5666522  58.6828739 117.1469362  41.2766141  58.0421931 117.1055980
  40.5235830  58.9341633 118.0695543  48.5553301  65.6196092 120.0675941
  48.4965847  64.9355312 119.4006524  48.9572819  66.3615082 119.6156567
  39.2795456  55.6693956 118.9665001  38.7432813  55.2184695 119.6186598
  38.6912165  55.8039865 118.2235466  37.5744000  72.4358006 112.8609660
  37.8140598  73.0676530 113.5388678  36.7313196  72.0846046 113.1475019
  38.6897715  55.1282608 101.5291465  37.8127181  55.0071409 101.1653712
  39.1655468  54.3368686 101.2770354  48.5570708  63.5835676 118.2989921
  47.6697487  63.2461598 118.4216320  49.1269259  62.8518707 118.5358686
  30.2099855  59.9159768 111.6232972  30.8970895  59.6021498 111.0353987
  30.0547984  60.8201132 111.3500224  35.0134577  54.8049964 116.0517996
  34.9292766  54.1975634 115.3168406  34.1917284  55.2958982 116.0527492
  42.0871861  68.2437128 115.2651164  42.0142033  69.0492100 115.7770468
  41.6449255  68.4429094 114.4399185  41.8761641  67.4808898 108.7753985
  41.0929163  68.0230578 108.8692210  42.5754386  67.9982878 109.1748227
  45.1858291  53.2903528 111.4188191  45.6826991  52.5373490 111.0989261
  44.4145273  53.3267844 110.8531400  53.0388049  58.9943893 113.0606482
  53.0277925  59.8768609 112.6900415  52.1705428  58.6415444 112.8661019
  44.5470545  68.1423962 117.4209323  45.2598517  68.7771427 117.3485224
  44.0560574  68.2387828 116.6049324  46.2688072  62.0475215 108.9926614
  45.3344351  62.1676677 108.8231319  46.4464740  61.1447682 108.7286624
  41.7693260  55.4320911 111.1459875  41.3991047  54.8791951 111.8340781
  42.2652352  54.8279044 110.5934875  49.6560623  57.8892534 109.5276648
  50.1221075  58.7220526 109.4536951  50.1068124  57.4237516 110.2321907
  39.5982458  65.8918406 118.2414893  40.2991918  66.5254889 118.3944288
  39.1277573  66.2333137 117.4810533  47.7236854  64.2336355 106.5262800
  47.9996698  64.1192950 107.4356674  46.8541353  63.8353840 106.4874974
  47.6277286  50.2573121 113.5667550  46.7140366  50.4877348 113.7349757
  48.0570387  50.3411565 114.4181582  47.3983744  58.4463013 116.0667444
  46.7455195  58.6938921 115.4119897  47.7764124  57.6327151 115.7329921
  44.3590918  68.4822706 110.1695614  44.5413313  67.6644362 110.6323366
  45.1823904  68.6990399 109.7320504  44.6933084  67.4090891 107.4310663
  45.2220850  66.8983346 106.8180825  44.9561303  67.0933422 108.2956196
  43.4471317  59.1882824 122.5533481  42.7711954  59.0876954 123.2235856
  44.2698951  59.0322038 123.0169478  35.1950177  65.4254761 115.1745996
  35.7803613  64.6798449 115.3073900  34.9975015  65.7358717 116.0582660
  38.0488832  68.4606008 110.1908438  37.3799207  68.9452136 109.7072479
  37.9101701  68.7075229 111.1051817  29.7867831  57.9960361 113.8950439
  29.8251931  57.4623952 114.6887557  29.2808124  57.4695566 113.2761416
  42.1894100  70.4949752 116.7891097  42.7412408  70.6581373 117.5540182
  42.5300294  71.0854189 116.1171122  37.1658594  52.8424901 117.3912982
  37.2299920  53.7039732 116.9790379  37.1025714  52.2298903 116.6585340
  47.0404975  65.3211009 122.6439751  47.5844879  65.9340967 122.1494706
  46.4591820  65.8790588 123.1606764  33.4176409  56.7224463 106.9704371
  33.7129850  55.8135142 106.9171424  32.5164445  56.7012203 106.6485373
  45.3262488  68.4431727 113.7754779  45.2013627  67.6421467 113.2665724
  45.9841579  68.9377921 113.2868749  36.9470656  54.7980460 112.9531919
  36.2257242  55.4116427 112.8139393  37.7363912  55.3338225 112.8748565
  47.3897396  66.2440747 115.4034329  46.4427732  66.1246098 115.3312656
  47.7380169  65.3563245 115.4860591  35.1464250  54.4038561 107.0943696
  34.8176957  53.5235940 106.9118802  35.5003621  54.3486229 107.9820085
  44.3943829  66.0393463 111.6038681  44.2468792  65.1110171 111.7846251
  45.2197323  66.0613554 111.1195757  38.2606074  54.6911531 107.4619173
  38.6002146  55.2197452 106.7397782  38.7078194  55.0291937 108.2377740
  47.9977951  66.8622022 112.6903554  48.9224499  66.6564884 112.5528005
  47.8293255  66.6138423 113.5992896  40.9549514  53.0748581 116.9122241
  40.6146335  52.2756394 117.3142921  40.2488521  53.3750292 116.3399075
  41.6065986  50.1597894 115.3649565  42.4292056  49.6858372 115.2428455
  41.8504050  50.9388377 115.8648251  40.2474221  53.1886152 105.6612466
  40.9682583  53.5667405 105.1576183  39.6239525  53.9075029 105.7647444
  44.3905344  53.8931301 106.5970799  44.6068958  54.7755939 106.2959627
  43.9099411  53.5017515 105.8676441  39.1304565  56.8517014 113.1741543
  38.9849146  57.1657317 114.0665825  38.6529769  57.4701915 112.6212442
  40.9900948  53.8419562 113.2222433  40.9762517  52.9460656 112.8854731
  41.7073376  53.8490226 113.8560719  42.8427079  54.2756903 115.2675560
  42.5844856  55.1973973 115.2659891  42.3112119  53.8787337 115.9576024
  47.7873267  67.3807690 108.0465646  47.9610145  66.8154112 107.2939498
  48.2802159  68.1808585 107.8645135  33.6050227  59.3922359 116.1129204
  33.0603695  60.1682167 116.2449479  34.4829577  59.7393163 115.9548326
  40.3937844  52.7233943 108.4910003  40.5153755  51.7950589 108.6900890
  40.1039886  52.7372629 107.5788318  43.2629034  50.4088853 111.6276723
  43.2850731  50.4728186 110.6728702  43.6797093  49.5693362 111.8217229
  53.6412659  60.1444113 109.6655945  54.0843805  59.3951438 109.2675069
  52.7639169  60.1354249 109.2829677  48.7748440  66.6974454 105.1462544
  49.4699344  67.3181147 105.3649858  49.1171590  65.8469805 105.4214922
  34.3916249  58.5192255 119.0059361  33.6497985  58.6674890 119.5923992
  34.0708993  58.7800521 118.1426111  50.6739863  64.1474160 106.6749875
  51.1991187  64.4861432 105.9499195  50.5862216  63.2121175 106.4913009
  42.3359912  68.0608233 118.8039751  42.6447038  67.8157380 119.6762451
  43.1335394  68.2654872 118.3158621  42.3580524  70.2146143 111.0345128
  41.9185514  69.7222522 111.7277984  43.1088641  69.6719111 110.7937203
  34.8372863  66.4057684 111.0369756  35.6630883  66.1061456 110.6568399
  34.4866915  65.6365306 111.4859544  39.8054396  65.7584152 113.1067429
  39.1834405  65.0954857 112.8069657  40.4759263  65.7845284 112.4241077
  33.0381468  64.3244010 111.9958689  32.2013376  63.8966185 111.8142691
  33.0105113  64.5176454 112.9329481  50.3633769  64.7807063 121.9801073
  49.5729313  64.7631202 121.4405572  50.1267124  65.3195357 122.7350109
  50.4831644  61.6299530 119.2933801  50.5329649  61.4649537 120.2349324
  50.3745567  60.7626789 118.9031682  39.3667903  64.3088075 106.5825890
  39.5156023  64.9923540 105.9292563  40.1734346  64.2893165 107.0975346
  47.7735406  57.6130458 120.6093108  48.6745269  57.4736923 120.3177106
  47.8483381  57.7784912 121.5491285  42.1078212  54.9897312 119.4546294
  41.2381521  55.2830878 119.1828883  42.3437692  55.5737757 120.1753558
  51.9849841  64.0496471 119.5375823  51.6934649  64.4126452 120.3739284
  51.3721972  63.3363479 119.3589155  53.1845523  61.6149351 112.0578393
  54.0192415  62.0539155 112.2215953  53.3204652  61.1388004 111.2386639
  50.2337029  59.1729086 118.0055881  50.7091151  59.3656732 117.1974732
  49.3102595  59.2288272 117.7599264  37.1220536  60.3353253 107.5886959
  36.8766578  59.4315583 107.7867169  37.2916450  60.3370403 106.6466437
  44.8117246  51.2076929 116.9711714  45.3299190  51.9437956 116.6458203
  44.4572378  51.5140923 117.8058474  36.3916183  56.0681611 105.0873120
  35.6985428  56.1425966 104.4313156  36.1467935  55.3041954 105.6094637
  45.0629840  47.6277212 112.4912611  45.3431594  46.9600401 113.1173038
  45.8480447  47.8206307 111.9787275  42.8663308  66.8036206 104.0537637
  42.2937275  67.4226393 103.6008109  43.4396102  67.3535567 104.5877559
  48.9338698  56.0494846 116.2384186  49.8856121  56.1492944 116.2596410
  48.7642149  55.2573114 116.7482271  46.9553078  53.1350429 116.4243587
  46.3603010  53.4155442 115.7290076  46.6702774  53.6244330 117.1960328
  46.0860568  67.0873356 105.1846220  47.0191241  67.0218918 105.3879095
  45.9983781  67.9229623 104.7260752  48.7148585  66.4039226 102.1450167
  48.6362216  66.0699090 103.0385925  49.5358252  66.8960994 102.1441640
  51.4126776  59.2700966 115.3526486  51.3803096  58.3316966 115.5386170
  52.0227400  59.3485002 114.6192311  43.2510107  58.1397019 101.3953690
  44.1969212  58.0103227 101.4642108  42.8724352  57.4011680 101.8723118
  51.5621264  56.0612009 115.3984769  51.0460313  55.2770466 115.2114698
  52.4461213  55.7330726 115.5631288  49.2231991  49.8053025 111.3580582
  49.0256812  49.4968113 112.2423914  49.8331697  50.5314663 111.4878512
  57.2303326  60.3316972 114.4932523  57.9606714  60.0702261 115.0540226
  56.6210271  59.5945694 114.5334591  55.3118623  58.4724835 115.0906974
  54.5851786  58.3380800 114.4823465  54.8965910  58.7801664 115.8963692
  43.1348799  62.1914765 122.8554347  44.0551809  62.3693364 123.0494393
  43.0998382  61.2470810 122.7034046  41.4353024  56.0646995 101.3308575
  40.5284479  55.7680108 101.4071289  41.7129005  55.7676813 100.4642861
  32.3530964  57.3853358 111.7807621  32.0333749  56.5318667 111.4881995
  31.8064393  57.6001936 112.5365589  36.1310872  60.1015799 115.4977128
  36.3496882  61.0332907 115.5165162  36.5436646  59.7423774 116.2831932
  43.0515090  50.6083885 107.4852816  42.2415818  50.2630970 107.8608062
  43.7399507  50.2991428 108.0740428  44.9805638  49.6861931 109.1077113
  45.5336677  50.1057385 109.7667136  45.2175724  48.7597680 109.1500069
  40.2051809  52.9233930 101.4720554  41.0670973  53.2488828 101.7316372
  40.3902153  52.1365426 100.9593620  32.2219224  61.0056270 113.7500743
  31.5282696  60.5910223 113.2370697  32.9692215  61.0476806 113.1534162
  48.3584445  51.7962457 108.6155777  47.7783114  52.4547261 108.2333830
  48.0920378  50.9739801 108.2043195  46.8088011  51.1967514 110.8177098
  47.3087790  51.3084049 110.0091416  47.4523619  50.8928567 111.4577906
  40.8670007  59.1046144 123.7044939  40.3837089  59.9046504 123.9108828
  40.9530946  59.1154089 122.7512383  34.1355967  60.9374524 111.6266758
  34.1126655  61.0362211 110.6748641  34.4456603  61.7839674 111.9483924
  36.7943345  62.9950679 115.7413372  37.7486598  62.9634621 115.6743304
  36.5955868  62.5341302 116.5563598  37.3842727  61.5651795 118.3084170
  38.2035616  62.0595873 118.3319007  37.6579535  60.6483763 118.2801738
  47.1409323  53.9562547 107.6712126  46.2535178  54.2412198 107.4532320
  47.5563312  53.7956310 106.8239402  50.4923859  53.9809068 111.3866465
  51.2684249  54.4705520 111.6591082  49.7671993  54.4067122 111.8438334
  52.9296418  54.6936687 112.4440405  53.5240909  54.4532423 111.7333714
  53.0023002  53.9743818 113.0713942  35.1493574  68.5370298 112.7583570
  35.0148041  67.7770699 112.1921568  34.7325636  69.2611198 112.2912359
  46.2852537  63.7207222 101.7660146  46.9888387  63.9257224 102.3817801
  45.5615185  64.2883984 102.0309229  47.1150347  59.4717083 107.8862416
  47.0585548  59.9285634 107.0470048  47.6678689  58.7107768 107.7085258
  50.9255153  55.2606815 108.7112535  50.6692087  54.8603450 109.5420743
  50.3008021  55.9750609 108.5862674  55.2367491  58.0002888 111.2183827
  54.6767049  58.0696077 111.9915389  54.6310994  57.8243873 110.4983323
  38.3062699  69.4339615 112.9702013  38.1895084  70.3785048 112.8680703
  37.4855146  69.1313177 113.3587812  48.1939234  64.1589751 103.8158606
  49.0284838  63.7270949 103.6336080  48.0323577  63.9871765 104.7435500
  47.8485126  60.6621864 105.1814945  47.7933930  60.4966136 104.2403389
  47.2231181  61.3697897 105.3377135  45.1631033  62.9670776 124.5068508
  46.0322193  63.1411428 124.1455143  44.6837785  63.7865193 124.3844237
  41.1581252  50.1629973 104.7600263  41.1459921  51.1071813 104.9168534
  42.0504673  49.9800119 104.4659724  39.3317214  70.0867877 116.1857941
  40.2344460  70.1191487 116.5024436  39.1054584  69.1568328 116.2004277
  41.0870816  68.8398864 112.8468020  40.1366447  68.8400725 112.7332392
  41.3903302  68.0931598 112.3304055  44.9733371  46.7572750 109.0146200
  44.2065767  46.2031236 109.1602882  45.3844076  46.8294619 109.8760352
  56.8223509  74.6759402 113.9113782  57.4601919  74.5566149 113.2077122
  56.7044352  75.6240246 113.9701734  53.6313215  74.6286830 113.8475307
  53.2931727  74.5127895 112.9595842  54.5002984  74.2277995 113.8276313
  49.4900031  76.4822306 109.8372198  48.9264896  76.3912243 109.0688486
  49.3752426  75.6622211 110.3174691  54.1132998  75.7821682 119.8061513
  54.1021639  75.3874480 118.9342016  54.2753638  75.0487754 120.3995284
  47.0364463  77.9773498 112.6756418  47.8285755  77.6364323 112.2602718
  47.2761113  78.0868473 113.5958572  55.0699590  80.1493274 105.1486663
  54.4187569  80.7347355 104.7620677  55.8643953  80.6799469 105.2081700
  48.9955217  77.2382411 105.5473797  49.7686093  76.6911398 105.4086673
  49.3480616  78.1026661 105.7588259  50.8340259  78.5658794 118.7540697
  50.5430125  79.4704424 118.6387363  51.4697244  78.6075321 119.4684766
  51.7596466  75.9435642 115.3442056  52.3560039  75.7191665 114.6299019
  51.8171438  75.2020388 115.9467504  51.3321495  73.3975077 103.1792247
  51.5847015  72.8756599 102.4175710  50.3946054  73.2341223 103.2818931
  56.3764778  72.4010856 110.9866990  57.1627867  71.9830279 110.6357407
  56.6403482  73.3056948 111.1548639  56.5474855  77.8383706 105.6855647
  55.9120688  77.9118333 106.3976552  56.2172261  78.4277305 105.0074726
  61.7773205  72.3386089 111.8899969  62.5098377  71.7685306 112.1237798
  61.0212560  71.9507689 112.3306474  51.0517783  75.3003183 105.3816622
  50.9354042  74.6248087 106.0497706  51.1620043  74.8135557 104.5648775
  53.3949324  74.7613330 109.0863311  53.0307532  74.2343951 109.7976233
  54.2516440  74.3711800 108.9129797  59.2998625  66.0507663 116.3494577
  58.9681950  66.9203074 116.1255792  58.7044238  65.7343947 117.0288608
  53.0354811  69.7903230 104.0824660  53.2029214  70.6583467 104.4495131
  52.8451980  69.9530512 103.1585949  55.7930145  78.2520209 115.7490490
  55.4930868  79.1545248 115.6406297  55.4481204  77.9852392 116.6011643
  49.2442626  74.7034006 111.7827195  48.3193122  74.5710220 111.9904886
  49.4927039  75.4828225 112.2797137  59.1927288  70.7702749 113.4287928
  58.2844166  70.7018158 113.1346689  59.1414884  71.2474694 114.2569753
  53.0144032  72.2460888 105.0671327  52.8943657  72.6917938 105.9056807
  52.3196621  72.5946205 104.5084865  46.6051437  74.3467279 112.6170984
  46.7343818  74.6001758 113.5310395  45.9248888  74.9394987 112.2975639
  50.7750924  85.0164529 108.7161458  50.6974954  85.9672355 108.7949938
  50.1712568  84.6710402 109.3736384  53.2668154  72.1892395 121.3722825
  52.4901488  72.7486315 121.3625689  53.9058717  72.6749178 121.8937695
  61.0588935  68.9719188 115.2065801  60.4163315  69.2651721 114.5605596
  60.5543863  68.8572108 116.0118998  58.7129098  72.7182361 105.8951661
  59.6246955  72.9509748 105.7199358  58.2038745  73.3019405 105.3326739
  51.5214526  74.9977848 120.9340792  52.2629211  75.5362892 120.6575615
  50.8151512  75.6244137 121.0912344  56.9969866  77.1406989 119.5312953
  57.4053222  76.6989399 118.7867586  56.2747128  76.5659616 119.7847146
  53.3500936  72.0779595 116.9046510  54.1962131  72.5019009 117.0481159
  53.2899574  71.4213220 117.5985073  57.3198681  77.7008179 113.2865242
  56.6907543  77.8653893 112.5841310  56.9324343  78.1149789 114.0576206
  61.1987913  78.6362617 110.6409606  60.5138951  79.0161519 110.0906639
  61.2831762  79.2457944 111.3741554  56.5000381  69.7383964 118.5627684
  56.2561313  70.4926024 118.0261960  56.7760312  70.1169311 119.3974931
  58.4538844  76.2822576 117.2404949  58.6655739  76.9254336 116.5639331
  58.4068592  75.4484893 116.7726880  56.0565073  68.8940397 114.1441522
  55.1949552  69.1921650 114.4358259  56.0827508  69.1110796 113.2122554
  52.8726643  77.4382587 110.5515327  53.3364988  77.7170290 109.7619950
  52.6083441  76.5366032 110.3688418  49.7650724  76.9854069 113.4895091
  50.3352081  77.4141337 112.8512575  50.3558835  76.7036654 114.1879276
  51.8095529  73.5605740 107.3604892  52.5119572  74.0126783 107.8278819
  51.4776157  72.9189559 107.9884786  50.2575890  72.1517496 121.7356102
  49.6274551  72.8333777 121.9691499  50.1511978  72.0400578 120.7909240
  45.5520863  71.8189292 112.6622026  44.7619917  72.0746821 112.1862137
  46.0432110  72.6337630 112.7674067  59.5684672  79.1594532 115.4127307
  60.3902116  78.7574719 115.1309988  59.5647075  79.0562766 116.3643423
  47.5035608  72.1833872 109.6205503  46.7066771  72.2952566 110.1388998
  47.2761200  72.5220524 108.7546393  53.3341276  78.7078575 117.5688017
  53.3985708  79.1698982 118.4046189  52.6252199  78.0775940 117.6970327
  43.8358566  72.0719783 115.0937017  44.0866604  72.9566793 115.3594593
  44.3718114  71.8924384 114.3212109  67.6590665  75.5033280 111.7612278
  66.9054374  74.9340678 111.6056283  67.7938206  75.4695945 112.7082913
  53.0489293  80.3746682 107.4366998  52.9134968  81.2198218 107.8651845
  53.5899106  80.5765960 106.6732931  49.5356633  66.4538262 124.0981353
  49.1423578  65.9004461 124.7728997  50.3522773  66.7648841 124.4887870
  46.5018691  77.8922120 108.0094923  47.0143211  78.6865371 108.1600487
  47.1541403  77.1948411 107.9428524  48.3113575  81.0087877 110.0917676
  48.4880204  81.9305841 109.9038660  49.1070409  80.6946296 110.5212056
  52.4524594  67.8696141 121.6901609  53.1934307  68.4703294 121.6106072
  52.6842517  67.1273779 121.1319652  47.5965932  73.0552509 119.9679839
  47.4819447  72.1537766 120.2686938  46.7410450  73.3016205 119.6164656
  49.4344891  82.5266051 116.0928018  49.9852316  82.3983114 115.3205012
  48.5956367  82.8260940 115.7422911  56.7739008  81.2773049 119.5948741
  56.7557483  82.0981930 119.1029010  57.6958928  81.1527124 119.8198882
  53.2312062  78.7917178 120.4372249  53.7640399  78.0305467 120.2071557
  52.7026143  78.4990830 121.1796404  56.3981757  63.8977244 115.9665891
  56.0546026  64.7878886 115.8905002  56.7660719  63.7078902 115.1035476
  44.4667607  76.2210775 108.7854493  45.3042829  76.6307783 108.5688201
  44.6445875  75.2810217 108.7554687  56.3632040  73.8885855 104.4738326
  55.8478663  74.6590460 104.7126714  56.0909348  73.2150992 105.0971388
  53.9479151  68.7335556 109.5323565  53.0920747  68.3442407 109.3529203
  54.3606102  68.8127517 108.6723350  55.4778297  66.2681899 113.9315124
  54.9743093  66.2312035 113.1182930  55.7708904  67.1774642 113.9911781
  51.7221183  66.3520629 112.9381306  52.5874180  66.1563438 112.5787196
  51.7898692  66.1230981 113.8650663  61.3366314  76.6418210 106.4091500
  60.5595756  76.3029370 105.9646662  62.0157795  76.6470833 105.7346465
  56.1518343  71.7612947 106.2998107  55.8468478  72.0759097 107.1508251
  57.1048785  71.8394367 106.3425440  54.5964775  77.9203171 107.9491061
  54.0686136  77.1855930 107.6364299  54.0952277  78.6977847 107.7031030
  59.5757621  76.1152191 113.0658108  58.9181295  76.8051453 113.1538236
  60.3798020  76.5048623 113.4092094  49.3283502  68.5822837 110.3097673
  49.9027254  68.3598019 109.5770866  49.9154485  68.6511532 111.0626274
  58.3863079  74.4696564 111.1162049  58.8994961  75.1026556 111.6183759
  59.0364303  73.8697759 110.7505409  49.6553089  70.6127298 104.3293558
  48.8190402  70.9501985 104.6502833  49.5157859  70.4776278 103.3920695
  51.6306170  65.4564086 109.0372742  50.9770582  65.1413103 108.4129357
  51.5886644  64.8339826 109.7632565  52.7417375  75.7383381 100.9526034
  51.8344436  75.5072635 101.1517183  53.2388407  74.9421000 101.1400016
  55.6485454  84.4480888 103.8722721  54.9747152  84.7512585 104.4807678
  56.0351276  85.2509969 103.5228178  54.8643910  71.9446020 113.3620390
  53.9466472  72.1660967 113.2042078  55.2804054  72.0192330 112.5032097
  55.6478958  73.3437435 108.4923070  56.3950777  73.8558832 108.1830192
  55.9170548  73.0221488 109.3527464  53.9205608  75.8395976 105.4750025
  53.0116827  75.5555009 105.5722494  53.9500692  76.2595054 104.6153331
  59.1524876  79.4502565 109.2441192  58.6987203  78.6093475 109.3006383
  58.5218842  80.0863964 109.5815972  58.0957795  70.3794551 110.4741860
  57.3580552  69.8671938 110.8052102  58.3484569  69.9394933 109.6625136
  57.5957815  81.2879062 110.1791010  57.8880789  81.8484119 109.4603376
  58.1056435  81.5807623 110.9344169  58.1969422  63.1570803 111.0683629
  58.5028299  62.2968167 110.7809544  58.9222027  63.7488424 110.8682623
  44.4893779  73.5601490 109.4565227  44.2918178  72.9670851 108.7316293
  43.9340443  73.2553700 110.1741166  52.4690502  73.4524597 111.5759820
  52.5239112  72.4998433 111.5002296  51.6581704  73.6084036 112.0601118
  53.6181696  77.3804720 102.8138103  53.1801126  76.6640579 102.3543740
  54.3592137  77.6080834 102.2523194  50.4082862  72.0701656 109.3350199
  49.5950728  72.3695827 109.7415391  50.9041856  71.6757345 110.0524681
  52.5591440  82.0659413 111.2684463  52.5167619  82.2920260 110.3392995
  53.4754139  81.8322788 111.4170265  56.0057074  72.5343481 118.1665093
  56.3606462  72.7614954 119.0259558  56.6529205  72.8661858 117.5442348
  61.7354811  75.6561917 108.8714422  61.5972709  75.8463513 107.9435611
  61.3791030  76.4181299 109.3282473  49.8996937  69.6420012 114.9511434
  50.5396316  69.5008771 114.2534397  49.0674467  69.3554525 114.5750036
  61.7624190  77.7238444 113.8825693  62.1960697  77.6313733 114.7308747
  62.4755771  77.6995944 113.2445709  50.6757241  78.9422442 111.0646426
  51.4697839  78.4472762 110.8629001  49.9648933  78.4140305 110.7014132
  55.4952085  81.3240538 115.4158794  55.5489108  81.8931474 116.1836510
  54.6266867  81.4942423 115.0512831  46.9840004  73.0865524 107.1406179
  46.0537592  73.0249979 107.3576141  47.0797476  72.5641477 106.3442820
  46.9025553  69.6120337 109.7284420  47.1632371  70.5265670 109.6193581
  47.7242726  69.1444779 109.8781033  48.3750479  71.0258094 116.8983245
  49.0473532  70.8175456 116.2495894  47.5480265  70.8280180 116.4588477
  62.6239740  77.7662144 116.4158579  62.8175630  78.6707955 116.6617853
  62.5240358  77.3069563 117.2497164  54.2776051  67.6520035 118.9148906
  53.6303966  68.3509985 118.8213382  55.0477066  68.0856179 119.2825154
  54.4540185  75.4900800 116.9745726  55.3832245  75.6411959 116.8014693
  54.0331215  75.5784821 116.1194372  53.2528517  79.5151464 114.7444263
  53.1139602  79.1470249 115.6170201  52.4643113  80.0299104 114.5728221
  53.8476669  84.6160561 106.0869800  54.0228424  84.1448604 106.9015422
  53.1609457  85.2426327 106.3151060  54.8033732  78.8933067 112.1333101
  54.4683565  78.8533837 113.0290751  54.3037678  78.2277783 111.6603511
  48.7777976  74.3000697 117.6585682  48.6397774  73.5680936 118.2597221
  49.6882899  74.2109597 117.3769870  57.7392924  76.2389101 102.4070161
  57.1222094  75.5135929 102.3103213  57.2709412  76.9998462 102.0637235
  51.4060277  74.0120656 117.1469362  52.1159895  73.3713848 117.1055980
  51.3629585  74.2633551 118.0695543  50.1189211  70.9985874 118.9665001
  49.5826568  70.5476613 119.6186598  49.5305919  71.1331783 118.2235466
  48.4137754  87.7649923 112.8609660  48.6534352  88.3968448 113.5388678
  47.5706951  87.4137963 113.1475019  49.5291470  70.4574526 101.5291465
  48.6520936  70.3363326 101.1653712  50.0049223  69.6660604 101.2770354
  59.3964463  78.9127594 118.2989921  58.5091241  78.5753515 118.4216320
  59.9663014  78.1810625 118.5358686  41.0493610  75.2451685 111.6232972
  41.7364649  74.9313415 111.0353987  40.8941738  76.1493050 111.3500224
  45.8528332  70.1341882 116.0517996  45.7686521  69.5267551 115.3168406
  45.0311038  70.6250900 116.0527492  52.9265616  83.5729046 115.2651164
  52.8535787  84.3784017 115.7770468  52.4843009  83.7721012 114.4399185
  52.7155396  82.8100816 108.7753985  51.9322917  83.3522496 108.8692210
  53.4148141  83.3274796 109.1748227  56.0252046  68.6195445 111.4188191
  56.5220745  67.8665408 111.0989261  55.2539027  68.6559762 110.8531400
  63.8781803  74.3235811 113.0606482  63.8671679  75.2060526 112.6900415
  63.0099182  73.9707362 112.8661019  55.3864299  83.4715880 117.4209323
  56.0992272  84.1063345 117.3485224  54.8954328  83.5679746 116.6049324
  57.1081826  77.3767133 108.9926614  56.1738105  77.4968595 108.8231319
  57.2858495  76.4739599 108.7286624  52.6087014  70.7612828 111.1459875
  52.2384802  70.2083869 111.8340781  53.1046107  70.1570962 110.5934875
  60.4954378  73.2184452 109.5276648  60.9614830  74.0512443 109.4536951
  60.9461878  72.7529433 110.2321907  50.4376213  81.2210323 118.2414893
  51.1385672  81.8546806 118.3944288  49.9671328  81.5625055 117.4810533
  58.5630609  79.5628273 106.5262800  58.8390453  79.4484868 107.4356674
  57.6935108  79.1645758 106.4874974  58.4671040  65.5865039 113.5667550
  57.5534120  65.8169266 113.7349757  58.8964142  65.6703483 114.4181582
  58.2377499  73.7754931 116.0667444  57.5848949  74.0230838 115.4119897
  58.6157879  72.9619069 115.7329921  55.1984673  83.8114624 110.1695614
  55.3807067  82.9936280 110.6323366  56.0217659  84.0282316 109.7320504
  55.5326838  82.7382809 107.4310663  56.0614605  82.2275264 106.8180825
  55.7955058  82.4225339 108.2956196  54.2865072  74.5174742 122.5533481
  53.6105709  74.4168871 123.2235856  55.1092706  74.3613956 123.0169478
  46.0343931  80.7546678 115.1745996  46.6197368  80.0090366 115.3073900
  45.8368769  81.0650635 116.0582660  48.8882586  83.7897926 110.1908438
  48.2192962  84.2744053 109.7072479  48.7495456  84.0367146 111.1051817
  40.6261586  73.3252279 113.8950439  40.6645685  72.7915869 114.6887557
  40.1201879  72.7987484 113.2761416  53.0287855  85.8241669 116.7891097
  53.5806163  85.9873291 117.5540182  53.3694048  86.4146107 116.1171122
  48.0052348  68.1716819 117.3912982  48.0693675  69.0331650 116.9790379
  47.9419468  67.5590821 116.6585340  47.4804621  70.2439952 121.0386016
  48.1076659  69.8617029 121.6523540  46.6232539  70.0254154 121.4041708
  44.2570163  72.0516381 106.9704371  44.5523604  71.1427059 106.9171424
  43.3558199  72.0304120 106.6485373  56.1656242  83.7723645 113.7754779
  56.0407382  82.9713385 113.2665724  56.8235333  84.2669838 113.2868749
  47.7864410  70.1272377 112.9531919  47.0650996  70.7408345 112.8139393
  48.5757666  70.6630142 112.8748565  58.2291151  81.5732665 115.4034329
  57.2821486  81.4538016 115.3312656  58.5773924  80.6855163 115.4860591
  50.5890724  67.4626804 119.2272571  51.1125126  67.7089100 119.9898880
  50.3703057  68.2946839 118.8075708  45.9858005  69.7330478 107.0943696
  45.6570711  68.8527857 106.9118802  46.3397376  69.6778147 107.9820085
  55.2337584  81.3685381 111.6038681  55.0862546  80.4402089 111.7846251
  56.0591077  81.3905472 111.1195757  49.0999828  70.0203448 107.4619173
  49.4395901  70.5489370 106.7397782  49.5471949  70.3583854 108.2377740
  58.8371706  82.1913940 112.6903554  59.7618253  81.9856801 112.5528005
  58.6687009  81.9430341 113.5992896  51.7943269  68.4040499 116.9122241
  51.4540089  67.6048312 117.3142921  51.0882275  68.7042210 116.3399075
  52.4459741  65.4889811 115.3649565  53.2685810  65.0150290 115.2428455
  52.6897804  66.2680295 115.8648251  51.0867975  68.5178070 105.6612466
  51.8076338  68.8959323 105.1576183  50.4633279  69.2366947 105.7647444
  55.2299098  69.2223219 106.5970799  55.4462713  70.1047857 106.2959627
  54.7493165  68.8309432 105.8676441  49.9698320  72.1808932 113.1741543
  49.8242900  72.4949235 114.0665825  49.4923523  72.7993832 112.6212442
  51.8294702  69.1711480 113.2222433  51.8156271  68.2752573 112.8854731
  52.5467130  69.1782144 113.8560719  53.6820833  69.6048820 115.2675560
  53.4238611  70.5265891 115.2659891  53.1505873  69.2079255 115.9576024
  58.6267022  82.7099607 108.0465646  58.8003899  82.1446030 107.2939498
  59.1195913  83.5100502 107.8645135  44.4443982  74.7214276 116.1129204
  43.8997450  75.4974084 116.2449479  45.3223332  75.0685081 115.9548326
  51.2331598  68.0525860 108.4910003  51.3547510  67.1242506 108.6900890
  50.9433641  68.0664546 107.5788318  54.1022789  65.7380771 111.6276723
  54.1244486  65.8020104 110.6728702  54.5190848  64.8985279 111.8217229
  64.4806413  75.4736030 109.6655945  64.9237559  74.7243355 109.2675069
  63.6032923  75.4646167 109.2829677  59.6142194  82.0266372 105.1462544
  60.3093099  82.6473064 105.3649858  59.9565344  81.1761723 105.4214922
  45.2310004  73.8484173 119.0059361  44.4891740  73.9966808 119.5923992
  44.9102748  74.1092438 118.1426111  61.5133617  79.4766077 106.6749875
  62.0384942  79.8153350 105.9499195  61.4255970  78.5413093 106.4913009
  53.1753666  83.3900151 118.8039751  53.4840793  83.1449298 119.6762451
  53.9729148  83.5946789 118.3158621  53.1974278  85.5438061 111.0345128
  52.7579269  85.0514439 111.7277984  53.9482395  85.0011028 110.7937203
  45.6766617  81.7349601 111.0369756  46.5024637  81.4353373 110.6568399
  45.3260669  80.9657224 111.4859544  50.6448150  81.0876070 113.1067429
  50.0228160  80.4246775 112.8069657  51.3153017  81.1137202 112.4241077
  43.8775222  79.6535928 111.9958689  43.0407131  79.2258102 111.8142691
  43.8498868  79.8468371 112.9329481  50.7172678  69.5657858 122.6999935
  50.7660833  70.4419980 122.3177705  51.2595192  69.0235251 122.1271579
  61.3225399  76.9591447 119.2933801  61.3723404  76.7941455 120.2349324
  61.2139322  76.0918706 118.9031682  50.2061657  79.6379993 106.5825890
  50.3549778  80.3215457 105.9292563  51.0128101  79.6185083 107.0975346
  58.6129161  72.9422375 120.6093108  59.5139024  72.8028840 120.3177106
  58.6877135  73.1076830 121.5491285  52.9471966  70.3189230 119.4546294
  52.0775276  70.6122796 119.1828883  53.1831447  70.9029675 120.1753558
  64.0239278  76.9441269 112.0578393  64.8586169  77.3831073 112.2215953
  64.1598407  76.4679922 111.2386639  61.0730784  74.5021003 118.0055881
  61.5484905  74.6948650 117.1974732  60.1496349  74.5580189 117.7599264
  47.9614290  75.6645171 107.5886959  47.7160332  74.7607501 107.7867169
  48.1310205  75.6662321 106.6466437  55.6511000  66.5368847 116.9711714
  56.1692944  67.2729874 116.6458203  55.2966133  66.8432840 117.8058474
  47.2309938  71.3973528 105.0873120  46.5379183  71.4717883 104.4313156
  46.9861690  70.6333872 105.6094637  55.9023594  62.9569130 112.4912611
  56.1825348  62.2892319 113.1173038  56.6874201  63.1498225 111.9787275
  53.7057063  82.1328123 104.0537637  53.1331030  82.7518311 103.6008109
  54.2789856  82.6827485 104.5877559  59.7732453  71.3786764 116.2384186
  60.7249876  71.4784861 116.2596410  59.6035903  70.5865032 116.7482271
  57.7946832  68.4642347 116.4243587  57.1996764  68.7447359 115.7290076
  57.5096529  68.9536248 117.1960328  56.9254323  82.4165274 105.1846220
  57.8584996  82.3510835 105.3879095  56.8377535  83.2521540 104.7260752
  59.5542339  81.7331144 102.1450167  59.4755971  81.3991008 103.0385925
  60.3752006  82.2252912 102.1441640  62.2520530  74.5992883 115.3526486
  62.2196851  73.6608884 115.5386170  62.8621154  74.6776920 114.6192311
  54.0903861  73.4688936 101.3953690  55.0362966  73.3395144 101.4642108
  53.7118106  72.7303598 101.8723118  62.4015019  71.3903927 115.3984769
  61.8854068  70.6062383 115.2114698  63.2854967  71.0622643 115.5631288
  60.0625746  65.1344942 111.3580582  59.8650567  64.8260030 112.2423914
  60.6725451  65.8606581 111.4878512  68.0697080  75.6608890 114.4932523
  68.8000469  75.3994178 115.0540226  67.4604026  74.9237612 114.5334591
  66.1512377  73.8016753 115.0906974  65.4245541  73.6672718 114.4823465
  65.7359664  74.1093581 115.8963692  52.2746778  71.3938913 101.3308575
  51.3678234  71.0972025 101.4071289  52.5522759  71.0968731 100.4642861
  43.1924719  72.7145276 111.7807621  42.8727503  71.8610584 111.4881995
  42.6458147  72.9293854 112.5365589  46.9704626  75.4307717 115.4977128
  47.1890636  76.3624825 115.5165162  47.3830400  75.0715691 116.2831932
  53.8908844  65.9375802 107.4852816  53.0809572  65.5922887 107.8608062
  54.5793261  65.6283346 108.0740428  55.8199392  65.0153849 109.1077113
  56.3730431  65.4349303 109.7667136  56.0569479  64.0889597 109.1500069
  51.8432492  71.0040923 124.8879877  51.7429219  71.9535280 124.8191968
  51.6254034  70.6759162 124.0155947  51.0445563  68.2525848 101.4720554
  51.9064727  68.5780746 101.7316372  51.2295907  67.4657344 100.9593620
  43.0612979  76.3348187 113.7500743  42.3676450  75.9202140 113.2370697
  43.8085970  76.3768724 113.1534162  59.1978200  67.1254374 108.6155777
  58.6176869  67.7839178 108.2333830  58.9314132  66.3031719 108.2043195
  57.6481766  66.5259432 110.8177098  58.1481544  66.6375966 110.0091416
  58.2917374  66.2220485 111.4577906  51.7063762  74.4338062 123.7044939
  51.2230843  75.2338422 123.9108828  51.7924701  74.4446006 122.7512383
  44.9749721  76.2666441 111.6266758  44.9520409  76.3654129 110.6748641
  45.2850358  77.1131592 111.9483924  47.6337099  78.3242596 115.7413372
  48.5880353  78.2926539 115.6743304  47.4349623  77.8633220 116.5563598
  48.2236481  76.8943712 118.3084170  49.0429370  77.3887791 118.3319007
  48.4973289  75.9775680 118.2801738  57.9803078  69.2854465 107.6712126
  57.0928933  69.5704115 107.4532320  58.3957067  69.1248228 106.8239402
  61.3317614  69.3100986 111.3866465  62.1078004  69.7997438 111.6591082
  60.6065748  69.7359040 111.8438334  63.7690172  70.0228605 112.4440405
  64.3634663  69.7824341 111.7333714  63.8416756  69.3035735 113.0713942
  45.9887328  83.8662216 112.7583570  45.8541796  83.1062617 112.1921568
  45.5719390  84.5903116 112.2912359  57.1246291  79.0499139 101.7660146
  57.8282141  79.2549142 102.3817801  56.4008940  79.6175901 102.0309229
  57.9544101  74.8009001 107.8862416  57.8979303  75.2577552 107.0470048
  58.5072444  74.0399685 107.7085258  61.7648907  70.5898732 108.7112535
  61.5085841  70.1895368 109.5420743  61.1401775  71.3042526 108.5862674
  66.0761245  73.3294806 111.2183827  65.5160803  73.3987995 111.9915389
  65.4704748  73.1535790 110.4983323  49.1456454  84.7631533 112.9702013
  49.0288838  85.7076965 112.8680703  48.3248900  84.4605094 113.3587812
  59.0332988  79.4881669 103.8158606  59.8678592  79.0562867 103.6336080
  58.8717331  79.3163682 104.7435500  58.6878881  75.9913782 105.1814945
  58.6327684  75.8258053 104.2403389  58.0624936  76.6989815 105.3377135
  43.4771396  71.2281846 119.0076367  44.1230259  70.7180800 119.4963592
  43.2688547  71.9650528 119.5819792  51.9975006  65.4921891 104.7600263
  51.9853676  66.4363731 104.9168534  52.8898428  65.3092036 104.4659724
  50.1710968  85.4159795 116.1857941  51.0738215  85.4483405 116.5024436
  49.9448338  84.4860246 116.2004277  51.9264570  84.1690781 112.8468020
  50.9760201  84.1692643 112.7332392  52.2297056  83.4223516 112.3304055
  55.8127126  62.0864667 109.0146200  55.0459521  61.5323154 109.1602882
  56.2237831  62.1586536 109.8760352  47.8168887  68.3749463 123.1051381
  48.6800348  68.0186268 123.3154706  47.2434297  68.0363358 123.7926786
  60.3293786  91.8114224 109.8372198  59.7658651  91.7204161 109.0688486
  60.2146181  90.9914129 110.3174691  65.9093344  95.4785192 105.1486663
  65.2581324  96.0639272 104.7620677  66.7037707  96.0091387 105.2081700
  59.8348971  92.5674329 105.5473797  60.6079847  92.0203316 105.4086673
  60.1874370  93.4318578 105.7588259  62.1715249  88.7266995 103.1792247
  62.4240770  88.2048516 102.4175710  61.2339808  88.5633141 103.2818931
  67.2158532  87.7302773 110.9866990  68.0021621  87.3122197 110.6357407
  67.4797236  88.6348866 111.1548639  67.3868609  93.1675624 105.6855647
  66.7514442  93.2410250 106.3976552  67.0566016  93.7569223 105.0074726
  61.8911538  90.6295101 105.3816622  61.7747796  89.9540004 106.0497706
  62.0013798  90.1427475 104.5648775  64.2343079  90.0905248 109.0863311
  63.8701286  89.5635869 109.7976233  65.0910195  89.7003717 108.9129797
  63.8748566  85.1195148 104.0824660  64.0422968  85.9875384 104.4495131
  63.6845735  85.2822430 103.1585949  60.0836381  90.0325924 111.7827195
  59.1586877  89.9002138 111.9904886  60.3320794  90.8120143 112.2797137
  63.8537787  87.5752805 105.0671327  63.7337412  88.0209856 105.9056807
  63.1590375  87.9238123 104.5084865  57.4445192  89.6759197 112.6170984
  57.5737573  89.9293676 113.5310395  56.7642643  90.2686905 112.2975639
  69.5522853  88.0474279 105.8951661  70.4640709  88.2801665 105.7199358
  69.0432500  88.6311323 105.3326739  66.8958828  84.2232315 114.1441522
  66.0343307  84.5213568 114.4358259  66.9221262  84.4402713 113.2122554
  63.7120397  92.7674505 110.5515327  64.1758743  93.0462208 109.7619950
  63.4477195  91.8657950 110.3688418  62.6489283  88.8897657 107.3604892
  63.3513326  89.3418701 107.8278819  62.3169912  88.2481476 107.9884786
  56.3914617  87.1481210 112.6622026  55.6013671  87.4038739 112.1862137
  56.8825864  87.9629548 112.7674067  58.3429362  87.5125789 109.6205503
  57.5460526  87.6244484 110.1388998  58.1154955  87.8512442 108.7546393
  54.6752320  87.4011701 115.0937017  54.9260358  88.2858710 115.3594593
  55.2111868  87.2216302 114.3212109  63.8883048  95.7038600 107.4366998
  63.7528723  96.5490136 107.8651845  64.4292860  95.9057878 106.6732931
  57.3412445  93.2214038 108.0094923  57.8536966  94.0157288 108.1600487
  57.9935158  92.5240329 107.9428524  67.2375511  79.2269162 115.9665891
  66.8939781  80.1170804 115.8905002  67.6054474  79.0370820 115.1035476
  55.3061362  91.5502692 108.7854493  56.1436584  91.9599701 108.5688201
  55.4839630  90.6102135 108.7554687  67.2025794  89.2177773 104.4738326
  66.6872417  89.9882378 104.7126714  66.9303102  88.5442909 105.0971388
  64.7872905  84.0627474 109.5323565  63.9314501  83.6734324 109.3529203
  65.1999857  84.1419435 108.6723350  66.3172052  81.5973817 113.9315124
  65.8136847  81.5603952 113.1182930  66.6102659  82.5066560 113.9911781
  62.5614938  81.6812547 112.9381306  63.4267934  81.4855356 112.5787196
  62.6292446  81.4522899 113.8650663  72.1760068  91.9710128 106.4091500
  71.3989511  91.6321287 105.9646662  72.8551549  91.9762751 105.7346465
  66.9912097  87.0904865 106.2998107  66.6862233  87.4051014 107.1508251
  67.9442539  87.1686285 106.3425440  65.4358529  93.2495088 107.9491061
  64.9079891  92.5147848 107.6364299  64.9346032  94.0269765 107.7031030
  60.1677257  83.9114755 110.3097673  60.7421009  83.6889936 109.5770866
  60.7548239  83.9803449 111.0626274  60.4946844  85.9419216 104.3293558
  59.6584156  86.2793902 104.6502833  60.3551613  85.8068196 103.3920695
  62.4699924  80.7856004 109.0372742  61.8164337  80.4705021 108.4129357
  62.4280399  80.1631744 109.7632565  63.5811129  91.0675299 100.9526034
  62.6738191  90.8364552 101.1517183  64.0782161  90.2712918 101.1400016
  66.4879208  99.7772806 103.8722721  65.8140907 100.0804503 104.4807678
  66.8745030 100.5801886 103.5228178  66.4872712  88.6729353 108.4923070
  67.2344531  89.1850750 108.1830192  66.7564302  88.3513406 109.3527464
  64.7599363  91.1687894 105.4750025  63.8510582  90.8846926 105.5722494
  64.7894446  91.5886972 104.6153331  68.9351550  85.7086469 110.4741860
  68.1974306  85.1963855 110.8052102  69.1878323  85.2686851 109.6625136
  69.0363177  78.4862721 111.0683629  69.3422054  77.6260085 110.7809544
  69.7615782  79.0780341 110.8682623  55.3287533  88.8893408 109.4565227
  55.1311933  88.2962768 108.7316293  54.7734197  88.5845618 110.1741166
  63.3084257  88.7816514 111.5759820  63.3632866  87.8290351 111.5002296
  62.4975459  88.9375953 112.0601118  64.4575450  92.7096637 102.8138103
  64.0194880  91.9932496 102.3543740  65.1985891  92.9372752 102.2523194
  61.2476617  87.3993574 109.3350199  60.4344482  87.6987745 109.7415391
  61.7435611  87.0049263 110.0524681  60.7390691  84.9711929 114.9511434
  61.3790071  84.8300689 114.2534397  59.9068222  84.6846443 114.5750036
  57.8233759  88.4157442 107.1406179  56.8931347  88.3541897 107.3576141
  57.9191231  87.8933394 106.3442820  57.7419308  84.9412254 109.7284420
  58.0026125  85.8557588 109.6193581  58.5636480  84.4736697 109.8781033
  68.5786678  91.5681019 102.4070161  67.9615849  90.8427847 102.3103213
  68.1103167  92.3290379 102.0637235  60.3685224  85.7866443 101.5291465
  59.4914690  85.6655244 101.1653712  60.8442977  84.9952522 101.2770354
  51.8887364  90.5743603 111.6232972  52.5758404  90.2605333 111.0353987
  51.7335493  91.4784968 111.3500224  56.6922086  85.4633800 116.0517996
  56.6080275  84.8559469 115.3168406  55.8704793  85.9542818 116.0527492
  66.8645800  83.9487363 111.4188191  67.3614500  83.1957325 111.0989261
  66.0932782  83.9851680 110.8531400  63.4480769  86.0904746 111.1459875
  63.0778556  85.5375786 111.8340781  63.9439861  85.4862880 110.5934875
  69.3064795  80.9156957 113.5667550  68.3927875  81.1461183 113.7349757
  69.7357896  80.9995401 114.4181582  51.4655340  88.6544196 113.8950439
  51.5039440  88.1207787 114.6887557  50.9595633  88.1279402 113.2761416
  58.8446103  83.5008737 117.3912982  58.9087429  84.3623568 116.9790379
  58.7813223  82.8882738 116.6585340  55.0963918  87.3808298 106.9704371
  55.3917359  86.4718977 106.9171424  54.1951954  87.3596038 106.6485373
  58.6258165  85.4564295 112.9531919  57.9044751  86.0700263 112.8139393
  59.4151421  85.9922060 112.8748565  56.8251759  85.0622396 107.0943696
  56.4964466  84.1819775 106.9118802  57.1791130  85.0070065 107.9820085
  59.9393583  85.3495366 107.4619173  60.2789655  85.8781287 106.7397782
  60.3865703  85.6875772 108.2377740  63.2853495  80.8181729 115.3649565
  64.1079565  80.3442207 115.2428455  63.5291559  81.5972213 115.8648251
  61.9261730  83.8469988 105.6612466  62.6470092  84.2251240 105.1576183
  61.3027034  84.5658864 105.7647444  66.0692853  84.5515136 106.5970799
  66.2856467  85.4339774 106.2959627  65.5886920  84.1601350 105.8676441
  60.8092074  87.5100850 113.1741543  60.6636655  87.8241153 114.0665825
  60.3317278  88.1285750 112.6212442  62.6688457  84.5003398 113.2222433
  62.6550026  83.6044491 112.8854731  63.3860885  84.5074061 113.8560719
  62.0725353  83.3817778 108.4910003  62.1941264  82.4534424 108.6900890
  61.7827395  83.3956464 107.5788318  64.9416543  81.0672688 111.6276723
  64.9638240  81.1312022 110.6728702  65.3584602  80.2277197 111.8217229
  56.5160372  97.0641519 111.0369756  57.3418392  96.7645291 110.6568399
  56.1654424  96.2949142 111.4859544  54.7168977  94.9827846 111.9958689
  53.8800885  94.5550020 111.8142691  54.6892622  95.1760289 112.9329481
  61.0455412  94.9671911 106.5825890  61.1943532  95.6507375 105.9292563
  61.8521855  94.9477001 107.0975346  58.8008045  90.9937088 107.5886959
  58.5554087  90.0899418 107.7867169  58.9703959  90.9954239 106.6466437
  58.0703692  86.7265446 105.0873120  57.3772937  86.8009801 104.4313156
  57.8255444  85.9625790 105.6094637  66.7417349  78.2861047 112.4912611
  67.0219103  77.6184236 113.1173038  67.5267956  78.4790143 111.9787275
  64.5450817  97.4620041 104.0537637  63.9724784  98.0810228 103.6008109
  65.1183611  98.0119403 104.5877559  67.7648077  97.7457191 105.1846220
  68.6978750  97.6802753 105.3879095  67.6771290  98.5813458 104.7260752
  70.3936094  97.0623062 102.1450167  70.3149725  96.7282925 103.0385925
  71.2145761  97.5544830 102.1441640  64.9297616  88.7980854 101.3953690
  65.8756721  88.6687062 101.4642108  64.5511861  88.0595516 101.8723118
  70.9019500  80.4636860 111.3580582  70.7044321  80.1551948 112.2423914
  71.5119206  81.1898499 111.4878512  63.1140533  86.7230830 101.3308575
  62.2071988  86.4263943 101.4071289  63.3916514  86.4260648 100.4642861
  54.0318473  88.0437194 111.7807621  53.7121258  87.1902502 111.4881995
  53.4851902  88.2585772 112.5365589  64.7302599  81.2667720 107.4852816
  63.9203327  80.9214805 107.8608062  65.4187016  80.9575264 108.0740428
  66.6593147  80.3445767 109.1077113  67.2124186  80.7641220 109.7667136
  66.8963233  79.4181515 109.1500069  61.8839318  83.5817765 101.4720554
  62.7458482  83.9072664 101.7316372  62.0689662  82.7949261 100.9593620
  53.9006733  91.6640105 113.7500743  53.2070205  91.2494058 113.2370697
  54.6479724  91.7060642 113.1534162  70.0371954  82.4546292 108.6155777
  69.4570623  83.1131096 108.2333830  69.7707887  81.6323637 108.2043195
  68.4875520  81.8551350 110.8177098  68.9875299  81.9667884 110.0091416
  69.1311128  81.5512402 111.4577906  55.8143476  91.5958359 111.6266758
  55.7914164  91.6946046 110.6748641  56.1244112  92.4423510 111.9483924
  68.8196832  84.6146382 107.6712126  67.9322687  84.8996033 107.4532320
  69.2350821  84.4540146 106.8239402  67.9640046  94.3791057 101.7660146
  68.6675896  94.5841059 102.3817801  67.2402694  94.9467819 102.0309229
  68.7937856  90.1300918 107.8862416  68.7373057  90.5869470 107.0470048
  69.3466198  89.3691603 107.7085258  72.6042662  85.9190650 108.7112535
  72.3479596  85.5187286 109.5420743  71.9795530  86.6334444 108.5862674
  69.8726743  94.8173586 103.8158606  70.7072347  94.3854785 103.6336080
  69.7111086  94.6455600 104.7435500  69.5272635  91.3205700 105.1814945
  69.4721439  91.1549971 104.2403389  68.9018690  92.0281732 105.3377135
  62.8368761  80.8213809 104.7600263  62.8247430  81.7655648 104.9168534
  63.7292182  80.6383954 104.4659724  66.6520880  77.4156585 109.0146200
  65.8853276  76.8615072 109.1602882  67.0631585  77.4878454 109.8760352
  71.2078978 101.1158361 101.5291465  70.3308445 100.9947162 101.1653712
  71.6836732 100.3244439 101.2770354  72.7233072  98.9109683 101.4720554
  73.5852236  99.2364581 101.7316372  72.9083416  98.1241179 100.9593620
  23.1304191  15.4667258  90.5968027  22.4565890  15.7698955  91.2052985
  23.5170013  16.2696338  90.2473484  27.0361077  12.7517513  88.8695474
  26.9574709  12.4177377  89.7631232  27.8570744  13.2439281  88.8686946
  24.6065029  10.0685509  88.4905452  25.3100879  10.2735511  89.1063108
  23.8827678  10.6362271  88.7554536  27.8112523  22.8300594  96.5617505
  27.2477388  22.7390531  95.7933792  27.6964918  22.0100498  97.0419997
  33.3912082  26.4971561  91.8731970  32.7400062  27.0825642  91.4865983
  34.1856445  27.0277756  91.9327007  27.3167709  23.5860699  92.2719104
  28.0898585  23.0389686  92.1331980  27.6693108  24.4504948  92.4833565
  29.6533987  19.7453365  89.9037554  29.9059508  19.2234886  89.1421017
  28.7158546  19.5819510  90.0064237  34.6977270  18.7489143  97.7112297
  35.4840359  18.3308566  97.3602714  34.9615974  19.6535235  97.8793945
  34.8687347  24.1861993  92.4100954  34.2333180  24.2596620  93.1221858
  34.5384754  24.7755592  91.7320033  40.0985697  18.6864376  98.6145276
  40.8310869  18.1163593  98.8483105  39.3425053  18.2985977  99.0551781
  29.3730276  21.6481471  92.1061929  29.2566534  20.9726374  92.7743013
  29.4832536  21.1613845  91.2894082  31.7161817  21.1091618  95.8108618
  31.3520024  20.5822239  96.5221539  32.5728933  20.7190087  95.6375103
  31.3567304  16.1381517  90.8069966  31.5241706  17.0061754  91.1740438
  31.1664473  16.3008799  89.8831256  31.3356525  18.5939175  91.7916633
  31.2156150  19.0396226  92.6302114  30.6409113  18.9424493  91.2330171
  29.0963417  31.3642817  95.4406765  29.0187446  32.3150642  95.5195245
  28.4925060  31.0188689  96.0981691  37.0341591  19.0660648  92.6196967
  37.9459447  19.2988035  92.4444665  36.5251238  19.6497692  92.0572046
  35.6411173  24.0486467 100.0110549  35.0120035  24.2132181  99.3086617
  35.2536835  24.4628076 100.7821513  39.5200405  24.9840904  97.3654913
  38.8351443  25.3639806  96.8151946  39.6044254  25.5936231  98.0986860
  31.1939135  23.7860875  97.2760634  31.6577480  24.0648578  96.4865256
  30.9295933  22.8844319  97.0933725  30.1308021  19.9084027  94.0850199
  30.8332064  20.3605071  94.5524125  29.7988649  19.2667846  94.7130092
  37.8897164  25.5072819 102.1372613  38.7114608  25.1053006 101.8555295
  37.8859567  25.4041053 103.0888729  45.9803157  21.8511567  98.4857585
  45.2266866  21.2818965  98.3301589  46.1150699  21.8174232  99.4328220
  31.3701786  26.7224970  94.1612304  31.2347460  27.5676505  94.5897152
  31.9111598  26.9244247  93.3978238  24.8231183  24.2400408  94.7340229
  25.3355703  25.0343658  94.8845794  25.4753896  23.5426698  94.6673831
  26.6326068  27.3566164  96.8162983  26.8092696  28.2784129  96.6283966
  27.4282901  27.0424583  97.2457362  34.6844532  20.2364143  91.1983633
  34.1691155  21.0068747  91.4372020  34.4121840  19.5629279  91.8216694
  39.6578806  22.9896497  93.1336806  38.8808249  22.6507657  92.6891968
  40.3370287  22.9949120  92.4591771  34.4730835  18.1091235  93.0243414
  34.1680971  18.4237384  93.8753557  35.4261277  18.1872655  93.0670747
  32.9177267  24.2681458  94.6736368  32.3898628  23.5334218  94.3609605
  32.4164770  25.0456134  94.4276336  37.8970113  22.4630479  99.7903414
  37.2393787  23.1529740  99.8783543  38.7010512  22.8526910 100.1337401
  36.7075572  20.8174851  97.8407356  37.2207453  21.4504843  98.3429066
  37.3576796  20.2176047  97.4750716  27.9765582  16.9605585  91.0538865
  27.1402894  17.2980272  91.3748140  27.8370351  16.8254565  90.1166002
  31.0629867  22.0861668  87.6771341  30.1556929  21.8550922  87.8762490
  31.5600899  21.2899288  87.8645323  33.9697946  30.7959176  90.5968027
  33.2959645  31.0990872  91.2052985  34.3563768  31.5988256  90.2473484
  33.9691450  19.6915722  95.2168377  34.7163269  20.2037120  94.9075499
  34.2383040  19.3699775  96.0772770  32.2418100  22.1874263  92.1995331
  31.3329320  21.9033296  92.2967801  32.2713184  22.6073342  91.3398638
  37.4737368  25.7980853  95.9686499  37.0199695  24.9571763  96.0251689
  36.8431335  26.4342251  96.3061279  35.9170307  27.6357349  96.9036317
  36.2093281  28.1962406  96.1848682  36.4268928  27.9285910  97.6589476
  31.9394188  23.7283007  89.5383410  31.5013618  23.0118866  89.0789047
  32.6804629  23.9559122  88.9768501  30.8803932  28.4137700  97.9929770
  30.8380111  28.6398547  97.0638302  31.7966631  28.1801075  98.1415571
  40.0567303  22.0040204  95.5959728  39.9185202  22.1941800  94.6680918
  39.7003522  22.7659587  96.0527779  40.0836683  24.0716731 100.6071000
  40.5173189  23.9792020 101.4554054  40.7968263  24.0474231  99.9691016
  28.9969733  25.2900729  97.7891733  29.7910332  24.7951050  97.5874308
  28.2861425  24.7618593  97.4259438  33.8164578  27.6718825 102.1404100
  33.8701600  28.2409761 102.9081816  32.9479359  27.8420710 101.7758138
  25.3052497  19.4343811  93.8651485  24.3750085  19.3728267  94.0821448
  25.4009969  18.9119764  93.0688127  32.1689161  30.9638848  92.8115106
  32.3440917  30.4926891  93.6260729  31.4821949  31.5904614  93.0396367
  33.1246224  25.2411354  98.8578408  32.7896057  25.2012124  99.7536058
  32.6250170  24.5756070  98.3848818  36.0605416  22.5867388  89.1315467
  35.4434587  21.8614217  89.0348520  35.5921904  23.3476749  88.7882542
  26.7350246  34.1128211  99.5854967  26.9746845  34.7446735 100.2633985
  25.8919443  33.7616251  99.8720326  27.8503962  16.8052813  88.2536772
  26.9733428  16.6841614  87.8899018  28.3261715  16.0138891  88.0015660
  31.2478108  29.9207333 101.9896471  31.1748280  30.7262305 102.5015775
  30.8055501  30.1199299 101.1644492  31.0367888  29.1579103  95.4999292
  30.2535410  29.7000783  95.5937517  31.7360633  29.6753083  95.8993533
  42.1994295  20.6714098  99.7851789  42.1884172  21.5538814  99.4145722
  41.3311675  20.3185649  99.5906326  35.4294319  23.7245420  95.7171921
  34.4950597  23.8446882  95.5476625  35.6070987  22.8217887  95.4531931
  38.8166870  19.5662739  96.2521955  39.2827322  20.3990731  96.1782258
  39.2674370  19.1007721  96.9567214  36.8843101  25.9106560  93.2508107
  37.1602945  25.7963155  94.1601981  36.0147600  25.5124045  93.2120280
  33.5197165  30.1592911  96.8940921  33.7019560  29.3414567  97.3568673
  34.3430151  30.3760604  96.4565811  33.8539331  29.0861096  94.1555969
  34.3827097  28.5753551  93.5426131  34.1167550  28.7703627  95.0201502
  27.2095079  30.1376213  96.9153745  26.5405454  30.6222341  96.4317785
  27.0707948  30.3845434  97.8297124  31.3500347  32.1719957 103.5136403
  31.9018655  32.3351578 104.2785489  31.6906541  32.7624394 102.8416428
  34.4868734  30.1201932 100.5000086  34.3619874  29.3191672  99.9911031
  35.1447826  30.6148125 100.0114056  36.5503643  27.9210952 102.1279636
  35.6033978  27.8016303 102.0557962  36.8986416  27.0333450 102.2105897
  33.5550076  27.7163668  98.3283988  33.4075039  26.7880376  98.5091558
  34.3803570  27.7383759  97.8441063  37.1584198  28.5392227  99.4148861
  38.0830745  28.3335088  99.2773312  36.9899501  28.2908628 100.3238202
  29.4080468  14.8656357  92.3857773  30.1288830  15.2437610  91.8821490
  28.7845772  15.5845234  92.4892751  33.5511590  15.5701506  93.3216105
  33.7675205  16.4526144  93.0204933  33.0705658  15.1787719  92.5921747
  36.9479514  29.0577895  94.7710952  37.1216392  28.4924317  94.0184805
  37.4408405  29.8578789  94.5890442  42.8018905  21.8214318  96.3901252
  43.2450051  21.0721643  95.9920375  41.9245416  21.8124454  96.0074984
  37.9354687  28.3744659  91.8707850  38.6305591  28.9951352  92.0895165
  38.2777837  27.5240010  92.1460228  39.8346110  25.8244365  93.3995181
  40.3597434  26.1631637  92.6744501  39.7468462  24.8891380  93.2158316
  31.5186770  31.8916348  97.7590434  31.0791761  31.3992727  98.4523291
  32.2694887  31.3489315  97.5182510  23.9979109  28.0827889  97.7615062
  24.8237129  27.7831661  97.3813706  23.6473161  27.3135511  98.2104851
  28.9660643  27.4354357  99.8312736  28.3440652  26.7725062  99.5314964
  29.6365510  27.4615489  99.1486384  28.5274150  25.9858280  93.3071197
  28.6762270  26.6693745  92.6537869  29.3340593  25.9663370  93.8220652
  42.3451770  23.2919556  98.7823699  43.1798661  23.7309360  98.9461260
  42.4810899  22.8158209  97.9631945  26.2826783  22.0123458  94.3132265
  26.0372824  21.1085788  94.5112476  26.4522697  22.0140608  93.3711743
  25.5522430  17.7451815  91.8118427  24.8591675  17.8196170  91.1558463
  25.3074182  16.9812159  92.3339944  32.0269555  28.4806411  90.7782944
  31.4543522  29.0996598  90.3253416  32.6002349  29.0305772  91.3122866
  35.2466815  28.7643561  91.9091526  36.1797488  28.6989122  92.1124402
  35.1590028  29.5999828  91.4506059  37.8754832  28.0809431  88.8695474
  37.7968463  27.7469295  89.7631232  38.6964498  28.5731199  88.8686946
  32.4116354  19.8167223  88.1198996  33.3575458  19.6873432  88.1887415
  32.0330599  19.0781885  88.5968425  46.3909573  22.0087177 101.2177829
  47.1212961  21.7472465 101.7785533  45.7816518  21.2715899 101.2579897
  44.4724870  20.1495040 101.8152280  43.7458033  20.0151005 101.2068772
  44.0572157  20.4571869 102.6208998  30.5959271  17.7417200  88.0553882
  29.6890726  17.4450313  88.1316595  30.8735252  17.4447018  87.1888168
  29.3658055  14.6004135  88.1965861  30.2277219  14.9259033  88.4561678
  29.5508400  13.8135631  87.6838927  37.5190692  13.4732662  95.3401084
  36.9389361  14.1317466  94.9579136  37.2526625  12.6510006  94.9288501
  36.3015570  15.6332752  94.3957432  35.4141425  15.9182403  94.1777627
  36.7169559  15.4726515  93.5484709  24.3099820  30.2140503  99.4828877
  24.1754288  29.4540904  98.9166875  23.8931883  30.9381403  99.0157666
  35.4458783  25.3977427  88.4905452  36.1494633  25.6027429  89.1063108
  34.7221432  25.9654188  88.7554536  36.2756594  21.1487288  94.6107722
  36.2191795  21.6055839  93.7715355  36.8284936  20.3877972  94.4330565
  40.0861400  16.9377020  95.4357842  39.8298334  16.5373655  96.2666050
  39.4614268  17.6520814  95.3107981  44.3973737  19.6773093  97.9429133
  43.8373295  19.7466282  98.7160695  43.7917241  19.5014078  97.2228629
  27.4668946  31.1109820  99.6947320  27.3501330  32.0555253  99.5926010
  26.6461392  30.8083382 100.0833119  37.3545481  25.8359956  90.5403912
  38.1891085  25.4041154  90.3581387  37.1929824  25.6641969  91.4680807
  37.0091373  22.3392069  91.9060252  36.9540177  22.1736340  90.9648696
  36.3837428  23.0468102  92.0622441  30.3187498  11.8400178  91.4845570
  30.3066168  12.7842018  91.6413841  31.2110920  11.6570323  91.1905031
  30.2477062  30.5169068  99.5713327  29.2972693  30.5170930  99.4577699
  30.5509548  29.7701803  99.0549361  45.9829756  36.3529607 100.6359089
  46.6208166  36.2336354  99.9322429  45.8650599  37.3010451 100.6947041
  42.7919462  36.3057035 100.5720614  42.4537974  36.1898100  99.6841149
  43.6609230  35.9048200 100.5521620  38.6506278  38.1592511  96.5617505
  38.0871143  38.0682448  95.7933792  38.5358673  37.3392416  97.0419997
  43.2739245  37.4591887 106.5306819  43.2627886  37.0644685 105.6587323
  43.4359885  36.7257959 107.1240591  36.1970710  39.6543703  99.4001725
  36.9892002  39.3134528  98.9848024  36.4367360  39.7638678 100.3203878
  44.2305837  41.8263479  91.8731970  43.5793816  42.4117560  91.4865983
  45.0250199  42.3569674  91.9327007  38.1561464  38.9152616  92.2719104
  38.9292340  38.3681603  92.1331980  38.5086863  39.7796866  92.4833565
  39.9946506  40.2428999 105.4786003  39.7036372  41.1474629 105.3632669
  40.6303491  40.2845526 106.1930073  40.9202713  37.6205847 102.0687363
  41.5166285  37.3961869 101.3544326  40.9777685  36.8790593 102.6712811
  40.4927741  35.0745282  89.9037554  40.7453262  34.5526804  89.1421017
  39.5552301  34.9111428  90.0064237  45.5371024  34.0781061  97.7112297
  46.3234114  33.6600484  97.3602714  45.8009729  34.9827153  97.8793945
  45.7081102  39.5153911  92.4100954  45.0726935  39.5888538  93.1221858
  45.3778508  40.1047510  91.7320033  50.9379451  34.0156294  98.6145276
  51.6704623  33.4455511  98.8483105  50.1818807  33.6277894  99.0551781
  40.2124030  36.9773388  92.1061929  40.0960288  36.3018292  92.7743013
  40.3226290  36.4905762  91.2894082  42.5555571  36.4383535  95.8108618
  42.1913778  35.9114156  96.5221539  43.4122687  36.0482004  95.6375103
  48.4604872  27.7277868 103.0739884  48.1288197  28.5973279 102.8501099
  47.8650485  27.4114152 103.7533915  42.1961058  31.4673435  90.8069966
  42.3635460  32.3353672  91.1740438  42.0058227  31.6300717  89.8831256
  44.9536391  39.9290414 102.4735797  44.6537114  40.8315453 102.3651604
  44.6087451  39.6622597 103.3256950  38.4048873  36.3804211  98.5072501
  37.4799369  36.2480425  98.7150193  38.6533286  37.1598430  99.0042444
  48.3533535  32.4472954 100.1533234  47.4450412  32.3788363  99.8591995
  48.3021131  32.9244899 100.9815060  42.1750279  33.9231093  91.7916633
  42.0549904  34.3688143  92.6302114  41.4802867  34.2716410  91.2330171
  35.7657684  36.0237484  99.3416290  35.8950065  36.2771963 100.2555702
  35.0855135  36.6165192  99.0220945  39.9357171  46.6934734  95.4406765
  39.8581201  47.6442559  95.5195245  39.3318815  46.3480607  96.0981691
  42.4274401  33.8662600 108.0968131  41.6507735  34.4256520 108.0870996
  43.0664964  34.3519383 108.6183002  50.2195182  30.6489393 101.9311108
  49.5769562  30.9421926 101.2850903  49.7150110  30.5342313 102.7364305
  47.8735345  34.3952566  92.6196967  48.7853201  34.6279953  92.4444665
  47.3644992  34.9789610  92.0572046  40.6820773  36.6748053 107.6586098
  41.4235458  37.2133097 107.3820922  39.9757759  37.3014342 107.8157650
  46.1576113  38.8177194 106.2558260  46.5659469  38.3759604 105.5112892
  45.4353374  38.2429821 106.5092453  42.5107183  33.7549800 103.6291817
  43.3568378  34.1789214 103.7726466  42.4505821  33.0983425 104.3230380
  46.4804927  39.3778384 100.0110549  45.8513790  39.5424098  99.3086617
  46.0930590  39.7919994 100.7821513  50.3594159  40.3132822  97.3654913
  49.6745198  40.6931723  96.8151946  50.4438009  40.9228149  98.0986860
  45.6606628  31.4154169 105.2872991  45.4167560  32.1696229 104.7507266
  45.9366559  31.7939516 106.1220238  47.6145091  37.9592781 103.9650256
  47.8261986  38.6024541 103.2884637  47.5674839  37.1255098 103.4972186
  45.2171320  30.5710602 100.8686828  44.3555799  30.8691855 101.1603566
  45.2433755  30.7881001  99.9367861  42.0332889  39.1152792  97.2760634
  42.4971235  39.3940495  96.4865256  41.7689687  38.2136237  97.0933725
  38.9256970  38.6624274 100.2140397  39.4958327  39.0911542  99.5757882
  39.5165082  38.3806859 100.9124583  40.9701775  35.2375945  94.0850199
  41.6725819  35.6896988  94.5524125  40.6382404  34.5959764  94.7130092
  39.4182137  33.8287701 108.4601408  38.7880798  34.5103982 108.6936805
  39.3118225  33.7170783 107.5154547  34.7127109  33.4959497  99.3867333
  33.9226163  33.7517026  98.9107443  35.2038357  34.3107835  99.4919373
  48.7290919  40.8364737 102.1372613  49.5508363  40.4344924 101.8555295
  48.7253322  40.7332971 103.0888729  36.6641855  33.8604077  96.3450809
  35.8673018  33.9722771  96.8634305  36.4367447  34.1990729  95.4791700
  42.4947522  40.3848780 104.2933324  42.5591955  40.8469187 105.1291496
  41.7858446  39.7546145 104.4215634  32.9964812  33.7489988 101.8182323
  33.2472851  34.6336998 102.0839899  33.5324361  33.5694589 101.0457415
  56.8196912  37.1803485  98.4857585  56.0660620  36.6110883  98.3301589
  56.9544453  37.1466150  99.4328220  42.2095540  42.0516887  94.1612304
  42.0741215  42.8968423  94.5897152  42.7505353  42.2536165  93.3978238
  35.6624937  39.5692325  94.7340229  36.1749458  40.3635576  94.8845794
  36.3147650  38.8718616  94.6673831  37.4719822  42.6858082  96.8162983
  37.6486450  43.6076046  96.6283966  38.2676656  42.3716501  97.2457362
  36.7572179  34.7322714 106.6925146  36.6425694  33.8307971 106.9932245
  35.9016696  34.9786410 106.3409962  43.8364016  42.6740454 108.2912646
  43.3927871  41.8876832 107.9733551  44.4981230  42.8619604 107.6256537
  38.5951138  44.2036255 102.8173325  39.1458563  44.0753319 102.0450319
  37.7562613  44.5031144 102.4668218  45.9345254  42.9543254 106.3194048
  45.9163730  43.7752135 105.8274317  46.8565175  42.8297329 106.5444189
  42.3918309  40.4687383 107.1617556  42.9246645  39.7075671 106.9316864
  41.8632390  40.1761035 107.9041710  45.5588004  25.5747449 102.6911198
  45.2152273  26.4649091 102.6150308  45.9266966  25.3849107 101.8280783
  33.6273854  37.8980980  95.5099800  34.4649076  38.3077988  95.2933508
  33.8052122  36.9580422  95.4799994  45.5238286  35.5656060  91.1983633
  45.0084910  36.3360665  91.4372020  45.2515595  34.8921196  91.8216694
  43.1085397  30.4105761  96.2568871  42.2526994  30.0212611  96.0774510
  43.5212349  30.4897722  95.3968657  44.6384544  27.9452104 100.6560431
  44.1349340  27.9082240  99.8428236  44.9315151  28.8544847 100.7157088
  40.8827430  28.0290834  99.6626613  41.7480427  27.8333643  99.3032502
  40.9504939  27.8001186 100.5895969  50.4972560  38.3188415  93.1336806
  49.7202003  37.9799574  92.6891968  51.1764041  38.3241038  92.4591771
  45.3124589  33.4383152  93.0243414  45.0074725  33.7529302  93.8753557
  46.2655032  33.5164572  93.0670747  43.7571021  39.5973376  94.6736368
  43.2292383  38.8626135  94.3609605  43.2558524  40.3748052  94.4276336
  48.7363867  37.7922396  99.7903414  48.0787542  38.4821658  99.8783543
  49.5404267  38.1818828 100.1337401  38.4889749  30.2593042  97.0342980
  39.0633501  30.0368224  96.3016172  39.0760731  30.3281737  97.7871581
  47.5469326  36.1466769  97.8407356  48.0601208  36.7796761  98.3429066
  48.1970550  35.5467964  97.4750716  38.8159336  32.2897503  91.0538865
  37.9796648  32.6272190  91.3748140  38.6764106  32.1546483  90.1166002
  40.7912417  27.1334291  95.7618049  40.1376829  26.8183308  95.1374664
  40.7492891  26.5110031  96.4877872  41.9023622  37.4153586  87.6771341
  40.9950683  37.1842839  87.8762490  42.3994653  36.6191205  87.8645323
  44.8091700  46.1251093  90.5968027  44.1353399  46.4282790  91.2052985
  45.1957522  46.9280174  90.2473484  44.0250157  33.6216224 100.0865697
  43.1072718  33.8431171  99.9287385  44.4410301  33.6962535  99.2277404
  44.8085205  35.0207640  95.2168377  45.5557024  35.5329037  94.9075499
  45.0776794  34.6991693  96.0772770  43.0811855  37.5166181  92.1995331
  42.1723074  37.2325214  92.2967801  43.1106939  37.9365259  91.3398638
  48.3131122  41.1272770  95.9686499  47.8593449  40.2863680  96.0251689
  47.6825089  41.7634169  96.3061279  47.2564042  32.0564756  97.1987166
  46.5186799  31.5442143  97.5297409  47.5090815  31.6165138  96.3870443
  46.7564062  42.9649267  96.9036317  47.0487036  43.5254324  96.1848682
  47.2662682  43.2577828  97.6589476  47.3575669  24.8341008  97.7928935
  47.6634546  23.9738372  97.5054851  48.0828274  25.4258629  97.5927929
  33.6500025  35.2371695  96.1810533  33.4524425  34.6441056  95.4561600
  33.0946689  34.9323905  96.8986472  41.6296749  35.1294801  98.3005127
  41.6845359  34.1768638  98.2247603  40.8187951  35.2854241  98.7846425
  42.7787943  39.0574925  89.5383410  42.3407373  38.3410783  89.0789047
  43.5198384  39.2851039  88.9768501  39.5689109  33.7471861  96.0595505
  38.7556974  34.0466032  96.4660698  40.0648103  33.3527550  96.7769988
  41.7197687  43.7429618  97.9929770  41.6773866  43.9690464  97.0638302
  42.6360386  43.5092993  98.1415571  45.1663321  34.2113686 104.8910399
  45.5212708  34.4385159 105.7504865  45.8135452  34.5432062 104.2687655
  50.8961058  37.3332122  95.5959728  50.7578956  37.5233718  94.6680918
  50.5397276  38.0951504  96.0527779  39.0603184  31.3190217 101.6756740
  39.7002563  31.1778976 100.9779704  38.2280714  31.0324730 101.2995342
  50.9230437  39.4008649 100.6071000  51.3566944  39.3083938 101.4554054
  51.6362018  39.3766149  99.9691016  39.8363488  40.6192647  97.7891733
  40.6304086  40.1242967  97.5874308  39.1255180  40.0910510  97.4259438
  44.6558332  43.0010743 102.1404100  44.7095354  43.5701679 102.9081816
  43.7873113  43.1712628 101.7758138  36.1446251  34.7635729  93.8651485
  35.2143839  34.7020184  94.0821448  36.2403723  34.2411682  93.0688127
  36.0631800  31.2890542  96.4529727  36.3238617  32.2035875  96.3438888
  36.8848972  30.8214984  96.6026340  37.5356725  32.7028299 103.6228552
  38.2079779  32.4945661 102.9741201  36.7086512  32.5050385 103.1833784
  51.7845987  39.4432349 103.1403885  51.9781877  40.3478160 103.3863160
  51.6846605  38.9839768 103.9742470  43.4382297  29.3290240 105.6394213
  42.7910212  30.0280189 105.5458689  44.2083313  29.7626384 106.0070461
  46.8461095  39.5939092 108.7144766  46.6946602  39.3649644 107.7974849
  46.8365775  40.5509693 108.7276111  43.6146432  37.1671005 103.6991032
  44.5438492  37.3182164 103.5260000  43.1937462  37.2555026 102.8439679
  42.4134764  41.1921669 101.4689570  42.2745849  40.8240454 102.3415508
  41.6249360  41.7069309 101.2973528  43.0082916  46.2930766  92.8115106
  43.1834671  45.8218809  93.6260729  42.3215704  46.9196532  93.0396367
  43.9639979  40.5703272  98.8578408  43.6289811  40.5304042  99.7536058
  43.4643924  39.9047988  98.3848818  37.9384223  35.9770902 104.3830989
  37.8004021  35.2451141 104.9842528  38.8489146  35.8879802 104.1015177
  46.8999170  37.9159306  89.1315467  46.2828341  37.1906134  89.0348520
  46.4315659  38.6768666  88.7882542  40.5666523  35.6890861 103.8714668
  41.2766142  35.0484053 103.8301287  40.5235832  35.9403756 104.7940849
  48.5553302  42.6258215 106.7921248  48.4965848  41.9417435 106.1251831
  48.9572820  43.3677205 106.3401874  39.2795457  32.6756079 105.6910308
  38.7432814  32.2246818 106.3431904  38.6912166  32.8101988 104.9480772
  37.5744001  49.4420128  99.5854967  37.8140599  50.0738653 100.2633985
  36.7313197  49.0908168  99.8720326  38.6897716  32.1344730  88.2536772
  37.8127183  32.0133531  87.8899018  39.1655469  31.3430809  88.0015660
  48.5570709  40.5897798 105.0235227  47.6697488  40.2523720 105.1461626
  49.1269260  39.8580830 105.2603993  30.2099856  36.9221890  98.3478279
  30.8970896  36.6083620  97.7599294  30.0547985  37.8263255  98.0745530
  35.0134579  31.8112087 102.7763302  34.9292767  31.2037756 102.0413712
  34.1917285  32.3021105 102.7772799  42.0871863  45.2499251 101.9896471
  42.0142034  46.0554222 102.5015775  41.6449256  45.4491217 101.1644492
  41.8761642  44.4871021  95.4999292  41.0929164  45.0292701  95.5937517
  42.5754387  45.0045000  95.8993533  45.1858292  30.2965650  98.1433497
  45.6826992  29.5435613  97.8234568  44.4145274  30.3329967  97.5776707
  53.0388050  36.0006016  99.7851789  53.0277926  36.8830731  99.4145722
  52.1705429  35.6477567  99.5906326  44.5470546  45.1486085 104.1454629
  45.2598518  45.7833550 104.0730531  44.0560575  45.2449951 103.3294631
  46.2688073  39.0537338  95.7171921  45.3344352  39.1738800  95.5476625
  46.4464742  38.1509804  95.4531931  41.7693261  32.4383033  97.8705182
  41.3991049  31.8854074  98.5586088  42.2652354  31.8341167  97.3180182
  49.6560624  34.8954657  96.2521955  50.1221077  35.7282648  96.1782258
  50.1068125  34.4299638  96.9567214  39.5982460  42.8980528 104.9660200
  40.2991919  43.5317011 105.1189594  39.1277575  43.2395260 104.2055839
  47.7236856  41.2398478  93.2508107  47.9996699  41.1255073  94.1601981
  46.8541354  40.8415963  93.2120280  47.6277287  27.2635244 100.2912856
  46.7140367  27.4939471 100.4595063  48.0570389  27.3473688 101.1426889
  47.3983746  35.4525136 102.7912750  46.7455196  35.7001043 102.1365203
  47.7764126  34.6389274 102.4575228  44.3590920  45.4884829  96.8940921
  44.5413314  44.6706485  97.3568673  45.1823906  45.7052521  96.4565811
  44.6933085  44.4153014  94.1555969  45.2220852  43.9045469  93.5426131
  44.9561305  44.0995544  95.0201502  43.4471319  36.1944947 109.2778787
  42.7711956  36.0939076 109.9481163  44.2698953  36.0384161 109.7414785
  35.1950178  42.4316883 101.8991303  35.7803615  41.6860571 102.0319207
  34.9975016  42.7420840 102.7827967  38.0488833  45.4668131  96.9153745
  37.3799208  45.9514258  96.4317785  37.9101703  45.7137351  97.8297124
  29.7867833  35.0022484 100.6195746  29.8251932  34.4686074 101.4132864
  29.2808125  34.4757689 100.0006723  42.1894102  47.5011874 103.5136403
  42.7412410  47.6643496 104.2785489  42.5300295  48.0916312 102.8416428
  37.1658595  29.8487024 104.1158288  37.2299921  30.7101855 103.7035686
  37.1025715  29.2361026 103.3830647  47.0404976  42.3273132 109.3685058
  47.5844880  42.9403090 108.8740013  46.4591821  42.8852710 109.8852071
  33.4176410  33.7286586  93.6949677  33.7129851  32.8197264  93.6416731
  32.5164446  33.7074325  93.3730680  45.3262489  45.4493850 100.5000086
  45.2013628  44.6483590  99.9911031  45.9841580  45.9440043 100.0114056
  36.9470657  31.8042582  99.6777226  36.2257243  32.4178550  99.5384699
  37.7363913  32.3400347  99.5993872  47.3897397  43.2502870 102.1279636
  46.4427733  43.1308221 102.0557962  47.7380170  42.3625368 102.2105897
  35.1464252  31.4100683  93.8189002  34.8176958  30.5298062  93.6364108
  35.5003622  31.3548352  94.7065392  44.3943831  43.0455586  98.3283988
  44.2468793  42.1172294  98.5091558  45.2197324  43.0675677  97.8441063
  38.2606075  31.6973653  94.1864480  38.6002147  32.2259574  93.4643088
  38.7078195  32.0354059  94.9623047  47.9977952  43.8684145  99.4148861
  48.9224500  43.6627006  99.2773312  47.8293256  43.6200546 100.3238202
  40.9549516  30.0810704 103.6367548  40.6146336  29.2818517 104.0388228
  40.2488522  30.3812415 103.0644381  41.6065988  27.1660016 102.0894871
  42.4292057  26.6920495 101.9673761  41.8504051  27.9450500 102.5893557
  40.2474222  30.1948275  92.3857773  40.9682584  30.5729528  91.8821490
  39.6239526  30.9137152  92.4892751  44.3905345  30.8993424  93.3216105
  44.6068959  31.7818062  93.0204933  43.9099412  30.5079637  92.5921747
  39.1304566  33.8579137  99.8986850  38.9849147  34.1719440 100.7911131
  38.6529770  34.4764037  99.3457748  40.9900949  30.8481685  99.9467739
  40.9762518  29.9522778  99.6100037  41.7073377  30.8552349 100.5806025
  42.8427080  31.2819025 101.9920867  42.5844858  32.2036096 101.9905197
  42.3112120  30.8849460 102.6821331  47.7873269  44.3869812  94.7710952
  47.9610146  43.8216235  94.0184805  48.2802160  45.1870707  94.5890442
  33.6050228  36.3984481 102.8374511  33.0603697  37.1744289 102.9694785
  34.4829578  36.7455286 102.6793632  40.3937845  29.7296065  95.2155309
  40.5153756  28.8012711  95.4146197  40.1039887  29.7434751  94.3033625
  43.2629035  27.4150976  98.3522029  43.2850732  27.4790309  97.3974009
  43.6797094  26.5755484  98.5462535  53.6412660  37.1506235  96.3901252
  54.0843806  36.4013560  95.9920375  52.7639170  37.1416372  96.0074984
  48.7748441  43.7036577  91.8707850  49.4699346  44.3243269  92.0895165
  49.1171591  42.8531928  92.1460228  34.3916250  35.5254378 105.7304668
  33.6497986  35.6737013 106.3169298  34.0708995  35.7862643 104.8671417
  50.6739864  41.1536282  93.3995181  51.1991188  41.4923555  92.6744501
  50.5862217  40.2183298  93.2158316  42.3359913  45.0670356 105.5285058
  42.6447039  44.8219503 106.4007757  43.1335395  45.2716994 105.0403928
  42.3580525  47.2208265  97.7590434  41.9185515  46.7284644  98.4523291
  43.1088642  46.6781233  97.5182510  34.8372864  43.4119806  97.7615062
  35.6630884  43.1123578  97.3813706  34.4866916  42.6427429  98.2104851
  39.8054397  42.7646275  99.8312736  39.1834406  42.1016980  99.5314964
  40.4759264  42.7907406  99.1486384  33.0381469  41.3306133  98.7203996
  32.2013377  40.9028307  98.5387997  33.0105114  41.5238576  99.6574787
  50.3633770  41.7869186 108.7046379  49.5729314  41.7693325 108.1650879
  50.1267125  42.3257480 109.4595416  50.4831645  38.6361652 106.0179108
  50.5329650  38.4711660 106.9594630  50.3745569  37.7688911 105.6276988
  39.3667904  41.3150198  93.3071197  39.5156024  41.9985662  92.6537869
  40.1734347  41.2955288  93.8220652  47.7735408  34.6192580 107.3338414
  48.6745270  34.4799045 107.0422412  47.8483382  34.7847035 108.2736592
  42.1078213  31.9959435 106.1791601  41.2381522  32.2893001 105.9074189
  42.3437693  32.5799880 106.8998864  51.9849842  41.0558594 106.2621129
  51.6934650  41.4188574 107.0984590  51.3721973  40.3425602 106.0834461
  53.1845524  38.6211474  98.7823699  54.0192416  39.0601278  98.9461260
  53.3204653  38.1450127  97.9631945  50.2337030  36.1791208 104.7301187
  50.7091152  36.3718855 103.9220039  49.3102596  36.2350394 104.4844571
  37.1220537  37.3415376  94.3132265  36.8766579  36.4377706  94.5112476
  37.2916452  37.3432526  93.3711743  44.8117247  28.2139052 103.6957021
  45.3299191  28.9500079 103.3703510  44.4572380  28.5203045 104.5303780
  36.3916185  33.0743733  91.8118427  35.6985429  33.1488088  91.1558463
  36.1467936  32.3104077  92.3339944  45.0629841  24.6339334  99.2157918
  45.3431595  23.9662524  99.8418344  45.8480448  24.8268430  98.7032582
  42.8663310  43.8098328  90.7782944  42.2937277  44.4288515  90.3253416
  43.4396103  44.3597690  91.3122866  48.9338699  33.0556968 102.9629493
  49.8856122  33.1555066 102.9841717  48.7642150  32.2635237 103.4727577
  46.9553079  30.1412552 103.1488894  46.3603011  30.4217564 102.4535382
  46.6702776  30.6306453 103.9205635  46.0860569  44.0935478  91.9091526
  47.0191243  44.0281040  92.1124402  45.9983782  44.9291745  91.4506059
  48.7148586  43.4101349  88.8695474  48.6362218  43.0761212  89.7631232
  49.5358253  43.9023117  88.8686946  51.4126777  36.2763088 102.0771792
  51.3803097  35.3379089 102.2631476  52.0227401  36.3547125 101.3437617
  43.2510108  35.1459141  88.1198996  44.1969213  35.0165349  88.1887415
  42.8724353  34.4073803  88.5968425  51.5621266  33.0674132 102.1230076
  51.0460314  32.2832588 101.9360005  52.4461214  32.7392848 102.2876595
  49.2231993  26.8115147  98.0825888  49.0256814  26.5030235  98.9669220
  49.8331698  27.5376786  98.2123818  57.2303327  37.3379095 101.2177829
  57.9606716  37.0764383 101.7785533  56.6210273  36.6007817 101.2579897
  55.3118624  35.4786958 101.8152280  54.5851788  35.3442923 101.2068772
  54.8965911  35.7863786 102.6208998  43.1348801  39.1976887 109.5799653
  44.0551810  39.3755486 109.7739700  43.0998384  38.2532933 109.4279353
  41.4353025  33.0709118  88.0553882  40.5284481  32.7742230  88.1316595
  41.7129006  32.7738936  87.1888168  32.3530966  34.3915481  98.5052928
  32.0333750  33.5380789  98.2127302  31.8064394  34.6064059  99.2610895
  36.1310873  37.1077922 102.2222435  36.3496883  38.0395030 102.2410468
  36.5436647  36.7485896 103.0077238  43.0515091  27.6146007  94.2098123
  42.2415819  27.2693092  94.5853369  43.7399508  27.3053551  94.7985735
  44.9805639  26.6924054  95.8322420  45.5336678  27.1119507  96.4912443
  45.2175726  25.7659802  95.8745376  40.2051810  29.9296053  88.1965861
  41.0670974  30.2550951  88.4561678  40.3902154  29.1427549  87.6838927
  32.2219226  38.0118392 100.4746050  31.5282697  37.5972345  99.9616004
  32.9692217  38.0538929  99.8779469  48.3584446  28.8024579  95.3401084
  47.7783115  29.4609383  94.9579136  48.0920379  27.9801924  94.9288501
  46.8088013  28.2029637  97.5422404  47.3087791  28.3146171  96.7336723
  47.4523621  27.8990690  98.1823213  40.8670009  36.1108267 110.4290245
  40.3837090  36.9108627 110.6354134  40.9530948  36.1216211 109.4757689
  34.1355968  37.9436646  98.3512065  34.1126656  38.0424333  97.3993948
  34.4456605  38.7901797  98.6729231  36.7943346  40.0012801 102.4658679
  37.7486600  39.9696744 102.3988611  36.5955870  39.5403425 103.2808905
  37.3842728  38.5713917 105.0329477  38.2035617  39.0657996 105.0564314
  37.6579536  37.6545885 105.0047044  47.1409324  30.9624670  94.3957432
  46.2535179  31.2474320  94.1777627  47.5563313  30.8018433  93.5484709
  50.4923860  30.9871191  98.1111771  51.2684251  31.4767643  98.3836388
  49.7671995  31.4129245  98.5683641  52.9296419  31.6998810  99.1685712
  53.5240910  31.4594546  98.4579020  53.0023003  30.9805940  99.7959248
  35.1493575  45.5432421  99.4828877  35.0148043  44.7832822  98.9166875
  34.7325637  46.2673321  99.0157666  46.2852538  40.7269344  88.4905452
  46.9888388  40.9319347  89.1063108  45.5615187  41.2946106  88.7554536
  47.1150348  36.4779205  94.6107722  47.0585549  36.9347757  93.7715355
  47.6678691  35.7169890  94.4330565  50.9255154  32.2668937  95.4357842
  50.6692088  31.8665573  96.2666050  50.3008022  32.9812731  95.3107981
  55.2367492  35.0065011  97.9429133  54.6767050  35.0758200  98.7160695
  54.6310995  34.8305995  97.2228629  38.3062701  46.4401738  99.6947320
  38.1895085  47.3847170  99.5926010  37.4855147  46.1375299 100.0833119
  48.1939235  41.1651873  90.5403912  49.0284839  40.7333072  90.3581387
  48.0323578  40.9933887  91.4680807  47.8485127  37.6683987  91.9060252
  47.7933931  37.5028258  90.9648696  47.2231183  38.3760020  92.0622441
  45.1631035  39.9732899 111.2313814  46.0322194  40.1473551 110.8700449
  44.6837786  40.7927315 111.1089544  41.1581253  27.1692096  91.4845570
  41.1459923  28.1133936  91.6413841  42.0504675  26.9862241  91.1905031
  39.3317215  47.0930000 102.9103248  40.2344462  47.1253610 103.2269743
  39.1054585  46.1630451 102.9249584  41.0870817  45.8460986  99.5713327
  40.1366448  45.8462848  99.4577699  41.3903303  45.0993721  99.0549361
  44.9733372  23.7634872  95.7391507  44.2065768  23.2093359  95.8848189
  45.3844077  23.8356741  96.6005658  56.8223510  51.6821525 100.6359089
  57.4601920  51.5628272  99.9322429  56.7044353  52.6302369 100.6947041
  53.6313217  51.6348953 100.5720614  53.2931728  51.5190017  99.6841149
  54.5002985  51.2340118 100.5521620  49.4900032  53.4884429  96.5617505
  48.9264897  53.3974366  95.7933792  49.3752427  52.6684334  97.0419997
  54.1133000  52.7883804 106.5306819  54.1021640  52.3936603 105.6587323
  54.2753639  52.0549877 107.1240591  47.0364464  54.9835621  99.4001725
  47.8285756  54.6426445  98.9848024  47.2761114  55.0930596 100.3203878
  55.0699591  57.1555397  91.8731970  54.4187571  57.7409477  91.4865983
  55.8643954  57.6861592  91.9327007  48.9955218  54.2444534  92.2719104
  49.7686094  53.6973521  92.1331980  49.3480617  55.1088783  92.4833565
  50.8340261  55.5720916 105.4786003  50.5430127  56.4766547 105.3632669
  51.4697245  55.6137444 106.1930073  51.7596468  52.9497765 102.0687363
  52.3560040  52.7253787 101.3544326  51.8171439  52.2082510 102.6712811
  51.3321496  50.4037200  89.9037554  51.5847017  49.8818721  89.1421017
  50.3946055  50.2403345  90.0064237  56.3764779  49.4072978  97.7112297
  57.1627868  48.9892402  97.3602714  56.6403483  50.3119071  97.8793945
  56.5474856  54.8445829  92.4100954  55.9120689  54.9180455  93.1221858
  56.2172263  55.4339428  91.7320033  61.7773206  49.3448212  98.6145276
  62.5098378  48.7747428  98.8483105  61.0212562  48.9569812  99.0551781
  51.0517785  52.3065306  92.1061929  50.9354043  51.6310209  92.7743013
  51.1620045  51.8197680  91.2894082  53.3949326  51.7675453  95.8108618
  53.0307533  51.2406074  96.5221539  54.2516442  51.3773922  95.6375103
  59.2998626  43.0569786 103.0739884  58.9681951  43.9265197 102.8501099
  58.7044240  42.7406070 103.7533915  53.0354813  46.7965353  90.8069966
  53.2029215  47.6645589  91.1740438  52.8451982  46.9592634  89.8831256
  55.7930146  55.2582332 102.4735797  55.4930869  56.1607371 102.3651604
  55.4481205  54.9914515 103.3256950  49.2442627  51.7096129  98.5072501
  48.3193124  51.5772343  98.7150193  49.4927040  52.4890348  99.0042444
  59.1927290  47.7764872 100.1533234  58.2844167  47.7080280  99.8591995
  59.1414885  48.2536817 100.9815060  53.0144033  49.2523010  91.7916633
  52.8943659  49.6980061  92.6302114  52.3196622  49.6008328  91.2330171
  46.6051438  51.3529402  99.3416290  46.7343819  51.6063881 100.2555702
  45.9248890  51.9457110  99.0220945  50.7750926  62.0226652  95.4406765
  50.6974955  62.9734477  95.5195245  50.1712569  61.6772525  96.0981691
  53.2668155  49.1954517 108.0968131  52.4901489  49.7548438 108.0870996
  53.9058718  49.6811300 108.6183002  61.0588936  45.9781310 101.9311108
  60.4163316  46.2713843 101.2850903  60.5543865  45.8634231 102.7364305
  58.7129100  49.7244483  92.6196967  59.6246956  49.9571870  92.4444665
  58.2038747  50.3081528  92.0572046  51.5214528  52.0039971 107.6586098
  52.2629212  52.5425015 107.3820922  50.8151513  52.6306260 107.8157650
  56.9969867  54.1469111 106.2558260  57.4053223  53.7051522 105.5112892
  56.2747129  53.5721739 106.5092453  53.3500937  49.0841718 103.6291817
  54.1962133  49.5081132 103.7726466  53.2899575  48.4275342 104.3230380
  57.3198682  54.7070302 100.0110549  56.6907544  54.8716016  99.3086617
  56.9324344  55.1211911 100.7821513  61.1987914  55.6424740  97.3654913
  60.5138952  56.0223641  96.8151946  61.2831763  56.2520066  98.0986860
  56.5000383  46.7446086 105.2872991  56.2561315  47.4988147 104.7507266
  56.7760313  47.1231434 106.1220238  58.4538845  53.2884699 103.9650256
  58.6655741  53.9316459 103.2884637  58.4068594  52.4547015 103.4972186
  56.0565074  45.9002519 100.8686828  55.1949553  46.1983773 101.1603566
  56.0827509  46.1172918  99.9367861  52.8726644  54.4444710  97.2760634
  53.3364989  54.7232413  96.4865256  52.6083442  53.5428155  97.0933725
  49.7650725  53.9916192 100.2140397  50.3352082  54.4203460  99.5757882
  50.3558837  53.7098776 100.9124583  51.8095530  50.5667862  94.0850199
  52.5119573  51.0188906  94.5524125  51.4776158  49.9251681  94.7130092
  50.2575891  49.1579619 108.4601408  49.6274552  49.8395900 108.6936805
  50.1511979  49.0462701 107.5154547  45.5520864  48.8251415  99.3867333
  44.7619918  49.0808944  98.9107443  46.0432111  49.6399753  99.4919373
  59.5684673  56.1656654 102.1372613  60.3902117  55.7636841 101.8555295
  59.5647076  56.0624888 103.0888729  47.5035609  49.1895994  96.3450809
  46.7066773  49.3014689  96.8634305  47.2761201  49.5282647  95.4791700
  53.3341277  55.7140698 104.2933324  53.3985709  56.1761105 105.1291496
  52.6252201  55.0838062 104.4215634  43.8358567  49.0781905 101.8182323
  44.0866605  49.9628915 102.0839899  44.3718115  48.8986507 101.0457415
  67.6590666  52.5095403  98.4857585  66.9054375  51.9402801  98.3301589
  67.7938208  52.4758067  99.4328220  53.0489295  57.3808805  94.1612304
  52.9134969  58.2260341  94.5897152  53.5899107  57.5828083  93.3978238
  49.5356634  43.4600385 110.8226660  49.1423580  42.9066583 111.4974304
  50.3522774  43.7710963 111.2133177  46.5018692  54.8984243  94.7340229
  47.0143212  55.6927493  94.8845794  47.1541405  54.2010533  94.6673831
  48.3113577  58.0149999  96.8162983  48.4880205  58.9367964  96.6283966
  49.1070410  57.7008419  97.2457362  52.4524595  44.8758264 108.4146916
  53.1934309  45.4765417 108.3351379  52.6842518  44.1335902 107.8564959
  47.5965933  50.0614631 106.6925146  47.4819448  49.1599888 106.9932245
  46.7410451  50.3078328 106.3409962  54.6757771  58.0032372 108.2912646
  54.2321625  57.2168750 107.9733551  55.3374984  58.1911522 107.6256537
  49.4344892  59.5328173 102.8173325  49.9852317  59.4045236 102.0450319
  48.5956368  59.8323062 102.4668218  56.7739009  58.2835171 106.3194048
  56.7557484  59.1044052 105.8274317  57.6958929  58.1589247 106.5444189
  53.2312063  55.7979301 107.1617556  53.7640400  55.0367589 106.9316864
  52.7026144  55.5052953 107.9041710  56.3981758  40.9039367 102.6911198
  56.0546027  41.7941009 102.6150308  56.7660721  40.7141025 101.8280783
  44.4667609  53.2272897  95.5099800  45.3042831  53.6369906  95.2933508
  44.6445876  52.2872340  95.4799994  56.3632041  50.8947978  91.1983633
  55.8478664  51.6652583  91.4372020  56.0909349  50.2213114  91.8216694
  53.9479152  45.7397679  96.2568871  53.0920748  45.3504529  96.0774510
  54.3606104  45.8189640  95.3968657  55.4778298  43.2744022 100.6560431
  54.9743094  43.2374157  99.8428236  55.7708905  44.1836765 100.7157088
  51.7221184  43.3582752  99.6626613  52.5874181  43.1625560  99.3032502
  51.7898693  43.1293104 100.5895969  61.3366315  53.6480333  93.1336806
  60.5595758  53.3091492  92.6891968  62.0157796  53.6532956  92.4591771
  56.1518344  48.7675070  93.0243414  55.8468480  49.0821219  93.8753557
  57.1048786  48.8456490  93.0670747  54.5964776  54.9265293  94.6736368
  54.0686137  54.1918053  94.3609605  54.0952279  55.7039970  94.4276336
  59.5757622  53.1214314  99.7903414  58.9181296  53.8113575  99.8783543
  60.3798021  53.5110746 100.1337401  49.3283503  45.5884960  97.0342980
  49.9027255  45.3660141  96.3016172  49.9154486  45.6573654  97.7871581
  58.3863081  51.4758687  97.8407356  58.8994962  52.1088678  98.3429066
  59.0364305  50.8759882  97.4750716  49.6553091  47.6189421  91.0538865
  48.8190403  47.9564107  91.3748140  49.5157860  47.4838401  90.1166002
  51.6306171  42.4626209  95.7618049  50.9770583  42.1475226  95.1374664
  51.5886645  41.8401949  96.4877872  52.7417376  52.7445504  87.6771341
  51.8344438  52.5134757  87.8762490  53.2388408  51.9483123  87.8645323
  55.6485455  61.4543011  90.5968027  54.9747154  61.7574708  91.2052985
  56.0351277  62.2572091  90.2473484  54.8643912  48.9508142 100.0865697
  53.9466473  49.1723089  99.9287385  55.2804055  49.0254453  99.2277404
  55.6478959  50.3499558  95.2168377  56.3950778  50.8620955  94.9075499
  55.9170549  50.0283611  96.0772770  53.9205609  52.8458099  92.1995331
  53.0116829  52.5617131  92.2967801  53.9500693  53.2657177  91.3398638
  59.1524877  56.4564688  95.9686499  58.6987204  55.6155598  96.0251689
  58.5218844  57.0926086  96.3061279  58.0957796  47.3856674  97.1987166
  57.3580553  46.8734060  97.5297409  58.3484570  46.9457056  96.3870443
  57.5957816  58.2941185  96.9036317  57.8880790  58.8546242  96.1848682
  58.1056437  58.5869746  97.6589476  58.1969424  40.1632926  97.7928935
  58.5028301  39.3030289  97.5054851  58.9222029  40.7550546  97.5927929
  44.4893780  50.5663613  96.1810533  44.2918180  49.9732973  95.4561600
  43.9340444  50.2615823  96.8986472  52.4690503  50.4586719  98.3005127
  52.5239113  49.5060556  98.2247603  51.6581706  50.6146158  98.7846425
  53.6181697  54.3866842  89.5383410  53.1801127  53.6702701  89.0789047
  54.3592138  54.6142957  88.9768501  50.4082863  49.0763779  96.0595505
  49.5950729  49.3757949  96.4660698  50.9041858  48.6819468  96.7769988
  52.5591441  59.0721536  97.9929770  52.5167620  59.2982382  97.0638302
  53.4754140  58.8384910  98.1415571  56.0057075  49.5405603 104.8910399
  56.3606463  49.7677076 105.7504865  56.6529206  49.8723980 104.2687655
  61.7354812  52.6624039  95.5959728  61.5972711  52.8525635  94.6680918
  61.3791031  53.4243422  96.0527779  49.8996938  46.6482134 101.6756740
  50.5396317  46.5070894 100.9779704  49.0674469  46.3616648 101.2995342
  61.7624192  54.7300566 100.6071000  62.1960698  54.6375855 101.4554054
  62.4755772  54.7058067  99.9691016  50.6757242  55.9484565  97.7891733
  51.4697841  55.4534885  97.5874308  49.9648934  55.4202428  97.4259438
  55.4952087  58.3302660 102.1404100  55.5489109  58.8993597 102.9081816
  54.6266868  58.5004545 101.7758138  46.9840006  50.0927647  93.8651485
  46.0537594  50.0312102  94.0821448  47.0797478  49.5703599  93.0688127
  46.9025555  46.6182459  96.4529727  47.1632372  47.5327793  96.3438888
  47.7242727  46.1506902  96.6026340  48.3750480  48.0320217 103.6228552
  49.0473533  47.8237579 102.9741201  47.5480266  47.8342303 103.1833784
  62.6239741  54.7724267 103.1403885  62.8175631  55.6770077 103.3863160
  62.5240359  54.3131686 103.9742470  54.2776052  44.6582157 105.6394213
  53.6303967  45.3572107 105.5458689  55.0477067  45.0918301 106.0070461
  57.6854850  54.9231010 108.7144766  57.5340356  54.6941561 107.7974849
  57.6759529  55.8801611 108.7276111  54.4540186  52.4962922 103.6991032
  55.3832246  52.6474082 103.5260000  54.0331216  52.5846943 102.8439679
  53.2528518  56.5213587 101.4689570  53.1139604  56.1532371 102.3415508
  52.4643114  57.0361226 101.2973528  53.8476670  61.6222683  92.8115106
  54.0228426  61.1510726  93.6260729  53.1609458  62.2488449  93.0396367
  54.8033733  55.8995190  98.8578408  54.4683566  55.8595959  99.7536058
  54.3037679  55.2339905  98.3848818  48.7777977  51.3062820 104.3830989
  48.6397775  50.5743058 104.9842528  49.6882901  51.2171720 104.1015177
  57.7392925  53.2451224  89.1315467  57.1222095  52.5198052  89.0348520
  57.2709413  54.0060584  88.7882542  51.4060278  51.0182779 103.8714668
  52.1159896  50.3775971 103.8301287  51.3629586  51.2695674 104.7940849
  59.3947057  57.9550132 106.7921248  59.3359603  57.2709352 106.1251831
  59.7966575  58.6969122 106.3401874  50.1189212  48.0047997 105.6910308
  49.5826569  47.5538735 106.3431904  49.5305920  48.1393906 104.9480772
  48.4137755  64.7712046  99.5854967  48.6534354  65.4030570 100.2633985
  47.5706952  64.4200086  99.8720326  49.5291471  47.4636648  88.2536772
  48.6520937  47.3425449  87.8899018  50.0049224  46.6722726  88.0015660
  59.3964464  55.9189716 105.0235227  58.5091243  55.5815638 105.1461626
  59.9663015  55.1872747 105.2603993  41.0493611  52.2513808  98.3478279
  41.7364651  51.9375538  97.7599294  40.8941740  53.1555173  98.0745530
  45.8528333  47.1404004 102.7763302  45.7686522  46.5329674 102.0413712
  45.0311039  47.6313023 102.7772799  52.9265617  60.5791168 101.9896471
  52.8535789  61.3846140 102.5015775  52.4843010  60.7783134 101.1644492
  52.7155397  59.8162939  95.4999292  51.9322919  60.3584619  95.5937517
  53.4148142  60.3336918  95.8993533  56.0252047  45.6257568  98.1433497
  56.5220746  44.8727530  97.8234568  55.2539028  45.6621885  97.5776707
  63.8781804  51.3297934  99.7851789  63.8671681  52.2122649  99.4145722
  63.0099184  50.9769484  99.5906326  55.3864301  60.4778003 104.1454629
  56.0992273  61.1125467 104.0730531  54.8954329  60.5741869 103.3294631
  57.1081828  54.3829255  95.7171921  56.1738106  54.5030718  95.5476625
  57.2858496  53.4801722  95.4531931  52.6087016  47.7674951  97.8705182
  52.2384803  47.2145991  98.5586088  53.1046108  47.1633084  97.3180182
  60.4954379  50.2246574  96.2521955  60.9614831  51.0574566  96.1782258
  60.9461879  49.7591556  96.9567214  50.4376214  58.2272446 104.9660200
  51.1385674  58.8608929 105.1189594  49.9671329  58.5687178 104.2055839
  58.5630610  56.5690396  93.2508107  58.8390454  56.4546990  94.1601981
  57.6935109  56.1707881  93.2120280  58.4671042  42.5927161 100.2912856
  57.5534121  42.8231388 100.4595063  58.8964143  42.6765606 101.1426889
  58.2377500  50.7817053 102.7912750  57.5848950  51.0292961 102.1365203
  58.6157880  49.9681192 102.4575228  55.1984674  60.8176747  96.8940921
  55.3807069  59.9998403  97.3568673  56.0217660  61.0344439  96.4565811
  55.5326840  59.7444932  94.1555969  56.0614606  59.2337386  93.5426131
  55.7955059  59.4287462  95.0201502  54.2865073  51.5236864 109.2778787
  53.6105710  51.4230994 109.9481163  55.1092707  51.3676078 109.7414785
  46.0343932  57.7608801 101.8991303  46.6197369  57.0152489 102.0319207
  45.8368771  58.0712758 102.7827967  48.8882588  60.7960048  96.9153745
  48.2192963  61.2806176  96.4317785  48.7495457  61.0429269  97.8297124
  40.6261587  50.3314401 100.6195746  40.6645687  49.7977992 101.4132864
  40.1201880  49.8049607 100.0006723  53.0287856  62.8303792 103.5136403
  53.5806164  62.9935413 104.2785489  53.3694050  63.4208230 102.8416428
  48.0052349  45.1778942 104.1158288  48.0693676  46.0393773 103.7035686
  47.9419470  44.5652943 103.3830647  47.4804622  47.2502074 107.7631322
  48.1076661  46.8679152 108.3768847  46.6232541  47.0316276 108.1287015
  57.8798730  57.6565049 109.3685058  58.4238634  58.2695008 108.8740013
  57.2985575  58.2144628 109.8852071  44.2570165  49.0578503  93.6949677
  44.5523606  48.1489182  93.6416731  43.3558200  49.0366243  93.3730680
  56.1656243  60.7785767 100.5000086  56.0407383  59.9775507  99.9911031
  56.8235334  61.2731961 100.0114056  47.7864412  47.1334500  99.6777226
  47.0650997  47.7470468  99.5384699  48.5757667  47.6692265  99.5993872
  58.2291152  58.5794788 102.1279636  57.2821487  58.4600139 102.0557962
  58.5773925  57.6917286 102.2105897  50.5890725  44.4688926 105.9517878
  51.1125127  44.7151223 106.7144187  50.3703058  45.3008961 105.5321015
  45.9858006  46.7392601  93.8189002  45.6570712  45.8589980  93.6364108
  46.3397377  46.6840270  94.7065392  55.2337585  58.3747504  98.3283988
  55.0862547  57.4464211  98.5091558  56.0591079  58.3967594  97.8441063
  49.0999829  47.0265571  94.1864480  49.4395902  47.5551492  93.4643088
  49.5471950  47.3645977  94.9623047  58.8371707  59.1976062  99.4148861
  59.7618254  58.9918924  99.2773312  58.6687010  58.9492464 100.3238202
  51.7943270  45.4102622 103.6367548  51.4540091  44.6110435 104.0388228
  51.0882276  45.7104332 103.0644381  52.4459742  42.4951934 102.0894871
  53.2685811  42.0212412 101.9673761  52.6897806  43.2742418 102.5893557
  51.0867976  45.5240192  92.3857773  51.8076339  45.9021445  91.8821490
  50.4633281  46.2429069  92.4892751  55.2299099  46.2285341  93.3216105
  55.4462714  47.1109979  93.0204933  54.7493167  45.8371555  92.5921747
  49.9698321  49.1871055  99.8986850  49.8242901  49.5011358 100.7911131
  49.4923524  49.8055955  99.3457748  51.8294704  46.1773603  99.9467739
  51.8156272  45.2814696  99.6100037  52.5467132  46.1844266 100.5806025
  53.6820834  46.6110943 101.9920867  53.4238612  47.5328013 101.9905197
  53.1505875  46.2141377 102.6821331  58.6267023  59.7161730  94.7710952
  58.8003901  59.1508152  94.0184805  59.1195914  60.5162625  94.5890442
  44.4443983  51.7276399 102.8374511  43.8997451  52.5036207 102.9694785
  45.3223333  52.0747204 102.6793632  51.2331600  45.0587983  95.2155309
  51.3547511  44.1304629  95.4146197  50.9433642  45.0726669  94.3033625
  54.1022790  42.7442893  98.3522029  54.1244487  42.8082226  97.3974009
  54.5190849  41.9047402  98.5462535  64.4806414  52.4798153  96.3901252
  64.9237560  51.7305478  95.9920375  63.6032925  52.4708289  96.0074984
  59.6142196  59.0328494  91.8707850  60.3093100  59.6535187  92.0895165
  59.9565346  58.1823846  92.1460228  45.2310005  50.8546295 105.7304668
  44.4891741  51.0028931 106.3169298  44.9102749  51.1154561 104.8671417
  61.5133619  56.4828200  93.3995181  62.0384943  56.8215473  92.6744501
  61.4255971  55.5475215  93.2158316  53.1753667  60.3962274 105.5285058
  53.4840794  60.1511420 106.4007757  53.9729149  60.6008912 105.0403928
  53.1974279  62.5500183  97.7590434  52.7579270  62.0576562  98.4523291
  53.9482396  62.0073151  97.5182510  45.6766618  58.7411724  97.7615062
  46.5024638  58.4415496  97.3813706  45.3260670  57.9719346  98.2104851
  50.6448152  58.0938192  99.8312736  50.0228161  57.4308897  99.5314964
  51.3153019  58.1199324  99.1486384  43.8775224  56.6598050  98.7203996
  43.0407132  56.2320225  98.5387997  43.8498869  56.8530494  99.6574787
  50.7172679  46.5719980 109.4245242  50.7660835  47.4482103 109.0423012
  51.2595193  46.0297373 108.8516885  61.2027525  57.1161104 108.7046379
  60.4123068  57.0985242 108.1650879  60.9660879  57.6549397 109.4595416
  61.3225400  53.9653570 106.0179108  61.3723405  53.8003577 106.9594630
  61.2139323  53.0980829 105.6276988  50.2061659  56.6442116  93.3071197
  50.3549779  57.3277580  92.6537869  51.0128102  56.6247206  93.8220652
  58.6129162  49.9484498 107.3338414  59.5139025  49.8090963 107.0422412
  58.6877137  50.1138953 108.2736592  52.9471968  47.3251353 106.1791601
  52.0775277  47.6184919 105.9074189  53.1831448  47.9091798 106.8998864
  62.8243597  56.3850511 106.2621129  62.5328405  56.7480492 107.0984590
  62.2115728  55.6717520 106.0834461  64.0239279  53.9503391  98.7823699
  64.8586170  54.3893195  98.9461260  64.1598408  53.4742044  97.9631945
  61.0730785  51.5083126 104.7301187  61.5484907  51.7010772 103.9220039
  60.1496350  51.5642312 104.4844571  47.9614292  52.6707293  94.3132265
  47.7160333  51.7669623  94.5112476  48.1310206  52.6724444  93.3711743
  55.6511001  43.5430970 103.6957021  56.1692945  44.2791997 103.3703510
  55.2966134  43.8494963 104.5303780  47.2309939  48.4035651  91.8118427
  46.5379184  48.4780006  91.1558463  46.9861691  47.6395994  92.3339944
  55.9023596  39.9631252  99.2157918  56.1825349  39.2954441  99.8418344
  56.6874202  40.1560348  98.7032582  53.7057064  59.1390246  90.7782944
  53.1331031  59.7580433  90.3253416  54.2789858  59.6889608  91.3122866
  59.7732454  48.3848886 102.9629493  60.7249877  48.4846984 102.9841717
  59.6035904  47.5927155 103.4727577  57.7946833  45.4704469 103.1488894
  57.1996765  45.7509482 102.4535382  57.5096530  45.9598370 103.9205635
  56.9254324  59.4227396  91.9091526  57.8584997  59.3572958  92.1124402
  56.8377537  60.2583663  91.4506059  59.5542341  58.7393267  88.8695474
  59.4755972  58.4053130  89.7631232  60.3752007  59.2315034  88.8686946
  62.2520532  51.6055006 102.0771792  62.2196852  50.6671007 102.2631476
  62.8621155  51.6839043 101.3437617  54.0903863  50.4751059  88.1198996
  55.0362967  50.3457267  88.1887415  53.7118108  49.7365721  88.5968425
  62.4015020  48.3966049 102.1230076  61.8854069  47.6124506 101.9360005
  63.2854969  48.0684766 102.2876595  60.0625747  42.1407065  98.0825888
  59.8650568  41.8322153  98.9669220  60.6725453  42.8668704  98.2123818
  68.0697082  52.6671013 101.2177829  68.8000470  52.4056301 101.7785533
  67.4604027  51.9299735 101.2579897  66.1512379  50.8078875 101.8152280
  65.4245542  50.6734840 101.2068772  65.7359666  51.1155704 102.6208998
  53.9742555  54.5268805 109.5799653  54.8945565  54.7047404 109.7739700
  53.9392138  53.5824850 109.4279353  52.2746780  48.4001035  88.0553882
  51.3678235  48.1034148  88.1316595  52.5522761  48.1030853  87.1888168
  43.1924720  49.7207399  98.5052928  42.8727504  48.8672707  98.2127302
  42.6458148  49.9355977  99.2610895  46.9704628  52.4369840 102.2222435
  47.1890637  53.3686947 102.2410468  47.3830401  52.0777814 103.0077238
  53.8908845  42.9437925  94.2098123  53.0809574  42.5985010  94.5853369
  54.5793262  42.6345469  94.7985735  55.8199394  42.0215972  95.8322420
  56.3730432  42.4411425  96.4912443  56.0569480  41.0951720  95.8745376
  51.8432493  48.0103045 111.6125184  51.7429220  48.9597402 111.5437275
  51.6254035  47.6821284 110.7401254  51.0445564  45.2587970  88.1965861
  51.9064728  45.5842869  88.4561678  51.2295908  44.4719466  87.6838927
  43.0612980  53.3410310 100.4746050  42.3676452  52.9264263  99.9616004
  43.8085971  53.3830847  99.8779469  59.1978201  44.1316497  95.3401084
  58.6176870  44.7901301  94.9579136  58.9314133  43.3093841  94.9288501
  57.6481767  43.5321555  97.5422404  58.1481546  43.6438089  96.7336723
  58.2917375  43.2282607  98.1823213  51.7063763  51.4400184 110.4290245
  51.2230845  52.2400544 110.6354134  51.7924702  51.4508129 109.4757689
  44.9749723  53.2728564  98.3512065  44.9520411  53.3716251  97.3993948
  45.2850359  54.1193715  98.6729231  47.6337100  55.3304719 102.4658679
  48.5880354  55.2988661 102.3988611  47.4349624  54.8695343 103.2808905
  48.2236483  53.9005835 105.0329477  49.0429372  54.3949914 105.0564314
  48.4973290  52.9837803 105.0047044  57.9803079  46.2916587  94.3957432
  57.0928934  46.5766238  94.1777627  58.3957068  46.1310351  93.5484709
  61.3317615  46.3163108  98.1111771  62.1078005  46.8059561  98.3836388
  60.6065749  46.7421162  98.5683641  63.7690174  47.0290727  99.1685712
  64.3634664  46.7886463  98.4579020  63.8416757  46.3097858  99.7959248
  45.9887329  60.8724338  99.4828877  45.8541797  60.1124739  98.9166875
  45.5719392  61.5965238  99.0157666  57.1246292  56.0561262  88.4905452
  57.8282142  56.2611264  89.1063108  56.4008941  56.6238024  88.7554536
  57.9544103  51.8071123  94.6107722  57.8979304  52.2639675  93.7715355
  58.5072445  51.0461808  94.4330565  61.7648908  47.5960855  95.4357842
  61.5085843  47.1957491  96.2666050  61.1401777  48.3104649  95.3107981
  66.0761246  50.3356928  97.9429133  65.5160804  50.4050118  98.7160695
  65.4704750  50.1597913  97.2228629  49.1456455  61.7693655  99.6947320
  49.0288839  62.7139088  99.5926010  48.3248901  61.4667217 100.0833119
  59.0332990  56.4943791  90.5403912  59.8678594  56.0624990  90.3581387
  58.8717333  56.3225805  91.4680807  58.6878882  52.9975904  91.9060252
  58.6327686  52.8320176  90.9648696  58.0624937  53.7051937  92.0622441
  43.4771397  48.2343969 105.7321674  44.1230260  47.7242923 106.2208899
  43.2688548  48.9712650 106.3065099  56.0024789  55.3024816 111.2313814
  56.8715949  55.4765469 110.8700449  55.5231541  56.1219233 111.1089544
  51.9975007  42.4984013  91.4845570  51.9853677  43.4425853  91.6413841
  52.8898429  42.3154159  91.1905031  50.1710969  62.4221917 102.9103248
  51.0738216  62.4545528 103.2269743  49.9448339  61.4922368 102.9249584
  51.9264571  61.1752904  99.5713327  50.9760202  61.1754765  99.4577699
  52.2297057  60.4285638  99.0549361  55.8127127  39.0926790  95.7391507
  55.0459523  38.5385277  95.8848189  56.2237832  39.1648659  96.6005658
  47.8168888  45.3811586 109.8296688  48.6800349  45.0248391 110.0400013
  47.2434299  45.0425481 110.5172092  67.6617265  67.0113442 100.6359089
  68.2995675  66.8920190  99.9322429  67.5438108  67.9594286 100.6947041
  64.4706971  66.9640870 100.5720614  64.1325483  66.8481935  99.6841149
  65.3396739  66.5632035 100.5521620  60.3293787  68.8176347  96.5617505
  59.7658652  68.7266284  95.7933792  60.2146182  67.9976251  97.0419997
  64.9526754  68.1175722 106.5306819  64.9415395  67.7228520 105.6587323
  65.1147394  67.3841795 107.1240591  57.8758219  70.3127538  99.4001725
  58.6679511  69.9718363  98.9848024  58.1154869  70.4222513 100.3203878
  65.9093345  72.4847314  91.8731970  65.2581325  73.0701395  91.4865983
  66.7037708  73.0153509  91.9327007  59.8348973  69.5736452  92.2719104
  60.6079849  69.0265439  92.1331980  60.1874372  70.4380701  92.4833565
  61.6734015  70.9012834 105.4786003  61.3823881  71.8058465 105.3632669
  62.3091000  70.9429361 106.1930073  62.5990222  68.2789682 102.0687363
  63.1953794  68.0545705 101.3544326  62.6565194  67.5374428 102.6712811
  62.1715250  65.7329118  89.9037554  62.4240771  65.2110639  89.1421017
  61.2339810  65.5695263  90.0064237  67.2158533  64.7364896  97.7112297
  68.0021623  64.3184319  97.3602714  67.4797238  65.6410988  97.8793945
  67.3868611  70.1737746  92.4100954  66.7514444  70.2472373  93.1221858
  67.0566017  70.7631345  91.7320033  72.6166960  64.6740129  98.6145276
  73.3492132  64.1039346  98.8483105  71.8606316  64.2861730  99.0551781
  61.8911539  67.6357224  92.1061929  61.7747797  66.9602127  92.7743013
  62.0013799  67.1489598  91.2894082  64.2343080  67.0967371  95.8108618
  63.8701287  66.5697992  96.5221539  65.0910196  66.7065840  95.6375103
  70.1392381  58.3861703 103.0739884  69.8075706  59.2557114 102.8501099
  69.5437994  58.0697987 103.7533915  63.8748567  62.1257270  90.8069966
  64.0422969  62.9937507  91.1740438  63.6845736  62.2884552  89.8831256
  66.6323900  70.5874249 102.4735797  66.3324623  71.4899288 102.3651604
  66.2874960  70.3206433 103.3256950  60.0836382  67.0388046  98.5072501
  59.1586878  66.9064260  98.7150193  60.3320795  67.8182265  99.0042444
  70.0321044  63.1056790 100.1533234  69.1237921  63.0372198  99.8591995
  69.9808640  63.5828734 100.9815060  63.8537788  64.5814928  91.7916633
  63.7337413  65.0271979  92.6302114  63.1590376  64.9300246  91.2330171
  57.4445193  66.6821320  99.3416290  57.5737574  66.9355799 100.2555702
  56.7642644  67.2749028  99.0220945  61.6144680  77.3518570  95.4406765
  61.5368710  78.3026395  95.5195245  61.0106324  77.0064442  96.0981691
  64.1061910  64.5246435 108.0968131  63.3295244  65.0840355 108.0870996
  64.7452473  65.0103218 108.6183002  71.8982690  61.3073228 101.9311108
  71.2557071  61.6005761 101.2850903  71.3937619  61.1926148 102.7364305
  69.5522854  65.0536401  92.6196967  70.4640710  65.2863788  92.4444665
  69.0432501  65.6373445  92.0572046  62.3608282  67.3331889 107.6586098
  63.1022967  67.8716932 107.3820922  61.6545268  67.9598177 107.8157650
  67.8363622  69.4761029 106.2558260  68.2446978  69.0343439 105.5112892
  67.1140883  68.9013656 106.5092453  64.1894692  64.4133636 103.6291817
  65.0355887  64.8373049 103.7726466  64.1293330  63.7567260 104.3230380
  68.1592436  70.0362220 100.0110549  67.5301299  70.2007934  99.3086617
  67.7718099  70.4503829 100.7821513  72.0381668  70.9716657  97.3654913
  71.3532706  71.3515559  96.8151946  72.1225518  71.5811984  98.0986860
  67.3394137  62.0738004 105.2872991  67.0955069  62.8280065 104.7507266
  67.6154068  62.4523352 106.1220238  69.2932600  68.6176616 103.9650256
  69.5049495  69.2608376 103.2884637  69.2462348  67.7838933 103.4972186
  66.8958829  61.2294437 100.8686828  66.0343308  61.5275691 101.1603566
  66.9221264  61.4464836  99.9367861  63.7120398  69.7736628  97.2760634
  64.1758744  70.0524331  96.4865256  63.4477196  68.8720072  97.0933725
  60.6044479  69.3208109 100.2140397  61.1745836  69.7495378  99.5757882
  61.1952591  69.0390694 100.9124583  62.6489284  65.8959780  94.0850199
  63.3513328  66.3480824  94.5524125  62.3169913  65.2543599  94.7130092
  61.0969646  64.4871537 108.4601408  60.4668306  65.1687818 108.6936805
  60.9905734  64.3754618 107.5154547  56.3914618  64.1543333  99.3867333
  55.6013672  64.4100861  98.9107443  56.8825866  64.9691671  99.4919373
  70.4078428  71.4948572 102.1372613  71.2295872  71.0928759 101.8555295
  70.4040831  71.3916806 103.0888729  58.3429364  64.5187912  96.3450809
  57.5460527  64.6306606  96.8634305  58.1154956  64.8574564  95.4791700
  64.1735031  71.0432615 104.2933324  64.2379464  71.5053022 105.1291496
  63.4645955  70.4129980 104.4215634  54.6752321  64.4073823 101.8182323
  54.9260360  65.2920833 102.0839899  55.2111870  64.2278425 101.0457415
  78.4984421  67.8387320  98.4857585  77.7448129  67.2694718  98.3301589
  78.6331962  67.8049985  99.4328220  63.8883049  72.7100723  94.1612304
  63.7528724  73.5552258  94.5897152  64.4292862  72.9120000  93.3978238
  60.3750389  58.7892303 110.8226660  59.9817334  58.2358501 111.4974304
  61.1916529  59.1002881 111.2133177  57.3412446  70.2276161  94.7340229
  57.8536967  71.0219411  94.8845794  57.9935159  69.5302451  94.6673831
  59.1507331  73.3441917  96.8162983  59.3273959  74.2659882  96.6283966
  59.9464165  73.0300336  97.2457362  63.2918350  60.2050182 108.4146916
  64.0328063  60.8057335 108.3351379  63.5236272  59.4627819 107.8564959
  58.4359688  65.3906549 106.6925146  58.3213203  64.4891806 106.9932245
  57.5804205  65.6370246 106.3409962  65.5151525  73.3324289 108.2912646
  65.0715380  72.5460668 107.9733551  66.1768739  73.5203440 107.6256537
  60.2738647  74.8620091 102.8173325  60.8246072  74.7337154 102.0450319
  59.4350122  75.1614980 102.4668218  67.6132763  73.6127089 106.3194048
  67.5951239  74.4335970 105.8274317  68.5352683  73.4881164 106.5444189
  64.0705818  71.1271219 107.1617556  64.6034154  70.3659507 106.9316864
  63.5419899  70.8344870 107.9041710  67.2375513  56.2331285 102.6911198
  66.8939782  57.1232926 102.6150308  67.6054475  56.0432942 101.8280783
  55.3061363  68.5564815  95.5099800  56.1436585  68.9661823  95.2933508
  55.4839631  67.6164257  95.4799994  67.2025795  66.2239896  91.1983633
  66.6872419  66.9944500  91.4372020  66.9303104  65.5505032  91.8216694
  64.7872906  61.0689596  96.2568871  63.9314503  60.6796447  96.0774510
  65.1999858  61.1481557  95.3968657  66.3172053  58.6035940 100.6560431
  65.8136849  58.5666075  99.8428236  66.6102660  59.5128682 100.7157088
  62.5614939  58.6874669  99.6626613  63.4267936  58.4917478  99.3032502
  62.6292448  58.4585021 100.5895969  72.1760069  68.9772250  93.1336806
  71.3989512  68.6383410  92.6891968  72.8551550  68.9824873  92.4591771
  66.9912098  64.0966988  93.0243414  66.6862234  64.4113137  93.8753557
  67.9442541  64.1748408  93.0670747  65.4358530  70.2557211  94.6736368
  64.9079892  69.5209971  94.3609605  64.9346033  71.0331887  94.4276336
  70.4151376  68.4506232  99.7903414  69.7575051  69.1405493  99.8783543
  71.2191776  68.8402664 100.1337401  60.1677258  60.9176877  97.0342980
  60.7421010  60.6952059  96.3016172  60.7548240  60.9865572  97.7871581
  69.2256835  66.8050604  97.8407356  69.7388717  67.4380596  98.3429066
  69.8758059  66.2051800  97.4750716  60.4946845  62.9481338  91.0538865
  59.6584157  63.2856025  91.3748140  60.3551615  62.8130318  90.1166002
  62.4699926  57.7918126  95.7618049  61.8164338  57.4767143  95.1374664
  62.4280400  57.1693867  96.4877872  63.5811130  68.0737421  87.6771341
  62.6738192  67.8426675  87.8762490  64.0782162  67.2775041  87.8645323
  66.4879209  76.7834929  90.5968027  65.8140908  77.0866625  91.2052985
  66.8745031  77.5864009  90.2473484  65.7037666  64.2800060 100.0865697
  64.7860227  64.5015007  99.9287385  66.1197810  64.3546370  99.2277404
  66.4872714  65.6791475  95.2168377  67.2344533  66.1912873  94.9075499
  66.7564303  65.3575528  96.0772770  64.7599364  68.1750016  92.1995331
  63.8510583  67.8909049  92.2967801  64.7894448  68.5949095  91.3398638
  69.9918631  71.7856606  95.9686499  69.5380958  70.9447516  96.0251689
  69.3612598  72.4218004  96.3061279  68.9351551  62.7148592  97.1987166
  68.1974308  62.2025978  97.5297409  69.1878324  62.2748973  96.3870443
  68.4351571  73.6233102  96.9036317  68.7274545  74.1838160  96.1848682
  68.9450191  73.9161663  97.6589476  69.0363178  55.4924844  97.7928935
  69.3422055  54.6322207  97.5054851  69.7615783  56.0842464  97.5927929
  55.3287534  65.8955530  96.1810533  55.1311934  65.3024891  95.4561600
  54.7734198  65.5907741  96.8986472  63.3084258  65.7878637  98.3005127
  63.3632868  64.8352473  98.2247603  62.4975460  65.9438076  98.7846425
  64.4575452  69.7158760  89.5383410  64.0194882  68.9994619  89.0789047
  65.1985893  69.9434875  88.9768501  61.2476618  64.4055697  96.0595505
  60.4344483  64.7049867  96.4660698  61.7435612  64.0111385  96.7769988
  63.3985196  74.4013453  97.9929770  63.3561375  74.6274300  97.0638302
  64.3147895  74.1676828  98.1415571  66.8450830  64.8697521 104.8910399
  67.2000217  65.0968994 105.7504865  67.4922961  65.2015898 104.2687655
  72.5748567  67.9915957  95.5959728  72.4366465  68.1817553  94.6680918
  72.2184785  68.7535340  96.0527779  60.7390693  61.9774052 101.6756740
  61.3790072  61.8362811 100.9779704  59.9068223  61.6908565 101.2995342
  72.6017946  70.0592484 100.6071000  73.0354453  69.9667773 101.4554054
  73.3149527  70.0349984  99.9691016  61.5150997  71.2776482  97.7891733
  62.3091595  70.7826803  97.5874308  60.8042689  70.7494346  97.4259438
  66.3345841  73.6594578 102.1404100  66.3882863  74.2285514 102.9081816
  65.4660622  73.8296463 101.7758138  57.8233760  65.4219564  93.8651485
  56.8931348  65.3604020  94.0821448  57.9191232  64.8995517  93.0688127
  57.7419309  61.9474377  96.4529727  58.0026126  62.8619710  96.3438888
  58.5636481  61.4798820  96.6026340  59.2144234  63.3612134 103.6228552
  59.8867288  63.1529496 102.9741201  58.3874021  63.1634220 103.1833784
  73.4633496  70.1016185 103.1403885  73.6569386  71.0061995 103.3863160
  73.3634114  69.6423604 103.9742470  65.1169806  59.9874075 105.6394213
  64.4697721  60.6864025 105.5458689  65.8870822  60.4210219 106.0070461
  68.5248604  70.2522927 108.7144766  68.3734111  70.0233479 107.7974849
  68.5153284  71.2093529 108.7276111  65.2933941  67.8254840 103.6991032
  66.2226001  67.9766000 103.5260000  64.8724971  67.9138861 102.8439679
  64.0922273  71.8505504 101.4689570  63.9533358  71.4824289 102.3415508
  63.3036869  72.3653144 101.2973528  64.6870425  76.9514601  92.8115106
  64.8622180  76.4802644  93.6260729  64.0003213  77.5780367  93.0396367
  65.6427488  71.2287107  98.8578408  65.3077320  71.1887877  99.7536058
  65.1431433  70.5631823  98.3848818  59.6171732  66.6354737 104.3830989
  59.4791530  65.9034976 104.9842528  60.5276655  66.5463637 104.1015177
  68.5786679  68.5743142  89.1315467  67.9615850  67.8489970  89.0348520
  68.1103168  69.3352502  88.7882542  62.2454032  66.3474697 103.8714668
  62.9553651  65.7067889 103.8301287  62.2023340  66.5987591 104.7940849
  70.2340811  73.2842050 106.7921248  70.1753357  72.6001270 106.1251831
  70.6360329  74.0261040 106.3401874  60.9582966  63.3339914 105.6910308
  60.4220323  62.8830653 106.3431904  60.3699675  63.4685823 104.9480772
  59.2531510  80.1003964  99.5854967  59.4928108  80.7322488 100.2633985
  58.4100706  79.7492004  99.8720326  60.3685225  62.7928566  88.2536772
  59.4914692  62.6717367  87.8899018  60.8442978  62.0014644  88.0015660
  70.2358218  71.2481634 105.0235227  69.3484997  70.9107556 105.1461626
  70.8056769  70.5164665 105.2603993  51.8887365  67.5805726  98.3478279
  52.5758405  67.2667456  97.7599294  51.7335494  68.4847090  98.0745530
  56.6922088  62.4695922 102.7763302  56.6080276  61.8621592 102.0413712
  55.8704794  62.9604940 102.7772799  63.7659372  75.9083086 101.9896471
  63.6929543  76.7138058 102.5015775  63.3236765  76.1075052 101.1644492
  63.5549151  75.1454856  95.4999292  62.7716673  75.6876536  95.5937517
  64.2541896  75.6628836  95.8993533  66.8645801  60.9549486  98.1433497
  67.3614501  60.2019448  97.8234568  66.0932783  60.9913802  97.5776707
  74.7175559  66.6589851  99.7851789  74.7065435  67.5414567  99.4145722
  73.8492938  66.3061402  99.5906326  66.2258055  75.8069920 104.1454629
  66.9386027  76.4417385 104.0730531  65.7348084  75.9033786 103.3294631
  67.9475582  69.7121173  95.7171921  67.0131861  69.8322635  95.5476625
  68.1252251  68.8093640  95.4531931  63.4480770  63.0966869  97.8705182
  63.0778558  62.5437909  98.5586088  63.9439863  62.4925002  97.3180182
  71.3348133  65.5538492  96.2521955  71.8008586  66.3866484  96.1782258
  71.7855634  65.0883474  96.9567214  61.2769969  73.5564364 104.9660200
  61.9779428  74.1900847 105.1189594  60.8065084  73.8979095 104.2055839
  69.4024365  71.8982313  93.2508107  69.6784208  71.7838908  94.1601981
  68.5328863  71.4999798  93.2120280  69.3064796  57.9219079 100.2912856
  68.3927876  58.1523306 100.4595063  69.7357898  58.0057523 101.1426889
  69.0771255  66.1108971 102.7912750  68.4242705  66.3584879 102.1365203
  69.4551635  65.2973109 102.4575228  66.0378429  76.1468664  96.8940921
  66.2200823  75.3290320  97.3568673  66.8611415  76.3636357  96.4565811
  66.3720594  75.0736849  94.1555969  66.9008360  74.5629304  93.5426131
  66.6348814  74.7579380  95.0201502  65.1258828  66.8528782 109.2778787
  64.4499465  66.7522911 109.9481163  65.9486462  66.6967996 109.7414785
  56.8737687  73.0900719 101.8991303  57.4591124  72.3444407 102.0319207
  56.6762525  73.4004675 102.7827967  59.7276342  76.1251966  96.9153745
  59.0586717  76.6098094  96.4317785  59.5889212  76.3721187  97.8297124
  51.4655342  65.6606319 100.6195746  51.5039441  65.1269910 101.4132864
  50.9595634  65.1341524 100.0006723  63.8681611  78.1595710 103.5136403
  64.4199919  78.3227331 104.2785489  64.2087804  78.7500147 102.8416428
  58.8446104  60.5070859 104.1158288  58.9087430  61.3685690 103.7035686
  58.7813224  59.8944861 103.3830647  58.3198376  62.5793992 107.7631322
  58.9470415  62.1971069 108.3768847  57.4626295  62.3608194 108.1287015
  68.7192485  72.9856967 109.3685058  69.2632389  73.5986925 108.8740013
  68.1379330  73.5436546 109.8852071  55.0963919  64.3870421  93.6949677
  55.3917360  63.4781099  93.6416731  54.1951955  64.3658161  93.3730680
  67.0049998  76.1077685 100.5000086  66.8801137  75.3067425  99.9911031
  67.6629089  76.6023879 100.0114056  58.6258166  62.4626418  99.6777226
  57.9044752  63.0762385  99.5384699  59.4151422  62.9984182  99.5993872
  69.0684906  73.9086705 102.1279636  68.1215242  73.7892056 102.0557962
  69.4167679  73.0209203 102.2105897  61.4284480  59.7980844 105.9517878
  61.9518881  60.0443141 106.7144187  61.2096813  60.6300879 105.5321015
  56.8251761  62.0684519  93.8189002  56.4964467  61.1881898  93.6364108
  57.1791131  62.0132187  94.7065392  66.0731340  73.7039421  98.3283988
  65.9256302  72.7756129  98.5091558  66.8984833  73.7259512  97.8441063
  59.9393584  62.3557489  94.1864480  60.2789656  62.8843410  93.4643088
  60.3865704  62.6937895  94.9623047  69.6765461  74.5267980  99.4148861
  70.6012009  74.3210842  99.2773312  69.5080765  74.2784381 100.3238202
  62.6337025  60.7394539 103.6367548  62.2933845  59.9402352 104.0388228
  61.9276031  61.0396250 103.0644381  63.2853496  57.8243852 102.0894871
  64.1079566  57.3504330 101.9673761  63.5291560  58.6034335 102.5893557
  61.9261731  60.8532110  92.3857773  62.6470093  61.2313363  91.8821490
  61.3027035  61.5720987  92.4892751  66.0692854  61.5577259  93.3216105
  66.2856468  62.4401897  93.0204933  65.5886921  61.1663472  92.5921747
  60.8092075  64.5162972  99.8986850  60.6636656  64.8303275 100.7911131
  60.3317279  65.1347873  99.3457748  62.6688458  61.5065520  99.9467739
  62.6550027  60.6106614  99.6100037  63.3860886  61.5136184 100.5806025
  64.5214589  61.9402861 101.9920867  64.2632367  62.8619931 101.9905197
  63.9899629  61.5433295 102.6821331  69.4660778  75.0453648  94.7710952
  69.6397655  74.4800070  94.0184805  69.9589669  75.8454543  94.5890442
  55.2837737  67.0568317 102.8374511  54.7391205  67.8328125 102.9694785
  56.1617087  67.4039121 102.6793632  62.0725354  60.3879901  95.2155309
  62.1941265  59.4596547  95.4146197  61.7827396  60.4018587  94.3033625
  64.9416544  58.0734811  98.3522029  64.9638241  58.1374144  97.3974009
  65.3584603  57.2339320  98.5462535  75.3200169  67.8090071  96.3901252
  75.7631315  67.0597396  95.9920375  74.4426679  67.8000207  96.0074984
  70.4535950  74.3620412  91.8707850  71.1486855  74.9827105  92.0895165
  70.7959100  73.5115763  92.1460228  56.0703759  66.1838213 105.7304668
  55.3285495  66.3320848 106.3169298  55.7496504  66.4446479 104.8671417
  72.3527373  71.8120118  93.3995181  72.8778697  72.1507390  92.6744501
  72.2649726  70.8767133  93.2158316  64.0147422  75.7254191 105.5285058
  64.3234548  75.4803338 106.4007757  64.8122904  75.9300830 105.0403928
  64.0368034  77.8792101  97.7590434  63.5973024  77.3868480  98.4523291
  64.7876151  77.3365069  97.5182510  56.5160373  74.0703642  97.7615062
  57.3418393  73.7707414  97.3813706  56.1654425  73.3011264  98.2104851
  61.4841906  73.4230110  99.8312736  60.8621915  72.7600815  99.5314964
  62.1546773  73.4491242  99.1486384  54.7168978  71.9889968  98.7203996
  53.8800886  71.5612143  98.5387997  54.6892623  72.1822411  99.6574787
  61.5566434  61.9011898 109.4245242  61.6054589  62.7774021 109.0423012
  62.0988948  61.3589291 108.8516885  72.0421279  72.4453021 108.7046379
  71.2516823  72.4277160 108.1650879  71.8054634  72.9841315 109.4595416
  72.1619154  69.2945488 106.0179108  72.2117159  69.1295495 106.9594630
  72.0533078  68.4272747 105.6276988  61.0455413  71.9734033  93.3071197
  61.1943533  72.6569498  92.6537869  61.8521856  71.9539123  93.8220652
  69.4522917  65.2776416 107.3338414  70.3532779  65.1382880 107.0422412
  69.5270891  65.4430870 108.2736592  63.7865722  62.6543270 106.1791601
  62.9169031  62.9476836 105.9074189  64.0225202  63.2383715 106.8998864
  73.6637351  71.7142429 106.2621129  73.3722159  72.0772410 107.0984590
  73.0509482  71.0009437 106.0834461  74.8633033  69.2795309  98.7823699
  75.6979925  69.7185113  98.9461260  74.9992162  68.8033962  97.9631945
  71.9124539  66.8375044 104.7301187  72.3878661  67.0302690 103.9220039
  70.9890105  66.8934230 104.4844571  58.8008046  67.9999211  94.3132265
  58.5554088  67.0961541  94.5112476  58.9703961  68.0016361  93.3711743
  66.4904756  58.8722887 103.6957021  67.0086700  59.6083914 103.3703510
  66.1359889  59.1786881 104.5303780  58.0703694  63.7327568  91.8118427
  57.3772938  63.8071923  91.1558463  57.8255445  62.9687912  92.3339944
  66.7417350  55.2923170  99.2157918  67.0219104  54.6246359  99.8418344
  67.5267957  55.4852265  98.7032582  64.5450819  74.4682164  90.7782944
  63.9724786  75.0872351  90.3253416  65.1183612  75.0181525  91.3122866
  70.6126208  63.7140804 102.9629493  71.5643631  63.8138901 102.9841717
  70.4429659  62.9219072 103.4727577  68.6340588  60.7996387 103.1488894
  68.0390520  61.0801400 102.4535382  68.3490285  61.2890288 103.9205635
  67.7648078  74.7519314  91.9091526  68.6978751  74.6864876  92.1124402
  67.6771291  75.5875581  91.4506059  70.3936095  74.0685184  88.8695474
  70.3149727  73.7345048  89.7631232  71.2145762  74.5606952  88.8686946
  73.0914286  66.9346924 102.0771792  73.0590606  65.9962924 102.2631476
  73.7014910  67.0130960 101.3437617  64.9297617  65.8042976  88.1198996
  65.8756722  65.6749185  88.1887415  64.5511862  65.0657638  88.5968425
  73.2408775  63.7257967 102.1230076  72.7247823  62.9416424 101.9360005
  74.1248723  63.3976684 102.2876595  70.9019502  57.4698982  98.0825888
  70.7044323  57.1614071  98.9669220  71.5119207  58.1960621  98.2123818
  78.9090836  67.9962930 101.2177829  79.6394225  67.7348218 101.7785533
  78.2997782  67.2591652 101.2579897  76.9906133  66.1370793 101.8152280
  76.2639297  66.0026758 101.2068772  76.5753420  66.4447622 102.6208998
  64.8136310  69.8560723 109.5799653  65.7339319  70.0339322 109.7739700
  64.7785893  68.9116768 109.4279353  63.1140534  63.7292953  88.0553882
  62.2071990  63.4326066  88.1316595  63.3916515  63.4322771  87.1888168
  54.0318475  65.0499316  98.5052928  53.7121259  64.1964624  98.2127302
  53.4851903  65.2647894  99.2610895  57.8098382  67.7661757 102.2222435
  58.0284392  68.6978865 102.2410468  58.2224156  67.4069732 103.0077238
  64.7302600  58.2729843  94.2098123  63.9203328  57.9276928  94.5853369
  65.4187017  57.9637386  94.7985735  66.6593148  57.3507889  95.8322420
  67.2124187  57.7703343  96.4912443  66.8963235  56.4243637  95.8745376
  62.6826247  63.3394963 111.6125184  62.5822974  64.2889320 111.5437275
  62.4647789  63.0113202 110.7401254  61.8839319  60.5879888  88.1965861
  62.7458483  60.9134786  88.4561678  62.0689663  59.8011384  87.6838927
  53.9006735  68.6702228 100.4746050  53.2070206  68.2556181  99.9616004
  54.6479726  68.7122764  99.8779469  70.0371955  59.4608415  95.3401084
  69.4570624  60.1193219  94.9579136  69.7707888  58.6385759  94.9288501
  68.4875522  58.8613472  97.5422404  68.9875300  58.9730007  96.7336723
  69.1311130  58.5574525  98.1823213  62.5457517  66.7692102 110.4290245
  62.0624599  67.5692462 110.6354134  62.6318457  66.7800047 109.4757689
  55.8143477  68.6020482  98.3512065  55.7914165  68.7008169  97.3993948
  56.1244114  69.4485632  98.6729231  58.4730855  70.6596637 102.4658679
  59.4274109  70.6280579 102.3988611  58.2743379  70.1987260 103.2808905
  59.0630237  69.2297753 105.0329477  59.8823126  69.7241831 105.0564314
  59.3367045  68.3129721 105.0047044  68.8196833  61.6208505  94.3957432
  67.9322688  61.9058156  94.1777627  69.2350822  61.4602268  93.5484709
  72.1711369  61.6455026  98.1111771  72.9471760  62.1351478  98.3836388
  71.4459504  62.0713080  98.5683641  74.6083928  62.3582645  99.1685712
  75.2028419  62.1178381  98.4579020  74.6810512  61.6389776  99.7959248
  56.8281084  76.2016256  99.4828877  56.6935552  75.4416657  98.9166875
  56.4113146  76.9257156  99.0157666  67.9640047  71.3853180  88.4905452
  68.6675897  71.5903182  89.1063108  67.2402696  71.9529941  88.7554536
  68.7937857  67.1363041  94.6107722  68.7373058  67.5931592  93.7715355
  69.3466200  66.3753725  94.4330565  72.6042663  62.9252773  95.4357842
  72.3479597  62.5249408  96.2666050  71.9795531  63.6396567  95.3107981
  76.9155001  65.6648846  97.9429133  76.3554559  65.7342035  98.7160695
  76.3098504  65.4889831  97.2228629  59.9850210  77.0985573  99.6947320
  59.8682594  78.0431006  99.5926010  59.1642656  76.7959135 100.0833119
  69.8726744  71.8235709  90.5403912  70.7072348  71.3916907  90.3581387
  69.7111087  71.6517722  91.4680807  69.5272636  68.3267822  91.9060252
  69.4721440  68.1612094  90.9648696  68.9018692  69.0343855  92.0622441
  54.3165151  63.5635886 105.7321674  54.9624015  63.0534840 106.2208899
  54.1082302  64.3004568 106.3065099  66.8418544  70.6316734 111.2313814
  67.7109703  70.8057386 110.8700449  66.3625295  71.4511151 111.1089544
  62.8368762  57.8275931  91.4845570  62.8247432  58.7717771  91.6413841
  63.7292184  57.6446077  91.1905031  61.0104724  77.7513835 102.9103248
  61.9131970  77.7837445 103.2269743  60.7842094  76.8214286 102.9249584
  62.7658326  76.5044822  99.5713327  61.8153957  76.5046683  99.4577699
  63.0690812  75.7577556  99.0549361  66.6520881  54.4218708  95.7391507
  65.8853277  53.8677194  95.8848189  67.0631586  54.4940577  96.6005658
  58.6562642  60.7103504 109.8296688  59.5194104  60.3540308 110.0400013
  58.0828053  60.3717398 110.5172092  78.5011019  82.3405360 100.6359089
  79.1389429  82.2212107  99.9322429  78.3831862  83.2886204 100.6947041
  75.3100726  82.2932788 100.5720614  74.9719237  82.1773853  99.6841149
  76.1790494  81.8923953 100.5521620  71.1687541  84.1468264  96.5617505
  70.6052406  84.0558201  95.7933792  71.0539936  83.3268169  97.0419997
  75.7920509  83.4467640 106.5306819  75.7809149  83.0520438 105.6587323
  75.9541148  82.7133712 107.1240591  68.7151973  85.6419456  99.4001725
  69.5073265  85.3010281  98.9848024  68.9548623  85.7514431 100.3203878
  76.7487100  87.8139232  91.8731970  76.0975080  88.3993313  91.4865983
  77.5431463  88.3445427  91.9327007  70.6742727  84.9028369  92.2719104
  71.4473603  84.3557356  92.1331980  71.0268126  85.7672619  92.4833565
  72.5127770  86.2304752 105.4786003  72.2217636  87.1350382 105.3632669
  73.1484754  86.2721279 106.1930073  73.4383977  83.6081600 102.0687363
  74.0347549  83.3837622 101.3544326  73.4958948  82.8666346 102.6712811
  73.0109005  81.0621035  89.9037554  73.2634526  80.5402557  89.1421017
  72.0733564  80.8987181  90.0064237  78.0552288  80.0656814  97.7112297
  78.8415377  79.6476237  97.3602714  78.3190992  80.9702906  97.8793945
  78.2262365  85.5029664  92.4100954  77.5908198  85.5764291  93.1221858
  77.8959772  86.0923263  91.7320033  83.4560715  80.0032047  98.6145276
  84.1885887  79.4331264  98.8483105  82.7000071  79.6153647  99.0551781
  72.7305294  82.9649141  92.1061929  72.6141552  82.2894045  92.7743013
  72.8407554  82.4781515  91.2894082  75.0736835  82.4259288  95.8108618
  74.7095042  81.8989909  96.5221539  75.9303951  82.0357758  95.6375103
  80.9786135  73.7153621 103.0739884  80.6469460  74.5849032 102.8501099
  80.3831749  73.3989905 103.7533915  74.7142322  77.4549188  90.8069966
  74.8816724  78.3229425  91.1740438  74.5239491  77.6176470  89.8831256
  77.4717655  85.9166167 102.4735797  77.1718378  86.8191206 102.3651604
  77.1268714  85.6498350 103.3256950  70.9230136  82.3679964  98.5072501
  69.9980633  82.2356178  98.7150193  71.1714549  83.1474183  99.0042444
  80.8714799  78.4348707 100.1533234  79.9631676  78.3664116  99.8591995
  80.8202394  78.9120652 100.9815060  74.6931542  79.9106846  91.7916633
  74.5731168  80.3563896  92.6302114  73.9984131  80.2592163  91.2330171
  68.2838947  82.0113237  99.3416290  68.4131328  82.2647716 100.2555702
  67.6036399  82.6040945  99.0220945  72.4538435  92.6810487  95.4406765
  72.3762464  93.6318312  95.5195245  71.8500078  92.3356360  96.0981691
  74.9455664  79.8538353 108.0968131  74.1688998  80.4132273 108.0870996
  75.5846227  80.3395136 108.6183002  82.7376445  76.6365146 101.9311108
  82.0950825  76.9297679 101.2850903  82.2331373  76.5218066 102.7364305
  80.3916609  80.3828319  92.6196967  81.3034465  80.6155706  92.4444665
  79.8826256  80.9665363  92.0572046  73.2002037  82.6623806 107.6586098
  73.9416721  83.2008850 107.3820922  72.4939022  83.2890095 107.8157650
  78.6757376  84.8052947 106.2558260  79.0840732  84.3635357 105.5112892
  77.9534638  84.2305574 106.5092453  75.0288446  79.7425553 103.6291817
  75.8749642  80.1664967 103.7726466  74.9687084  79.0859178 104.3230380
  78.9986191  85.3654137 100.0110549  78.3695053  85.5299851  99.3086617
  78.6111853  85.7795747 100.7821513  82.8775423  86.3008575  97.3654913
  82.1926461  86.6807476  96.8151946  82.9619272  86.9103902  98.0986860
  78.1787892  77.4029922 105.2872991  77.9348824  78.1571982 104.7507266
  78.4547822  77.7815269 106.1220238  80.1326354  83.9468534 103.9650256
  80.3443250  84.5900294 103.2884637  80.0856103  83.1130851 103.4972186
  77.7352583  76.5586355 100.8686828  76.8737062  76.8567608 101.1603566
  77.7615018  76.7756754  99.9367861  74.5514153  85.1028545  97.2760634
  75.0152498  85.3816248  96.4865256  74.2870951  84.2011990  97.0933725
  71.4438234  84.6500027 100.2140397  72.0139591  85.0787295  99.5757882
  72.0346346  84.3682612 100.9124583  73.4883039  81.2251698  94.0850199
  74.1907082  81.6772741  94.5524125  73.1563667  80.5835517  94.7130092
  71.9363400  79.8163454 108.4601408  71.3062061  80.4979735 108.6936805
  71.8299488  79.7046536 107.5154547  67.2308373  79.4835250  99.3867333
  66.4407427  79.7392779  98.9107443  67.7219620  80.2983588  99.4919373
  81.2472182  86.8240490 102.1372613  82.0689626  86.4220677 101.8555295
  81.2434585  86.7208724 103.0888729  69.1823118  79.8479830  96.3450809
  68.3854281  79.9598524  96.8634305  68.9548710  80.1866482  95.4791700
  75.0128786  86.3724533 104.2933324  75.0773218  86.8344940 105.1291496
  74.3039710  85.7421898 104.4215634  65.5146076  79.7365741 101.8182323
  65.7654114  80.6212751 102.0839899  66.0505624  79.5570342 101.0457415
  89.3378175  83.1679238  98.4857585  88.5841884  82.5986636  98.3301589
  89.4725717  83.1341903  99.4328220  74.7276803  88.0392640  94.1612304
  74.5922478  88.8844176  94.5897152  75.2686616  88.2411918  93.3978238
  71.2144143  74.1184220 110.8226660  70.8211089  73.5650419 111.4974304
  72.0310283  74.4294799 111.2133177  68.1806201  85.5568078  94.7340229
  68.6930721  86.3511329  94.8845794  68.8328914  84.8594369  94.6673831
  69.9901086  88.6733835  96.8162983  70.1667714  89.5951799  96.6283966
  70.7857919  88.3592254  97.2457362  74.1312104  75.5342099 108.4146916
  74.8721817  76.1349252 108.3351379  74.3630027  74.7919737 107.8564959
  69.2753442  80.7198467 106.6925146  69.1606957  79.8183724 106.9932245
  68.4197960  80.9662163 106.3409962  71.1132401  90.1912008 102.8173325
  71.6639826  90.0629072 102.0450319  70.2743877  90.4906897 102.4668218
  78.4526518  88.9419007 106.3194048  78.4344993  89.7627888 105.8274317
  79.3746438  88.8173082 106.5444189  74.9099572  86.4563136 107.1617556
  75.4427909  85.6951424 106.9316864  74.3813653  86.1636788 107.9041710
  78.0769267  71.5623202 102.6911198  77.7333536  72.4524844 102.6150308
  78.4448230  71.3724860 101.8280783  66.1455118  83.8856733  95.5099800
  66.9830340  84.2953741  95.2933508  66.3233385  82.9456175  95.4799994
  78.0419550  81.5531813  91.1983633  77.5266173  82.3236418  91.4372020
  77.7696858  80.8796949  91.8216694  75.6266661  76.3981514  96.2568871
  74.7708257  76.0088365  96.0774510  76.0393613  76.4773475  95.3968657
  77.1565807  73.9327857 100.6560431  76.6530603  73.8957993  99.8428236
  77.4496414  74.8420600 100.7157088  73.4008693  74.0166587  99.6626613
  74.2661690  73.8209396  99.3032502  73.4686202  73.7876939 100.5895969
  83.0153824  84.3064168  93.1336806  82.2383267  83.9675327  92.6891968
  83.6945305  84.3116791  92.4591771  77.8305853  79.4258905  93.0243414
  77.5255989  79.7405055  93.8753557  78.7836295  79.5040325  93.0670747
  76.2752285  85.5849129  94.6736368  75.7473646  84.8501888  94.3609605
  75.7739788  86.3623805  94.4276336  81.2545131  83.7798149  99.7903414
  80.5968805  84.4697411  99.8783543  82.0585530  84.1694581 100.1337401
  71.0071012  76.2468795  97.0342980  71.5814764  76.0243977  96.3016172
  71.5941995  76.3157490  97.7871581  80.0650590  82.1342522  97.8407356
  80.5782471  82.7672514  98.3429066  80.7151814  81.5343717  97.4750716
  71.3340600  78.2773256  91.0538865  70.4977912  78.6147943  91.3748140
  71.1945369  78.1422236  90.1166002  73.3093680  73.1210044  95.7618049
  72.6558092  72.8059061  95.1374664  73.2674154  72.4985784  96.4877872
  74.4204885  83.4029339  87.6771341  73.5131947  83.1718592  87.8762490
  74.9175917  82.6066958  87.8645323  77.3272964  92.1126846  90.5968027
  76.6534663  92.4158543  91.2052985  77.7138786  92.9155927  90.2473484
  76.5431420  79.6091977 100.0865697  75.6253982  79.8306924  99.9287385
  76.9591564  79.6838288  99.2277404  77.3266468  81.0083393  95.2168377
  78.0738287  81.5204790  94.9075499  77.5958058  80.6867446  96.0772770
  75.5993118  83.5041934  92.1995331  74.6904338  83.2200967  92.2967801
  75.6288202  83.9241012  91.3398638  80.8312386  87.1148523  95.9686499
  80.3774713  86.2739433  96.0251689  80.2006353  87.7509922  96.3061279
  79.7745305  78.0440509  97.1987166  79.0368062  77.5317896  97.5297409
  80.0272079  77.6040891  96.3870443  79.2745325  88.9525020  96.9036317
  79.5668299  89.5130077  96.1848682  79.7843946  89.2453581  97.6589476
  79.8756933  70.8216761  97.7928935  80.1815810  69.9614125  97.5054851
  80.6009538  71.4134382  97.5927929  66.1681289  81.2247448  96.1810533
  65.9705689  80.6316809  95.4561600  65.6127953  80.9199658  96.8986472
  74.1478012  81.1170554  98.3005127  74.2026622  80.1644391  98.2247603
  73.3369214  81.2729994  98.7846425  75.2969206  85.0450678  89.5383410
  74.8588636  84.3286536  89.0789047  76.0379647  85.2726792  88.9768501
  72.0870372  79.7347614  96.0595505  71.2738238  80.0341785  96.4660698
  72.5829367  79.3403303  96.7769988  74.2378950  89.7305371  97.9929770
  74.1955129  89.9566217  97.0638302  75.1541649  89.4968746  98.1415571
  77.6844584  80.1989439 104.8910399  78.0393972  80.4260912 105.7504865
  78.3316715  80.5307815 104.2687655  83.4142321  83.3207875  95.5959728
  83.2760220  83.5109471  94.6680918  83.0578540  84.0827257  96.0527779
  71.5784447  77.3065970 101.6756740  72.2183826  77.1654729 100.9779704
  70.7461978  77.0200483 101.2995342  83.4411701  85.3884402 100.6071000
  83.8748207  85.2959691 101.4554054  84.1543281  85.3641902  99.9691016
  72.3544751  86.6068400  97.7891733  73.1485350  86.1118720  97.5874308
  71.6436443  86.0786263  97.4259438  77.1739596  88.9886496 102.1404100
  77.2276618  89.5577432 102.9081816  76.3054377  89.1588381 101.7758138
  68.6627515  80.7511482  93.8651485  67.7325103  80.6895937  94.0821448
  68.7584986  80.2287435  93.0688127  68.5813064  77.2766295  96.4529727
  68.8419881  78.1911628  96.3438888  69.4030236  76.8090737  96.6026340
  70.0537989  78.6904052 103.6228552  70.7261042  78.4821414 102.9741201
  69.2267775  78.4926138 103.1833784  84.3027250  85.4308102 103.1403885
  84.4963140  86.3353913 103.3863160  84.2027868  84.9715521 103.9742470
  75.9563561  75.3165993 105.6394213  75.3091476  76.0155942 105.5458689
  76.7264576  75.7502137 106.0070461  76.1327695  83.1546758 103.6991032
  77.0619755  83.3057917 103.5260000  75.7118725  83.2430779 102.8439679
  74.9316027  87.1797422 101.4689570  74.7927113  86.8116207 102.3415508
  74.1430623  87.6945062 101.2973528  75.5264179  92.2806519  92.8115106
  75.7015935  91.8094562  93.6260729  74.8396967  92.9072285  93.0396367
  76.4821242  86.5579025  98.8578408  76.1471075  86.5179795  99.7536058
  75.9825188  85.8923741  98.3848818  70.4565486  81.9646655 104.3830989
  70.3185284  81.2326894 104.9842528  71.3670410  81.8755555 104.1015177
  79.4180434  83.9035059  89.1315467  78.8009604  83.1781887  89.0348520
  78.9496922  84.6644419  88.7882542  73.0847787  81.6766614 103.8714668
  73.7947405  81.0359806 103.8301287  73.0417095  81.9279509 104.7940849
  71.7976721  78.6631832 105.6910308  71.2614078  78.2122571 106.3431904
  71.2093429  78.7977741 104.9480772  70.0925264  95.4295881  99.5854967
  70.3321863  96.0614406 100.2633985  69.2494461  95.0783921  99.8720326
  71.2078980  78.1220484  88.2536772  70.3308446  78.0009284  87.8899018
  71.6836733  77.3306562  88.0015660  81.0751973  86.5773551 105.0235227
  80.1878752  86.2399473 105.1461626  81.6450524  85.8456583 105.2603993
  62.7281120  82.9097643  98.3478279  63.4152160  82.5959373  97.7599294
  62.5729249  83.8139008  98.0745530  67.5315842  77.7987840 102.7763302
  67.4474031  77.1913509 102.0413712  66.7098548  78.2896858 102.7772799
  74.6053126  91.2375004 101.9896471  74.5323298  92.0429975 102.5015775
  74.1630519  91.4366970 101.1644492  74.3942906  90.4746774  95.4999292
  73.6110428  91.0168454  95.5937517  75.0935651  90.9920754  95.8993533
  77.7039556  76.2841403  98.1433497  78.2008255  75.5311366  97.8234568
  76.9326537  76.3205720  97.5776707  85.5569313  81.9881769  99.7851789
  85.5459190  82.8706484  99.4145722  84.6886693  81.6353320  99.5906326
  77.0651810  91.1361838 104.1454629  77.7779782  91.7709303 104.0730531
  76.5741838  91.2325704 103.3294631  78.7869337  85.0413091  95.7171921
  77.8525615  85.1614553  95.5476625  78.9646005  84.1385557  95.4531931
  74.2874525  78.4258786  97.8705182  73.9172312  77.8729827  98.5586088
  74.7833617  77.8216920  97.3180182  82.1741888  80.8830410  96.2521955
  82.6402340  81.7158401  96.1782258  82.6249388  80.4175391  96.9567214
  72.1163723  88.8856281 104.9660200  72.8173183  89.5192764 105.1189594
  71.6458838  89.2271013 104.2055839  80.2418119  87.2274231  93.2508107
  80.5177963  87.1130826  94.1601981  79.3722618  86.8291716  93.2120280
  80.1458551  73.2510997 100.2912856  79.2321630  73.4815224 100.4595063
  80.5751652  73.3349441 101.1426889  79.9165009  81.4400889 102.7912750
  79.2636459  81.6876796 102.1365203  80.2945389  80.6265027 102.4575228
  76.8772183  91.4760582  96.8940921  77.0594578  90.6582238  97.3568673
  77.7005169  91.6928274  96.4565811  77.2114349  90.4028767  94.1555969
  77.7402115  89.8921222  93.5426131  77.4742568  90.0871297  95.0201502
  75.9652582  82.1820700 109.2778787  75.2893219  82.0814829 109.9481163
  76.7880216  82.0259914 109.7414785  67.7131441  88.4192636 101.8991303
  68.2984878  87.6736324 102.0319207  67.5156280  88.7296593 102.7827967
  70.5670096  91.4543884  96.9153745  69.8980472  91.9390011  96.4317785
  70.4282966  91.7013104  97.8297124  62.3049096  80.9898237 100.6195746
  62.3433196  80.4561827 101.4132864  61.7989389  80.4633442 100.0006723
  74.7075365  93.4887627 103.5136403  75.2593673  93.6519249 104.2785489
  75.0481559  94.0792065 102.8416428  69.6839858  75.8362777 104.1158288
  69.7481185  76.6977608 103.7035686  69.6206979  75.2236779 103.3830647
  69.1592131  77.9085910 107.7631322  69.7864170  77.5262987 108.3768847
  68.3020050  77.6900112 108.1287015  65.9357674  79.7162339  93.6949677
  66.2311115  78.8073017  93.6416731  65.0345709  79.6950078  93.3730680
  77.8443752  91.4369603 100.5000086  77.7194892  90.6359343  99.9911031
  78.5022843  91.9315796 100.0114056  69.4651921  77.7918335  99.6777226
  68.7438506  78.4054303  99.5384699  70.2545176  78.3276100  99.5993872
  79.9078661  89.2378623 102.1279636  78.9608996  89.1183974 102.0557962
  80.2561434  88.3501121 102.2105897  72.2678234  75.1272762 105.9517878
  72.7912636  75.3735058 106.7144187  72.0490567  75.9592797 105.5321015
  67.6645515  77.3976436  93.8189002  67.3358221  76.5173815  93.6364108
  68.0184886  77.3424105  94.7065392  76.9125094  89.0331339  98.3283988
  76.7650056  88.1048047  98.5091558  77.7378588  89.0551430  97.8441063
  70.7787338  77.6849406  94.1864480  71.1183411  78.2135327  93.4643088
  71.2259459  78.0229812  94.9623047  80.5159216  89.8559898  99.4148861
  81.4405763  89.6502759  99.2773312  80.3474519  89.6076299 100.3238202
  73.4730779  76.0686457 103.6367548  73.1327600  75.2694270 104.0388228
  72.7669785  76.3688168 103.0644381  74.1247251  73.1535769 102.0894871
  74.9473320  72.6796248 101.9673761  74.3685315  73.9326253 102.5893557
  72.7655485  76.1824028  92.3857773  73.4863848  76.5605281  91.8821490
  72.1420790  76.9012905  92.4892751  76.9086608  76.8869177  93.3216105
  77.1250223  77.7693815  93.0204933  76.4280676  76.4955390  92.5921747
  71.6485830  79.8454890  99.8986850  71.5030410  80.1595193 100.7911131
  71.1711033  80.4639790  99.3457748  73.5082213  76.8357438  99.9467739
  73.4943781  75.9398531  99.6100037  74.2254641  76.8428102 100.5806025
  75.3608343  77.2694778 101.9920867  75.1026121  78.1911849 101.9905197
  74.8293384  76.8725213 102.6821331  80.3054532  90.3745565  94.7710952
  80.4791410  89.8091988  94.0184805  80.7983423  91.1746460  94.5890442
  66.1231492  82.3860234 102.8374511  65.5784960  83.1620042 102.9694785
  67.0010842  82.7331039 102.6793632  72.9119109  75.7171818  95.2155309
  73.0335020  74.7888464  95.4146197  72.6221151  75.7310504  94.3033625
  75.7810299  73.4026729  98.3522029  75.8031996  73.4666062  97.3974009
  76.1978358  72.5631237  98.5462535  86.1593923  83.1381988  96.3901252
  86.6025069  82.3889313  95.9920375  85.2820434  83.1292125  96.0074984
  81.2929705  89.6912330  91.8707850  81.9880609  90.3119022  92.0895165
  81.6352855  88.8407681  92.1460228  66.9097514  81.5130131 105.7304668
  66.1679250  81.6612766 106.3169298  66.5890258  81.7738396 104.8671417
  83.1921128  87.1412035  93.3995181  83.7172452  87.4799308  92.6744501
  83.1043480  86.2059051  93.2158316  74.8541176  91.0546109 105.5285058
  75.1628303  90.8095256 106.4007757  75.6516658  91.2592747 105.0403928
  74.8761788  93.2084019  97.7590434  74.4366779  92.7160397  98.4523291
  75.6269905  92.6656986  97.5182510  67.3554127  89.3995559  97.7615062
  68.1812147  89.0999331  97.3813706  67.0048179  88.6303182  98.2104851
  72.3235661  88.7522028  99.8312736  71.7015670  88.0892733  99.5314964
  72.9940528  88.7783159  99.1486384  65.5562732  87.3181886  98.7203996
  64.7194641  86.8904060  98.5387997  65.5286378  87.5114329  99.6574787
  72.3960188  77.2303816 109.4245242  72.4448344  78.1065938 109.0423012
  72.9382702  76.6881209 108.8516885  83.0012909  84.6237405 106.0179108
  83.0510914  84.4587413 106.9594630  82.8926832  83.7564664 105.6276988
  71.8849168  87.3025951  93.3071197  72.0337288  87.9861415  92.6537869
  72.6915611  87.2831041  93.8220652  80.2916671  80.6068333 107.3338414
  81.1926534  80.4674798 107.0422412  80.3664646  80.7722788 108.2736592
  74.6259477  77.9835188 106.1791601  73.7562786  78.2768754 105.9074189
  74.8618957  78.5675633 106.8998864  85.7026788  84.6087227  98.7823699
  86.5373679  85.0477031  98.9461260  85.8385917  84.1325880  97.9631945
  82.7518294  82.1666961 104.7301187  83.2272415  82.3594608 103.9220039
  81.8283859  82.2226147 104.4844571  69.6401800  83.3291129  94.3132265
  69.3947842  82.4253459  94.5112476  69.8097715  83.3308279  93.3711743
  77.3298510  74.2014805 103.6957021  77.8480454  74.9375832 103.3703510
  76.9753643  74.5078798 104.5303780  68.9097448  79.0619486  91.8118427
  68.2166693  79.1363841  91.1558463  68.6649200  78.2979830  92.3339944
  77.5811105  70.6215087  99.2157918  77.8612858  69.9538277  99.8418344
  78.3661711  70.8144183  98.7032582  75.3844573  89.7974081  90.7782944
  74.8118540  90.4164269  90.3253416  75.9577367  90.3473443  91.3122866
  81.4519963  79.0432721 102.9629493  82.4037386  79.1430819 102.9841717
  81.2823413  78.2510990 103.4727577  79.4734342  76.1288305 103.1488894
  78.8784274  76.4093317 102.4535382  79.1884039  76.6182206 103.9205635
  78.6041833  90.0811232  91.9091526  79.5372506  90.0156793  92.1124402
  78.5165046  90.9167498  91.4506059  81.2329849  89.3977102  88.8695474
  81.1543481  89.0636965  89.7631232  82.0539516  89.8898870  88.8686946
  83.9308041  82.2638841 102.0771792  83.8984361  81.3254842 102.2631476
  84.5408664  82.3422878 101.3437617  75.7691372  81.1334894  88.1198996
  76.7150476  81.0041102  88.1887415  75.3905616  80.3949556  88.5968425
  84.0802529  79.0549885 102.1230076  83.5641578  78.2708341 101.9360005
  84.9642478  78.7268601 102.2876595  81.7413256  72.7990900  98.0825888
  81.5438077  72.4905988  98.9669220  82.3512962  73.5252539  98.2123818
  89.7484591  83.3254848 101.2177829  90.4787979  83.0640136 101.7785533
  89.1391536  82.5883570 101.2579897  87.8299888  81.4662711 101.8152280
  87.1033051  81.3318676 101.2068772  87.4147175  81.7739539 102.6208998
  73.9534289  79.0584871  88.0553882  73.0465744  78.7617983  88.1316595
  74.2310270  78.7614689  87.1888168  64.8712229  80.3791234  98.5052928
  64.5515013  79.5256542  98.2127302  64.3245657  80.5939812  99.2610895
  68.6492137  83.0953675 102.2222435  68.8678146  84.0270783 102.2410468
  69.0617910  82.7361649 103.0077238  75.5696354  73.6021760  94.2098123
  74.7597083  73.2568845  94.5853369  76.2580771  73.2929304  94.7985735
  77.4986903  72.6799807  95.8322420  78.0517941  73.0995260  96.4912443
  77.7356989  71.7535555  95.8745376  73.5220002  78.6686881 111.6125184
  73.4216729  79.6181238 111.5437275  73.3041544  78.3405120 110.7401254
  72.7233073  75.9171806  88.1965861  73.5852237  76.2426704  88.4561678
  72.9083417  75.1303302  87.6838927  64.7400489  83.9994145 100.4746050
  64.0463960  83.5848098  99.9616004  65.4873480  84.0414682  99.8779469
  80.8765710  74.7900332  95.3401084  80.2964379  75.4485136  94.9579136
  80.6101642  73.9677677  94.9288501  79.3269276  74.1905390  97.5422404
  79.8269055  74.3021924  96.7336723  79.9704884  73.8866443  98.1823213
  73.3851272  82.0984020 110.4290245  72.9018354  82.8984380 110.6354134
  73.4712211  82.1091964 109.4757689  66.6537232  83.9312399  98.3512065
  66.6307920  84.0300086  97.3993948  66.9637868  84.7777550  98.6729231
  69.3124609  85.9888554 102.4658679  70.2667863  85.9572497 102.3988611
  69.1137133  85.5279178 103.2808905  69.9023992  84.5589670 105.0329477
  70.7216881  85.0533749 105.0564314  70.1760799  83.6421638 105.0047044
  79.6590588  76.9500423  94.3957432  78.7716443  77.2350073  94.1777627
  80.0744577  76.7894186  93.5484709  83.0105124  76.9746944  98.1111771
  83.7865514  77.4643396  98.3836388  82.2853258  77.4004998  98.5683641
  85.4477683  77.6874563  99.1685712  86.0422173  77.4470299  98.4579020
  85.5204266  76.9681693  99.7959248  67.6674838  91.5308174  99.4828877
  67.5329306  90.7708575  98.9166875  67.2506901  92.2549074  99.0157666
  78.8033801  86.7145097  88.4905452  79.5069651  86.9195100  89.1063108
  78.0796450  87.2821859  88.7554536  79.6331612  82.4654959  94.6107722
  79.5766813  82.9223510  93.7715355  80.1859954  81.7045643  94.4330565
  83.4436417  78.2544690  95.4357842  83.1873352  77.8541326  96.2666050
  82.8189285  78.9688484  95.3107981  87.7548755  80.9940764  97.9429133
  87.1948313  81.0633953  98.7160695  87.1492259  80.8181748  97.2228629
  70.8243964  92.4277491  99.6947320  70.7076348  93.3722923  99.5926010
  70.0036410  92.1251052 100.0833119  80.7120499  87.1527626  90.5403912
  81.5466103  86.7208825  90.3581387  80.5504842  86.9809640  91.4680807
  80.3666391  83.6559740  91.9060252  80.3115195  83.4904011  90.9648696
  79.7412446  84.3635773  92.0622441  65.1558906  78.8927804 105.7321674
  65.8017769  78.3826758 106.2208899  64.9476057  79.6296486 106.3065099
  73.6762516  73.1567849  91.4845570  73.6641186  74.1009689  91.6413841
  74.5685938  72.9737994  91.1905031  71.8498478  93.0805753 102.9103248
  72.7525725  93.1129363 103.2269743  71.6235848  92.1506204 102.9249584
  73.6052080  91.8336739  99.5713327  72.6547711  91.8338601  99.4577699
  73.9084566  91.0869474  99.0549361  77.4914636  69.7510625  95.7391507
  76.7247032  69.1969112  95.8848189  77.9025341  69.8232494  96.6005658
  69.4956397  76.0395421 109.8296688  70.3587858  75.6832226 110.0400013
  68.9221807  75.7009316 110.5172092  82.0081296  99.4760182  96.5617505
  81.4446161  99.3850119  95.7933792  81.8933691  98.6560087  97.0419997
  87.5880854 103.1431150  91.8731970  86.9368834 103.7285230  91.4865983
  88.3825217 103.6737345  91.9327007  81.5136482 100.2320287  92.2719104
  82.2867358  99.6849274  92.1331980  81.8661880 101.0964536  92.4833565
  83.8502759  96.3912953  89.9037554  84.1028280  95.8694474  89.1421017
  82.9127319  96.2279099  90.0064237  88.8946042  95.3948731  97.7112297
  89.6809131  94.9768155  97.3602714  89.1584747  96.2994824  97.8793945
  89.0656120 100.8321582  92.4100954  88.4301953 100.9056208  93.1221858
  88.7353526 101.4215181  91.7320033  83.5699048  98.2941059  92.1061929
  83.4535306  97.6185962  92.7743013  83.6801308  97.8073433  91.2894082
  85.9130589  97.7551206  95.8108618  85.5488796  97.2281827  96.5221539
  86.7697705  97.3649675  95.6375103  85.5536076  92.7841106  90.8069966
  85.7210478  93.6521342  91.1740438  85.3633245  92.9468388  89.8831256
  81.7623891  97.6971882  98.5072501  80.8374387  97.5648096  98.7150193
  82.0108304  98.4766101  99.0042444  85.5325297  95.2398763  91.7916633
  85.4124922  95.6855814  92.6302114  84.8377885  95.5884081  91.2330171
  79.1232702  97.3405155  99.3416290  79.2525083  97.5939634 100.2555702
  78.4430153  97.9332863  99.0220945  91.2310363  95.7120237  92.6196967
  92.1428219  95.9447623  92.4444665  90.7220010  96.2957281  92.0572046
  88.5746338  91.8878272 100.8686828  87.7130817  92.1859526 101.1603566
  88.6008773  92.1048671  99.9367861  85.3907907 100.4320463  97.2760634
  85.8546253 100.7108166  96.4865256  85.1264705  99.5303908  97.0933725
  84.3276793  96.5543615  94.0850199  85.0300837  97.0064659  94.5524125
  83.9957422  95.9127434  94.7130092  78.0702127  94.8127168  99.3867333
  77.2801181  95.0684697  98.9107443  78.5613375  95.6275506  99.4919373
  80.0216873  95.1771747  96.3450809  79.2248036  95.2890442  96.8634305
  79.7942465  95.5158400  95.4791700  76.3539830  95.0657659 101.8182323
  76.6047869  95.9504668 102.0839899  76.8899379  94.8862260 101.0457415
  85.5670558 103.3684558  94.1612304  85.4316233 104.2136094  94.5897152
  86.1080370 103.5703836  93.3978238  79.0199955 100.8859996  94.7340229
  79.5324476 101.6803246  94.8845794  79.6722668 100.1886287  94.6673831
  88.9163022  86.8915120 102.6911198  88.5727291  87.7816762 102.6150308
  89.2841984  86.7016778 101.8280783  76.9848872  99.2148650  95.5099800
  77.8224094  99.6245659  95.2933508  77.1627140  98.2748093  95.4799994
  88.8813304  96.8823731  91.1983633  88.3659928  97.6528336  91.4372020
  88.6090613  96.2088867  91.8216694  86.4660415  91.7273432  96.2568871
  85.6102012  91.3380282  96.0774510  86.8787367  91.8065393  95.3968657
  87.9959562  89.2619775 100.6560431  87.4924358  89.2249910  99.8428236
  88.2890169  90.1712518 100.7157088  84.2402448  89.3458505  99.6626613
  85.1055445  89.1501313  99.3032502  84.3079957  89.1168857 100.5895969
  93.8547578  99.6356086  93.1336806  93.0777021  99.2967245  92.6891968
  94.5339059  99.6408709  92.4591771  88.6699607  94.7550823  93.0243414
  88.3649743  95.0696972  93.8753557  89.6230050  94.8332243  93.0670747
  87.1146039 100.9141046  94.6736368  86.5867401 100.1793806  94.3609605
  86.6133542 101.6915723  94.4276336  81.8464767  91.5760713  97.0342980
  82.4208519  91.3535894  96.3016172  82.4335749  91.6449407  97.7871581
  82.1734354  93.6065174  91.0538865  81.3371666  93.9439860  91.3748140
  82.0339124  93.4714154  90.1166002  84.1487435  88.4501962  95.7618049
  83.4951847  88.1350979  95.1374664  84.1067909  87.8277702  96.4877872
  85.2598639  98.7321257  87.6771341  84.3525701  98.5010510  87.8762490
  85.7569671  97.9358876  87.8645323  88.1666718 107.4418764  90.5968027
  87.4928417 107.7450461  91.2052985  88.5532540 108.2447844  90.2473484
  88.1660223  96.3375311  95.2168377  88.9132042  96.8496708  94.9075499
  88.4351812  96.0159364  96.0772770  86.4386873  98.8333852  92.1995331
  85.5298092  98.5492884  92.2967801  86.4681957  99.2532930  91.3398638
  90.6139060  93.3732427  97.1987166  89.8761817  92.8609813  97.5297409
  90.8665833  92.9332809  96.3870443  90.7150687  86.1508679  97.7928935
  91.0209564  85.2906043  97.5054851  91.4403292  86.7426299  97.5927929
  77.0075043  96.5539366  96.1810533  76.8099443  95.9608726  95.4561600
  76.4521707  96.2491576  96.8986472  84.9871767  96.4462472  98.3005127
  85.0420377  95.4936309  98.2247603  84.1762969  96.6021911  98.7846425
  86.1362961 100.3742595  89.5383410  85.6982391  99.6578454  89.0789047
  86.8773402 100.6018710  88.9768501  82.9264127  95.0639532  96.0595505
  82.1131992  95.3633702  96.4660698  83.4223121  94.6695221  96.7769988
  82.4178202  92.6357887 101.6756740  83.0577581  92.4946647 100.9779704
  81.5855732  92.3492401 101.2995342  79.5021269  96.0803400  93.8651485
  78.5718857  96.0187855  94.0821448  79.5978741  95.5579352  93.0688127
  79.4206818  92.6058212  96.4529727  79.6813635  93.5203546  96.3438888
  80.2423990  92.1382655  96.6026340  90.2574188  99.2326977  89.1315467
  89.6403359  98.5073805  89.0348520  89.7890677  99.9936337  88.7882542
  82.0472734  93.4512401  88.2536772  81.1702201  93.3301202  87.8899018
  82.5230487  92.6598479  88.0015660  73.5674874  98.2389561  98.3478279
  74.2545914  97.9251291  97.7599294  73.4123003  99.1430926  98.0745530
  78.3709597  93.1279757 102.7763302  78.2867785  92.5205427 102.0413712
  77.5492303  93.6188776 102.7772799  88.5433310  91.6133321  98.1433497
  89.0402010  90.8603283  97.8234568  87.7720292  91.6497638  97.5776707
  85.1268279  93.7550704  97.8705182  84.7566067  93.2021744  98.5586088
  85.6227372  93.1508837  97.3180182  90.9852305  88.5802914 100.2912856
  90.0715385  88.8107141 100.4595063  91.4145407  88.6641359 101.1426889
  73.1442850  96.3190154 100.6195746  73.1826950  95.7853745 101.4132864
  72.6383143  95.7925360 100.0006723  80.5233613  91.1654695 104.1158288
  80.5874939  92.0269526 103.7035686  80.4600733  90.5528696 103.3830647
  76.7751428  95.0454256  93.6949677  77.0704869  94.1364935  93.6416731
  75.8739464  95.0241996  93.3730680  80.3045675  93.1210253  99.6777226
  79.5832261  93.7346221  99.5384699  81.0938931  93.6568018  99.5993872
  78.5039270  92.7268354  93.8189002  78.1751976  91.8465733  93.6364108
  78.8578640  92.6716023  94.7065392  81.6181093  93.0141324  94.1864480
  81.9577165  93.5427245  93.4643088  82.0653213  93.3521730  94.9623047
  84.9641005  88.4827687 102.0894871  85.7867075  88.0088165 101.9673761
  85.2079069  89.2618171 102.5893557  83.6049240  91.5115945  92.3857773
  84.3257602  91.8897198  91.8821490  82.9814544  92.2304822  92.4892751
  87.7480363  92.2161094  93.3216105  87.9643977  93.0985732  93.0204933
  87.2674430  91.8247308  92.5921747  82.4879584  95.1746808  99.8986850
  82.3424165  95.4887111 100.7911131  82.0104788  95.7931708  99.3457748
  84.3475967  92.1649356  99.9467739  84.3337536  91.2690449  99.6100037
  85.0648395  92.1720019 100.5806025  83.7512863  91.0463736  95.2155309
  83.8728774  90.1180382  95.4146197  83.4614905  91.0602422  94.3033625
  86.6204053  88.7318646  98.3522029  86.6425750  88.7957979  97.3974009
  87.0372112  87.8923155  98.5462535  78.1947882 104.7287477  97.7615062
  79.0205902 104.4291249  97.3813706  77.8441934 103.9595099  98.2104851
  76.3956487 102.6473804  98.7203996  75.5588395 102.2195978  98.5387997
  76.3680132 102.8406247  99.6574787  82.7242922 102.6317869  93.3071197
  82.8731042 103.3153333  92.6537869  83.5309365 102.6122959  93.8220652
  80.4795555  98.6583046  94.3132265  80.2341597  97.7545376  94.5112476
  80.6491470  98.6600197  93.3711743  79.7491203  94.3911404  91.8118427
  79.0560447  94.4655759  91.1558463  79.5042954  93.6271747  92.3339944
  88.4204859  85.9507005  99.2157918  88.7006613  85.2830194  99.8418344
  89.2055466  86.1436101  98.7032582  86.2238328 105.1265999  90.7782944
  85.6512295 105.7456186  90.3253416  86.7971121 105.6765361  91.3122866
  89.4435587 105.4103149  91.9091526  90.3766260 105.3448711  92.1124402
  89.3558800 106.2459416  91.4506059  92.0723604 104.7269020  88.8695474
  91.9937236 104.3928883  89.7631232  92.8933271 105.2190787  88.8686946
  86.6085126  96.4626812  88.1198996  87.5544231  96.3333020  88.1887415
  86.2299371  95.7241474  88.5968425  92.5807011  88.1282818  98.0825888
  92.3831832  87.8197906  98.9669220  93.1906716  88.8544457  98.2123818
  84.7928043  94.3876788  88.0553882  83.8859499  94.0909901  88.1316595
  85.0704024  94.0906606  87.1888168  75.7105984  95.7083152  98.5052928
  75.3908768  94.8548460  98.2127302  75.1639412  95.9231730  99.2610895
  86.4090109  88.9313678  94.2098123  85.5990837  88.5860763  94.5853369
  87.0974526  88.6221222  94.7985735  88.3380657  88.0091725  95.8322420
  88.8911696  88.4287178  96.4912443  88.5750744  87.0827473  95.8745376
  83.5626828  91.2463723  88.1965861  84.4245992  91.5718622  88.4561678
  83.7477172  90.4595219  87.6838927  75.5794244  99.3286063 100.4746050
  74.8857715  98.9140016  99.9616004  76.3267235  99.3706600  99.8779469
  91.7159464  90.1192250  95.3401084  91.1358133  90.7777054  94.9579136
  91.4495397  89.2969594  94.9288501  90.1663031  89.5197308  97.5422404
  90.6662809  89.6313842  96.7336723  90.8098639  89.2158360  98.1823213
  77.4930986  99.2604317  98.3512065  77.4701674  99.3592004  97.3993948
  77.8031623 100.1069468  98.6729231  90.4984342  92.2792340  94.3957432
  89.6110197  92.5641991  94.1777627  90.9138331  92.1186104  93.5484709
  89.6427556 102.0437015  88.4905452  90.3463406 102.2487017  89.1063108
  88.9190205 102.6113777  88.7554536  90.4725366  97.7946876  94.6107722
  90.4160567  98.2515428  93.7715355  91.0253709  97.0337561  94.4330565
  94.2830172  93.5836608  95.4357842  94.0267106  93.1833244  96.2666050
  93.6583040  94.2980402  95.3107981  91.5514253 102.4819544  90.5403912
  92.3859857 102.0500743  90.3581387  91.3898596 102.3101558  91.4680807
  91.2060145  98.9851657  91.9060252  91.1508949  98.8195929  90.9648696
  90.5806201  99.6927690  92.0622441  84.5156271  88.4859766  91.4845570
  84.5034941  89.4301606  91.6413841  85.4079693  88.3029912  91.1905031
  88.3308390  85.0802543  95.7391507  87.5640786  84.5261030  95.8848189
  88.7419095  85.1524412  96.6005658  92.8866489 108.7804319  88.2536772
  92.0095955 108.6593120  87.8899018  93.3624242 107.9890397  88.0015660
  94.4020582 106.5755641  88.1965861  95.2639746 106.9010539  88.4561678
  94.5870926 105.7887137  87.6838927  27.8112525  -0.1637284  83.2862811
  27.2477390  -0.2547347  82.5179099  27.6964920  -0.9837379  83.7665304
  33.3912083   3.5033684  78.5977276  32.7400063   4.0887764  78.2111290
  34.1856446   4.0339879  78.6572314  27.3167710   0.5922821  78.9964411
  28.0898586   0.0451808  78.8577286  27.6693109   1.4567070  79.2078872
  34.6977271  -4.2448734  84.4357604  35.4840360  -4.6629311  84.0848021
  34.9615975  -3.3402642  84.6039252  34.8687348   1.1924116  79.1346260
  34.2333181   1.2658742  79.8467165  34.5384755   1.7817715  78.4565340
  40.0985698  -4.3073501  85.3390582  40.8310870  -4.8774284  85.5728412
  39.3425054  -4.6951901  85.7797088  29.3730277  -1.3456407  78.8307235
  29.2566535  -2.0211503  79.4988320  29.4832537  -1.8324033  78.0139388
  31.7161818  -1.8846260  82.5353925  31.3520025  -2.4115639  83.2466846
  32.5728934  -2.2747791  82.3620410  29.0963418   8.3704939  82.1652071
  29.0187448   9.3212764  82.2440552  28.4925061   8.0250812  82.8226998
  37.0341592  -3.9277229  79.3442274  37.9459448  -3.6949843  79.1689972
  36.5251239  -3.3440185  78.7817353  35.6411174   1.0548589  86.7355855
  35.0120037   1.2194303  86.0331923  35.2536836   1.4690199  87.5066819
  39.5200406   1.9903027  84.0900219  38.8351444   2.3701928  83.5397253
  39.6044255   2.5998354  84.8232167  31.1939136   0.7922997  84.0005941
  31.6577482   1.0710700  83.2110563  30.9295934  -0.1093558  83.8179031
  37.8897166   2.5134941  88.8617920  38.7114609   2.1115129  88.5800602
  37.8859569   2.4103176  89.8134036  45.9803159  -1.1426310  85.2102892
  45.2266867  -1.7118912  85.0546896  46.1150700  -1.1763646  86.1573526
  31.3701787   3.7287092  80.8857611  31.2347462   4.5738628  81.3142459
  31.9111599   3.9306370  80.1223545  24.8231184   1.2462530  81.4585536
  25.3355705   2.0405781  81.6091101  25.4753897   0.5488821  81.3919137
  26.6326069   4.3628287  83.5408289  26.8092697   5.2846251  83.3529273
  27.4282902   4.0486706  83.9702669  34.6844533  -2.7573735  77.9228940
  34.1691157  -1.9869130  78.1617327  34.4121842  -3.4308599  78.5462001
  39.6578807  -0.0041380  79.8582113  38.8808250  -0.3430221  79.4137275
  40.3370288   0.0011243  79.1837078  34.4730836  -4.8846643  79.7488721
  34.1680972  -4.5700493  80.5998864  35.4261278  -4.8065223  79.7916054
  32.9177268   1.2743581  81.3981675  32.3898630   0.5396340  81.0854912
  32.4164771   2.0518257  81.1521643  37.8970114  -0.5307399  86.5148721
  37.2393789   0.1591863  86.6028850  38.7010513  -0.1410967  86.8582707
  36.7075573  -2.1763026  84.5652663  37.2207455  -1.5433034  85.0674372
  37.3576797  -2.7761831  84.1996023  31.0629868  -0.9076209  74.4016648
  30.1556930  -1.1386956  74.6007797  31.5600900  -1.7038590  74.5890629
  33.9697947   7.8021298  77.3213334  33.2959646   8.1052995  77.9298292
  34.3563769   8.6050378  76.9718791  33.9691452  -3.3022155  81.9413683
  34.7163270  -2.7900758  81.6320806  34.2383041  -3.6238102  82.8018077
  32.2418102  -0.8063614  78.9240638  31.3329321  -1.0904581  79.0213108
  32.2713186  -0.3864536  78.0643945  37.4737369   2.8042975  82.6931805
  37.0199696   1.9633885  82.7496996  36.8431336   3.4404374  83.0306586
  35.9170308   4.6419472  83.6281623  36.2093283   5.2024529  82.9093989
  36.4268929   4.9348033  84.3834783  31.9394190   0.7345129  76.2628716
  31.5013619   0.0180988  75.8034354  32.6804630   0.9621244  75.7013808
  30.8803934   5.4199823  84.7175077  30.8380112   5.6460669  83.7883609
  31.7966632   5.1863198  84.8660878  40.0567304  -0.9897674  82.3205035
  39.9185203  -0.7996078  81.3926224  39.7003523  -0.2278291  82.7773086
  40.0836684   1.0778853  87.3316306  40.5173191   0.9854143  88.1799360
  40.7968265   1.0536354  86.6936322  28.9969734   2.2962852  84.5137039
  29.7910333   1.8013172  84.3119614  28.2861427   1.7680715  84.1504745
  33.8164579   4.6780948  88.8649407  33.8701601   5.2471884  89.6327123
  32.9479360   4.8482833  88.5003444  32.1689162   7.9700971  79.5360413
  32.3440918   7.4989014  80.3506036  31.4821950   8.5966737  79.7641674
  33.1246225   2.2473477  85.5823714  32.7896058   2.2074247  86.4781364
  32.6250171   1.5818193  85.1094125  36.0605417  -0.4070489  75.8560774
  35.4434588  -1.1323661  75.7593827  35.5921906   0.3538871  75.5127848
  26.7350248  11.1190333  86.3100273  26.9746846  11.7508857  86.9879292
  25.8919444  10.7678373  86.5965632  31.2478109   6.9269456  88.7141777
  31.1748281   7.7324427  89.2261082  30.8055503   7.1261422  87.8889799
  31.0367889   6.1641226  82.2244599  30.2535411   6.7062906  82.3182823
  31.7360634   6.6815205  82.6238840  42.1994297  -2.3223779  86.5097096
  42.1884173  -1.4399064  86.1391029  41.3311676  -2.6752228  86.3151633
  35.4294320   0.7307542  82.4417228  34.4950599   0.8509005  82.2721932
  35.6070988  -0.1719991  82.1777237  38.8166871  -3.4275138  82.9767262
  39.2827323  -2.5947147  82.9027564  39.2674372  -3.8930157  83.6812520
  36.8843102   2.9168683  79.9753414  37.1602946   2.8025278  80.8847288
  36.0147601   2.5186168  79.9365587  33.5197166   7.1655034  83.6186227
  33.7019561   6.3476690  84.0813980  34.3430152   7.3822726  83.1811117
  33.8539332   6.0923219  80.8801276  34.3827098   5.5815674  80.2671438
  34.1167551   5.7765749  81.7446809  27.2095080   7.1438336  83.6399052
  26.5405455   7.6284463  83.1563092  27.0707949   7.3907556  84.5542430
  31.3500348   9.1782079  90.2381710  31.9018656   9.3413701  91.0030795
  31.6906542   9.7686517  89.5661735  34.4868736   7.1264055  87.2245392
  34.3619875   6.3253795  86.7156338  35.1447827   7.6210248  86.7359362
  36.5503644   4.9273075  88.8524942  35.6033980   4.8078426  88.7803269
  36.8986417   4.0395573  88.9351204  33.5550077   4.7225791  85.0529295
  33.4075040   3.7942498  85.2336865  34.3803571   4.7445882  84.5686370
  37.1584199   5.5454350  86.1394167  38.0830747   5.3397211  86.0018618
  36.9899503   5.2970751  87.0483509  36.9479515   6.0640017  81.4956259
  37.1216393   5.4986440  80.7430111  37.4408407   6.8640912  81.3135749
  42.8018907  -1.1723560  83.1146559  43.2450053  -1.9216235  82.7165682
  41.9245417  -1.1813424  82.7320291  37.9354688   5.3806782  78.5953157
  38.6305593   6.0013474  78.8140472  38.2777838   4.5302133  78.8705535
  39.8346111   2.8306487  80.1240488  40.3597435   3.1693760  79.3989808
  39.7468464   1.8953502  79.9403622  31.5186772   8.8978470  84.4835741
  31.0791762   8.4054849  85.1768598  32.2694889   8.3551438  84.2427816
  23.9979111   5.0890011  84.4860369  24.8237131   4.7893783  84.1059013
  23.6473163   4.3197634  84.9350158  28.9660644   4.4416479  86.5558043
  28.3440653   3.7787185  86.2560271  29.6365511   4.4677611  85.8731690
  28.5274151   2.9920403  80.0316503  28.6762271   3.6755867  79.3783176
  29.3340594   2.9725493  80.5465959  42.3451771   0.2981678  85.5069006
  43.1798663   0.7371483  85.6706566  42.4810900  -0.1779668  84.6877252
  32.0269556   5.4868533  77.5028251  31.4543523   6.1058720  77.0498723
  32.6002350   6.0367895  78.0368173  35.2466816   5.7705683  78.6336833
  36.1797489   5.7051245  78.8369708  35.1590029   6.6061950  78.1751366
  37.8754833   5.0871554  75.5940780  37.7968464   4.7531417  76.4876538
  38.6964500   5.5793322  75.5932253  32.4116355  -3.1770654  74.8444303
  33.3575460  -3.3064446  74.9132721  32.0330600  -3.9155992  75.3213731
  46.3909574  -0.9850700  87.9423136  47.1212962  -1.2465412  88.5030839
  45.7816519  -1.7221978  87.9825204  44.4724871  -2.8442838  88.5397587
  43.7458035  -2.9786873  87.9314079  44.0572158  -2.5366009  89.3454305
  24.3099822   7.2202626  86.2074184  24.1754289   6.4603027  85.6412182
  23.8931884   7.9443525  85.7402972  35.4458785   2.4039549  75.2150759
  36.1494635   2.6089552  75.8308414  34.7221433   2.9716311  75.4799842
  36.2756595  -1.8450590  81.3353029  36.2191796  -1.3882038  80.4960661
  36.8284937  -2.6059905  81.1575872  40.0861401  -6.0560858  82.1603148
  39.8298335  -6.4564222  82.9911356  39.4614269  -5.3417064  82.0353288
  44.3973739  -3.3164784  84.6674440  43.8373297  -3.2471595  85.4406002
  43.7917242  -3.4923800  83.9473936  27.4668947   8.1171943  86.4192626
  27.3501332   9.0617375  86.3171316  26.6461394   7.8145504  86.8078425
  37.3545482   2.8422078  77.2649219  38.1891086   2.4103277  77.0826694
  37.1929825   2.6704092  78.1926113  37.0091374  -0.6545808  78.6305558
  36.9540178  -0.8201537  77.6894002  36.3837429   0.0530225  78.7867748
  30.2477064   7.5231191  86.2958633  29.2972695   7.5233053  86.1823006
  30.5509550   6.7763926  85.7794668  45.9829757  13.3591729  87.3604396
  46.6208167  13.2398477  86.6567736  45.8650600  14.3072573  87.4192348
  42.7919463  13.3119158  87.2965920  42.4537975  13.1960222  86.4086455
  43.6609232  12.9110323  87.2766926  38.6506279  15.1654634  83.2862811
  38.0871144  15.0744571  82.5179099  38.5358674  14.3454538  83.7665304
  43.2739246  14.4654009  93.2552126  43.2627887  14.0706808  92.3832629
  43.4359886  13.7320082  93.8485897  36.1970711  16.6605826  86.1247032
  36.9892003  16.3196650  85.7093331  36.4367361  16.7700801  87.0449185
  44.2305838  18.8325602  78.5977276  43.5793818  19.4179682  78.2111290
  45.0250201  19.3631797  78.6572314  38.1561465  15.9214739  78.9964411
  38.9292341  15.3743726  78.8577286  38.5086864  16.7858988  79.2078872
  39.9946507  17.2491121  92.2031310  39.7036373  18.1536752  92.0877976
  40.6303492  17.2907649  92.9175379  40.9202714  14.6267970  88.7932669
  41.5166287  14.4023992  88.0789632  40.9777686  13.8852715  89.3958117
  40.4927743  12.0807405  76.6282860  40.7453263  11.5588926  75.8666323
  39.5552302  11.9173550  76.7309544  45.5371026  11.0843183  84.4357604
  46.3234115  10.6662606  84.0848021  45.8009730  11.9889276  84.6039252
  45.7081103  16.5216034  79.1346260  45.0726936  16.5950660  79.8467165
  45.3778509  17.1109632  78.4565340  50.9379453  11.0218417  85.3390582
  51.6704625  10.4517633  85.5728412  50.1818808  10.6340017  85.7797088
  40.2124031  13.9835511  78.8307235  40.0960290  13.3080414  79.4988320
  40.3226291  13.4967885  78.0139388  42.5555572  13.4445658  82.5353925
  42.1913780  12.9176279  83.2466846  43.4122688  13.0544127  82.3620410
  48.4604873   4.7339991  89.7985191  48.1288198   5.6035402  89.5746406
  47.8650486   4.4176275  90.4779221  42.1961059   8.4735558  77.5315273
  42.3635462   9.3415794  77.8985744  42.0058228   8.6362839  76.6076562
  44.9536393  16.9352537  89.1981104  44.6537116  17.8377575  89.0896911
  44.6087452  16.6684720  90.0502256  38.4048874  13.3866333  85.2317808
  37.4799371  13.2542548  85.4395500  38.6533287  14.1660553  85.7287750
  48.3533536   9.4535077  86.8778541  47.4450414   9.3850485  86.5837302
  48.3021132   9.9307022  87.7060366  42.1750280  10.9293215  78.5161940
  42.0549905  11.3750266  79.3547420  41.4802869  11.2778533  77.9575478
  35.7657685  13.0299607  86.0661597  35.8950066  13.2834086  86.9801009
  35.0855136  13.6227315  85.7466252  39.9357172  23.6996857  82.1652071
  39.8581202  24.6504682  82.2440552  39.3318816  23.3542729  82.8226998
  42.4274402  10.8724722  94.8213438  41.6507736  11.4318643  94.8116303
  43.0664965  11.3581505  95.3428308  50.2195183   7.6551515  88.6556415
  49.5769563   7.9484048  88.0096209  49.7150111   7.5404436  89.4609611
  47.8735346  11.4014688  79.3442274  48.7853203  11.6342075  79.1689972
  47.3644993  11.9851733  78.7817353  40.6820774  13.6810176  94.3831405
  41.4235459  14.2195220  94.1066229  39.9757760  14.3076465  94.5402957
  46.1576114  15.8239316  92.9803567  46.5659470  15.3821727  92.2358199
  45.4353376  15.2491944  93.2337759  42.5107184  10.7611923  90.3537124
  43.3568379  11.1851337  90.4971773  42.4505822  10.1045547  91.0475687
  46.4804929  16.3840507  86.7355855  45.8513791  16.5486221  86.0331923
  46.0930591  16.7982116  87.5066819  50.3594161  17.3194945  84.0900219
  49.6745199  17.6993846  83.5397253  50.4438010  17.9290271  84.8232167
  45.6606629   8.4216291  92.0118297  45.4167561   9.1758352  91.4752573
  45.9366560   8.8001639  92.8465544  47.6145092  14.9654904  90.6895563
  47.8261987  15.6086664  90.0129944  47.5674840  14.1317220  90.2217493
  45.2171321   7.5772724  87.5932135  44.3555800   7.8753978  87.8848872
  45.2433756   7.7943123  86.6613168  42.0332891  16.1214915  84.0005941
  42.4971236  16.4002618  83.2110563  41.7689689  15.2198360  83.8179031
  38.9256972  15.6686396  86.9385704  39.4958329  16.0973665  86.3003188
  39.5165084  15.3868981  87.6369889  40.9701777  12.2438067  80.8095506
  41.6725820  12.6959111  81.2769432  40.6382405  11.6021886  81.4375399
  39.4182138  10.8349824  95.1846715  38.7880799  11.5166105  95.4182112
  39.3118226  10.7232906  94.2399853  34.7127111  10.5021620  86.1112639
  33.9226165  10.7579148  85.6352750  35.2038358  11.3169958  86.2164680
  48.7290920  17.8426859  88.8617920  49.5508364  17.4407046  88.5800602
  48.7253323  17.7395093  89.8134036  36.6641856  10.8666199  83.0696116
  35.8673019  10.9784893  83.5879612  36.4367448  11.2052851  82.2037006
  42.4947524  17.3910902  91.0178631  42.5591956  17.8531310  91.8536802
  41.7858448  16.7608267  91.1460940  32.9964814  10.7552110  88.5427630
  33.2472852  11.6399120  88.8085206  33.5324362  10.5756712  87.7702722
  56.8196913  14.1865608  85.2102892  56.0660622  13.6173006  85.0546896
  56.9544454  14.1528272  86.1573526  42.2095541  19.0579010  80.8857611
  42.0741216  19.9030546  81.3142459  42.7505354  19.2598288  80.1223545
  35.6624939  16.5754448  81.4585536  36.1749459  17.3697698  81.6091101
  36.3147652  15.8780738  81.3919137  37.4719823  19.6920204  83.5408289
  37.6486452  20.6138169  83.3529273  38.2676657  19.3778623  83.9702669
  36.7572180  11.7384836  93.4170452  36.6425695  10.8370093  93.7177551
  35.9016698  11.9848533  93.0655269  43.8364018  19.6802576  95.0157953
  43.3927872  18.8938955  94.6978857  44.4981231  19.8681727  94.3501844
  38.5951139  21.2098378  89.5418632  39.1458564  21.0815441  88.7695625
  37.7562615  21.5093267  89.1913524  45.9345256  19.9605376  93.0439354
  45.9163731  20.7814257  92.5519623  46.8565176  19.8359452  93.2689495
  42.3918310  17.4749506  93.8862863  42.9246647  16.7137794  93.6562171
  41.8632391  17.1823158  94.6287017  45.5588005   2.5809572  89.4156504
  45.2152274   3.4711213  89.3395615  45.9266967   2.3911229  88.5526089
  33.6273855  14.9043102  82.2345107  34.4649077  15.3140111  82.0178814
  33.8052123  13.9642544  82.2045300  45.5238288  12.5718183  77.9228940
  45.0084911  13.3422788  78.1617327  45.2515596  11.8983319  78.5462001
  43.1085399   7.4167884  82.9814178  42.2526995   7.0274734  82.8019817
  43.5212350   7.4959844  82.1213963  44.6384545   4.9514227  87.3805738
  44.1349341   4.9144362  86.5673543  44.9315152   5.8606970  87.4402394
  40.8827431   5.0352957  86.3871919  41.7480428   4.8395765  86.0277809
  40.9504940   4.8063308  87.3141276  50.4972562  15.3250538  79.8582113
  49.7202004  14.9861697  79.4137275  51.1764043  15.3303161  79.1837078
  45.3124591  10.4445275  79.7488721  45.0074726  10.7591424  80.5998864
  46.2655033  10.5226695  79.7916054  43.7571023  16.6035498  81.3981675
  43.2292384  15.8688258  81.0854912  43.2558525  17.3810175  81.1521643
  48.7363869  14.7984519  86.5148721  48.0787543  15.4883780  86.6028850
  49.5404268  15.1880951  86.8582707  38.4889750   7.2655165  83.7588286
  39.0633502   7.0430346  83.0261479  39.0760733   7.3343859  84.5116887
  47.5469327  13.1528891  84.5652663  48.0601209  13.7858883  85.0674372
  48.1970551  12.5530087  84.1996023  38.8159337   9.2959626  77.7784171
  37.9796650   9.6334312  78.0993446  38.6764107   9.1608605  76.8411308
  40.7912418   4.1396414  82.4863356  40.1376830   3.8245431  81.8619970
  40.7492892   3.5172154  83.2123179  41.9023623  14.4215709  74.4016648
  40.9950685  14.1904962  74.6007797  42.3994655  13.6253328  74.5890629
  44.8091702  23.1313216  77.3213334  44.1353400  23.4344913  77.9298292
  45.1957524  23.9342296  76.9718791  44.0250158  10.6278347  86.8111003
  43.1072720  10.8493294  86.6532691  44.4410302  10.7024658  85.9522711
  44.8085206  12.0269763  81.9413683  45.5557025  12.5391160  81.6320806
  45.0776796  11.7053815  82.8018077  43.0811856  14.5228303  78.9240638
  42.1723075  14.2387336  79.0213108  43.1106940  14.9427382  78.0643945
  48.3131124  18.1334893  82.6931805  47.8593451  17.2925803  82.7496996
  47.6825090  18.7696291  83.0306586  47.2564043   9.0626879  83.9232473
  46.5186800   8.5504265  84.2542715  47.5090817   8.6227261  83.1115750
  46.7564063  19.9711390  83.6281623  47.0487037  20.5316447  82.9093989
  47.2662683  20.2639951  84.3834783  47.3575671   1.8403131  84.5174242
  47.6634547   0.9800494  84.2300157  48.0828275   2.4320751  84.3173236
  33.6500027  12.2433818  82.9055840  33.4524426  11.6503178  82.1806907
  33.0946691  11.9386028  83.6231779  41.6296750  12.1356924  85.0250433
  41.6845360  11.1830760  84.9492910  40.8187952  12.2916363  85.5091732
  42.7787944  16.0637047  76.2628716  42.3407374  15.3472906  75.8034354
  43.5198385  16.2913162  75.7013808  39.5689110  10.7533984  82.7840812
  38.7556976  11.0528154  83.1906004  40.0648104  10.3589673  83.5015294
  41.7197688  20.7491741  84.7175077  41.6773867  20.9752587  83.7883609
  42.6360387  20.5155115  84.8660878  45.1663322  11.2175808  91.6155706
  45.5212710  11.4447281  92.4750172  45.8135453  11.5494185  90.9932961
  50.8961059  14.3394244  82.3205035  50.7578957  14.5295840  81.3926224
  50.5397278  15.1013627  82.7773086  39.0603185   8.3252339  88.4002047
  39.7002564   8.1841098  87.7025010  38.2280715   8.0386853  88.0240649
  50.9230438  16.4070771  87.3316306  51.3566945  16.3146060  88.1799360
  51.6362019  16.3828272  86.6936322  39.8363489  17.6254770  84.5137039
  40.6304087  17.1305090  84.3119614  39.1255181  17.0972633  84.1504745
  44.6558333  20.0072865  88.8649407  44.7095356  20.5763802  89.6327123
  43.7873115  20.1774750  88.5003444  36.1446252  11.7697851  80.5896792
  35.2143840  11.7082307  80.8066754  36.2403724  11.2473804  79.7933433
  36.0631801   8.2952664  83.1775034  36.3238619   9.2097998  83.0684194
  36.8848974   7.8277107  83.3271647  37.5356727   9.7090421  90.3473858
  38.2079780   9.5007784  89.6986507  36.7086513   9.5112507  89.9079091
  51.7845988  16.4494472  89.8649192  51.9781878  17.3540282  90.1108467
  51.6846606  15.9901891  90.6987777  43.4382299   6.3352362  92.3639519
  42.7910214   7.0342312  92.2703996  44.2083314   6.7688506  92.7315767
  46.8461097  16.6001215  95.4390072  46.6946603  16.3711766  94.5220156
  46.8365776  17.5571816  95.4521417  43.6146433  14.1733127  90.4236339
  44.5438493  14.3244287  90.2505306  43.1937463  14.2617148  89.5684985
  42.4134765  18.1983792  88.1934877  42.2745851  17.8302576  89.0660815
  41.6249361  18.7131431  88.0218834  43.0082917  23.2992888  79.5360413
  43.1834672  22.8280931  80.3506036  42.3215705  23.9258654  79.7641674
  43.9639980  17.5765394  85.5823714  43.6289813  17.5366164  86.4781364
  43.4643926  16.9110110  85.1094125  37.9384224  12.9833024  91.1076295
  37.8004022  12.2513263  91.7087834  38.8489147  12.8941925  90.8260483
  46.8999172  14.9221429  75.8560774  46.2828342  14.1968257  75.7593827
  46.4315660  15.6830789  75.5127848  40.5666525  12.6952984  90.5959975
  41.2766143  12.0546176  90.5546594  40.5235833  12.9465879  91.5186156
  48.5553303  19.6320337  93.5166554  48.4965849  18.9479557  92.8497137
  48.9572822  20.3739327  93.0647180  39.2795459   9.6818202  92.4155615
  38.7432816   9.2308940  93.0677211  38.6912167   9.8164110  91.6726079
  37.5744002  26.4482251  86.3100273  37.8140600  27.0800775  86.9879292
  36.7313199  26.0970291  86.5965632  38.6897718   9.1406853  74.9782078
  37.8127184   9.0195654  74.6144325  39.1655471   8.3492931  74.7260967
  48.5570711  17.5959921  91.7480534  47.6697489  17.2585843  91.8706933
  49.1269262  16.8642952  91.9849299  30.2099858  13.9284013  85.0723585
  30.8970898  13.6145743  84.4844601  30.0547986  14.8325377  84.7990837
  35.0134580   8.8174209  89.5008609  34.9292769   8.2099879  88.7659019
  34.1917286   9.3083228  89.5018105  42.0871864  22.2561373  88.7141777
  42.0142035  23.0616345  89.2261082  41.6449257  22.4553339  87.8889799
  41.8761644  21.4933143  82.2244599  41.0929165  22.0354824  82.3182823
  42.5754389  22.0107123  82.6238840  45.1858294   7.3027773  84.8678804
  45.6826993   6.5497735  84.5479874  44.4145275   7.3392090  84.3022013
  53.0388051  13.0068138  86.5097096  53.0277927  13.8892854  86.1391029
  52.1705431  12.6539689  86.3151633  44.5470547  22.1548207  90.8699936
  45.2598520  22.7895672  90.7975837  44.0560576  22.2512073  90.0539938
  46.2688074  16.0599460  82.4417228  45.3344353  16.1800923  82.2721932
  46.4464743  15.1571927  82.1777237  41.7693262   9.4445156  84.5950489
  41.3991050   8.8916196  85.2831394  42.2652355   8.8403289  84.0425489
  49.6560626  11.9016779  82.9767262  50.1221078  12.7344771  82.9027564
  50.1068126  11.4361761  83.6812520  39.5982461  19.9042651  91.6905507
  40.2991920  20.5379134  91.8434901  39.1277576  20.2457382  90.9301146
  47.7236857  18.2460601  79.9753414  47.9996701  18.1317195  80.8847288
  46.8541356  17.8478086  79.9365587  47.6277288   4.2697366  87.0158163
  46.7140368   4.5001593  87.1840370  48.0570390   4.3535810  87.8672195
  47.3983747  12.4587258  89.5158057  46.7455197  12.7063166  88.8610510
  47.7764127  11.6451397  89.1820534  44.3590921  22.4946952  83.6186227
  44.5413315  21.6768607  84.0813980  45.1823907  22.7114644  83.1811117
  44.6933086  21.4215137  80.8801276  45.2220853  20.9107591  80.2671438
  44.9561306  21.1057667  81.7446809  43.4471320  13.2007069  96.0024094
  42.7711957  13.1001199  96.6726469  44.2698954  13.0446283  96.4660091
  35.1950179  19.4379006  88.6236609  35.7803616  18.6922694  88.7564514
  34.9975018  19.7482963  89.5073273  38.0488834  22.4730253  83.6399052
  37.3799210  22.9576381  83.1563092  37.9101704  22.7199474  84.5542430
  29.7867834  12.0084606  87.3441053  29.8251933  11.4748197  88.1378171
  29.2808127  11.4819812  86.7252030  42.1894103  24.5073997  90.2381710
  42.7412411  24.6705618  91.0030795  42.5300296  25.0978435  89.5661735
  37.1658596   6.8549147  90.8403595  37.2299923   7.7163978  90.4280993
  37.1025716   6.2423148  90.1075953  47.0404977  19.3335254  96.0930365
  47.5844881  19.9465213  95.5985319  46.4591822  19.8914833  96.6097378
  33.4176411  10.7348708  80.4194984  33.7129852   9.8259387  80.3662038
  32.5164447  10.7136448  80.0975986  45.3262490  22.4555972  87.2245392
  45.2013630  21.6545712  86.7156338  45.9841581  22.9502166  86.7359362
  36.9470658   8.8104705  86.4022532  36.2257244   9.4240673  86.2630006
  37.7363914   9.3462470  86.3239178  47.3897399  20.2564992  88.8524942
  46.4427734  20.1370344  88.7803269  47.7380172  19.3687491  88.9351204
  35.1464253   8.4162806  80.5434309  34.8176959   7.5360185  80.3609415
  35.5003624   8.3610475  81.4310698  44.3943832  20.0517709  85.0529295
  44.2468794  19.1234416  85.2336865  45.2197325  20.0737799  84.5686370
  38.2606076   8.7035776  80.9109787  38.6002149   9.2321697  80.1888395
  38.7078197   9.0416182  81.6868353  47.9977954  20.8746267  86.1394167
  48.9224501  20.6689129  86.0018618  47.8293257  20.6262669  87.0483509
  40.9549517   7.0872827  90.3612855  40.6146337   6.2880640  90.7633535
  40.2488523   7.3874537  89.7889688  41.6065989   4.1722139  88.8140178
  42.4292058   3.6982617  88.6919068  41.8504052   4.9512623  89.3138864
  40.2474223   7.2010397  79.1103079  40.9682586   7.5791650  78.6066796
  39.6239527   7.9199274  79.2138057  44.3905346   7.9055546  80.0461412
  44.6068961   8.7880184  79.7450240  43.9099413   7.5141760  79.3167054
  39.1304568  10.8641260  86.6232156  38.9849148  11.1781563  87.5156438
  38.6529771  11.4826160  86.0703055  40.9900950   7.8543808  86.6713046
  40.9762519   6.9584901  86.3345344  41.7073379   7.8614471  87.3051332
  42.8427081   8.2881148  88.7166173  42.5844859   9.2098218  88.7150504
  42.3112121   7.8911582  89.4066638  47.7873270  21.3931935  81.4956259
  47.9610147  20.8278357  80.7430111  48.2802161  22.1932830  81.3135749
  33.6050230  13.4046604  89.5619818  33.0603698  14.1806412  89.6940092
  34.4829580  13.7517408  89.4038939  40.3937846   6.7358188  81.9400616
  40.5153758   5.8074834  82.1391504  40.1039889   6.7496874  81.0278932
  43.2629037   4.4213098  85.0767336  43.2850734   4.4852431  84.1219315
  43.6797096   3.5817607  85.2707842  53.6412661  14.1568358  83.1146559
  54.0843807  13.4075683  82.7165682  52.7639171  14.1478494  82.7320291
  48.7748442  20.7098699  78.5953157  49.4699347  21.3305392  78.8140472
  49.1171593  19.8594050  78.8705535  34.3916252  12.5316500  92.4549974
  33.6497988  12.6799136  93.0414605  34.0708996  12.7924766  91.5916724
  50.6739865  18.1598405  80.1240488  51.1991190  18.4985678  79.3989808
  50.5862218  17.2245420  79.9403622  42.3359914  22.0732478  92.2530364
  42.6447041  21.8281625  93.1253064  43.1335396  22.2779117  91.7649235
  42.3580526  24.2270388  84.4835741  41.9185517  23.7346767  85.1768598
  43.1088643  23.6843356  84.2427816  34.8372865  20.4181929  84.4860369
  35.6630885  20.1185701  84.1059013  34.4866917  19.6489551  84.9350158
  39.8054398  19.7708397  86.5558043  39.1834408  19.1079102  86.2560271
  40.4759265  19.7969529  85.8731690  33.0381470  18.3368255  85.4449303
  32.2013379  17.9090430  85.2633304  33.0105116  18.5300699  86.3820094
  50.3633772  18.7931308  95.4291686  49.5729315  18.7755447  94.8896185
  50.1267126  19.3319602  96.1840722  50.4831647  15.6423775  92.7424414
  50.5329652  15.4773782  93.6839937  50.3745570  14.7751034  92.3522295
  39.3667905  18.3212321  80.0316503  39.5156026  19.0047785  79.3783176
  40.1734349  18.3017411  80.5465959  47.7735409  11.6254703  94.0583721
  48.6745272  11.4861168  93.7667719  47.8483384  11.7909158  94.9981898
  42.1078214   9.0021558  92.9036907  41.2381524   9.2955124  92.6319496
  42.3437695   9.5862003  93.6244171  51.9849843  18.0620716  92.9866436
  51.6934652  18.4250697  93.8229897  51.3721975  17.3487725  92.8079768
  53.1845526  15.6273596  85.5069006  54.0192417  16.0663400  85.6706566
  53.3204655  15.1512249  84.6877252  50.2337032  13.1853331  91.4546494
  50.7091153  13.3780977  90.6465345  49.3102597  13.2412517  91.2089878
  37.1220538  14.3477498  81.0377572  36.8766580  13.4439828  81.2357782
  37.2916453  14.3494649  80.0957050  44.8117248   5.2201175  90.4202328
  45.3299192   5.9562201  90.0948816  44.4572381   5.5265168  91.2549087
  36.3916186  10.0805856  78.5363734  35.6985431  10.1550211  77.8803770
  36.1467938   9.3166199  79.0585251  45.0629842   1.6401457  85.9403224
  45.3431596   0.9724646  86.5663651  45.8480449   1.8330553  85.4277888
  42.8663311  20.8160451  77.5028251  42.2937278  21.4350638  77.0498723
  43.4396104  21.3659813  78.0368173  48.9338701  10.0619091  89.6874799
  49.8856124  10.1617189  89.7087023  48.7642151   9.2697360  90.1972884
  46.9553080   7.1474674  89.8734200  46.3603012   7.4279687  89.1780689
  46.6702777   7.6368575  90.6450941  46.0860571  21.0997601  78.6336833
  47.0191244  21.0343163  78.8369708  45.9983783  21.9353868  78.1751366
  48.7148587  20.4163471  75.5940780  48.6362219  20.0823335  76.4876538
  49.5358254  20.9085239  75.5932253  51.4126778  13.2825211  88.8017099
  51.3803099  12.3441211  88.9876783  52.0227402  13.3609247  88.0682924
  43.2510109  12.1521264  74.8444303  44.1969214  12.0227472  74.9132721
  42.8724354  11.4135926  75.3213731  51.5621267  10.0736254  88.8475382
  51.0460316   9.2894711  88.6605311  52.4461215   9.7454971  89.0121902
  49.2231994   3.8177270  84.8071195  49.0256815   3.5092358  85.6914527
  49.8331699   4.5438909  84.9369125  57.2303328  14.3441218  87.9423136
  57.9606717  14.0826506  88.5030839  56.6210274  13.6069940  87.9825204
  55.3118625  12.4849080  88.5397587  54.5851789  12.3505045  87.9314079
  54.8965912  12.7925909  89.3454305  43.1348802  16.2039010  96.3044960
  44.0551811  16.3817609  96.4985007  43.0998385  15.2595055  96.1524659
  41.4353026  10.0771240  74.7799188  40.5284482   9.7804353  74.8561902
  41.7129007   9.7801058  73.9133475  32.3530967  11.3977604  85.2298235
  32.0333751  10.5442912  84.9372609  31.8064395  11.6126182  85.9856202
  36.1310874  14.1140045  88.9467741  36.3496884  15.0457152  88.9655775
  36.5436648  13.7548019  89.7322545  43.0515092   4.6208130  80.9343430
  42.2415821   4.2755215  81.3098676  43.7399509   4.3115674  81.5231041
  44.9805640   3.6986177  82.5567726  45.5336679   4.1181630  83.2157749
  45.2175727   2.7721925  82.5990682  40.2051811   6.9358175  74.9211168
  41.0670975   7.2613074  75.1806985  40.3902155   6.1489671  74.4084233
  32.2219227  15.0180515  87.1991356  31.5282698  14.6034468  86.6861311
  32.9692218  15.0601052  86.6024775  48.3584448   5.8086702  82.0646391
  47.7783117   6.4671506  81.6824443  48.0920380   4.9864046  81.6533808
  46.8088014   5.2091759  84.2667711  47.3087792   5.3208294  83.4582030
  47.4523622   4.9052812  84.9068519  40.8670010  13.1170389  97.1535552
  40.3837091  13.9170749  97.3599441  40.9530949  13.1278334  96.2002996
  34.1355969  14.9498769  85.0757371  34.1126657  15.0486456  84.1239254
  34.4456606  15.7963920  85.3974537  36.7943347  17.0074924  89.1903986
  37.7486601  16.9758866  89.1233917  36.5955871  16.5465548  90.0054212
  37.3842729  15.5776040  91.7574783  38.2035618  16.0720119  91.7809621
  37.6579537  14.6608008  91.7292351  47.1409326   7.9686792  81.1202739
  46.2535181   8.2536443  80.9022934  47.5563315   7.8080556  80.2730016
  50.4923862   7.9933313  84.8357078  51.2684252   8.4829766  85.1081695
  49.7671996   8.4191367  85.2928948  52.9296420   8.7060932  85.8931019
  53.5240911   8.4656668  85.1824327  53.0023004   7.9868063  86.5204555
  35.1493576  22.5494543  86.2074184  35.0148044  21.7894944  85.6412182
  34.7325638  23.2735443  85.7402972  46.2852539  17.7331467  75.2150759
  46.9888389  17.9381469  75.8308414  45.5615188  18.3008229  75.4799842
  47.1150349  13.4841328  81.3353029  47.0585551  13.9409880  80.4960661
  47.6678692  12.7232013  81.1575872  50.9255155   9.2731060  82.1603148
  50.6692089   8.8727696  82.9911356  50.3008023   9.9874854  82.0353288
  55.2367493  12.0127133  84.6674440  54.6767051  12.0820323  85.4406002
  54.6310996  11.8368118  83.9473936  38.3062702  23.4463860  86.4192626
  38.1895086  24.3909293  86.3171316  37.4855148  23.1437422  86.8078425
  48.1939236  18.1713996  77.2649219  49.0284840  17.7395195  77.0826694
  48.0323579  17.9996010  78.1926113  47.8485129  14.6746109  78.6305558
  47.7933932  14.5090381  77.6894002  47.2231184  15.3822142  78.7867748
  45.1631036  16.9795021  97.9559121  46.0322195  17.1535673  97.5945756
  44.6837787  17.7989438  97.8334850  41.1581254   4.1754218  78.2090877
  41.1459924   5.1196058  78.3659147  42.0504676   3.9924364  77.9150338
  39.3317216  24.0992122  89.6348555  40.2344463  24.1315732  89.9515050
  39.1054586  23.1692573  89.6494890  41.0870818  22.8523109  86.2958633
  40.1366449  22.8524970  86.1823006  41.3903304  22.1055843  85.7794668
  44.9733374   0.7696995  82.4636813  44.2065769   0.2155482  82.6093496
  45.3844079   0.8418864  83.3250965  56.8223512  28.6883647  87.3604396
  57.4601922  28.5690395  86.6567736  56.7044354  29.6364491  87.4192348
  53.6313218  28.6411075  87.2965920  53.2931729  28.5252140  86.4086455
  54.5002986  28.2402240  87.2766926  49.4900034  30.4946552  83.2862811
  48.9264899  30.4036489  82.5179099  49.3752429  29.6746456  83.7665304
  54.1133001  29.7945927  93.2552126  54.1021642  29.3998725  92.3832629
  54.2753640  29.0612000  93.8485897  47.0364465  31.9897743  86.1247032
  47.8285757  31.6488568  85.7093331  47.2761116  32.0992718  87.0449185
  55.0699592  34.1617519  78.5977276  54.4187572  34.7471600  78.2111290
  55.8643955  34.6923714  78.6572314  48.9955219  31.2506657  78.9964411
  49.7686095  30.7035644  78.8577286  49.3480618  32.1150906  79.2078872
  50.8340262  32.5783039  92.2031310  50.5430128  33.4828670  92.0877976
  51.4697246  32.6199566  92.9175379  51.7596469  29.9559887  88.7932669
  52.3560041  29.7315910  88.0789632  51.8171440  29.2144633  89.3958117
  51.3321497  27.4099323  76.6282860  51.5847018  26.8880844  75.8666323
  50.3946056  27.2465468  76.7309544  56.3764780  26.4135101  84.4357604
  57.1627869  25.9954524  84.0848021  56.6403484  27.3181193  84.6039252
  56.5474857  31.8507951  79.1346260  55.9120690  31.9242578  79.8467165
  56.2172264  32.4401550  78.4565340  61.7773207  26.3510334  85.3390582
  62.5098379  25.7809551  85.5728412  61.0212563  25.9631935  85.7797088
  51.0517786  29.3127429  78.8307235  50.9354044  28.6372332  79.4988320
  51.1620046  28.8259803  78.0139388  53.3949327  28.7737576  82.5353925
  53.0307534  28.2468197  83.2466846  54.2516443  28.3836045  82.3620410
  59.2998628  20.0631908  89.7985191  58.9681952  20.9327319  89.5746406
  58.7044241  19.7468192  90.4779221  53.0354814  23.8027475  77.5315273
  53.2029216  24.6707712  77.8985744  52.8451983  23.9654757  76.6076562
  55.7930147  32.2644454  89.1981104  55.4930870  33.1669493  89.0896911
  55.4481207  31.9976638  90.0502256  49.2442629  28.7158251  85.2317808
  48.3193125  28.5834465  85.4395500  49.4927042  29.4952470  85.7287750
  59.1927291  24.7826994  86.8778541  58.2844168  24.7142403  86.5837302
  59.1414887  25.2598939  87.7060366  53.0144035  26.2585133  78.5161940
  52.8943660  26.7042184  79.3547420  52.3196623  26.6070451  77.9575478
  46.6051440  28.3591525  86.0661597  46.7343821  28.6126004  86.9801009
  45.9248891  28.9519233  85.7466252  50.7750927  39.0288775  82.1652071
  50.6974957  39.9796600  82.2440552  50.1712570  38.6834647  82.8226998
  53.2668157  26.2016640  94.8213438  52.4901491  26.7610560  94.8116303
  53.9058720  26.6873423  95.3428308  61.0588937  22.9843433  88.6556415
  60.4163317  23.2775966  88.0096209  60.5543866  22.8696353  89.4609611
  58.7129101  26.7306606  79.3442274  59.6246957  26.9633993  79.1689972
  58.2038748  27.3143650  78.7817353  51.5214529  29.0102093  94.3831405
  52.2629213  29.5487137  94.1066229  50.8151514  29.6368382  94.5402957
  56.9969869  31.1531234  92.9803567  57.4053225  30.7113644  92.2358199
  56.2747130  30.5783861  93.2337759  53.3500939  26.0903841  90.3537124
  54.1962134  26.5143254  90.4971773  53.2899576  25.4337465  91.0475687
  57.3198683  31.7132425  86.7355855  56.6907546  31.8778139  86.0331923
  56.9324345  32.1274034  87.5066819  61.1987915  32.6486862  84.0900219
  60.5138953  33.0285764  83.5397253  61.2831764  33.2582189  84.8232167
  56.5000384  23.7508209  92.0118297  56.2561316  24.5050270  91.4752573
  56.7760314  24.1293557  92.8465544  58.4538847  30.2946821  90.6895563
  58.6655742  30.9378581  90.0129944  58.4068595  29.4609138  90.2217493
  56.0565076  22.9064642  87.5932135  55.1949555  23.2045896  87.8848872
  56.0827510  23.1235041  86.6613168  52.8726645  31.4506833  84.0005941
  53.3364991  31.7294536  83.2110563  52.6083443  30.5490277  83.8179031
  49.7650726  30.9978314  86.9385704  50.3352083  31.4265583  86.3003188
  50.3558838  30.7160899  87.6369889  51.8095531  27.5729985  80.8095506
  52.5119574  28.0251029  81.2769432  51.4776160  26.9313804  81.4375399
  50.2575893  26.1641742  95.1846715  49.6274553  26.8458022  95.4182112
  50.1511981  26.0524823  94.2399853  45.5520865  25.8313538  86.1112639
  44.7619919  26.0871066  85.6352750  46.0432112  26.6461875  86.2164680
  59.5684675  33.1718777  88.8617920  60.3902118  32.7698964  88.5800602
  59.5647078  33.0687011  89.8134036  47.5035610  26.1958117  83.0696116
  46.7066774  26.3076811  83.5879612  47.2761203  26.5344769  82.2037006
  53.3341278  32.7202820  91.0178631  53.3985711  33.1823227  91.8536802
  52.6252202  32.0900185  91.1460940  43.8358568  26.0844028  88.5427630
  44.0866607  26.9691038  88.8085206  44.3718116  25.9048630  87.7702722
  67.6590668  29.5157525  85.2102892  66.9054376  28.9464923  85.0546896
  67.7938209  29.4820190  86.1573526  53.0489296  34.3870928  80.8857611
  52.9134971  35.2322463  81.3142459  53.5899108  34.5890205  80.1223545
  49.5356635  20.4662507  97.5471966  49.1423581  19.9128706  98.2219610
  50.3522776  20.7773086  97.9378484  46.5018693  31.9046366  81.4585536
  47.0143214  32.6989616  81.6091101  47.1541406  31.2072656  81.3919137
  48.3113578  35.0212122  83.5408289  48.4880206  35.9430087  83.3529273
  49.1070411  34.7070541  83.9702669  52.4524596  21.8820387  95.1392223
  53.1934310  22.4827540  95.0596685  52.6842519  21.1398024  94.5810265
  47.5965934  27.0676754  93.4170452  47.4819450  26.1662011  93.7177551
  46.7410452  27.3140451  93.0655269  54.6757772  35.0094494  95.0157953
  54.2321626  34.2230873  94.6978857  55.3374986  35.1973645  94.3501844
  49.4344893  36.5390296  89.5418632  49.9852318  36.4107359  88.7695625
  48.5956369  36.8385185  89.1913524  56.7739010  35.2897294  93.0439354
  56.7557486  36.1106175  92.5519623  57.6958930  35.1651369  93.2689495
  53.2312064  32.8041424  93.8862863  53.7640401  32.0429712  93.6562171
  52.7026145  32.5115075  94.6287017  56.3981759  17.9101489  89.4156504
  56.0546029  18.8003131  89.3395615  56.7660722  17.7203147  88.5526089
  44.4667610  30.2335020  82.2345107  45.3042832  30.6432028  82.0178814
  44.6445878  29.2934462  82.2045300  56.3632042  27.9010101  77.9228940
  55.8478665  28.6714705  78.1617327  56.0909351  27.2275237  78.5462001
  53.9479153  22.7459801  82.9814178  53.0920749  22.3566652  82.8019817
  54.3606105  22.8251762  82.1213963  55.4778300  20.2806145  87.3805738
  54.9743095  20.2436280  86.5673543  55.7708907  21.1898887  87.4402394
  51.7221186  20.3644874  86.3871919  52.5874182  20.1687683  86.0277809
  51.7898695  20.1355226  87.3141276  61.3366316  30.6542455  79.8582113
  60.5595759  30.3153615  79.4137275  62.0157797  30.6595078  79.1837078
  56.1518345  25.7737193  79.7488721  55.8468481  26.0883342  80.5998864
  57.1048787  25.8518613  79.7916054  54.5964777  31.9327416  81.3981675
  54.0686139  31.1980176  81.0854912  54.0952280  32.7102092  81.1521643
  59.5757623  30.1276436  86.5148721  58.9181298  30.8175698  86.6028850
  60.3798022  30.5172868  86.8582707  49.3283505  22.5947082  83.7588286
  49.9027257  22.3722264  83.0261479  49.9154487  22.6635777  84.5116887
  58.3863082  28.4820809  84.5652663  58.8994964  29.1150801  85.0674372
  59.0364306  27.8822005  84.1996023  49.6553092  24.6251543  77.7784171
  48.8190404  24.9626230  78.0993446  49.5157861  24.4900523  76.8411308
  51.6306172  19.4688331  82.4863356  50.9770585  19.1537348  81.8619970
  51.5886647  18.8464072  83.2123179  52.7417377  29.7507626  74.4016648
  51.8344439  29.5196880  74.6007797  53.2388409  28.9545246  74.5890629
  55.6485456  38.4605133  77.3213334  54.9747155  38.7636830  77.9298292
  56.0351278  39.2634214  76.9718791  54.8643913  25.9570265  86.8111003
  53.9466474  26.1785212  86.6532691  55.2804056  26.0316575  85.9522711
  55.6478961  27.3561680  81.9413683  56.3950779  27.8683078  81.6320806
  55.9170550  27.0345733  82.8018077  53.9205611  29.8520221  78.9240638
  53.0116830  29.5679254  79.0213108  53.9500695  30.2719300  78.0643945
  59.1524878  33.4626811  82.6931805  58.6987205  32.6217721  82.7496996
  58.5218845  34.0988209  83.0306586  58.0957798  24.3918797  83.9232473
  57.3580554  23.8796183  84.2542715  58.3484571  23.9519178  83.1115750
  57.5957817  35.3003307  83.6281623  57.8880792  35.8608364  82.9093989
  58.1056438  35.5931868  84.3834783  58.1969425  17.1695049  84.5174242
  58.5028302  16.3092412  84.2300157  58.9222030  17.7612669  84.3173236
  44.4893781  27.5725735  82.9055840  44.2918181  26.9795096  82.1806907
  43.9340445  27.2677945  83.6231779  52.4690505  27.4648842  85.0250433
  52.5239115  26.5122678  84.9492910  51.6581707  27.6208281  85.5091732
  53.6181699  31.3928965  76.2628716  53.1801128  30.6764824  75.8034354
  54.3592139  31.6205080  75.7013808  50.4082865  26.0825901  82.7840812
  49.5950730  26.3820072  83.1906004  50.9041859  25.6881590  83.5015294
  52.5591443  36.0783658  84.7175077  52.5167621  36.3044505  83.7883609
  53.4754141  35.8447033  84.8660878  56.0057076  26.5467726  91.6155706
  56.3606464  26.7739199  92.4750172  56.6529208  26.8786103  90.9932961
  61.7354813  29.6686162  82.3205035  61.5972712  29.8587758  81.3926224
  61.3791032  30.4305545  82.7773086  49.8996939  23.6544257  88.4002047
  50.5396319  23.5133016  87.7025010  49.0674470  23.3678770  88.0240649
  61.7624193  31.7362689  87.3316306  62.1960700  31.6437978  88.1799360
  62.4755774  31.7120189  86.6936322  50.6757243  32.9546687  84.5137039
  51.4697842  32.4597008  84.3119614  49.9648936  32.4264551  84.1504745
  55.4952088  35.3364783  88.8649407  55.5489110  35.9055719  89.6327123
  54.6266869  35.5066668  88.5003444  46.9840007  27.0989769  80.5896792
  46.0537595  27.0374225  80.8066754  47.0797479  26.5765722  79.7933433
  46.9025556  23.6244582  83.1775034  47.1632373  24.5389915  83.0684194
  47.7242728  23.1569025  83.3271647  48.3750481  25.0382339  90.3473858
  49.0473535  24.8299701  89.6986507  47.5480268  24.8404425  89.9079091
  62.6239742  31.7786389  89.8649192  62.8175633  32.6832200  90.1108467
  62.5240361  31.3193809  90.6987777  54.2776053  21.6644280  92.3639519
  53.6303968  22.3634230  92.2703996  55.0477069  22.0980424  92.7315767
  57.6854851  31.9293132  95.4390072  57.5340358  31.7003684  94.5220156
  57.6759531  32.8863734  95.4521417  54.4540188  29.5025045  90.4236339
  55.3832248  29.6536205  90.2505306  54.0331218  29.5909066  89.5684985
  53.2528519  33.5275709  88.1934877  53.1139605  33.1594494  89.0660815
  52.4643116  34.0423349  88.0218834  53.8476671  38.6284806  79.5360413
  54.0228427  38.1572849  80.3506036  53.1609459  39.2550572  79.7641674
  54.8033734  32.9057312  85.5823714  54.4683567  32.8658082  86.4781364
  54.3037680  32.2402028  85.1094125  48.7777978  28.3124942  91.1076295
  48.6397776  27.5805181  91.7087834  49.6882902  28.2233842  90.8260483
  57.7392926  30.2513346  75.8560774  57.1222097  29.5260175  75.7593827
  57.2709415  31.0122707  75.5127848  51.4060279  28.0244901  90.5959975
  52.1159898  27.3838094  90.5546594  51.3629587  28.2757796  91.5186156
  59.3947058  34.9612255  93.5166554  59.3359604  34.2771475  92.8497137
  59.7966576  35.7031245  93.0647180  50.1189213  25.0110119  92.4155615
  49.5826570  24.5600858  93.0677211  49.5305922  25.1456028  91.6726079
  48.4137757  41.7774169  86.3100273  48.6534355  42.4092693  86.9879292
  47.5706953  41.4262209  86.5965632  49.5291472  24.4698771  74.9782078
  48.6520938  24.3487572  74.6144325  50.0049225  23.6784849  74.7260967
  59.3964465  32.9251839  91.7480534  58.5091244  32.5877761  91.8706933
  59.9663016  32.1934870  91.9849299  41.0493612  29.2575930  85.0723585
  41.7364652  28.9437661  84.4844601  40.8941741  30.1617295  84.7990837
  45.8528334  24.1466127  89.5008609  45.7686523  23.5391797  88.7659019
  45.0311041  24.6375145  89.5018105  52.9265618  37.5853291  88.7141777
  52.8535790  38.3908263  89.2261082  52.4843012  37.7845257  87.8889799
  52.7155398  36.8225061  82.2244599  51.9322920  37.3646741  82.3182823
  53.4148143  37.3399041  82.6238840  56.0252048  22.6319691  84.8678804
  56.5220748  21.8789653  84.5479874  55.2539030  22.6684007  84.3022013
  63.8781806  28.3360056  86.5097096  63.8671682  29.2184772  86.1391029
  63.0099185  27.9831607  86.3151633  55.3864302  37.4840125  90.8699936
  56.0992274  38.1187590  90.7975837  54.8954331  37.5803991  90.0539938
  57.1081829  31.3891378  82.4417228  56.1738108  31.5092840  82.2721932
  57.2858497  30.4863845  82.1777237  52.6087017  24.7737074  84.5950489
  52.2384804  24.2208114  85.2831394  53.1046109  24.1695207  84.0425489
  60.4954380  27.2308697  82.9767262  60.9614832  28.0636689  82.9027564
  60.9461881  26.7653679  83.6812520  50.4376215  35.2334569  91.6905507
  51.1385675  35.8671052  91.8434901  49.9671330  35.5749300  90.9301146
  58.5630611  33.5752518  79.9753414  58.8390455  33.4609113  80.8847288
  57.6935110  33.1770003  79.9365587  58.4671043  19.5989284  87.0158163
  57.5534123  19.8293511  87.1840370  58.8964144  19.6827728  87.8672195
  58.2377501  27.7879176  89.5158057  57.5848952  28.0355083  88.8610510
  58.6157881  26.9743314  89.1820534  55.1984675  37.8238869  83.6186227
  55.3807070  37.0060525  84.0813980  56.0217661  38.0406561  83.1811117
  55.5326841  36.7507054  80.8801276  56.0614607  36.2399509  80.2671438
  55.7955060  36.4349585  81.7446809  54.2865074  28.5298987  96.0024094
  53.6105711  28.4293116  96.6726469  55.1092708  28.3738201  96.4660091
  46.0343934  34.7670924  88.6236609  46.6197370  34.0214612  88.7564514
  45.8368772  35.0774880  89.5073273  48.8882589  37.8022171  83.6399052
  48.2192964  38.2868299  83.1563092  48.7495458  38.0491391  84.5542430
  40.6261588  27.3376524  87.3441053  40.6645688  26.8040115  88.1378171
  40.1201881  26.8111729  86.7252030  53.0287857  39.8365915  90.2381710
  53.5806165  39.9997536  91.0030795  53.3694051  40.4270352  89.5661735
  48.0052351  22.1841064  90.8403595  48.0693677  23.0455895  90.4280993
  47.9419471  21.5715066  90.1075953  47.4804623  24.2564197  94.4876629
  48.1076662  23.8741274  95.1014153  46.6232542  24.0378399  94.8532322
  57.8798732  34.6627172  96.0930365  58.4238636  35.2757130  95.5985319
  57.2985577  35.2206750  96.6097378  44.2570166  26.0640626  80.4194984
  44.5523607  25.1551304  80.3662038  43.3558202  26.0428365  80.0975986
  56.1656245  37.7847890  87.2245392  56.0407384  36.9837630  86.7156338
  56.8235336  38.2794083  86.7359362  47.7864413  24.1396623  86.4022532
  47.0650999  24.7532590  86.2630006  48.5757669  24.6754387  86.3239178
  58.2291153  35.5856910  88.8524942  57.2821489  35.4662261  88.7803269
  58.5773926  34.6979408  88.9351204  50.5890726  21.4751049  92.6763184
  51.1125128  21.7213346  93.4389494  50.3703060  22.3071084  92.2566322
  45.9858007  23.7454724  80.5434309  45.6570714  22.8652103  80.3609415
  46.3397378  23.6902392  81.4310698  55.2337586  35.3809626  85.0529295
  55.0862549  34.4526334  85.2336865  56.0591080  35.4029717  84.5686370
  49.0999831  24.0327693  80.9109787  49.4395903  24.5613615  80.1888395
  49.5471951  24.3708100  81.6868353  58.8371708  36.2038185  86.1394167
  59.7618256  35.9981046  86.0018618  58.6687012  35.9554586  87.0483509
  51.7943271  22.4164744  90.3612855  51.4540092  21.6172557  90.7633535
  51.0882278  22.7166455  89.7889688  52.4459743  19.5014057  88.8140178
  53.2685813  19.0274535  88.6919068  52.6897807  20.2804540  89.3138864
  51.0867978  22.5302315  79.1103079  51.8076340  22.9083568  78.6066796
  50.4633282  23.2491192  79.2138057  55.2299101  23.2347464  80.0461412
  55.4462715  24.1172102  79.7450240  54.7493168  22.8433677  79.3167054
  49.9698322  26.1933177  86.6232156  49.8242903  26.5073480  87.5156438
  49.4923526  26.8118078  86.0703055  51.8294705  23.1835725  86.6713046
  51.8156274  22.2876819  86.3345344  52.5467133  23.1906389  87.3051332
  53.6820836  23.6173065  88.7166173  53.4238613  24.5390136  88.7150504
  53.1505876  23.2203500  89.4066638  58.6267024  36.7223853  81.4956259
  58.8003902  36.1570275  80.7430111  59.1195916  37.5224747  81.3135749
  44.4443984  28.7338522  89.5619818  43.8997452  29.5098330  89.6940092
  45.3223334  29.0809326  89.4038939  51.2331601  22.0650106  81.9400616
  51.3547512  21.1366752  82.1391504  50.9433643  22.0788791  81.0278932
  54.1022791  19.7505016  85.0767336  54.1244488  19.8144349  84.1219315
  54.5190850  18.9109525  85.2707842  64.4806416  29.4860275  83.1146559
  64.9237562  28.7367601  82.7165682  63.6032926  29.4770412  82.7320291
  59.6142197  36.0390617  78.5953157  60.3093101  36.6597310  78.8140472
  59.9565347  35.1885968  78.8705535  45.2310006  27.8608418  92.4549974
  44.4891742  28.0091053  93.0414605  44.9102750  28.1216684  91.5916724
  61.5133620  33.4890322  80.1240488  62.0384944  33.8277595  79.3989808
  61.4255973  32.5537338  79.9403622  53.1753669  37.4024396  92.2530364
  53.4840795  37.1573543  93.1253064  53.9729151  37.6071035  91.7649235
  53.1974281  39.5562306  84.4835741  52.7579271  39.0638684  85.1768598
  53.9482398  39.0135273  84.2427816  45.6766620  35.7473847  84.4860369
  46.5024640  35.4477618  84.1059013  45.3260672  34.9781469  84.9350158
  50.6448153  35.1000315  86.5558043  50.0228162  34.4371020  86.2560271
  51.3153020  35.1261447  85.8731690  43.8775225  33.6660173  85.4449303
  43.0407133  33.2382347  85.2633304  43.8498870  33.8592616  86.3820094
  50.7172680  23.5782103  96.1490549  50.7660836  24.4544226  95.7668318
  51.2595195  23.0359496  95.5762192  61.2027526  34.1223226  95.4291686
  60.4123070  34.1047365  94.8896185  60.9660881  34.6611520  96.1840722
  61.3225401  30.9715692  92.7424414  61.3723406  30.8065700  93.6839937
  61.2139324  30.1042952  92.3522295  50.2061660  33.6504238  80.0316503
  50.3549780  34.3339703  79.3783176  51.0128103  33.6309328  80.5465959
  58.6129163  26.9546621  94.0583721  59.5139026  26.8153085  93.7667719
  58.6877138  27.1201075  94.9981898  52.9471969  24.3313475  92.9036907
  52.0775278  24.6247041  92.6319496  53.1831449  24.9153920  93.6244171
  62.8243598  33.3912634  92.9866436  62.5328406  33.7542615  93.8229897
  62.2115729  32.6779642  92.8079768  64.0239280  30.9565514  85.5069006
  64.8586172  31.3955318  85.6706566  64.1598409  30.4804167  84.6877252
  61.0730786  28.5145249  91.4546494  61.5484908  28.7072895  90.6465345
  60.1496352  28.5704434  91.2089878  47.9614293  29.6769416  81.0377572
  47.7160335  28.7731746  81.2357782  48.1310207  29.6786566  80.0957050
  55.6511003  20.5493092  90.4202328  56.1692947  21.2854119  90.0948816
  55.2966135  20.8557085  91.2549087  47.2309940  25.4097773  78.5363734
  46.5379185  25.4842128  77.8803770  46.9861692  24.6458117  79.0585251
  55.9023597  16.9693375  85.9403224  56.1825351  16.3016564  86.5663651
  56.6874204  17.1622470  85.4277888  53.7057065  36.1452369  77.5028251
  53.1331032  36.7642556  77.0498723  54.2789859  36.6951730  78.0368173
  59.7732455  25.3911009  89.6874799  60.7249878  25.4909106  89.7087023
  59.6035906  24.5989277  90.1972884  57.7946835  22.4766592  89.8734200
  57.1996767  22.7571605  89.1780689  57.5096531  22.9660493  90.6450941
  56.9254325  36.4289519  78.6336833  57.8584998  36.3635080  78.8369708
  56.8377538  37.2645786  78.1751366  59.5542342  35.7455389  75.5940780
  59.4755973  35.4115253  76.4876538  60.3752009  36.2377157  75.5932253
  62.2520533  28.6117128  88.8017099  62.2196853  27.6733129  88.9876783
  62.8621157  28.6901165  88.0682924  54.0903864  27.4813181  74.8444303
  55.0362969  27.3519389  74.9132721  53.7118109  26.7427843  75.3213731
  62.4015021  25.4028172  88.8475382  61.8854070  24.6186628  88.6605311
  63.2854970  25.0746888  89.0121902  60.0625748  19.1469187  84.8071195
  59.8650569  18.8384276  85.6914527  60.6725454  19.8730826  84.9369125
  68.0697083  29.6733135  87.9423136  68.8000471  29.4118423  88.5030839
  67.4604028  28.9361857  87.9825204  66.1512380  27.8140998  88.5397587
  65.4245544  27.6796963  87.9314079  65.7359667  28.1217826  89.3454305
  53.9742556  31.5330928  96.3044960  54.8945566  31.7109527  96.4985007
  53.9392139  30.5886973  96.1524659  52.2746781  25.4063158  74.7799188
  51.3678236  25.1096270  74.8561902  52.5522762  25.1092976  73.9133475
  43.1924721  26.7269521  85.2298235  42.8727506  25.8734829  84.9372609
  42.6458150  26.9418099  85.9856202  46.9704629  29.4431962  88.9467741
  47.1890639  30.3749070  88.9655775  47.3830403  29.0839937  89.7322545
  53.8908847  19.9500047  80.9343430  53.0809575  19.6047132  81.3098676
  54.5793264  19.6407591  81.5231041  55.8199395  19.0278094  82.5567726
  56.3730434  19.4473548  83.2157749  56.0569481  18.1013842  82.5990682
  51.8432494  25.0165168  98.3370490  51.7429221  25.9659525  98.2682581
  51.6254036  24.6883407  97.4646560  51.0445566  22.2650093  74.9211168
  51.9064730  22.5904991  75.1806985  51.2295910  21.4781589  74.4084233
  43.0612981  30.3472433  87.1991356  42.3676453  29.9326385  86.6861311
  43.8085972  30.3892969  86.6024775  59.1978202  21.1378619  82.0646391
  58.6176871  21.7963423  81.6824443  58.9314135  20.3155964  81.6533808
  57.6481768  20.5383677  84.2667711  58.1481547  20.6500212  83.4582030
  58.2917376  20.2344730  84.9068519  51.7063764  28.4462307  97.1535552
  51.2230846  29.2462667  97.3599441  51.7924703  28.4570252  96.2002996
  44.9749724  30.2790686  85.0757371  44.9520412  30.3778374  84.1239254
  45.2850360  31.1255837  85.3974537  47.6337102  32.3366841  89.1903986
  48.5880355  32.3050784  89.1233917  47.4349625  31.8757465  90.0054212
  48.2236484  30.9067958  91.7574783  49.0429373  31.4012036  91.7809621
  48.4973292  29.9899926  91.7292351  57.9803080  23.2978710  81.1202739
  57.0928935  23.5828360  80.9022934  58.3957069  23.1372473  80.2730016
  61.3317616  23.3225231  84.8357078  62.1078006  23.8121683  85.1081695
  60.6065750  23.7483285  85.2928948  63.7690175  24.0352850  85.8931019
  64.3634666  23.7948586  85.1824327  63.8416759  23.3159981  86.5204555
  45.9887331  37.8786461  86.2074184  45.8541798  37.1186862  85.6412182
  45.5719393  38.6027361  85.7402972  57.1246294  33.0623385  75.2150759
  57.8282144  33.2673387  75.8308414  56.4008942  33.6300146  75.4799842
  57.9544104  28.8133246  81.3353029  57.8979305  29.2701797  80.4960661
  58.5072446  28.0523930  81.1575872  61.7648910  24.6022978  82.1603148
  61.5085844  24.2019613  82.9911356  61.1401778  25.3166772  82.0353288
  66.0761248  27.3419051  84.6674440  65.5160806  27.4112240  85.4406002
  65.4704751  27.1660036  83.9473936  49.1456456  38.7755778  86.4192626
  49.0288841  39.7201210  86.3171316  48.3248903  38.4729340  86.8078425
  59.0332991  33.5005914  77.2649219  59.8678595  33.0687112  77.0826694
  58.8717334  33.3287927  78.1926113  58.6878883  30.0038027  78.6305558
  58.6327687  29.8382298  77.6894002  58.0624938  30.7114060  78.7867748
  43.4771398  25.2406091  92.4566980  44.1230262  24.7305045  92.9454206
  43.2688549  25.9774773  93.0310406  56.0024790  32.3086939  97.9559121
  56.8715950  32.4827591  97.5945756  55.5231542  33.1281356  97.8334850
  51.9975009  19.5046136  78.2090877  51.9853678  20.4487976  78.3659147
  52.8898430  19.3216281  77.9150338  50.1710971  39.4284040  89.6348555
  51.0738217  39.4607650  89.9515050  49.9448341  38.4984491  89.6494890
  51.9264573  38.1815026  86.2958633  50.9760204  38.1816888  86.1823006
  52.2297059  37.4347761  85.7794668  55.8127128  16.0988913  82.4636813
  55.0459524  15.5447399  82.6093496  56.2237833  16.1710781  83.3250965
  47.8168889  22.3873708  96.5541995  48.6800351  22.0310513  96.7645319
  47.2434300  22.0487603  97.2417399  67.6617266  44.0175565  87.3604396
  68.2995676  43.8982312  86.6567736  67.5438109  44.9656409  87.4192348
  64.4706972  43.9702993  87.2965920  64.1325484  43.8544058  86.4086455
  65.3396741  43.5694158  87.2766926  60.3293788  45.8238469  83.2862811
  59.7658653  45.7328406  82.5179099  60.2146183  45.0038374  83.7665304
  64.9526755  45.1237845  93.2552126  64.9415396  44.7290643  92.3832629
  65.1147395  44.3903917  93.8485897  57.8758220  47.3189661  86.1247032
  58.6679512  46.9780486  85.7093331  58.1154870  47.4284636  87.0449185
  65.9093347  49.4909437  78.5977276  65.2581327  50.0763517  78.2111290
  66.7037710  50.0215632  78.6572314  59.8348974  46.5798574  78.9964411
  60.6079850  46.0327561  78.8577286  60.1874373  47.4442824  79.2078872
  61.6734016  47.9074956  92.2031310  61.3823882  48.8120587  92.0877976
  62.3091001  47.9491484  92.9175379  62.5990223  45.2851805  88.7932669
  63.1953796  45.0607827  88.0789632  62.6565195  44.5436550  89.3958117
  62.1715252  42.7391240  76.6282860  62.4240772  42.2172762  75.8666323
  61.2339811  42.5757386  76.7309544  67.2158535  41.7427019  84.4357604
  68.0021624  41.3246442  84.0848021  67.4797239  42.6473111  84.6039252
  67.3868612  47.1799869  79.1346260  66.7514445  47.2534495  79.8467165
  67.0566018  47.7693468  78.4565340  72.6166962  41.6802252  85.3390582
  73.3492134  41.1101469  85.5728412  71.8606317  41.2923852  85.7797088
  61.8911540  44.6419346  78.8307235  61.7747799  43.9664250  79.4988320
  62.0013800  44.1551720  78.0139388  64.2343081  44.1029493  82.5353925
  63.8701289  43.5760114  83.2466846  65.0910197  43.7127962  82.3620410
  70.1392382  35.3923826  89.7985191  69.8075707  36.2619237  89.5746406
  69.5437995  35.0760110  90.4779221  63.8748568  39.1319393  77.5315273
  64.0422971  39.9999629  77.8985744  63.6845737  39.2946675  76.6076562
  66.6323902  47.5936372  89.1981104  66.3324625  48.4961411  89.0896911
  66.2874961  47.3268555  90.0502256  60.0836383  44.0450169  85.2317808
  59.1586880  43.9126383  85.4395500  60.3320796  44.8244388  85.7287750
  70.0321045  40.1118912  86.8778541  69.1237923  40.0434321  86.5837302
  69.9808641  40.5890857  87.7060366  63.8537789  41.5877051  78.5161940
  63.7337414  42.0334101  79.3547420  63.1590378  41.9362368  77.9575478
  57.4445194  43.6883442  86.0661597  57.5737575  43.9417921  86.9801009
  56.7642645  44.2811150  85.7466252  61.6144681  54.3580692  82.1652071
  61.5368711  55.3088517  82.2440552  61.0106325  54.0126565  82.8226998
  64.1061911  41.5308558  94.8213438  63.3295245  42.0902478  94.8116303
  64.7452474  42.0165341  95.3428308  71.8982692  38.3135351  88.6556415
  71.2557072  38.6067884  88.0096209  71.3937620  38.1988271  89.4609611
  69.5522855  42.0598524  79.3442274  70.4640712  42.2925910  79.1689972
  69.0432502  42.6435568  78.7817353  62.3608283  44.3394011  94.3831405
  63.1022968  44.8779055  94.1066229  61.6545269  44.9660300  94.5402957
  67.8363623  46.4823152  92.9803567  68.2446979  46.0405562  92.2358199
  67.1140885  45.9075779  93.2337759  64.1894693  41.4195758  90.3537124
  65.0355888  41.8435172  90.4971773  64.1293331  40.7629383  91.0475687
  68.1592438  47.0424342  86.7355855  67.5301300  47.2070056  86.0331923
  67.7718100  47.4565952  87.5066819  72.0381670  47.9778780  84.0900219
  71.3532708  48.3577681  83.5397253  72.1225519  48.5874107  84.8232167
  67.3394138  39.0800127  92.0118297  67.0955070  39.8342187  91.4752573
  67.6154069  39.4585474  92.8465544  69.2932601  45.6238739  90.6895563
  69.5049496  46.2670499  90.0129944  69.2462349  44.7901056  90.2217493
  66.8958830  38.2356560  87.5932135  66.0343309  38.5337813  87.8848872
  66.9221265  38.4526959  86.6613168  63.7120400  46.7798750  84.0005941
  64.1758745  47.0586453  83.2110563  63.4477198  45.8782195  83.8179031
  60.6044481  46.3270232  86.9385704  61.1745838  46.7557500  86.3003188
  61.1952592  46.0452817  87.6369889  62.6489286  42.9021903  80.8095506
  63.3513329  43.3542946  81.2769432  62.3169914  42.2605722  81.4375399
  61.0969647  41.4933659  95.1846715  60.4668308  42.1749940  95.4182112
  60.9905735  41.3816741  94.2399853  56.3914620  41.1605455  86.1112639
  55.6013674  41.4162984  85.6352750  56.8825867  41.9753793  86.2164680
  70.4078429  48.5010694  88.8617920  71.2295873  48.0990882  88.5800602
  70.4040832  48.3978929  89.8134036  58.3429365  41.5250035  83.0696116
  57.5460528  41.6368729  83.5879612  58.1154957  41.8636687  82.2037006
  64.1735033  48.0494738  91.0178631  64.2379465  48.5115145  91.8536802
  63.4645956  47.4192103  91.1460940  54.6752323  41.4135946  88.5427630
  54.9260361  42.2982956  88.8085206  55.2111871  41.2340547  87.7702722
  78.4984422  44.8449443  85.2102892  77.7448131  44.2756841  85.0546896
  78.6331963  44.8112107  86.1573526  63.8883050  49.7162845  80.8857611
  63.7528725  50.5614381  81.3142459  64.4292863  49.9182123  80.1223545
  60.3750390  35.7954425  97.5471966  59.9817335  35.2420624  98.2219610
  61.1916530  36.1065004  97.9378484  57.3412448  47.2338283  81.4585536
  57.8536968  48.0281534  81.6091101  57.9935160  46.5364574  81.3919137
  59.1507332  50.3504040  83.5408289  59.3273961  51.2722004  83.3529273
  59.9464166  50.0362459  83.9702669  63.2918351  37.2112304  95.1392223
  64.0328064  37.8119457  95.0596685  63.5236274  36.4689942  94.5810265
  58.4359689  42.3968671  93.4170452  58.3213204  41.4953929  93.7177551
  57.5804207  42.6432368  93.0655269  65.5151527  50.3386412  95.0157953
  65.0715381  49.5522790  94.6978857  66.1768740  50.5265562  94.3501844
  60.2738648  51.8682213  89.5418632  60.8246073  51.7399277  88.7695625
  59.4350124  52.1677102  89.1913524  67.6132765  50.6189212  93.0439354
  67.5951240  51.4398093  92.5519623  68.5352685  50.4943287  93.2689495
  64.0705819  48.1333341  93.8862863  64.6034156  47.3721629  93.6562171
  63.5419900  47.8406993  94.6287017  67.2375514  33.2393407  89.4156504
  66.8939783  34.1295049  89.3395615  67.6054476  33.0495065  88.5526089
  55.3061364  45.5626938  82.2345107  56.1436586  45.9723946  82.0178814
  55.4839632  44.6226380  82.2045300  67.2025797  43.2302018  77.9228940
  66.6872420  44.0006623  78.1617327  66.9303105  42.5567154  78.5462001
  64.7872908  38.0751719  82.9814178  63.9314504  37.6858569  82.8019817
  65.1999859  38.1543680  82.1213963  66.3172054  35.6098062  87.3805738
  65.8136850  35.5728197  86.5673543  66.6102661  36.5190805  87.4402394
  62.5614940  35.6936792  86.3871919  63.4267937  35.4979601  86.0277809
  62.6292449  35.4647144  87.3141276  72.1760071  45.9834373  79.8582113
  71.3989513  45.6445532  79.4137275  72.8551552  45.9886996  79.1837078
  66.9912100  41.1029110  79.7488721  66.6862235  41.4175260  80.5998864
  67.9442542  41.1810530  79.7916054  65.4358532  47.2619334  81.3981675
  64.9079893  46.5272093  81.0854912  64.9346034  48.0394010  81.1521643
  70.4151378  45.4568354  86.5148721  69.7575052  46.1467616  86.6028850
  71.2191777  45.8464786  86.8582707  60.1677259  37.9239000  83.7588286
  60.7421011  37.7014181  83.0261479  60.7548242  37.9927694  84.5116887
  69.2256836  43.8112727  84.5652663  69.7388718  44.4442719  85.0674372
  69.8758060  43.2113922  84.1996023  60.4946846  39.9543461  77.7784171
  59.6584159  40.2918148  78.0993446  60.3551616  39.8192441  76.8411308
  62.4699927  34.7980249  82.4863356  61.8164339  34.4829266  81.8619970
  62.4280401  34.1755989  83.2123179  63.5811132  45.0799544  74.4016648
  62.6738193  44.8488797  74.6007797  64.0782164  44.2837163  74.5890629
  66.4879211  53.7897051  77.3213334  65.8140909  54.0928748  77.9298292
  66.8745033  54.5926131  76.9718791  65.7037667  41.2862182  86.8111003
  64.7860229  41.5077129  86.6532691  66.1197811  41.3608493  85.9522711
  66.4872715  42.6853598  81.9413683  67.2344534  43.1974995  81.6320806
  66.7564305  42.3637651  82.8018077  64.7599365  45.1812139  78.9240638
  63.8510584  44.8971172  79.0213108  64.7894449  45.6011217  78.0643945
  69.9918633  48.7918728  82.6931805  69.5380960  47.9509638  82.7496996
  69.3612599  49.4280127  83.0306586  68.9351552  39.7210714  83.9232473
  68.1974309  39.2088101  84.2542715  69.1878326  39.2811096  83.1115750
  68.4351572  50.6295225  83.6281623  68.7274546  51.1900282  82.9093989
  68.9450192  50.9223786  84.3834783  69.0363179  32.4986966  84.5174242
  69.3422056  31.6384330  84.2300157  69.7615784  33.0904587  84.3173236
  55.3287536  42.9017653  82.9055840  55.1311935  42.3087014  82.1806907
  54.7734200  42.5969863  83.6231779  63.3084259  42.7940759  85.0250433
  63.3632869  41.8414596  84.9492910  62.4975461  42.9500199  85.5091732
  64.4575453  46.7220882  76.2628716  64.0194883  46.0056741  75.8034354
  65.1985894  46.9496997  75.7013808  61.2476619  41.4117819  82.7840812
  60.4344485  41.7111990  83.1906004  61.7435613  41.0173508  83.5015294
  63.3985197  51.4075576  84.7175077  63.3561376  51.6336422  83.7883609
  64.3147896  51.1738951  84.8660878  66.8450831  41.8759644  91.6155706
  67.2000219  42.1031117  92.4750172  67.4922962  42.2078020  90.9932961
  72.5748568  44.9978080  82.3205035  72.4366466  45.1879675  81.3926224
  72.2184787  45.7597462  82.7773086  60.7390694  38.9836175  88.4002047
  61.3790073  38.8424934  87.7025010  59.9068224  38.6970688  88.0240649
  72.6017947  47.0654607  87.3316306  73.0354454  46.9729896  88.1799360
  73.3149528  47.0412107  86.6936322  61.5150998  48.2838605  84.5137039
  62.3091596  47.7888925  84.3119614  60.8042690  47.7556468  84.1504745
  66.3345842  50.6656701  88.8649407  66.3882865  51.2347637  89.6327123
  65.4660624  50.8358586  88.5003444  57.8233761  42.4281687  80.5896792
  56.8931349  42.3666142  80.8066754  57.9191233  41.9057640  79.7933433
  57.7419310  38.9536500  83.1775034  58.0026128  39.8681833  83.0684194
  58.5636483  38.4860942  83.3271647  59.2144236  40.3674257  90.3473858
  59.8867289  40.1591619  89.6986507  58.3874022  40.1696343  89.9079091
  73.4633497  47.1078307  89.8649192  73.6569387  48.0124118  90.1108467
  73.3634115  46.6485726  90.6987777  65.1169808  36.9936198  92.3639519
  64.4697723  37.6926147  92.2703996  65.8870823  37.4272342  92.7315767
  68.5248606  47.2585050  95.4390072  68.3734112  47.0295602  94.5220156
  68.5153285  48.2155651  95.4521417  65.2933942  44.8316963  90.4236339
  66.2226002  44.9828122  90.2505306  64.8724972  44.9200983  89.5684985
  64.0922274  48.8567627  88.1934877  63.9533360  48.4886411  89.0660815
  63.3036870  49.3715267  88.0218834  64.6870426  53.9576724  79.5360413
  64.8622181  53.4864767  80.3506036  64.0003214  54.5842490  79.7641674
  65.6427489  48.2349230  85.5823714  65.3077322  48.1950000  86.4781364
  65.1431435  47.5693946  85.1094125  59.6171733  43.6416860  91.1076295
  59.4791531  42.9097099  91.7087834  60.5276656  43.5525760  90.8260483
  68.5786681  45.5805264  75.8560774  67.9615851  44.8552092  75.7593827
  68.1103169  46.3414624  75.5127848  62.2454034  43.3536819  90.5959975
  62.9553652  42.7130011  90.5546594  62.2023342  43.6049714  91.5186156
  70.2340812  50.2904172  93.5166554  70.1753358  49.6063393  92.8497137
  70.6360331  51.0323162  93.0647180  60.9582968  40.3402037  92.4155615
  60.4220325  39.8892775  93.0677211  60.3699676  40.4747946  91.6726079
  59.2531511  57.1066086  86.3100273  59.4928109  57.7384610  86.9879292
  58.4100708  56.7554126  86.5965632  60.3685227  39.7990688  74.9782078
  59.4914693  39.6779489  74.6144325  60.8442980  39.0076767  74.7260967
  70.2358220  48.2543756  91.7480534  69.3484998  47.9169678  91.8706933
  70.8056771  47.5226788  91.9849299  51.8887367  44.5867848  85.0723585
  52.5758406  44.2729578  84.4844601  51.7335495  45.4909213  84.7990837
  56.6922089  39.4758045  89.5008609  56.6080278  38.8683714  88.7659019
  55.8704795  39.9667063  89.5018105  63.7659373  52.9145209  88.7141777
  63.6929544  53.7200180  89.2261082  63.3236766  53.1137175  87.8889799
  63.5549153  52.1516979  82.2244599  62.7716674  52.6938659  82.3182823
  64.2541898  52.6690958  82.6238840  66.8645803  37.9611608  84.8678804
  67.3614502  37.2081571  84.5479874  66.0932784  37.9975925  84.3022013
  74.7175560  43.6651974  86.5097096  74.7065436  44.5476689  86.1391029
  73.8492939  43.3123525  86.3151633  66.2258056  52.8132043  90.8699936
  66.9386029  53.4479508  90.7975837  65.7348085  52.9095909  90.0539938
  67.9475583  46.7183295  82.4417228  67.0131862  46.8384758  82.2721932
  68.1252252  45.8155762  82.1777237  63.4480771  40.1028991  84.5950489
  63.0778559  39.5500032  85.2831394  63.9439864  39.4987125  84.0425489
  71.3348135  42.5600615  82.9767262  71.8008587  43.3928606  82.9027564
  71.7855635  42.0945596  83.6812520  61.2769970  50.5626486  91.6905507
  61.9779429  51.1962969  91.8434901  60.8065085  50.9041218  90.9301146
  69.4024366  48.9044436  79.9753414  69.6784210  48.7901031  80.8847288
  68.5328865  48.5061921  79.9365587  69.3064797  34.9281202  87.0158163
  68.3927877  35.1585429  87.1840370  69.7357899  35.0119646  87.8672195
  69.0771256  43.1171094  89.5158057  68.4242706  43.3647001  88.8610510
  69.4551636  42.3035232  89.1820534  66.0378430  53.1530787  83.6186227
  66.2200824  52.3352443  84.0813980  66.8611416  53.3698479  83.1811117
  66.3720595  52.0798972  80.8801276  66.9008362  51.5691427  80.2671438
  66.6348815  51.7641502  81.7446809  65.1258829  43.8590905  96.0024094
  64.4499466  43.7585034  96.6726469  65.9486463  43.7030119  96.4660091
  56.8737688  50.0962841  88.6236609  57.4591125  49.3506529  88.7564514
  56.6762526  50.4066798  89.5073273  59.7276343  53.1314089  83.6399052
  59.0586719  53.6160216  83.1563092  59.5889213  53.3783309  84.5542430
  51.4655343  42.6668442  87.3441053  51.5039442  42.1332032  88.1378171
  50.9595636  42.1403647  86.7252030  63.8681612  55.1657832  90.2381710
  64.4199920  55.3289454  91.0030795  64.2087805  55.7562270  89.5661735
  58.8446105  37.5132982  90.8403595  58.9087432  38.3747813  90.4280993
  58.7813225  36.9006984  90.1075953  58.3198378  39.5856115  94.4876629
  58.9470416  39.2033192  95.1014153  57.4626296  39.3670316  94.8532322
  68.7192486  49.9919090  96.0930365  69.2632390  50.6049048  95.5985319
  68.1379331  50.5498668  96.6097378  55.0963920  41.3932544  80.4194984
  55.3917361  40.4843222  80.3662038  54.1951956  41.3720283  80.0975986
  67.0049999  53.1139808  87.2245392  66.8801139  52.3129548  86.7156338
  67.6629090  53.6086001  86.7359362  58.6258167  39.4688540  86.4022532
  57.9044753  40.0824508  86.2630006  59.4151423  40.0046305  86.3239178
  69.0684908  50.9148828  88.8524942  68.1215243  50.7954179  88.7803269
  69.4167681  50.0271326  88.9351204  61.4284481  36.8042967  92.6763184
  61.9518883  37.0505263  93.4389494  61.2096814  37.6363002  92.2566322
  56.8251762  39.0746641  80.5434309  56.4964468  38.1944020  80.3609415
  57.1791133  39.0194310  81.4310698  66.0731341  50.7101544  85.0529295
  65.9256303  49.7818251  85.2336865  66.8984834  50.7321635  84.5686370
  59.9393585  39.3619611  80.9109787  60.2789658  39.8905532  80.1888395
  60.3865706  39.7000017  81.6868353  69.6765463  51.5330103  86.1394167
  70.6012010  51.3272964  86.0018618  69.5080766  51.2846504  87.0483509
  62.6337026  37.7456662  90.3612855  62.2933846  36.9464475  90.7633535
  61.9276032  38.0458373  89.7889688  63.2853498  34.8305974  88.8140178
  64.1079567  34.3566452  88.6919068  63.5291561  35.6096458  89.3138864
  61.9261732  37.8594233  79.1103079  62.6470095  38.2375486  78.6066796
  61.3027036  38.5783110  79.2138057  66.0692855  38.5639382  80.0461412
  66.2856470  39.4464020  79.7450240  65.5886922  38.1725595  79.3167054
  60.8092077  41.5225095  86.6232156  60.6636657  41.8365398  87.5156438
  60.3317280  42.1409995  86.0703055  62.6688459  38.5127643  86.6713046
  62.6550028  37.6168736  86.3345344  63.3860887  38.5198307  87.3051332
  64.5214590  38.9464983  88.7166173  64.2632368  39.8682054  88.7150504
  63.9899630  38.5495418  89.4066638  69.4660779  52.0515770  81.4956259
  69.6397656  51.4862193  80.7430111  69.9589670  52.8516665  81.3135749
  55.2837739  44.0630439  89.5619818  54.7391207  44.8390247  89.6940092
  56.1617089  44.4101244  89.4038939  62.0725355  37.3942023  81.9400616
  62.1941267  36.4658669  82.1391504  61.7827398  37.4080709  81.0278932
  64.9416546  35.0796934  85.0767336  64.9638243  35.1436267  84.1219315
  65.3584605  34.2401442  85.2707842  75.3200170  44.8152193  83.1146559
  75.7631316  44.0659518  82.7165682  74.4426680  44.8062330  82.7320291
  70.4535951  51.3682535  78.5953157  71.1486856  51.9889227  78.8140472
  70.7959101  50.5177886  78.8705535  56.0703761  43.1900336  92.4549974
  55.3285497  43.3382971  93.0414605  55.7496505  43.4508601  91.5916724
  72.3527374  48.8182240  80.1240488  72.8778699  49.1569513  79.3989808
  72.2649727  47.8829255  79.9403622  64.0147423  52.7316314  92.2530364
  64.3234550  52.4865461  93.1253064  64.8122905  52.9362952  91.7649235
  64.0368035  54.8854223  84.4835741  63.5973026  54.3930602  85.1768598
  64.7876152  54.3427191  84.2427816  56.5160374  51.0765764  84.4860369
  57.3418394  50.7769536  84.1059013  56.1654426  50.3073387  84.9350158
  61.4841907  50.4292233  86.5558043  60.8621917  49.7662938  86.2560271
  62.1546774  50.4553364  85.8731690  54.7168979  48.9952091  85.4449303
  53.8800888  48.5674265  85.2633304  54.6892625  49.1884534  86.3820094
  61.5566435  38.9074021  96.1490549  61.6054590  39.7836143  95.7668318
  62.0988949  38.3651414  95.5762192  72.0421281  49.4515144  95.4291686
  71.2516824  49.4339283  94.8896185  71.8054635  49.9903437  96.1840722
  72.1619156  46.3007610  92.7424414  72.2117161  46.1357618  93.6839937
  72.0533079  45.4334869  92.3522295  61.0455414  48.9796156  80.0316503
  61.1943535  49.6631620  79.3783176  61.8521858  48.9601246  80.5465959
  69.4522918  42.2838538  94.0583721  70.3532781  42.1445003  93.7667719
  69.5270892  42.4492993  94.9981898  63.7865723  39.6605393  92.9036907
  62.9169033  39.9538959  92.6319496  64.0225204  40.2445838  93.6244171
  73.6637352  48.7204552  92.9866436  73.3722161  49.0834532  93.8229897
  73.0509484  48.0071560  92.8079768  74.8633035  46.2857431  85.5069006
  75.6979926  46.7247236  85.6706566  74.9992164  45.8096085  84.6877252
  71.9124541  43.8437166  91.4546494  72.3878662  44.0364813  90.6465345
  70.9890106  43.8996352  91.2089878  58.8008047  45.0061333  81.0377572
  58.5554089  44.1023663  81.2357782  58.9703962  45.0078484  80.0957050
  66.4904757  35.8785010  90.4202328  67.0086701  36.6146037  90.0948816
  66.1359890  36.1849003  91.2549087  58.0703695  40.7389691  78.5363734
  57.3772940  40.8134046  77.8803770  57.8255447  39.9750035  79.0585251
  66.7417351  32.2985292  85.9403224  67.0219105  31.6308481  86.5663651
  67.5267958  32.4914388  85.4277888  70.6126210  40.7202926  89.6874799
  71.5643633  40.8201024  89.7087023  70.4429660  39.9281195  90.1972884
  68.6340589  37.8058510  89.8734200  68.0390521  38.0863522  89.1780689
  68.3490286  38.2952411  90.6450941  67.7648080  51.7581436  78.6336833
  68.6978753  51.6926998  78.8369708  67.6771292  52.5937703  78.1751366
  73.0914287  43.9409046  88.8017099  73.0590608  43.0025047  88.9876783
  73.7014911  44.0193083  88.0682924  64.9297618  42.8105099  74.8444303
  65.8756723  42.6811307  74.9132721  64.5511863  42.0719761  75.3213731
  73.2408776  40.7320090  88.8475382  72.7247825  39.9478546  88.6605311
  74.1248724  40.4038806  89.0121902  70.9019503  34.4761105  84.8071195
  70.7044324  34.1676193  85.6914527  71.5119208  35.2022744  84.9369125
  78.9090837  45.0025053  87.9423136  79.6394226  44.7410341  88.5030839
  78.2997783  44.2653775  87.9825204  76.9906134  43.1432916  88.5397587
  76.2639298  43.0088880  87.9314079  76.5753421  43.4509744  89.3454305
  64.8136311  46.8622845  96.3044960  65.7339320  47.0401444  96.4985007
  64.7785894  45.9178891  96.1524659  63.1140535  40.7355075  74.7799188
  62.2071991  40.4388188  74.8561902  63.3916516  40.4384894  73.9133475
  54.0318476  42.0561439  85.2298235  53.7121260  41.2026747  84.9372609
  53.4851904  42.2710017  85.9856202  57.8098383  44.7723880  88.9467741
  58.0284393  45.7040988  88.9655775  58.2224157  44.4131854  89.7322545
  64.7302601  35.2791965  80.9343430  63.9203330  34.9339050  81.3098676
  65.4187018  34.9699509  81.5231041  66.6593149  34.3570012  82.5567726
  67.2124188  34.7765465  83.2157749  66.8963236  33.4305760  82.5990682
  62.6826249  40.3457086  98.3370490  62.5822976  41.2951443  98.2682581
  62.4647791  40.0175325  97.4646560  61.8839320  37.5942011  74.9211168
  62.7458484  37.9196909  75.1806985  62.0689664  36.8073507  74.4084233
  53.9006736  45.6764350  87.1991356  53.2070207  45.2618303  86.6861311
  54.6479727  45.7184887  86.6024775  70.0371957  36.4670537  82.0646391
  69.4570626  37.1255341  81.6824443  69.7707889  35.6447882  81.6533808
  68.4875523  35.8675595  84.2667711  68.9875301  35.9792129  83.4582030
  69.1311131  35.5636648  84.9068519  62.5457519  43.7754224  97.1535552
  62.0624600  44.5754585  97.3599441  62.6318458  43.7862169  96.2002996
  55.8143478  45.6082604  85.0757371  55.7914166  45.7070291  84.1239254
  56.1244115  46.4547755  85.3974537  58.4730856  47.6658759  89.1903986
  59.4274110  47.6342701  89.1233917  58.2743380  47.2049383  90.0054212
  59.0630238  46.2359875  91.7574783  59.8823127  46.7303954  91.7809621
  59.3367046  45.3191843  91.7292351  68.8196835  38.6270628  81.1202739
  67.9322690  38.9120278  80.9022934  69.2350824  38.4664391  80.2730016
  72.1711371  38.6517148  84.8357078  72.9471761  39.1413601  85.1081695
  71.4459505  39.0775203  85.2928948  74.6083929  39.3644768  85.8931019
  75.2028420  39.1240504  85.1824327  74.6810513  38.6451898  86.5204555
  56.8281085  53.2078379  86.2074184  56.6935553  52.4478780  85.6412182
  56.4113147  53.9319279  85.7402972  67.9640048  48.3915302  75.2150759
  68.6675898  48.5965305  75.8308414  67.2402697  48.9592064  75.4799842
  68.7937858  44.1425163  81.3353029  68.7373060  44.5993715  80.4960661
  69.3466201  43.3815848  81.1575872  72.6042664  39.9314895  82.1603148
  72.3479598  39.5311531  82.9911356  71.9795532  40.6458689  82.0353288
  76.9155002  42.6710969  84.6674440  76.3554560  42.7404158  85.4406002
  76.3098505  42.4951953  83.9473936  59.9850211  54.1047696  86.4192626
  59.8682595  55.0493128  86.3171316  59.1642657  53.8021257  86.8078425
  69.8726745  48.8297831  77.2649219  70.7072349  48.3979030  77.0826694
  69.7111088  48.6579845  78.1926113  69.5272638  45.3329945  78.6305558
  69.4721441  45.1674216  77.6894002  68.9018693  46.0405978  78.7867748
  54.3165153  40.5698009  92.4566980  54.9624016  40.0596963  92.9454206
  54.1082304  41.3066691  93.0310406  66.8418545  47.6378857  97.9559121
  67.7109704  47.8119509  97.5945756  66.3625296  48.4573273  97.8334850
  62.8368763  34.8338054  78.2090877  62.8247433  35.7779894  78.3659147
  63.7292185  34.6508199  77.9150338  61.0104725  54.7575958  89.6348555
  61.9131972  54.7899568  89.9515050  60.7842095  53.8276409  89.6494890
  62.7658327  53.5106944  86.2958633  61.8153958  53.5108806  86.1823006
  63.0690813  52.7639679  85.7794668  66.6520883  31.4280830  82.4636813
  65.8853278  30.8739317  82.6093496  67.0631588  31.5002699  83.3250965
  58.6562644  37.7165626  96.5541995  59.5194105  37.3602431  96.7645319
  58.0828054  37.3779521  97.2417399  78.5011021  59.3467483  87.3604396
  79.1389430  59.2274230  86.6567736  78.3831863  60.2948326  87.4192348
  75.3100727  59.2994911  87.2965920  74.9719238  59.1835975  86.4086455
  76.1790495  58.8986076  87.2766926  71.1687543  61.1530387  83.2862811
  70.6052408  61.0620324  82.5179099  71.0539938  60.3330291  83.7665304
  75.7920510  60.4529762  93.2552126  75.7809151  60.0582561  92.3832629
  75.9541149  59.7195835  93.8485897  68.7151974  62.6481579  86.1247032
  69.5073266  62.3072403  85.7093331  68.9548625  62.7576554  87.0449185
  76.7487101  64.8201355  78.5977276  76.0975081  65.4055435  78.2111290
  77.5431464  65.3507550  78.6572314  72.5127771  63.2366874  92.2031310
  72.2217637  64.1412505  92.0877976  73.1484755  63.2783402  92.9175379
  73.4383978  60.6143723  88.7932669  74.0347550  60.3899745  88.0789632
  73.4958949  59.8728468  89.3958117  73.0109006  58.0683158  76.6282860
  73.2634527  57.5464679  75.8666323  72.0733565  57.9049303  76.7309544
  78.0552289  57.0718936  84.4357604  78.8415378  56.6538360  84.0848021
  78.3190993  57.9765029  84.6039252  78.2262366  62.5091787  79.1346260
  77.5908199  62.5826413  79.8467165  77.8959773  63.0985385  78.4565340
  83.4560716  57.0094170  85.3390582  84.1885888  56.4393386  85.5728412
  82.7000072  56.6215770  85.7797088  72.7305295  59.9711264  78.8307235
  72.6141553  59.2956167  79.4988320  72.8407555  59.4843638  78.0139388
  75.0736836  59.4321411  82.5353925  74.7095043  58.9052032  83.2466846
  75.9303952  59.0419880  82.3620410  80.9786136  50.7215744  89.7985191
  80.6469461  51.5911155  89.5746406  80.3831750  50.4052028  90.4779221
  74.7142323  54.4611311  77.5315273  74.8816725  55.3291547  77.8985744
  74.5239492  54.6238592  76.6076562  77.4717656  62.9228290  89.1981104
  77.1718379  63.8253328  89.0896911  77.1268716  62.6560473  90.0502256
  70.9230138  59.3742086  85.2317808  69.9980634  59.2418301  85.4395500
  71.1714551  60.1536306  85.7287750  80.8714800  55.4410830  86.8778541
  79.9631677  55.3726238  86.5837302  80.8202396  55.9182775  87.7060366
  74.6931544  56.9168968  78.5161940  74.5731169  57.3626019  79.3547420
  73.9984132  57.2654286  77.9575478  68.2838949  59.0175360  86.0661597
  68.4131330  59.2709839  86.9801009  67.6036400  59.6103068  85.7466252
  72.4538436  69.6872610  82.1652071  72.3762466  70.6380435  82.2440552
  71.8500079  69.3418482  82.8226998  74.9455666  56.8600475  94.8213438
  74.1689000  57.4194396  94.8116303  75.5846229  57.3457258  95.3428308
  82.7376446  53.6427268  88.6556415  82.0950826  53.9359801  88.0096209
  82.2331375  53.5280189  89.4609611  80.3916610  57.3890441  79.3442274
  81.3034466  57.6217828  79.1689972  79.8826257  57.9727486  78.7817353
  73.2002038  59.6685929  94.3831405  73.9416722  60.2070973  94.1066229
  72.4939023  60.2952218  94.5402957  78.6757378  61.8115069  92.9803567
  79.0840734  61.3697480  92.2358199  77.9534639  61.2367697  93.2337759
  75.0288448  56.7487676  90.3537124  75.8749643  57.1727090  90.4971773
  74.9687085  56.0921300  91.0475687  78.9986192  62.3716260  86.7355855
  78.3695055  62.5361974  86.0331923  78.6111854  62.7857869  87.5066819
  82.8775424  63.3070698  84.0900219  82.1926462  63.6869599  83.5397253
  82.9619273  63.9166024  84.8232167  78.1787893  54.4092044  92.0118297
  77.9348825  55.1634105  91.4752573  78.4547823  54.7877392  92.8465544
  80.1326356  60.9530657  90.6895563  80.3443251  61.5962417  90.0129944
  80.0856104  60.1192973  90.2217493  77.7352585  53.5648477  87.5932135
  76.8737064  53.8629731  87.8848872  77.7615019  53.7818876  86.6613168
  74.5514154  62.1090668  84.0005941  75.0152500  62.3878371  83.2110563
  74.2870952  61.2074113  83.8179031  71.4438235  61.6562150  86.9385704
  72.0139592  62.0849418  86.3003188  72.0346347  61.3744734  87.6369889
  73.4883040  58.2313820  80.8095506  74.1907083  58.6834864  81.2769432
  73.1563669  57.5897639  81.4375399  71.9363402  56.8225577  95.1846715
  71.3062062  57.5041858  95.4182112  71.8299490  56.7108659  94.2399853
  67.2308374  56.4897373  86.1112639  66.4407428  56.7454902  85.6352750
  67.7219621  57.3045711  86.2164680  81.2472184  63.8302612  88.8617920
  82.0689627  63.4282799  88.5800602  81.2434587  63.7270846  89.8134036
  69.1823119  56.8541952  83.0696116  68.3854283  56.9660646  83.5879612
  68.9548712  57.1928604  82.2037006  75.0128787  63.3786655  91.0178631
  75.0773220  63.8407063  91.8536802  74.3039711  62.7484020  91.1460940
  65.5146077  56.7427863  88.5427630  65.7654115  57.6274873  88.8085206
  66.0505625  56.5632465  87.7702722  74.7276805  65.0454763  80.8857611
  74.5922480  65.8906299  81.3142459  75.2686617  65.2474041  80.1223545
  71.2144144  51.1246343  97.5471966  70.8211090  50.5712541  98.2219610
  72.0310285  51.4356921  97.9378484  69.9901087  65.6795957  83.5408289
  70.1667715  66.6013922  83.3529273  70.7857920  65.3654376  83.9702669
  74.1312105  52.5404222  95.1392223  74.8721819  53.1411375  95.0596685
  74.3630028  51.7981860  94.5810265  69.2753443  57.7260589  93.4170452
  69.1606959  56.8245846  93.7177551  68.4197961  57.9724286  93.0655269
  76.3545281  65.6678329  95.0157953  75.9109135  64.8814708  94.6978857
  77.0162495  65.8557480  94.3501844  71.1132402  67.1974131  89.5418632
  71.6639827  67.0691194  88.7695625  70.2743878  67.4969020  89.1913524
  78.4526519  65.9481129  93.0439354  78.4344995  66.7690010  92.5519623
  79.3746439  65.8235205  93.2689495  74.9099573  63.4625259  93.8862863
  75.4427910  62.7013547  93.6562171  74.3813654  63.1698911  94.6287017
  78.0769268  48.5685325  89.4156504  77.7333538  49.4586967  89.3395615
  78.4448231  48.3786982  88.5526089  66.1455119  60.8918855  82.2345107
  66.9830341  61.3015864  82.0178814  66.3233387  59.9518297  82.2045300
  78.0419551  58.5593936  77.9228940  77.5266174  59.3298541  78.1617327
  77.7696859  57.8859072  78.5462001  75.6266662  53.4043637  82.9814178
  74.7708258  53.0150487  82.8019817  76.0393614  53.4835598  82.1213963
  77.1565809  50.9389980  87.3805738  76.6530604  50.9020115  86.5673543
  77.4496416  51.8482723  87.4402394  73.4008695  51.0228710  86.3871919
  74.2661691  50.8271518  86.0277809  73.4686203  50.7939061  87.3141276
  77.8305854  56.4321028  79.7488721  77.5255990  56.7467177  80.5998864
  78.7836296  56.5102448  79.7916054  76.2752286  62.5911251  81.3981675
  75.7473648  61.8564011  81.0854912  75.7739789  63.3685928  81.1521643
  81.2545132  60.7860272  86.5148721  80.5968807  61.4759533  86.6028850
  82.0585531  61.1756704  86.8582707  71.0071014  53.2530918  83.7588286
  71.5814766  53.0306099  83.0261479  71.5941996  53.3219612  84.5116887
  80.0650591  59.1404645  84.5652663  80.5782473  59.7734636  85.0674372
  80.7151815  58.5405840  84.1996023  71.3340601  55.2835379  77.7784171
  70.4977913  55.6210065  78.0993446  71.1945370  55.1484358  76.8411308
  73.3093681  50.1272167  82.4863356  72.6558094  49.8121184  81.8619970
  73.2674156  49.5047907  83.2123179  77.3272965  69.1188969  77.3213334
  76.6534664  69.4220666  77.9298292  77.7138787  69.9218049  76.9718791
  76.5431422  56.6154100  86.8111003  75.6253983  56.8369047  86.6532691
  76.9591565  56.6900411  85.9522711  77.3266469  58.0145516  81.9413683
  78.0738288  58.5266913  81.6320806  77.5958059  57.6929568  82.8018077
  75.5993120  60.5104056  78.9240638  74.6904339  60.2263089  79.0213108
  75.6288203  60.9303135  78.0643945  80.8312387  64.1210646  82.6931805
  80.3774714  63.2801556  82.7496996  80.2006354  64.7572044  83.0306586
  79.7745307  55.0502632  83.9232473  79.0368063  54.5380018  84.2542715
  80.0272080  54.6103014  83.1115750  79.2745326  65.9587143  83.6281623
  79.5668301  66.5192200  82.9093989  79.7843947  66.2515704  84.3834783
  79.8756934  47.8278884  84.5174242  80.1815811  46.9676247  84.2300157
  80.6009539  48.4196504  84.3173236  66.1681290  58.2309571  82.9055840
  65.9705690  57.6378931  82.1806907  65.6127954  57.9261781  83.6231779
  74.1478014  58.1232677  85.0250433  74.2026623  57.1706513  84.9492910
  73.3369216  58.2792116  85.5091732  75.2969207  62.0512800  76.2628716
  74.8588637  61.3348659  75.8034354  76.0379648  62.2788915  75.7013808
  72.0870374  56.7409737  82.7840812  71.2738239  57.0403907  83.1906004
  72.5829368  56.3465426  83.5015294  74.2378952  66.7367494  84.7175077
  74.1955130  66.9628340  83.7883609  75.1541650  66.5030868  84.8660878
  77.6844585  57.2051561  91.6155706  78.0393973  57.4323034  92.4750172
  78.3316717  57.5369938  90.9932961  83.4142322  60.3269997  82.3205035
  83.2760221  60.5171593  81.3926224  83.0578541  61.0889380  82.7773086
  71.5784448  54.3128092  88.4002047  72.2183828  54.1716851  87.7025010
  70.7461979  54.0262606  88.0240649  83.4411702  62.3946524  87.3316306
  83.8748209  62.3021813  88.1799360  84.1543283  62.3704025  86.6936322
  72.3544752  63.6130523  84.5137039  73.1485351  63.1180843  84.3119614
  71.6436445  63.0848386  84.1504745  77.1739597  65.9948618  88.8649407
  77.2276619  66.5639555  89.6327123  76.3054378  66.1650503  88.5003444
  68.6627516  57.7573605  80.5896792  67.7325104  57.6958060  80.8066754
  68.7584988  57.2349557  79.7933433  68.5813065  54.2828417  83.1775034
  68.8419882  55.1973751  83.0684194  69.4030237  53.8152860  83.3271647
  70.0537990  55.6966175  90.3473858  70.7261044  55.4883537  89.6986507
  69.2267777  55.4988261  89.9079091  84.3027251  62.4370225  89.8649192
  84.4963142  63.3416035  90.1108467  84.2027870  61.9777644  90.6987777
  75.9563562  52.3228115  92.3639519  75.3091477  53.0218065  92.2703996
  76.7264578  52.7564259  92.7315767  79.3642360  62.5876968  95.4390072
  79.2127867  62.3587519  94.5220156  79.3547040  63.5447569  95.4521417
  76.1327697  60.1608880  90.4236339  77.0619757  60.3120040  90.2505306
  75.7118727  60.2492901  89.5684985  74.9316028  64.1859545  88.1934877
  74.7927114  63.8178329  89.0660815  74.1430625  64.7007184  88.0218834
  75.5264180  69.2868641  79.5360413  75.7015936  68.8156684  80.3506036
  74.8396968  69.9134407  79.7641674  76.4821243  63.5641147  85.5823714
  76.1471076  63.5241917  86.4781364  75.9825189  62.8985863  85.1094125
  70.4565487  58.9708777  91.1076295  70.3185285  58.2389016  91.7087834
  71.3670411  58.8817678  90.8260483  73.0847788  58.6828737  90.5959975
  73.7947407  58.0421929  90.5546594  73.0417096  58.9341632  91.5186156
  81.0734567  65.6196090  93.5166554  81.0147113  64.9355310  92.8497137
  81.4754085  66.3615080  93.0647180  71.7976722  55.6693955  92.4155615
  71.2614079  55.2184693  93.0677211  71.2093431  55.8039864  91.6726079
  70.0925266  72.4358004  86.3100273  70.3321864  73.0676528  86.9879292
  69.2494462  72.0846044  86.5965632  81.0751974  63.5835674  91.7480534
  80.1878753  63.2461596  91.8706933  81.6450525  62.8518705  91.9849299
  62.7281121  59.9159766  85.0723585  63.4152161  59.6021496  84.4844601
  62.5729250  60.8201130  84.7990837  67.5315843  54.8049962  89.5008609
  67.4474032  54.1975632  88.7659019  66.7098550  55.2958981  89.5018105
  74.6053127  68.2437126  88.7141777  74.5323299  69.0492098  89.2261082
  74.1630521  68.4429092  87.8889799  74.3942907  67.4808896  82.2244599
  73.6110429  68.0230577  82.3182823  75.0935652  67.9982876  82.6238840
  77.7039557  53.2903526  84.8678804  78.2008257  52.5373488  84.5479874
  76.9326539  53.3267843  84.3022013  85.5569315  58.9943891  86.5097096
  85.5459191  59.8768607  86.1391029  84.6886694  58.6415442  86.3151633
  77.0651811  68.1423960  90.8699936  77.7779783  68.7771425  90.7975837
  76.5741840  68.2387826  90.0539938  78.7869338  62.0475213  82.4417228
  77.8525617  62.1676676  82.2721932  78.9646006  61.1447680  82.1777237
  74.2874526  55.4320909  84.5950489  73.9172313  54.8791949  85.2831394
  74.7833618  54.8279042  84.0425489  82.1741889  57.8892532  82.9767262
  82.6402341  58.7220524  82.9027564  82.6249390  57.4237514  83.6812520
  72.1163724  65.8918404  91.6905507  72.8173184  66.5254887  91.8434901
  71.6458839  66.2333135  90.9301146  80.2418120  64.2336354  79.9753414
  80.5177964  64.1192948  80.8847288  79.3722619  63.8353839  79.9365587
  80.1458552  50.2573119  87.0158163  79.2321632  50.4877346  87.1840370
  80.5751653  50.3411563  87.8672195  79.9165010  58.4463011  89.5158057
  79.2636461  58.6938919  88.8610510  80.2945390  57.6327150  89.1820534
  76.8772184  68.4822705  83.6186227  77.0594579  67.6644360  84.0813980
  77.7005170  68.6990397  83.1811117  77.2114350  67.4090890  80.8801276
  77.7402116  66.8983344  80.2671438  77.4742569  67.0933420  81.7446809
  75.9652583  59.1882822  96.0024094  75.2893220  59.0876952  96.6726469
  76.7880217  59.0322036  96.4660091  67.7131443  65.4254759  88.6236609
  68.2984879  64.6798447  88.7564514  67.5156281  65.7358716  89.5073273
  70.5670098  68.4606006  83.6399052  69.8980473  68.9452134  83.1563092
  70.4282967  68.7075227  84.5542430  62.3049097  57.9960359  87.3441053
  62.3433197  57.4623950  88.1378171  61.7989390  57.4695565  86.7252030
  74.7075366  70.4949750  90.2381710  75.2593674  70.6581371  91.0030795
  75.0481560  71.0854188  89.5661735  69.6839860  52.8424900  90.8403595
  69.7481186  53.7039731  90.4280993  69.6206980  52.2298901  90.1075953
  69.1592132  54.9148032  94.4876629  69.7864171  54.5325110  95.1014153
  68.3020051  54.6962234  94.8532322  79.5586241  65.3211007  96.0930365
  80.1026145  65.9340966  95.5985319  78.9773086  65.8790586  96.6097378
  65.9357675  56.7224461  80.4194984  66.2311116  55.8135140  80.3662038
  65.0345711  56.7012201  80.0975986  77.8443754  68.4431725  87.2245392
  77.7194893  67.6421465  86.7156338  78.5022845  68.9377919  86.7359362
  69.4651922  54.7980458  86.4022532  68.7438508  55.4116426  86.2630006
  70.2545178  55.3338223  86.3239178  79.9078662  66.2440746  88.8524942
  78.9608998  66.1246097  88.7803269  80.2561435  65.3563244  88.9351204
  72.2678235  52.1334884  92.6763184  72.7912637  52.3797181  93.4389494
  72.0490569  52.9654919  92.2566322  67.6645516  54.4038559  80.5434309
  67.3358223  53.5235938  80.3609415  68.0184887  54.3486228  81.4310698
  76.9125095  66.0393462  85.0529295  76.7650058  65.1110169  85.2336865
  77.7378589  66.0613552  84.5686370  70.7787340  54.6911529  80.9109787
  71.1183412  55.2197450  80.1888395  71.2259460  55.0291935  81.6868353
  80.5159217  66.8622020  86.1394167  81.4405765  66.6564882  86.0018618
  80.3474521  66.6138422  87.0483509  73.4730780  53.0748580  90.3612855
  73.1327601  52.2756393  90.7633535  72.7669787  53.3750290  89.7889688
  74.1247252  50.1597892  88.8140178  74.9473322  49.6858370  88.6919068
  74.3685316  50.9388376  89.3138864  72.7655487  53.1886150  79.1103079
  73.4863849  53.5667403  78.6066796  72.1420791  53.9075027  79.2138057
  76.9086610  53.8931299  80.0461412  77.1250224  54.7755937  79.7450240
  76.4280677  53.5017513  79.3167054  71.6485831  56.8517013  86.6232156
  71.5030412  57.1657316  87.5156438  71.1711035  57.4701913  86.0703055
  73.5082214  53.8419561  86.6713046  73.4943783  52.9460654  86.3345344
  74.2254642  53.8490224  87.3051332  75.3608345  54.2756901  88.7166173
  75.1026122  55.1973971  88.7150504  74.8293385  53.8787335  89.4066638
  80.3054533  67.3807688  81.4956259  80.4791411  66.8154110  80.7430111
  80.7983425  68.1808583  81.3135749  66.1231493  59.3922357  89.5619818
  65.5784961  60.1682165  89.6940092  67.0010843  59.7393161  89.4038939
  72.9119110  52.7233941  81.9400616  73.0335021  51.7950587  82.1391504
  72.6221152  52.7372627  81.0278932  75.7810300  50.4088851  85.0767336
  75.8031997  50.4728184  84.1219315  76.1978359  49.5693360  85.2707842
  66.9097515  58.5192253  92.4549974  66.1679251  58.6674889  93.0414605
  66.5890259  58.7800519  91.5916724  74.8541178  68.0608231  92.2530364
  75.1628304  67.8157378  93.1253064  75.6516660  68.2654870  91.7649235
  74.8761790  70.2146141  84.4835741  74.4366780  69.7222520  85.1768598
  75.6269907  69.6719109  84.2427816  67.3554129  66.4057682  84.4860369
  68.1812149  66.1061454  84.1059013  67.0048181  65.6365304  84.9350158
  72.3235662  65.7584150  86.5558043  71.7015671  65.0954855  86.2560271
  72.9940529  65.7845282  85.8731690  65.5562734  64.3244008  85.4449303
  64.7194642  63.8966183  85.2633304  65.5286379  64.5176452  86.3820094
  72.3960189  54.2365938  96.1490549  72.4448345  55.1128061  95.7668318
  72.9382704  53.6943331  95.5762192  82.8815035  64.7807061  95.4291686
  82.0910579  64.7631200  94.8896185  82.6448390  65.3195355  96.1840722
  83.0012910  61.6299528  92.7424414  83.0510915  61.4649535  93.6839937
  82.8926833  60.7626787  92.3522295  80.2916672  57.6130456  94.0583721
  81.1926535  57.4736921  93.7667719  80.3664647  57.7784911  94.9981898
  74.6259478  54.9897311  92.9036907  73.7562787  55.2830877  92.6319496
  74.8618958  55.5737756  93.6244171  84.5031107  64.0496469  92.9866436
  84.2115915  64.4126450  93.8229897  83.8903238  63.3363478  92.8079768
  82.7518295  59.1729084  91.4546494  83.2272417  59.3656730  90.6465345
  81.8283861  59.2288270  91.2089878  77.3298512  51.2076928  90.4202328
  77.8480455  51.9437954  90.0948816  76.9753644  51.5140921  91.2549087
  68.9097449  56.0681609  78.5363734  68.2166694  56.1425964  77.8803770
  68.6649201  55.3041952  79.0585251  77.5811106  47.6277210  85.9403224
  77.8612860  46.9600399  86.5663651  78.3661713  47.8206306  85.4277888
  75.3844574  66.8036204  77.5028251  74.8118541  67.4226391  77.0498723
  75.9577368  67.3535566  78.0368173  81.4519964  56.0494844  89.6874799
  82.4037387  56.1492942  89.7087023  81.2823415  55.2573113  90.1972884
  79.4734344  53.1350427  89.8734200  78.8784276  53.4155440  89.1780689
  79.1884040  53.6244328  90.6450941  78.6041834  67.0873354  78.6336833
  79.5372507  67.0218916  78.8369708  78.5165047  67.9229621  78.1751366
  83.9308042  59.2700964  88.8017099  83.8984362  58.3316964  88.9876783
  84.5408666  59.3485000  88.0682924  75.7691373  58.1397017  74.8444303
  76.7150478  58.0103225  74.9132721  75.3905618  57.4011679  75.3213731
  84.0802530  56.0612007  88.8475382  83.5641579  55.2770464  88.6605311
  84.9642479  55.7330724  89.0121902  81.7413257  49.8053023  84.8071195
  81.5438078  49.4968111  85.6914527  82.3512963  50.5314662  84.9369125
  87.8299889  58.4724833  88.5397587  87.1033052  58.3380798  87.9314079
  87.4147176  58.7801662  89.3454305  75.6530065  62.1914763  96.3044960
  76.5733075  62.3693362  96.4985007  75.6179648  61.2470808  96.1524659
  64.8712230  57.3853357  85.2298235  64.5515015  56.5318665  84.9372609
  64.3245659  57.6001935  85.9856202  68.6492138  60.1015798  88.9467741
  68.8678148  61.0332905  88.9655775  69.0617912  59.7423772  89.7322545
  75.5696356  50.6083883  80.9343430  74.7597084  50.2630968  81.3098676
  76.2580773  50.2991427  81.5231041  77.4986904  49.6861930  82.5567726
  78.0517943  50.1057383  83.2157749  77.7356990  48.7597678  82.5990682
  73.5220003  55.6749003  98.3370490  73.4216730  56.6243360  98.2682581
  73.3041545  55.3467242  97.4646560  64.7400490  61.0056268  87.1991356
  64.0463962  60.5910221  86.6861311  65.4873481  61.0476805  86.6024775
  80.8765711  51.7962455  82.0646391  80.2964380  52.4547259  81.6824443
  80.6101644  50.9739799  81.6533808  79.3269277  51.1967513  84.2667711
  79.8269056  51.3084047  83.4582030  79.9704885  50.8928565  84.9068519
  73.3851273  59.1046142  97.1535552  72.9018355  59.9046502  97.3599441
  73.4712212  59.1154087  96.2002996  66.6537233  60.9374522  85.0757371
  66.6307921  61.0362209  84.1239254  66.9637869  61.7839673  85.3974537
  69.3124611  62.9950677  89.1903986  70.2667864  62.9634619  89.1233917
  69.1137134  62.5341301  90.0054212  69.9023993  61.5651793  91.7574783
  70.7216882  62.0595872  91.7809621  70.1760801  60.6483761  91.7292351
  79.6590589  53.9562545  81.1202739  78.7716444  54.2412196  80.9022934
  80.0744578  53.7956309  80.2730016  83.0105125  53.9809066  84.8357078
  83.7865515  54.4705519  85.1081695  82.2853259  54.4067120  85.2928948
  85.4477684  54.6936685  85.8931019  86.0422175  54.4532421  85.1824327
  85.5204268  53.9743816  86.5204555  67.6674840  68.5370296  86.2074184
  67.5329307  67.7770697  85.6412182  67.2506902  69.2611196  85.7402972
  79.6331613  59.4717081  81.3353029  79.5766814  59.9285633  80.4960661
  80.1859955  58.7107766  81.1575872  83.4436419  55.2606813  82.1603148
  83.1873353  54.8603449  82.9911356  82.8189287  55.9750607  82.0353288
  70.8243965  69.4339613  86.4192626  70.7076350  70.3785046  86.3171316
  70.0036412  69.1313175  86.8078425  80.3666392  60.6621862  78.6305558
  80.3115196  60.4966134  77.6894002  79.7412447  61.3697895  78.7867748
  65.1558907  55.8989927  92.4566980  65.8017771  55.3888881  92.9454206
  64.9476058  56.6358608  93.0310406  77.6812299  62.9670774  97.9559121
  78.5503459  63.1411427  97.5945756  77.2019051  63.7865191  97.8334850
  73.6762518  50.1629971  78.2090877  73.6641187  51.1071811  78.3659147
  74.5685939  49.9800117  77.9150338  71.8498480  70.0867875  89.6348555
  72.7525726  70.1191486  89.9515050  71.6235850  69.1568326  89.6494890
  73.6052082  68.8398862  86.2958633  72.6547713  68.8400723  86.1823006
  73.9084568  68.0931596  85.7794668  77.4914637  46.7572748  82.4636813
  76.7247033  46.2031235  82.6093496  77.9025342  46.8294617  83.3250965
  69.4956398  53.0457544  96.5541995  70.3587860  52.6894349  96.7645319
  68.9221809  52.7071439  97.2417399  89.3404775  74.6759400  87.3604396
  89.9783185  74.5566148  86.6567736  89.2225618  75.6240244  87.4192348
  86.1494481  74.6286828  87.2965920  85.8112993  74.5127893  86.4086455
  87.0184250  74.2277993  87.2766926  82.0081297  76.4822305  83.2862811
  81.4446162  76.3912242  82.5179099  81.8933692  75.6622209  83.7665304
  86.6314264  75.7821680  93.2552126  86.6202905  75.3874478  92.3832629
  86.7934904  75.0487753  93.8485897  79.5545729  77.9773496  86.1247032
  80.3467021  77.6364321  85.7093331  79.7942379  78.0868471  87.0449185
  87.5880856  80.1493272  78.5977276  86.9368835  80.7347353  78.2111290
  88.3825219  80.6799467  78.6572314  81.5136483  77.2382410  78.9964411
  82.2867359  76.6911397  78.8577286  81.8661882  78.1026659  79.2078872
  83.3521525  78.5658792  92.2031310  83.0611391  79.4704423  92.0877976
  83.9878510  78.6075319  92.9175379  84.2777732  75.9435640  88.7932669
  84.8741305  75.7191663  88.0789632  84.3352704  75.2020386  89.3958117
  83.8502761  73.3975076  76.6282860  84.1028281  72.8756597  75.8666323
  82.9127320  73.2341221  76.7309544  88.8946044  72.4010854  84.4357604
  89.6809133  71.9830277  84.0848021  89.1584748  73.3056946  84.6039252
  89.0656121  77.8383704  79.1346260  88.4301954  77.9118331  79.8467165
  88.7353527  78.4277303  78.4565340  94.2954471  72.3386087  85.3390582
  95.0279643  71.7685304  85.5728412  93.5393826  71.9507688  85.7797088
  83.5699049  75.3003182  78.8307235  83.4535308  74.6248085  79.4988320
  83.6801309  74.8135556  78.0139388  85.9130590  74.7613329  82.5353925
  85.5488798  74.2343950  83.2466846  86.7697706  74.3711798  82.3620410
  88.3111411  78.2520207  89.1981104  88.0112134  79.1545246  89.0896911
  87.9662470  77.9852391  90.0502256  81.7623892  74.7034004  85.2317808
  80.8374388  74.5710218  85.4395500  82.0108305  75.4828223  85.7287750
  91.7108554  70.7702748  86.8778541  90.8025432  70.7018156  86.5837302
  91.6596150  71.2474692  87.7060366  79.1232703  74.3467278  86.0661597
  79.2525084  74.6001757  86.9801009  78.4430154  74.9394986  85.7466252
  83.2932190  85.0164528  82.1652071  83.2156220  85.9672353  82.2440552
  82.6893834  84.6710400  82.8226998  85.7849420  72.1892393  94.8213438
  85.0082754  72.7486313  94.8116303  86.4239983  72.6749176  95.3428308
  91.2310364  72.7182359  79.3442274  92.1428220  72.9509746  79.1689972
  90.7220011  73.3019403  78.7817353  84.0395792  74.9977846  94.3831405
  84.7810477  75.5362890  94.1066229  83.3332778  75.6244135  94.5402957
  89.5151132  77.1406987  92.9803567  89.9234488  76.6989397  92.2358199
  88.7928394  76.5659614  93.2337759  85.8682202  72.0779594  90.3537124
  86.7143397  72.5019007  90.4971773  85.8080840  71.4213218  91.0475687
  89.8379947  77.7008178  86.7355855  89.2088809  77.8653892  86.0331923
  89.4505609  78.1149787  87.5066819  93.7169179  78.6362615  84.0900219
  93.0320217  79.0161517  83.5397253  93.8013028  79.2457942  84.8232167
  90.9720110  76.2822574  90.6895563  91.1837005  76.9254334  90.0129944
  90.9249858  75.4484891  90.2217493  88.5746339  68.8940395  87.5932135
  87.7130818  69.1921649  87.8848872  88.6008774  69.1110794  86.6613168
  85.3907909  77.4382586  84.0005941  85.8546254  77.7170289  83.2110563
  85.1264707  76.5366030  83.8179031  82.2831990  76.9854067  86.9385704
  82.8533347  77.4141336  86.3003188  82.8740101  76.7036652  87.6369889
  84.3276795  73.5605738  80.8095506  85.0300838  74.0126782  81.2769432
  83.9957423  72.9189557  81.4375399  82.7757156  72.1517495  95.1846715
  82.1455817  72.8333775  95.4182112  82.6693244  72.0400576  94.2399853
  78.0702129  71.8189291  86.1112639  77.2801183  72.0746819  85.6352750
  78.5613376  72.6337629  86.2164680  92.0865938  79.1594530  88.8617920
  92.9083382  78.7574717  88.5800602  92.0828341  79.0562764  89.8134036
  80.0216874  72.1833870  83.0696116  79.2248037  72.2952564  83.5879612
  79.7942466  72.5220522  82.2037006  85.8522542  78.7078573  91.0178631
  85.9166974  79.1698980  91.8536802  85.1433465  78.0775938  91.1460940
  76.3539832  72.0719781  88.5427630  76.6047870  72.9566791  88.8085206
  76.8899380  71.8924383  87.7702722 100.1771931  75.5033278  85.2102892
  99.4235640  74.9340676  85.0546896 100.3119472  75.4695943  86.1573526
  85.5670559  80.3746681  80.8857611  85.4316234  81.2198216  81.3142459
  86.1080372  80.5765958  80.1223545  82.0537899  66.4538260  97.5471966
  81.6604844  65.9004459  98.2219610  82.8704039  66.7648839  97.9378484
  79.0199957  77.8922119  81.4585536  79.5324477  78.6865369  81.6091101
  79.6722669  77.1948409  81.3919137  80.8294841  81.0087875  83.5408289
  81.0061470  81.9305840  83.3529273  81.6251675  80.6946294  83.9702669
  84.9705860  67.8696140  95.1392223  85.7115573  68.4703293  95.0596685
  85.2023783  67.1273777  94.5810265  80.1147198  73.0552507  93.4170452
  80.0000713  72.1537764  93.7177551  79.2591716  73.3016204  93.0655269
  87.1939036  80.9970247  95.0157953  86.7502890  80.2106626  94.6978857
  87.8556249  81.1849398  94.3501844  81.9526157  82.5266049  89.5418632
  82.5033582  82.3983112  88.7695625  81.1137633  82.8260938  89.1913524
  89.2920274  81.2773047  93.0439354  89.2738749  82.0981928  92.5519623
  90.2140194  81.1527122  93.2689495  85.7493328  78.7917177  93.8862863
  86.2821665  78.0305465  93.6562171  85.2207409  78.4990828  94.6287017
  76.9848873  76.2210773  82.2345107  77.8224095  76.6307781  82.0178814
  77.1627141  75.2810215  82.2045300  87.9959563  66.2681898  87.3805738
  87.4924359  66.2312033  86.5673543  88.2890170  67.1774640  87.4402394
  84.2402449  66.3520627  86.3871919  85.1055446  66.1563436  86.0277809
  84.3079958  66.1230979  87.3141276  93.8547580  76.6418208  79.8582113
  93.0777022  76.3029368  79.4137275  94.5339061  76.6470831  79.1837078
  87.1146041  77.9203169  81.3981675  86.5867402  77.1855929  81.0854912
  86.6133543  78.6977845  81.1521643  92.0938887  76.1152190  86.5148721
  91.4362561  76.8051451  86.6028850  92.8979286  76.5048621  86.8582707
  81.8464768  68.5822835  83.7588286  82.4208520  68.3598017  83.0261479
  82.4335751  68.6511530  84.5116887  90.9044345  74.4696562  84.5652663
  91.4176227  75.1026554  85.0674372  91.5545569  73.8697758  84.1996023
  82.1734355  70.6127296  77.7784171  81.3371668  70.9501983  78.0993446
  82.0339125  70.4776276  76.8411308  85.2598641  75.7383379  74.4016648
  84.3525702  75.5072633  74.6007797  85.7569673  74.9420999  74.5890629
  88.1666720  84.4480886  77.3213334  87.4928418  84.7512583  77.9298292
  88.5532542  85.2509967  76.9718791  87.3825176  71.9446018  86.8111003
  86.4647738  72.1660965  86.6532691  87.7985320  72.0192328  85.9522711
  88.1660224  73.3437433  81.9413683  88.9132043  73.8558831  81.6320806
  88.4351814  73.0221486  82.8018077  86.4386874  75.8395974  78.9240638
  85.5298093  75.5555007  79.0213108  86.4681958  76.2595053  78.0643945
  91.6706142  79.4502564  82.6931805  91.2168469  78.6093474  82.7496996
  91.0400108  80.0863962  83.0306586  90.1139081  81.2879060  83.6281623
  90.4062055  81.8484117  82.9093989  90.6237701  81.5807621  84.3834783
  77.0075045  73.5601488  82.9055840  76.8099444  72.9670849  82.1806907
  76.4521709  73.2553698  83.6231779  84.9871768  73.4524595  85.0250433
  85.0420378  72.4998431  84.9492910  84.1762970  73.6084034  85.5091732
  86.1362962  77.3804718  76.2628716  85.6982392  76.6640577  75.8034354
  86.8773403  77.6080833  75.7013808  82.9264128  72.0701655  82.7840812
  82.1131994  72.3695825  83.1906004  83.4223122  71.6757343  83.5015294
  85.0772706  82.0659411  84.7175077  85.0348885  82.2920258  83.7883609
  85.9935405  81.8322786  84.8660878  88.5238340  72.5343479  91.6155706
  88.8787728  72.7614952  92.4750172  89.1710471  72.8661856  90.9932961
  94.2536077  75.6561915  82.3205035  94.1153975  75.8463511  81.3926224
  93.8972296  76.4181298  82.7773086  82.4178203  69.6420010  88.4002047
  83.0577582  69.5008769  87.7025010  81.5855733  69.3554523  88.0240649
  94.2805456  77.7238442  87.3316306  94.7141963  77.6313731  88.1799360
  94.9937037  77.6995942  86.6936322  83.1938507  78.9422440  84.5137039
  83.9879105  78.4472761  84.3119614  82.4830199  78.4140304  84.1504745
  88.0133351  81.3240536  88.8649407  88.0670374  81.8931472  89.6327123
  87.1448133  81.4942421  88.5003444  79.5021270  73.0865522  80.5896792
  78.5718858  73.0249978  80.8066754  79.5978742  72.5641475  79.7933433
  79.4206819  69.6120335  83.1775034  79.6813637  70.5265668  83.0684194
  80.2423992  69.1444778  83.3271647  80.8931745  71.0258092  90.3473858
  81.5654798  70.8175454  89.6986507  80.0661531  70.8280178  89.9079091
  95.1421006  77.7662143  89.8649192  95.3356896  78.6707953  90.1108467
  95.0421624  77.3069562  90.6987777  86.7957317  67.6520033  92.3639519
  86.1485232  68.3509983  92.2703996  87.5658332  68.0856177  92.7315767
  90.2036115  77.9168885  95.4390072  90.0521621  77.6879437  94.5220156
  90.1940794  78.8739487  95.4521417  86.9721451  75.4900798  90.4236339
  87.9013511  75.6411958  90.2505306  86.5512481  75.5784819  89.5684985
  85.7709783  79.5151462  88.1934877  85.6320868  79.1470247  89.0660815
  84.9824379  80.0299102  88.0218834  86.3657935  84.6160559  79.5360413
  86.5409690  84.1448602  80.3506036  85.6790723  85.2426325  79.7641674
  87.3214998  78.8933065  85.5823714  86.9864831  78.8533835  86.4781364
  86.8218944  78.2277781  85.1094125  81.2959242  74.3000695  91.1076295
  81.1579040  73.5680934  91.7087834  82.2064165  74.2109595  90.8260483
  90.2574190  76.2389099  75.8560774  89.6403360  75.5135928  75.7593827
  89.7890678  76.9998460  75.5127848  83.9241543  74.0120654  90.5959975
  84.6341161  73.3713847  90.5546594  83.8810851  74.2633549  91.5186156
  91.9128321  80.9488008  93.5166554  91.8540867  80.2647228  92.8497137
  92.3147840  81.6906998  93.0647180  82.6370477  70.9985872  92.4155615
  82.1007834  70.5476611  93.0677211  82.0487185  71.1331781  91.6726079
  80.9319020  87.7649922  86.3100273  81.1715618  88.3968446  86.9879292
  80.0888217  87.4137962  86.5965632  82.0472735  70.4574524  74.9782078
  81.1702202  70.3363325  74.6144325  82.5230489  69.6660602  74.7260967
  91.9145729  78.9127592  91.7480534  91.0272507  78.5753514  91.8706933
  92.4844280  78.1810623  91.9849299  73.5674876  75.2451684  85.0723585
  74.2545915  74.9313414  84.4844601  73.4123004  76.1493048  84.7990837
  78.3709598  70.1341880  89.5008609  78.2867787  69.5267550  88.7659019
  77.5492304  70.6250898  89.5018105  85.4446882  83.5729044  88.7141777
  85.3717053  84.3784016  89.2261082  85.0024275  83.7721010  87.8889799
  85.2336662  82.8100814  82.2244599  84.4504183  83.3522494  82.3182823
  85.9329407  83.3274794  82.6238840  96.3963069  74.3235809  86.5097096
  96.3852945  75.2060525  86.1391029  95.5280448  73.9707360  86.3151633
  87.9045565  83.4715878  90.8699936  88.6173538  84.1063343  90.7975837
  87.4135594  83.5679744  90.0539938  89.6263092  77.3767131  82.4417228
  88.6919371  77.4968593  82.2721932  89.8039761  76.4739598  82.1777237
  85.1268280  70.7612827  84.5950489  84.7566068  70.2083867  85.2831394
  85.6227373  70.1570960  84.0425489  93.0135644  73.2184450  82.9767262
  93.4796096  74.0512442  82.9027564  93.4643144  72.7529432  83.6812520
  82.9557479  81.2210322  91.6905507  83.6566938  81.8546805  91.8434901
  82.4852594  81.5625053  90.9301146  91.0811875  79.5628271  79.9753414
  91.3571719  79.4484866  80.8847288  90.2116374  79.1645756  79.9365587
  90.7558765  73.7754929  89.5158057  90.1030215  74.0230837  88.8610510
  91.1339145  72.9619067  89.1820534  87.7165939  83.8114622  83.6186227
  87.8988333  82.9936278  84.0813980  88.5398925  84.0282314  83.1811117
  88.0508104  82.7382807  80.8801276  88.5795871  82.2275262  80.2671438
  88.3136324  82.4225338  81.7446809  86.8046338  74.5174740  96.0024094
  86.1286975  74.4168869  96.6726469  87.6273972  74.3613954  96.4660091
  78.5525197  80.7546677  88.6236609  79.1378634  80.0090365  88.7564514
  78.3550035  81.0650633  89.5073273  81.4063852  83.7897924  83.6399052
  80.7374228  84.2744052  83.1563092  81.2676722  84.0367144  84.5542430
  73.1442852  73.3252277  87.3441053  73.1826951  72.7915868  88.1378171
  72.6383145  72.7987482  86.7252030  85.5469121  85.8241668  90.2381710
  86.0987429  85.9873289  91.0030795  85.8875314  86.4146105  89.5661735
  80.5233614  68.1716817  90.8403595  80.5874941  69.0331648  90.4280993
  80.4600734  67.5590819  90.1075953  79.9985887  70.2439950  94.4876629
  80.6257925  69.8617027  95.1014153  79.1413805  70.0254152  94.8532322
  90.3979995  80.6502925  96.0930365  90.9419899  81.2632883  95.5985319
  89.8166840  81.2082503  96.6097378  76.7751429  72.0516379  80.4194984
  77.0704870  71.1427057  80.3662038  75.8739465  72.0304118  80.0975986
  88.6837508  83.7723643  87.2245392  88.5588648  82.9713383  86.7156338
  89.3416599  84.2669836  86.7359362  80.3045676  70.1272376  86.4022532
  79.5832262  70.7408343  86.2630006  81.0938932  70.6630140  86.3239178
  90.7472416  81.5732663  88.8524942  89.8002752  81.4538014  88.7803269
  91.0955190  80.6855161  88.9351204  83.1071990  67.4626802  92.6763184
  83.6306392  67.7089099  93.4389494  82.8884323  68.2946837  92.2566322
  78.5039271  69.7330477  80.5434309  78.1751977  68.8527856  80.3609415
  78.8578642  69.6778145  81.4310698  87.7518850  81.3685379  85.0529295
  87.6043812  80.4402087  85.2336865  88.5772343  81.3905470  84.5686370
  81.6181094  70.0203446  80.9109787  81.9577167  70.5489368  80.1888395
  82.0653215  70.3583853  81.6868353  91.3552972  82.1913938  86.1394167
  92.2799519  81.9856799  86.0018618  91.1868275  81.9430339  87.0483509
  84.3124535  68.4040497  90.3612855  83.9721355  67.6048310  90.7633535
  83.6063541  68.7042208  89.7889688  84.9641007  65.4889810  88.8140178
  85.7867076  65.0150288  88.6919068  85.2079070  66.2680293  89.3138864
  82.4879585  72.1808930  86.6232156  82.3424166  72.4949233  87.5156438
  82.0104789  72.7993831  86.0703055  84.3475968  69.1711478  86.6713046
  84.3337537  68.2752572  86.3345344  85.0648396  69.1782142  87.3051332
  86.2002099  69.6048818  88.7166173  85.9419877  70.5265889  88.7150504
  85.6687139  69.2079253  89.4066638  91.1448288  82.7099606  81.4956259
  91.3185165  82.1446028  80.7430111  91.6377179  83.5100500  81.3135749
  76.9625248  74.7214275  89.5619818  76.4178716  75.4974083  89.6940092
  77.8404598  75.0685079  89.4038939  96.9987679  75.4736029  83.1146559
  97.4418825  74.7243354  82.7165682  96.1214189  75.4646165  82.7320291
  92.1323460  82.0266370  78.5953157  92.8274365  82.6473063  78.8140472
  92.4746610  81.1761721  78.8705535  77.7491270  73.8484171  92.4549974
  77.0073006  73.9966806  93.0414605  77.4284014  74.1092437  91.5916724
  94.0314883  79.4766076  80.1240488  94.5566208  79.8153348  79.3989808
  93.9437236  78.5413091  79.9403622  85.6934932  83.3900149  92.2530364
  86.0022059  83.1449296  93.1253064  86.4910414  83.5946788  91.7649235
  85.7155544  85.5438059  84.4835741  85.2760534  85.0514437  85.1768598
  86.4663661  85.0011026  84.2427816  78.1947883  81.7349600  84.4860369
  79.0205903  81.4353372  84.1059013  77.8441935  80.9657222  84.9350158
  83.1629416  81.0876068  86.5558043  82.5409426  80.4246773  86.2560271
  83.8334283  81.1137200  85.8731690  76.3956488  79.6535926  85.4449303
  75.5588397  79.2258100  85.2633304  76.3680134  79.8468369  86.3820094
  83.2353944  69.5657856  96.1490549  83.2842099  70.4419979  95.7668318
  83.7776458  69.0235249  95.5762192  93.7208790  80.1098979  95.4291686
  92.9304333  80.0923118  94.8896185  93.4842144  80.6487273  96.1840722
  93.8406665  76.9591446  92.7424414  93.8904669  76.7941453  93.6839937
  93.7320588  76.0918705  92.3522295  82.7242923  79.6379991  80.0316503
  82.8731044  80.3215456  79.3783176  83.5309367  79.6185081  80.5465959
  91.1310427  72.9422374  94.0583721  92.0320290  72.8028838  93.7667719
  91.2058401  73.1076828  94.9981898  85.4653232  70.3189228  92.9036907
  84.5956542  70.6122794  92.6319496  85.7012713  70.9029673  93.6244171
  95.3424861  79.3788387  92.9866436  95.0509670  79.7418368  93.8229897
  94.7296993  78.6655395  92.8079768  96.5420544  76.9441267  85.5069006
  97.3767435  77.3831071  85.6706566  96.6779673  76.4679920  84.6877252
  93.5912050  74.5021002  91.4546494  94.0666171  74.6948648  90.6465345
  92.6677615  74.5580187  91.2089878  80.4795556  75.6645169  81.0377572
  80.2341598  74.7607499  81.2357782  80.6491471  75.6662319  80.0957050
  79.7491204  71.3973526  78.5363734  79.0560449  71.4717881  77.8803770
  79.5042956  70.6333870  79.0585251  86.2238329  82.1328122  77.5028251
  85.6512296  82.7518309  77.0498723  86.7971122  82.6827483  78.0368173
  92.2913719  71.3786762  89.6874799  93.2431142  71.4784859  89.7087023
  92.1217169  70.5865030  90.1972884  89.4435589  82.4165272  78.6336833
  90.3766262  82.3510833  78.8369708  89.3558801  83.2521539  78.1751366
  92.0723605  81.7331142  75.5940780  91.9937237  81.3991006  76.4876538
  92.8933272  82.2252910  75.5932253  94.7701796  74.5992881  88.8017099
  94.7378117  73.6608882  88.9876783  95.3802420  74.6776918  88.0682924
  86.6085127  73.4688934  74.8444303  87.5544232  73.3395143  74.9132721
  86.2299372  72.7303596  75.3213731 100.5878346  75.6608888  87.9423136
 101.3181735  75.3994176  88.5030839  99.9785292  74.9237610  87.9825204
  98.6693643  73.8016751  88.5397587  97.9426807  73.6672716  87.9314079
  98.2540930  74.1093579  89.3454305  86.4923820  77.5206681  96.3044960
  87.4126829  77.6985280  96.4985007  86.4573403  76.5762726  96.1524659
  75.7105985  72.7145274  85.2298235  75.3908769  71.8610582  84.9372609
  75.1639413  72.9293852  85.9856202  79.4885892  75.4307715  88.9467741
  79.7071902  76.3624823  88.9655775  79.9011666  75.0715690  89.7322545
  84.3613758  71.0040921  98.3370490  84.2610485  71.9535278  98.2682581
  84.1435300  70.6759160  97.4646560  75.5794245  76.3348186  87.1991356
  74.8857716  75.9202138  86.6861311  76.3267236  76.3768722  86.6024775
  84.2245028  74.4338060  97.1535552  83.7412109  75.2338420  97.3599441
  84.3105967  74.4446005  96.2002996  77.4930987  76.2666439  85.0757371
  77.4701675  76.3654127  84.1239254  77.8031624  77.1131590  85.3974537
  80.1518365  78.3242595  89.1903986  81.1061619  78.2926537  89.1233917
  79.9530889  77.8633218  90.0054212  80.7417747  76.8943711  91.7574783
  81.5610636  77.3887789  91.7809621  81.0154555  75.9775679  91.7292351
  78.5068594  83.8662214  86.2074184  78.3723062  83.1062615  85.6412182
  78.0900656  84.5903114  85.7402972  89.6427557  79.0499138  75.2150759
  90.3463407  79.2549140  75.8308414  88.9190206  79.6175899  75.4799842
  90.4725367  74.8008999  81.3353029  90.4160569  75.2577550  80.4960661
  91.0253710  74.0399683  81.1575872  98.5942511  73.3294804  84.6674440
  98.0342069  73.3987993  85.4406002  97.9886014  73.1535789  83.9473936
  81.6637720  84.7631531  86.4192626  81.5470104  85.7076964  86.3171316
  80.8430166  84.4605093  86.8078425  91.5514254  79.4881667  77.2649219
  92.3859858  79.0562865  77.0826694  91.3898597  79.3163680  78.1926113
  91.2060147  75.9913780  78.6305558  91.1508950  75.8258051  77.6894002
  90.5806202  76.6989813  78.7867748  75.9952662  71.2281844  92.4566980
  76.6411525  70.7180798  92.9454206  75.7869813  71.9650526  93.0310406
  88.5206054  78.2962692  97.9559121  89.3897213  78.4703344  97.5945756
  88.0412805  79.1157109  97.8334850  82.6892234  85.4159793  89.6348555
  83.5919481  85.4483403  89.9515050  82.4629604  84.4860244  89.6494890
  84.4445836  84.1690779  86.2958633  83.4941467  84.1692641  86.1823006
  84.7478322  83.4223514  85.7794668  80.3350153  68.3749461  96.5541995
  81.1981614  68.0186266  96.7645319  79.7615563  68.0363356  97.2417399
 100.1798530  90.0051318  87.3604396 100.8176939  89.8858065  86.6567736
 100.0619372  90.9532162  87.4192348  96.9888236  89.9578746  87.2965920
  96.6506747  89.8419811  86.4086455  97.8578004  89.5569911  87.2766926
  92.8475051  91.8114222  83.2862811  92.2839917  91.7204159  82.5179099
  92.7327447  90.9914127  83.7665304  97.4708019  91.1113598  93.2552126
  97.4596660  90.7166396  92.3832629  97.6328658  90.3779670  93.8485897
  90.3939483  93.3065414  86.1247032  91.1860775  92.9656239  85.7093331
  90.6336134  93.4160389  87.0449185  98.4274610  95.4785190  78.5977276
  97.7762590  96.0639270  78.2111290  99.2218973  96.0091385  78.6572314
  92.3530237  92.5674327  78.9964411  93.1261113  92.0203314  78.8577286
  92.7055636  93.4318577  79.2078872  94.1915280  93.8950709  92.2031310
  93.9005146  94.7996340  92.0877976  94.8272264  93.9367237  92.9175379
  95.1171487  91.2727558  88.7932669  95.7135059  91.0483580  88.0789632
  95.1746458  90.5312303  89.3958117  94.6896515  88.7266993  76.6282860
  94.9422036  88.2048515  75.8666323  93.7521074  88.5633139  76.7309544
  99.7339798  87.7302772  84.4357604 100.5202887  87.3122195  84.0848021
  99.9978502  88.6348864  84.6039252  99.9049875  93.1675622  79.1346260
  99.2695708  93.2410249  79.8467165  99.5747282  93.7569221  78.4565340
 105.1348225  87.6678005  85.3390582 105.8673397  87.0977222  85.5728412
 104.3787581  87.2799605  85.7797088  94.4092804  90.6295099  78.8307235
  94.2929062  89.9540003  79.4988320  94.5195064  90.1427473  78.0139388
  96.7524345  90.0905246  82.5353925  96.3882552  89.5635867  83.2466846
  97.6091461  89.7003715  82.3620410 102.6573645  81.3799579  89.7985191
 102.3256970  82.2494990  89.5746406 102.0619259  81.0635863  90.4779221
  96.3929832  85.1195146  77.5315273  96.5604234  85.9875383  77.8985744
  96.2027001  85.2822428  76.6076562  99.1505165  93.5812125  89.1981104
  98.8505888  94.4837164  89.0896911  98.8056225  93.3144308  90.0502256
  92.6017646  90.0325922  85.2317808  91.6768143  89.9002136  85.4395500
  92.8502060  90.8120141  85.7287750 102.5502309  86.0994665  86.8778541
 101.6419186  86.0310074  86.5837302 102.4989905  86.5766610  87.7060366
  96.3719053  87.5752804  78.5161940  96.2518678  88.0209854  79.3547420
  95.6771641  87.9238121  77.9575478  89.9626458  89.6759195  86.0661597
  90.0918839  89.9293674  86.9801009  89.2823909  90.2686903  85.7466252
  94.1325945 100.3456445  82.1652071  94.0549975 101.2964270  82.2440552
  93.5287588 100.0002318  82.8226998  96.6243175  87.5184311  94.8213438
  95.8476509  88.0778231  94.8116303  97.2633738  88.0041094  95.3428308
 104.4163955  84.3011104  88.6556415 103.7738335  84.5943637  88.0096209
 103.9118884  84.1864024  89.4609611 102.0704119  88.0474277  79.3442274
 102.9821975  88.2801664  79.1689972 101.5613766  88.6311321  78.7817353
  94.8789547  90.3269764  94.3831405  95.6204231  90.8654808  94.1066229
  94.1726532  90.9536053  94.5402957 100.3544887  92.4698905  92.9803567
 100.7628243  92.0281315  92.2358199  99.6322148  91.8951532  93.2337759
  96.7075957  87.4071511  90.3537124  97.5537152  87.8310925  90.4971773
  96.6474594  86.7505136  91.0475687 100.6773701  93.0300095  86.7355855
 100.0482564  93.1945809  86.0331923 100.2899363  93.4441705  87.5066819
 104.5562933  93.9654533  84.0900219 103.8713971  94.3453434  83.5397253
 104.6406782  94.5749860  84.8232167  99.8575402  85.0675880  92.0118297
  99.6136334  85.8217940  91.4752573 100.1335332  85.4461227  92.8465544
 101.8113865  91.6114492  90.6895563 102.0230760  92.2546252  90.0129944
 101.7643613  90.7776809  90.2217493  99.4140094  84.2232313  87.5932135
  98.5524573  84.5213566  87.8848872  99.4402528  84.4402712  86.6613168
  96.2301663  92.7674503  84.0005941  96.6940009  93.0462206  83.2110563
  95.9658461  91.8657948  83.8179031  93.1225744  92.3145985  86.9385704
  93.6927101  92.7433253  86.3003188  93.7133856  92.0328570  87.6369889
  95.1670549  88.8897656  80.8095506  95.8694592  89.3418699  81.2769432
  94.8351178  88.2481475  81.4375399  93.6150911  87.4809412  95.1846715
  92.9849571  88.1625693  95.4182112  93.5086999  87.3692494  94.2399853
  88.9095883  87.1481208  86.1112639  88.1194937  87.4038737  85.6352750
  89.4007130  87.9629546  86.2164680 102.9259693  94.4886448  88.8617920
 103.7477136  94.0866635  88.5800602 102.9222095  94.3854682  89.8134036
  90.8610628  87.5125788  83.0696116  90.0641792  87.6244482  83.5879612
  90.6336221  87.8512440  82.2037006  96.6916296  94.0370491  91.0178631
  96.7560729  94.4990898  91.8536802  95.9827220  93.4067856  91.1460940
  87.1933586  87.4011699  88.5427630  87.4441624  88.2858709  88.8085206
  87.7293134  87.2216300  87.7702722 111.0165686  90.8325196  85.2102892
 110.2629394  90.2632594  85.0546896 111.1513227  90.7987860  86.1573526
  96.4064314  95.7038598  80.8857611  96.2709989  96.5490134  81.3142459
  96.9474126  95.9057876  80.1223545  92.8931653  81.7830178  97.5471966
  92.4998599  81.2296377  98.2219610  93.7097794  82.0940757  97.9378484
  89.8593711  93.2214036  81.4585536  90.3718232  94.0157287  81.6091101
  90.5116424  92.5240327  81.3919137  91.6688596  96.3379793  83.5408289
  91.8455224  97.2597757  83.3529273  92.4645429  96.0238212  83.9702669
  95.8099614  83.1988057  95.1392223  96.5509328  83.7995210  95.0596685
  96.0417537  82.4565695  94.5810265  90.9540952  88.3844425  93.4170452
  90.8394468  87.4829682  93.7177551  90.0985470  88.6308121  93.0655269
  92.7919911  97.8557966  89.5418632  93.3427336  97.7275030  88.7695625
  91.9531387  98.1552855  89.1913524 100.1314028  96.6064965  93.0439354
 100.1132504  97.4273846  92.5519623 101.0533948  96.4819040  93.2689495
  96.5887082  94.1209094  93.8862863  97.1215419  93.3597382  93.6562171
  96.0601163  93.8282746  94.6287017  99.7556777  79.2269160  89.4156504
  99.4121047  80.1170802  89.3395615 100.1235740  79.0370818  88.5526089
  87.8242628  91.5502691  82.2345107  88.6617850  91.9599699  82.0178814
  88.0020896  90.6102133  82.2045300  99.7207060  89.2177771  77.9228940
  99.2053683  89.9882376  78.1617327  99.4484368  88.5442907  78.5462001
  97.3054171  84.0627472  82.9814178  96.4495767  83.6734322  82.8019817
  97.7181123  84.1419433  82.1213963  98.8353318  81.5973815  87.3805738
  98.3318113  81.5603951  86.5673543  99.1283925  82.5066558  87.4402394
  95.0796204  81.6812545  86.3871919  95.9449200  81.4855354  86.0277809
  95.1473712  81.4522897  87.3141276 104.6941334  91.9710126  79.8582113
 103.9170777  91.6321285  79.4137275 105.3732815  91.9762749  79.1837078
  99.5093363  87.0904863  79.7488721  99.2043499  87.4051013  80.5998864
 100.4623805  87.1686283  79.7916054  97.9539795  93.2495087  81.3981675
  97.4261157  92.5147846  81.0854912  97.4527298  94.0269763  81.1521643
 102.9332641  91.4444107  86.5148721 102.2756315  92.1343369  86.6028850
 103.7373040  91.8340539  86.8582707  92.6858523  83.9114753  83.7588286
  93.2602275  83.6889934  83.0261479  93.2729505  83.9803447  84.5116887
 101.7438100  89.7988480  84.5652663 102.2569982  90.4318472  85.0674372
 102.3939324  89.1989675  84.1996023  93.0128110  85.9419214  77.7784171
  92.1765422  86.2793901  78.0993446  92.8732879  85.8068194  76.8411308
  94.9881190  80.7856002  82.4863356  94.3345603  80.4705019  81.8619970
  94.9461664  80.1631742  83.2123179  96.0992395  91.0675297  74.4016648
  95.1919457  90.8364550  74.6007797  96.5963427  90.2712916  74.5890629
  99.0060474  99.7772804  77.3213334  98.3322173 100.0804501  77.9298292
  99.3926296 100.5801885  76.9718791  98.2218931  87.2737935  86.8111003
  97.3041492  87.4952882  86.6532691  98.6379074  87.3484246  85.9522711
  99.0053978  88.6729351  81.9413683  99.7525797  89.1850748  81.6320806
  99.2745568  88.3513404  82.8018077  97.2780629  91.1687892  78.9240638
  96.3691848  90.8846925  79.0213108  97.3075712  91.5886970  78.0643945
 102.5099896  94.7794481  82.6931805 102.0562223  93.9385391  82.7496996
 101.8793863  95.4155880  83.0306586 101.4532816  85.7086467  83.9232473
 100.7155572  85.1963854  84.2542715 101.7059589  85.2686849  83.1115750
 100.9532835  96.6170978  83.6281623 101.2455810  97.1776035  82.9093989
 101.4631456  96.9099539  84.3834783 101.5544443  78.4862719  84.5174242
 101.8603320  77.6260083  84.2300157 102.2797048  79.0780340  84.3173236
  87.8468799  88.8893406  82.9055840  87.6493199  88.2962767  82.1806907
  87.2915463  88.5845616  83.6231779  95.8265523  88.7816512  85.0250433
  95.8814132  87.8290349  84.9492910  95.0156725  88.9375952  85.5091732
  96.9756716  92.7096636  76.2628716  96.5376146  91.9932494  75.8034354
  97.7167157  92.9372750  75.7013808  93.7657883  87.3993572  82.7840812
  92.9525748  87.6987743  83.1906004  94.2616877  87.0049261  83.5015294
  95.9166461  97.3951329  84.7175077  95.8742639  97.6212175  83.7883609
  96.8329159  97.1614704  84.8660878  99.3632094  87.8635397  91.6155706
  99.7181482  88.0906870  92.4750172 100.0104226  88.1953773  90.9932961
 105.0929831  90.9853833  82.3205035 104.9547730  91.1755429  81.3926224
 104.7366050  91.7473215  82.7773086  93.2571957  84.9711928  88.4002047
  93.8971337  84.8300687  87.7025010  92.4249488  84.6846441  88.0240649
 105.1199211  93.0530360  87.3316306 105.5535718  92.9605649  88.1799360
 105.8330792  93.0287860  86.6936322  94.0332261  94.2714358  84.5137039
  94.8272860  93.7764678  84.3119614  93.3223954  93.7432221  84.1504745
  98.8527106  96.6532454  88.8649407  98.9064128  97.2223390  89.6327123
  97.9841887  96.8234339  88.5003444  90.3415025  88.4157440  80.5896792
  89.4112613  88.3541895  80.8066754  90.4372497  87.8933393  79.7933433
  90.2600574  84.9412253  83.1775034  90.5207391  85.8557586  83.0684194
  91.0817746  84.4736695  83.3271647  91.7325499  86.3550010  90.3473858
  92.4048553  86.1467372  89.6986507  90.9055286  86.1572096  89.9079091
 105.9814760  93.0954060  89.8649192 106.1750650  93.9999871  90.1108467
 105.8815379  92.6361479  90.6987777  97.6351071  82.9811951  92.3639519
  96.9878986  83.6801900  92.2703996  98.4052087  83.4148095  92.7315767
  97.8115205  90.8192716  90.4236339  98.7407265  90.9703875  90.2505306
  97.3906236  90.9076736  89.5684985  96.6103537  94.8443380  88.1934877
  96.4714623  94.4762165  89.0660815  95.8218134  95.3591020  88.0218834
  97.2051689  99.9452477  79.5360413  97.3803445  99.4740520  80.3506036
  96.5184477 100.5718243  79.7641674  98.1608752  94.2224983  85.5823714
  97.8258585  94.1825753  86.4781364  97.6612698  93.5569699  85.1094125
  92.1352996  89.6292613  91.1076295  91.9972794  88.8972852  91.7087834
  93.0457920  89.5401513  90.8260483 101.0967944  91.5681017  75.8560774
 100.4797115  90.8427845  75.7593827 100.6284433  92.3290377  75.5127848
  94.7635297  89.3412572  90.5959975  95.4734916  88.7005764  90.5546594
  94.7204605  89.5925467  91.5186156  93.4764231  86.3277790  92.4155615
  92.9401588  85.8768529  93.0677211  92.8880939  86.4623699  91.6726079
  91.7712775 103.0941839  86.3100273  92.0109373 103.7260364  86.9879292
  90.9281971 102.7429879  86.5965632  92.8866490  85.7866441  74.9782078
  92.0095956  85.6655242  74.6144325  93.3624243  84.9952520  74.7260967
 102.7539483  94.2419509  91.7480534 101.8666262  93.9045431  91.8706933
 103.3238034  93.5102541  91.9849299  84.4068630  90.5743601  85.0723585
  85.0939670  90.2605331  84.4844601  84.2516759  91.4784966  84.7990837
  89.2103352  85.4633798  89.5008609  89.1261541  84.8559467  88.7659019
  88.3886059  85.9542816  89.5018105  96.2840636  98.9020962  88.7141777
  96.2110808  99.7075933  89.2261082  95.8418029  99.1012928  87.8889799
  96.0730416  98.1392732  82.2244599  95.2897938  98.6814412  82.3182823
  96.7723161  98.6566711  82.6238840  99.3827066  83.9487361  84.8678804
  99.8795766  83.1957324  84.5479874  98.6114048  83.9851678  84.3022013
 107.2356824  89.6527727  86.5097096 107.2246700  90.5352442  86.1391029
 106.3674203  89.2999278  86.3151633  98.7439320  98.8007796  90.8699936
  99.4567292  99.4355261  90.7975837  98.2529349  98.8971662  90.0539938
 100.4656847  92.7059048  82.4417228  99.5313126  92.8260511  82.2721932
 100.6433515  91.8031515  82.1777237  95.9662035  86.0904744  84.5950489
  95.5959822  85.5375785  85.2831394  96.4621127  85.4862878  84.0425489
 103.8529398  88.5476368  82.9767262 104.3189850  89.3804359  82.9027564
 104.3036899  88.0821349  83.6812520  93.7951233  96.5502239  91.6905507
  94.4960693  97.1838722  91.8434901  93.3246348  96.8916971  90.9301146
 101.9205629  94.8920189  79.9753414 102.1965473  94.7776784  80.8847288
 101.0510128  94.4937674  79.9365587 101.8246061  80.9156955  87.0158163
 100.9109141  81.1461182  87.1840370 102.2539162  80.9995399  87.8672195
 101.5952519  89.1046847  89.5158057 100.9423970  89.3522754  88.8610510
 101.9732899  88.2910985  89.1820534  98.5559693  99.1406540  83.6186227
  98.7382088  98.3228196  84.0813980  99.3792679  99.3574232  83.1811117
  98.8901859  98.0674725  80.8801276  99.4189625  97.5567180  80.2671438
  99.1530078  97.7517255  81.7446809  97.6440092  89.8466658  96.0024094
  96.9680729  89.7460787  96.6726469  98.4667726  89.6905872  96.4660091
  89.3918952  96.0838594  88.6236609  89.9772388  95.3382282  88.7564514
  89.1943790  96.3942551  89.5073273  92.2457607  99.1189842  83.6399052
  91.5767982  99.6035969  83.1563092  92.1070476  99.3659062  84.5542430
  83.9836606  88.6544195  87.3441053  84.0220706  88.1207785  88.1378171
  83.4776899  88.1279400  86.7252030  96.3862875 101.1533585  90.2381710
  96.9381183 101.3165207  91.0030795  96.7269069 101.7438023  89.5661735
  91.3627369  83.5008735  90.8403595  91.4268695  84.3623566  90.4280993
  91.2994489  82.8882737  90.1075953  90.8379641  85.5731868  94.4876629
  91.4651680  85.1908945  95.1014153  89.9807560  85.3546070  94.8532322
  87.6145184  87.3808297  80.4194984  87.9098625  86.4718975  80.3662038
  86.7133220  87.3596036  80.0975986  99.5231263  99.1015561  87.2245392
  99.3982402  98.3005301  86.7156338 100.1810354  99.5961754  86.7359362
  91.1439431  85.4564293  86.4022532  90.4226017  86.0700261  86.2630006
  91.9332687  85.9922058  86.3239178 101.5866171  96.9024581  88.8524942
 100.6396507  96.7829932  88.7803269 101.9348944  96.0147079  88.9351204
  93.9465744  82.7918720  92.6763184  94.4700146  83.0381016  93.4389494
  93.7278078  83.6238755  92.2566322  89.3433025  85.0622394  80.5434309
  89.0145732  84.1819773  80.3609415  89.6972396  85.0070063  81.4310698
  98.5912604  96.6977297  85.0529295  98.4437567  95.7694004  85.2336865
  99.4166098  96.7197388  84.5686370  92.4574849  85.3495364  80.9109787
  92.7970921  85.8781285  80.1888395  92.9046969  85.6875770  81.6868353
 102.1946726  97.5205856  86.1394167 103.1193274  97.3148717  86.0018618
 102.0262029  97.2722257  87.0483509  95.1518289  83.7332415  90.3612855
  94.8115110  82.9340228  90.7633535  94.4457296  84.0334126  89.7889688
  95.8034761  80.8181727  88.8140178  96.6260831  80.3442205  88.6919068
  96.0472825  81.5972211  89.3138864  94.4442996  83.8469986  79.1103079
  95.1651358  84.2251239  78.6066796  93.8208300  84.5658863  79.2138057
  98.5874119  84.5515135  80.0461412  98.8037733  85.4339773  79.7450240
  98.1068186  84.1601348  79.3167054  93.3273340  87.5100848  86.6232156
  93.1817921  87.8241151  87.5156438  92.8498544  88.1285748  86.0703055
  95.1869723  84.5003396  86.6713046  95.1731292  83.6044489  86.3345344
  95.9042151  84.5074060  87.3051332  97.0395854  84.9340736  88.7166173
  96.7813631  85.8557807  88.7150504  96.5080894  84.5371171  89.4066638
 101.9842042  98.0391523  81.4956259 102.1578920  97.4737946  80.7430111
 102.4770934  98.8392418  81.3135749  87.8019002  90.0506192  89.5619818
  87.2572470  90.8266000  89.6940092  88.6798352  90.3976997  89.4038939
  94.5906619  83.3817776  81.9400616  94.7122530  82.4534422  82.1391504
  94.3008661  83.3956462  81.0278932  97.4597809  81.0672687  85.0767336
  97.4819506  81.1312020  84.1219315  97.8765868  80.2277195  85.2707842
 107.8381434  90.8027946  83.1146559 108.2812580  90.0535271  82.7165682
 106.9607944  90.7938083  82.7320291 102.9717215  97.3558288  78.5953157
 103.6668119  97.9764980  78.8140472 103.3140365  96.5053639  78.8705535
  88.5885024  89.1776089  92.4549974  87.8466760  89.3258724  93.0414605
  88.2677768  89.4384354  91.5916724 104.8708638  94.8057993  80.1240488
 105.3959962  95.1445266  79.3989808 104.7830990  93.8705009  79.9403622
  96.5328687  98.7192067  92.2530364  96.8415813  98.4741214  93.1253064
  97.3304169  98.9238705  91.7649235  96.5549299 100.8729976  84.4835741
  96.1154289 100.3806355  85.1768598  97.3057416 100.3302944  84.2427816
  89.0341638  97.0641517  84.4860369  89.8599658  96.7645289  84.1059013
  88.6835690  96.2949140  84.9350158  94.0023171  96.4167986  86.5558043
  93.3803180  95.7538691  86.2560271  94.6728038  96.4429117  85.8731690
  87.2350243  94.9827844  85.4449303  86.3982151  94.5550018  85.2633304
  87.2073888  95.1760287  86.3820094  94.0747698  84.8949774  96.1490549
  94.1235854  85.7711896  95.7668318  94.6170213  84.3527167  95.5762192
 104.6800419  92.2883363  92.7424414 104.7298424  92.1233371  93.6839937
 104.5714342  91.4210622  92.3522295  93.5636678  94.9671909  80.0316503
  93.7124798  95.6507373  79.3783176  94.3703121  94.9476999  80.5465959
 101.9704181  88.2714291  94.0583721 102.8714044  88.1320756  93.7667719
 102.0452156  88.4368746  94.9981898  96.3046987  85.6481146  92.9036907
  95.4350296  85.9414712  92.6319496  96.5406467  86.2321591  93.6244171
 107.3814298  92.2733184  85.5069006 108.2161190  92.7122989  85.6706566
 107.5173427  91.7971838  84.6877252 104.4305804  89.8312919  91.4546494
 104.9059926  90.0240566  90.6465345 103.5071370  89.8872105  91.2089878
  91.3189311  90.9937087  81.0377572  91.0735353  90.0899417  81.2357782
  91.4885225  90.9954237  80.0957050  99.0086021  81.8660763  90.4202328
  99.5267964  82.6021790  90.0948816  98.6541153  82.1724756  91.2549087
  90.5884958  86.7265444  78.5363734  89.8954203  86.8009799  77.8803770
  90.3436710  85.9625788  79.0585251  99.2598615  78.2861045  85.9403224
  99.5400369  77.6184235  86.5663651 100.0449222  78.4790141  85.4277888
  97.0632083  97.4620039  77.5028251  96.4906050  98.0810226  77.0498723
  97.6364877  98.0119401  78.0368173 103.1307473  86.7078679  89.6874799
 104.0824896  86.8076777  89.7087023 102.9610924  85.9156948  90.1972884
 101.1521853  83.7934263  89.8734200 100.5571785  84.0739275  89.1780689
 100.8671549  84.2828164  90.6450941 100.2829343  97.7457189  78.6336833
 101.2160016  97.6802751  78.8369708 100.1952556  98.5813456  78.1751366
 102.9117360  97.0623060  75.5940780 102.8330991  96.7282923  76.4876538
 103.7327027  97.5544828  75.5932253 105.6095551  89.9284799  88.8017099
 105.5771871  88.9900800  88.9876783 106.2196175  90.0068836  88.0682924
  97.4478882  88.7980852  74.8444303  98.3937986  88.6687060  74.9132721
  97.0693127  88.0595514  75.3213731 105.7590039  86.7195843  88.8475382
 105.2429088  85.9354299  88.6605311 106.6429988  86.3914559  89.0121902
 103.4200766  80.4636858  84.8071195 103.2225587  80.1551946  85.6914527
 104.0300472  81.1898497  84.9369125 111.4272101  90.9900806  87.9423136
 112.1575489  90.7286094  88.5030839 110.8179046  90.2529528  87.9825204
 109.5087398  89.1308669  88.5397587 108.7820561  88.9964633  87.9314079
 109.0934685  89.4385497  89.3454305  95.6321799  86.7230828  74.7799188
  94.7253254  86.4263941  74.8561902  95.9097780  86.4260647  73.9133475
  86.5499739  88.0437192  85.2298235  86.2302524  87.1902500  84.9372609
  86.0033167  88.2585770  85.9856202  90.3279647  90.7599633  88.9467741
  90.5465657  91.6916741  88.9655775  90.7405421  90.4007607  89.7322545
  97.2483865  81.2667718  80.9343430  96.4384593  80.9214803  81.3098676
  97.9368282  80.9575262  81.5231041  99.1774413  80.3445765  82.5567726
  99.7305452  80.7641218  83.2157749  99.4144499  79.4181513  82.5990682
  95.2007512  86.3332839  98.3370490  95.1004239  87.2827196  98.2682581
  94.9829054  86.0051078  97.4646560  94.4020584  83.5817764  74.9211168
  95.2639748  83.9072662  75.1806985  94.5870928  82.7949260  74.4084233
  86.4187999  91.6640103  87.1991356  85.7251471  91.2494056  86.6861311
  87.1660990  91.7060640  86.6024775 102.5553220  82.4546290  82.0646391
 101.9751889  83.1131094  81.6824443 102.2889153  81.6323635  81.6533808
 101.0056786  81.8551348  84.2667711 101.5056565  81.9667882  83.4582030
 101.6492394  81.5512401  84.9068519  95.0638782  89.7629977  97.1535552
  94.5805864  90.5630338  97.3599441  95.1499721  89.7737922  96.2002996
  88.3324742  91.5958357  85.0757371  88.3095430  91.6946044  84.1239254
  88.6425378  92.4423508  85.3974537  90.9912120  93.6534512  89.1903986
  91.9455373  93.6218455  89.1233917  90.7924643  93.1925136  90.0054212
  91.5811502  92.2235628  91.7574783  92.4004391  92.7179707  91.7809621
  91.8548310  91.3067596  91.7292351 101.3378098  84.6146381  81.1202739
 100.4503953  84.8996031  80.9022934 101.7532087  84.4540144  80.2730016
 104.6892634  84.6392902  84.8357078 105.4653024  85.1289354  85.1081695
 103.9640768  85.0650956  85.2928948 107.1265193  85.3520521  85.8931019
 107.7209684  85.1116257  85.1824327 107.1991777  84.6327651  86.5204555
  89.3462349  99.1954132  86.2074184  89.2116816  98.4354533  85.6412182
  88.9294411  99.9195032  85.7402972 100.4821312  94.3791055  75.2150759
 101.1857162  94.5841058  75.8308414  99.7583960  94.9467817  75.4799842
 101.3119122  90.1300916  81.3353029 101.2554323  90.5869468  80.4960661
 101.8647464  89.3691601  81.1575872 105.1223928  85.9190648  82.1603148
 104.8660862  85.5187284  82.9911356 104.4976796  86.6334442  82.0353288
 109.4336266  88.6586722  84.6674440 108.8735824  88.7279911  85.4406002
 108.8279769  88.4827706  83.9473936  92.5031474 100.0923449  86.4192626
  92.3863859 101.0368881  86.3171316  91.6823921  99.7897010  86.8078425
 102.3908009  94.8173584  77.2649219 103.2253613  94.3854783  77.0826694
 102.2292352  94.6455598  78.1926113 102.0453901  91.3205698  78.6305558
 101.9902705  91.1549969  77.6894002 101.4199956  92.0281731  78.7867748
  86.8346416  86.5573762  92.4566980  87.4805280  86.0472716  92.9454206
  86.6263567  87.2942444  93.0310406  95.3550027  80.8213807  78.2090877
  95.3428696  81.7655647  78.3659147  96.2473448  80.6383952  77.9150338
  93.5285989 100.7451711  89.6348555  94.4313235 100.7775321  89.9515050
  93.3023359  99.8152162  89.6494890  95.2839591  99.4982697  86.2958633
  94.3335222  99.4984559  86.1823006  95.5872077  98.7515432  85.7794668
  99.1702146  77.4156583  82.4636813  98.4034542  76.8615070  82.6093496
  99.5812851  77.4878452  83.3250965  91.1743907  83.7041379  96.5541995
  92.0375369  83.3478184  96.7645319  90.6009318  83.3655274  97.2417399
 103.6868806 107.1406140  83.2862811 103.1233671 107.0496077  82.5179099
 103.5721201 106.3206045  83.7665304 103.1923992 107.8966245  78.9964411
 103.9654868 107.3495232  78.8577286 103.5449391 108.7610494  79.2078872
 105.5290270 104.0558911  76.6282860 105.7815790 103.5340432  75.8666323
 104.5914829 103.8925056  76.7309544 110.5733552 103.0594689  84.4357604
 111.3596642 102.6414113  84.0848021 110.8372257 103.9640782  84.6039252
 105.2486558 105.9587017  78.8307235 105.1322817 105.2831920  79.4988320
 105.3588818 105.4719391  78.0139388 107.5918099 105.4197164  82.5353925
 107.2276307 104.8927785  83.2466846 108.4485215 105.0295633  82.3620410
 107.2323586 100.4487064  77.5315273 107.3997989 101.3167300  77.8985744
 107.0420755 100.6114345  76.6076562 103.4411401 105.3617840  85.2317808
 102.5161897 105.2294054  85.4395500 103.6895814 106.1412059  85.7287750
 107.2112807 102.9044721  78.5161940 107.0912432 103.3501772  79.3547420
 106.5165396 103.2530039  77.9575478 100.8020212 105.0051113  86.0661597
 100.9312593 105.2585592  86.9801009 100.1217663 105.5978821  85.7466252
 112.9097873 103.3766194  79.3442274 113.8215729 103.6093581  79.1689972
 112.4007520 103.9603239  78.7817353 110.2533848  99.5524230  87.5932135
 109.3918327  99.8505484  87.8848872 110.2796283  99.7694629  86.6613168
 107.0695418 108.0966421  84.0005941 107.5333763 108.3754124  83.2110563
 106.8052216 107.1949866  83.8179031 106.0064304 104.2189573  80.8095506
 106.7088347 104.6710617  81.2769432 105.6744932 103.5773392  81.4375399
  99.7489638 102.4773126  86.1112639  98.9588692 102.7330655  85.6352750
 100.2400885 103.2921464  86.2164680 101.7004383 102.8417705  83.0696116
 100.9035546 102.9536400  83.5879612 101.4729975 103.1804357  82.2037006
  98.0327341 102.7303616  88.5427630  98.2835379 103.6150626  88.8085206
  98.5686889 102.5508218  87.7702722 100.6987466 108.5505954  81.4585536
 101.2111986 109.3449204  81.6091101 101.3510178 107.8532244  81.3919137
 110.5950532  94.5561078  89.4156504 110.2514801  95.4462720  89.3395615
 110.9629494  94.3662736  88.5526089  98.6636382 106.8794608  82.2345107
  99.5011604 107.2891617  82.0178814  98.8414650 105.9394050  82.2045300
 110.5600815 104.5469689  77.9228940 110.0447438 105.3174294  78.1617327
 110.2878123 103.8734825  78.5462001 108.1447926  99.3919390  82.9814178
 107.2889522  99.0026240  82.8019817 108.5574877  99.4711351  82.1213963
 109.6747072  96.9265733  87.3805738 109.1711868  96.8895868  86.5673543
 109.9677679  97.8358476  87.4402394 105.9189958  97.0104463  86.3871919
 106.7842955  96.8147271  86.0277809 105.9867467  96.7814815  87.3141276
 110.3487118 102.4196781  79.7488721 110.0437253 102.7342930  80.5998864
 111.3017560 102.4978201  79.7916054 103.5252277  99.2406671  83.7588286
 104.0996029  99.0181852  83.0261479 104.1123260  99.3095365  84.5116887
 103.8521864 101.2711132  77.7784171 103.0159177 101.6085818  78.0993446
 103.7126634 101.1360111  76.8411308 105.8274945  96.1147920  82.4863356
 105.1739357  95.7996937  81.8619970 105.7855419  95.4923660  83.2123179
 106.9386150 106.3967215  74.4016648 106.0313211 106.1656468  74.6007797
 107.4357182 105.6004834  74.5890629 109.8447733 104.0021269  81.9413683
 110.5919552 104.5142666  81.6320806 110.1139323 103.6805322  82.8018077
 108.1174383 106.4979810  78.9240638 107.2085602 106.2138842  79.0213108
 108.1469467 106.9178888  78.0643945 112.2926570 101.0378385  83.9232473
 111.5549327 100.5255771  84.2542715 112.5453344 100.5978767  83.1115750
 112.3938197  93.8154637  84.5174242 112.6997074  92.9552000  84.2300157
 113.1190802  94.4072257  84.3173236  98.6862554 104.2185324  82.9055840
  98.4886953 103.6254684  82.1806907  98.1309218 103.9137534  83.6231779
 106.6659277 104.1108430  85.0250433 106.7207887 103.1582267  84.9492910
 105.8550479 104.2667869  85.5091732 104.6051637 102.7285490  82.7840812
 103.7919503 103.0279660  83.1906004 105.1010631 102.3341179  83.5015294
 104.0965712 100.3003845  88.4002047 104.7365091 100.1592604  87.7025010
 103.2643242 100.0138359  88.0240649 101.1808779 103.7449358  80.5896792
 100.2506367 103.6833813  80.8066754 101.2766251 103.2225310  79.7933433
 101.0994328 100.2704170  83.1775034 101.3601146 101.1849504  83.0684194
 101.9211501  99.8028613  83.3271647 103.7260244 101.1158359  74.9782078
 102.8489711 100.9947160  74.6144325 104.2017998 100.3244437  74.7260967
  95.2462385 105.9035519  85.0723585  95.9333424 105.5897249  84.4844601
  95.0910513 106.8076884  84.7990837 100.0497107 100.7925715  89.5008609
  99.9655295 100.1851385  88.7659019  99.2279813 101.2834734  89.5018105
 110.2220821  99.2779279  84.8678804 110.7189520  98.5249241  84.5479874
 109.4507802  99.3143596  84.3022013 106.8055789 101.4196662  84.5950489
 106.4353577 100.8667702  85.2831394 107.3014882 100.8154795  84.0425489
 112.6639815  96.2448872  87.0158163 111.7502895  96.4753099  87.1840370
 113.0932917  96.3287317  87.8672195  94.8230361 103.9836112  87.3441053
  94.8614460 103.4499703  88.1378171  94.3170654 103.4571318  86.7252030
 102.2021123  98.8300653  90.8403595 102.2662450  99.6915484  90.4280993
 102.1388243  98.2174654  90.1075953  98.4538938 102.7100214  80.4194984
  98.7492379 101.8010893  80.3662038  97.5526974 102.6887954  80.0975986
 101.9833185 100.7856211  86.4022532 101.2619771 101.3992179  86.2630006
 102.7726441 101.3213976  86.3239178 100.1826780 100.3914312  80.5434309
  99.8539486  99.5111691  80.3609415 100.5366151 100.3361981  81.4310698
 103.2968603 100.6787282  80.9109787 103.6364676 101.2073203  80.1888395
 103.7440724 101.0167688  81.6868353 106.6428516  96.1473645  88.8140178
 107.4654585  95.6734123  88.6919068 106.8866579  96.9264129  89.3138864
 105.2836750  99.1761903  79.1103079 106.0045113  99.5543156  78.6066796
 104.6602054  99.8950780  79.2138057 109.4267873  99.8807052  80.0461412
 109.6431487 100.7631690  79.7450240 108.9461940  99.4893266  79.3167054
 104.1667094 102.8392766  86.6232156 104.0211675 103.1533069  87.5156438
 103.6892298 103.4577666  86.0703055 106.0263477  99.8295314  86.6713046
 106.0125046  98.9336407  86.3345344 106.7435905  99.8365977  87.3051332
 105.4300373  98.7109694  81.9400616 105.5516284  97.7826340  82.1391504
 105.1402416  98.7248380  81.0278932 108.2991564  96.3964604  85.0767336
 108.3213260  96.4603937  84.1219315 108.7159623  95.5569113  85.2707842
  99.8735392 112.3933435  84.4860369 100.6993412 112.0937207  84.1059013
  99.5229444 111.6241057  84.9350158  98.0743997 110.3119761  85.4449303
  97.2375906 109.8841936  85.2633304  98.0467643 110.5052205  86.3820094
 102.1583065 106.3229004  81.0377572 101.9129107 105.4191334  81.2357782
 102.3278980 106.3246155  80.0957050 101.4278713 102.0557362  78.5363734
 100.7347958 102.1301717  77.8803770 101.1830465 101.2917705  79.0585251
 110.0992369  93.6152963  85.9403224 110.3794123  92.9476152  86.5663651
 110.8842976  93.8082059  85.4277888 108.2872636 104.1272770  74.8444303
 109.2331741 103.9978978  74.9132721 107.9086881 103.3887432  75.3213731
 114.2594521  95.7928776  84.8071195 114.0619342  95.4843864  85.6914527
 114.8694226  96.5190415  84.9369125 106.4715553 102.0522746  74.7799188
 105.5647009 101.7555859  74.8561902 106.7491534 101.7552564  73.9133475
  97.3893494 103.3729110  85.2298235  97.0696278 102.5194418  84.9372609
  96.8426922 103.5877688  85.9856202 108.0877619  96.5959636  80.9343430
 107.2778347  96.2506721  81.3098676 108.7762036  96.2867180  81.5231041
 110.0168167  95.6737683  82.5567726 110.5699206  96.0933136  83.2157749
 110.2538254  94.7473431  82.5990682 105.2414338  98.9109681  74.9211168
 106.1033502  99.2364580  75.1806985 105.4264682  98.1241177  74.4084233
  97.2581754 106.9932021  87.1991356  96.5645225 106.5785974  86.6861311
  98.0054745 107.0352558  86.6024775 113.3946975  97.7838208  82.0646391
 112.8145644  98.4423012  81.6824443 113.1282907  96.9615552  81.6533808
 111.8450541  97.1843266  84.2667711 112.3450319  97.2959800  83.4582030
 112.4886149  96.8804318  84.9068519  99.1718496 106.9250275  85.0757371
  99.1489184 107.0237962  84.1239254  99.4819133 107.7715426  85.3974537
 112.1771853  99.9438298  81.1202739 111.2897708 100.2287949  80.9022934
 112.5925842  99.7832062  80.2730016 115.9617682 101.2482566  82.1603148
 115.7054616 100.8479202  82.9911356 115.3370550 101.9626360  82.0353288
 106.1943781  96.1505724  78.2090877 106.1822451  97.0947564  78.3659147
 107.0867203  95.9675870  77.9150338 110.0095901  92.7448501  82.4636813
 109.2428296  92.1906988  82.6093496 110.4206605  92.8170370  83.3250965
  38.6506280  -7.8283243  70.0108118  38.0871145  -7.9193306  69.2424406
  38.5358675  -8.6483339  70.4910610  36.1970712  -6.3332052  72.8492338
  36.9892004  -6.6741227  72.4338638  36.4367362  -6.2237077  73.7694492
  44.2305839  -4.1612276  65.3222583  43.5793819  -3.5758195  64.9356597
  45.0250202  -3.6306081  65.3817620  38.1561466  -7.0723139  65.7209717
  38.9292342  -7.6194151  65.5822593  38.5086865  -6.2078889  65.9324179
  39.9946509  -5.7446756  78.9276616  39.7036375  -4.8401125  78.8123283
  40.6303493  -5.7030229  79.6420686  40.9202716  -8.3669908  75.5177976
  41.5166288  -8.5913885  74.8034939  40.9777687  -9.1085162  76.1203424
  45.7081104  -6.4721844  65.8591567  45.0726937  -6.3987217  66.5712472
  45.3778511  -5.8828245  65.1810646  40.2124033  -9.0102366  65.5552542
  40.0960291  -9.6857463  66.2233626  40.3226293  -9.4969993  64.7384695
  44.9536394  -6.0585341  75.9226410  44.6537117  -5.1560302  75.8142217
  44.6087453  -6.3253158  76.7747563  39.9357174   0.7058980  68.8897378
  39.8581203   1.6566805  68.9685858  39.3318817   0.3604852  69.5472304
  40.6820776  -9.3127702  81.1076712  41.4235460  -8.7742658  80.8311535
  39.9757761  -8.6861413  81.2648264  46.4804930  -6.6097371  73.4601162
  45.8513792  -6.4451656  72.7577230  46.0930592  -6.1955761  74.2312126
  50.3594162  -5.6742933  70.8145526  49.6745200  -5.2944031  70.2642559
  50.4438011  -5.0647606  71.5477474  42.0332892  -6.8722962  70.7251247
  42.4971237  -6.5935259  69.9355870  41.7689690  -7.7739518  70.5424338
  38.9256973  -7.3251481  73.6631010  39.4958330  -6.8964213  73.0248495
  39.5165085  -7.6068896  74.3615196  48.7290921  -5.1511018  75.5863227
  49.5508365  -5.5530831  75.3045908  48.7253324  -5.2542784  76.5379343
  42.4947525  -5.6026975  77.7423937  42.5591957  -5.1406568  78.5782109
  41.7858449  -6.2329610  77.8706247  42.2095543  -3.9358867  67.6102918
  42.0741217  -3.0907332  68.0387765  42.7505355  -3.7339590  66.8468851
  35.6624940  -6.4183429  68.1830843  36.1749460  -5.6240179  68.3336407
  36.3147653  -7.1157139  68.1164444  37.4719825  -3.3017673  70.2653596
  37.6486453  -2.3799708  70.0774580  38.2676658  -3.6159254  70.6947976
  43.8364019  -3.3135301  81.7403260  43.3927873  -4.0998922  81.4224164
  44.4981232  -3.1256150  81.0747150  38.5951140  -1.7839499  76.2663938
  39.1458565  -1.9122436  75.4940932  37.7562616  -1.4844610  75.9158831
  45.9345257  -3.0332501  79.7684661  45.9163732  -2.2123620  79.2764930
  46.8565177  -3.1578426  79.9934802  42.3918311  -5.5188372  80.6108169
  42.9246648  -6.2800083  80.3807477  41.8632392  -5.8114720  81.3532324
  43.7571024  -6.3902379  68.1226981  43.2292385  -7.1249620  67.8100219
  43.2558527  -5.6127703  67.8766950  44.8091703   0.1375338  64.0458640
  44.1353402   0.4407035  64.6543598  45.1957525   0.9404419  63.6964098
  43.0811857  -8.4709574  65.6485944  42.1723077  -8.7550541  65.7458414
  43.1106941  -8.0510495  64.7889251  48.3131125  -4.8602984  69.4177112
  47.8593452  -5.7012075  69.4742302  47.6825092  -4.2241586  69.7551892
  46.7564064  -3.0226488  70.3526930  47.0487038  -2.4621431  69.6339296
  47.2662685  -2.7297927  71.1080089  42.7787945  -6.9300830  62.9874023
  42.3407375  -7.6464971  62.5279660  43.5198386  -6.7024715  62.4259114
  41.7197689  -2.2446137  71.4420383  41.6773868  -2.0185290  70.5128915
  42.6360388  -2.4782762  71.5906184  39.8363490  -5.3683108  71.2382346
  40.6304089  -5.8632788  71.0364921  39.1255182  -5.8965245  70.8750052
  44.6558335  -2.9865012  75.5894714  44.7095357  -2.4174076  76.3572430
  43.7873116  -2.8163127  75.2248751  46.8461098  -6.3936663  82.1635379
  46.6946604  -6.6226111  81.2465463  46.8365777  -5.4366061  82.1766724
  42.4134766  -4.7954086  74.9180183  42.2745852  -5.1635301  75.7906121
  41.6249362  -4.2806446  74.7464141  43.0082918   0.3055011  66.2605720
  43.1834674  -0.1656946  67.0751342  42.3215706   0.9320777  66.4886980
  43.9639981  -5.4172483  72.3069021  43.6289814  -5.4571713  73.2026671
  43.4643927  -6.0827767  71.8339431  48.5553305  -3.3617540  80.2411861
  48.4965851  -4.0458320  79.5742444  48.9572823  -2.6198550  79.7892487
  37.5744003   3.4544374  73.0345580  37.8140602   4.0862898  73.7124598
  36.7313200   3.1032414  73.3210939  48.5570712  -5.3977956  78.4725841
  47.6697491  -5.7352035  78.5952239  49.1269263  -6.1294925  78.7094606
  42.0871865  -0.7376504  75.4387084  42.0142037   0.0678468  75.9506388
  41.6449258  -0.5384538  74.6135105  41.8761645  -1.5004734  68.9489905
  41.0929167  -0.9583054  69.0428130  42.5754390  -0.9830754  69.3484147
  44.5470549  -0.8389670  77.5945242  45.2598521  -0.2042205  77.5221144
  44.0560577  -0.7425804  76.7785244  39.5982462  -3.0895226  78.4150813
  40.2991922  -2.4558744  78.5680208  39.1277577  -2.7480495  77.6546453
  47.7236858  -4.7477277  66.6998720  47.9996702  -4.8620682  67.6092594
  46.8541357  -5.1459792  66.6610893  44.3590922  -0.4990926  70.3431534
  44.5413317  -1.3169270  70.8059286  45.1823908  -0.2823234  69.9056424
  44.6933088  -1.5722741  67.6046582  45.2220854  -2.0830286  66.9916745
  44.9561307  -1.8880211  68.4692115  35.1950180  -3.5558871  75.3481916
  35.7803617  -4.3015184  75.4809820  34.9975019  -3.2454915  76.2318580
  38.0488836  -0.5207624  70.3644358  37.3799211  -0.0361496  69.8808398
  37.9101705  -0.2738404  71.2787737  42.1894104   1.5136119  76.9627017
  42.7412412   1.6767741  77.7276102  42.5300298   2.1040557  76.2907042
  47.0404978  -3.6602623  82.8175671  47.5844882  -3.0472665  82.3230626
  46.4591823  -3.1023045  83.3342684  45.3262491  -0.5381905  73.9490699
  45.2013631  -1.3392165  73.4401644  45.9841583  -0.0435712  73.4604669
  47.3897400  -2.7372885  75.5770249  46.4427735  -2.8567534  75.5048576
  47.7380173  -3.6250387  75.6596510  44.3943833  -2.9420169  71.7774601
  44.2468796  -3.8703461  71.9582171  45.2197327  -2.9200078  71.2931676
  47.9977955  -2.1191610  72.8639474  48.9224502  -2.3248749  72.7263925
  47.8293258  -2.3675209  73.7728815  47.7873271  -1.6005943  68.2201565
  47.9610149  -2.1659520  67.4675418  48.2802162  -0.8005048  68.0381055
  48.7748444  -2.2839178  65.3198464  49.4699348  -1.6632485  65.5385778
  49.1171594  -3.1343827  65.5950842  50.6739867  -4.8339473  66.8485794
  51.1991191  -4.4952200  66.1235114  50.5862219  -5.7692457  66.6648929
  42.3359915  -0.9205399  78.9775671  42.6447042  -1.1656252  79.8498371
  43.1335397  -0.7158760  78.4894541  42.3580527   1.2332511  71.2081048
  41.9185518   0.7408889  71.9013904  43.1088644   0.6905478  70.9673123
  34.8372866  -2.5755948  71.2105676  35.6630886  -2.8752177  70.8304319
  34.4866918  -3.3448326  71.6595464  39.8054400  -3.2229480  73.2803349
  39.1834409  -3.8858775  72.9805577  40.4759267  -3.1968348  72.5976997
  50.3633773  -4.2006569  82.1536992  49.5729317  -4.2182430  81.6141492
  50.1267127  -3.6618275  82.9086029  39.3667907  -4.6725557  66.7561810
  39.5156027  -3.9890093  66.1028483  40.1734350  -4.6920467  67.2711266
  51.9849845  -4.9317161  79.7111742  51.6934653  -4.5687181  80.5475203
  51.3721976  -5.6450153  79.5325075  42.8663312  -2.1777426  64.2273557
  42.2937279  -1.5587239  63.7744029  43.4396106  -1.6278065  64.7613479
  46.0860572  -1.8940276  65.3582140  47.0191245  -1.9594715  65.5615015
  45.9983785  -1.0584009  64.8996672  48.7148589  -2.5774406  62.3186087
  48.6362220  -2.9114542  63.2121845  49.5358255  -2.0852638  62.3177559
  43.1348803  -6.7898868  83.0290267  44.0551813  -6.6120269  83.2230313
  43.0998386  -7.7342822  82.8769966  36.7943349  -5.9862954  75.9149292
  37.7486602  -6.0179011  75.8479224  36.5955872  -6.4472330  76.7299518
  37.3842731  -7.4161838  78.4820090  38.2035620  -6.9217759  78.5054927
  37.6579538  -8.3329869  78.4537657  35.1493577  -0.4443334  72.9319490
  35.0148045  -1.2042933  72.3657488  34.7325640   0.2797566  72.4648279
  46.2852540  -5.2606411  61.9396065  46.9888390  -5.0556408  62.5553721
  45.5615189  -4.6929649  62.2045149  38.3062703   0.4525983  73.1437933
  38.1895087   1.3971415  73.0416623  37.4855149   0.1499544  73.5323732
  48.1939238  -4.8223881  63.9894525  49.0284842  -5.2542683  63.8072000
  48.0323581  -4.9941868  64.9171420  45.1631037  -6.0142856  84.6804428
  46.0322197  -5.8402204  84.3191062  44.6837789  -5.1948439  84.5580157
  39.3317217   1.1054245  76.3593861  40.2344464   1.1377855  76.6760356
  39.1054587   0.1754696  76.3740197  41.0870819  -0.1414769  73.0203940
  40.1366450  -0.1412907  72.9068312  41.3903305  -0.8882034  72.5039974
  56.8223513   5.6945770  74.0849702  57.4601923   5.5752517  73.3813042
  56.7044356   6.6426614  74.1437654  53.6313219   5.6473198  74.0211227
  53.2931731   5.5314263  73.1331762  54.5002987   5.2464363  74.0012233
  49.4900035   7.5008674  70.0108118  48.9264900   7.4098611  69.2424406
  49.3752430   6.6808579  70.4910610  54.1133002   6.8008050  79.9797432
  54.1021643   6.4060848  79.1077936  54.2753642   6.0674122  80.5731204
  47.0364467   8.9959866  72.8492338  47.8285759   8.6550691  72.4338638
  47.2761117   9.1054841  73.7694492  55.0699594  11.1679642  65.3222583
  54.4187573  11.7533722  64.9356597  55.8643956  11.6985837  65.3817620
  48.9955221   8.2568779  65.7209717  49.7686097   7.7097766  65.5822593
  49.3480620   9.1213028  65.9324179  50.8340263   9.5845161  78.9276616
  50.5430129  10.4890792  78.8123283  51.4697248   9.6261689  79.6420686
  51.7596470   6.9622010  75.5177976  52.3560042   6.7378032  74.8034939
  51.8171442   6.2206755  76.1203424  51.3321498   4.4161445  63.3528167
  51.5847019   3.8942967  62.5911630  50.3946058   4.2527591  63.4554851
  56.3764781   3.4197224  71.1602910  57.1627871   3.0016647  70.8093327
  56.6403486   4.3243316  71.3284559  56.5474859   8.8570074  65.8591567
  55.9120692   8.9304700  66.5712472  56.2172265   9.4463673  65.1810646
  61.7773208   3.3572457  72.0635889  62.5098380   2.7871674  72.2973718
  61.0212564   2.9694057  72.5042394  51.0517787   6.3189551  65.5552542
  50.9354045   5.6434455  66.2233626  51.1620047   5.8321925  64.7384695
  53.3949328   5.7799698  69.2599231  53.0307535   5.2530319  69.9712153
  54.2516444   5.3898167  69.0865717  59.2998629  -2.9305969  76.5230497
  58.9681954  -2.0610558  76.2991712  58.7044242  -3.2469685  77.2024528
  53.0354815   0.8089598  64.2560580  53.2029217   1.6769834  64.6231051
  52.8451984   0.9716880  63.3321869  55.7930148   9.2706577  75.9226410
  55.4930871  10.1731616  75.8142217  55.4481208   9.0038760  76.7747563
  49.2442630   5.7220374  71.9563115  48.3193126   5.5896588  72.1640806
  49.4927043   6.5014593  72.4533057  59.1927292   1.7889117  73.6023847
  58.2844169   1.7204526  73.3082608  59.1414888   2.2661062  74.4305673
  53.0144036   3.2647255  65.2407247  52.8943661   3.7104306  66.0792727
  52.3196624   3.6132573  64.6820785  46.6051441   5.3653647  72.7906904
  46.7343822   5.6188126  73.7046315  45.9248892   5.9581355  72.4711559
  50.7750928  16.0350897  68.8897378  50.6974958  16.9858722  68.9685858
  50.1712572  15.6896770  69.5472304  53.2668158   3.2078763  81.5458745
  52.4901492   3.7672683  81.5361609  53.9058721   3.6935546  82.0673615
  61.0588939  -0.0094445  75.3801721  60.4163319   0.2838089  74.7341516
  60.5543867  -0.1241524  76.1854918  58.7129102   3.7368729  66.0687581
  59.6246958   3.9696115  65.8935278  58.2038749   4.3205773  65.5062659
  51.5214530   6.0164216  81.1076712  52.2629215   6.5549260  80.8311535
  50.8151516   6.6430505  81.2648264  56.9969870   8.1593356  79.7048873
  57.4053226   7.7175767  78.9603506  56.2747131   7.5845984  79.9583066
  53.3500940   3.0965963  77.0782430  54.1962135   3.5205377  77.2217079
  53.2899578   2.4399588  77.7720993  57.3198684   8.7194547  73.4601162
  56.6907547   8.8840261  72.7577230  56.9324347   9.1336157  74.2312126
  61.1987916   9.6548985  70.8145526  60.5138955  10.0347886  70.2642559
  61.2831766  10.2644312  71.5477474  56.5000385   0.7570332  78.7363604
  56.2561317   1.5112392  78.1997879  56.7760316   1.1355679  79.5710851
  58.4538848   7.3008944  77.4140869  58.6655743   7.9440704  76.7375250
  58.4068596   6.4671261  76.9462799  56.0565077  -0.0873235  74.3177442
  55.1949556   0.2108018  74.6094179  56.0827512   0.1297164  73.3858474
  52.8726646   8.4568955  70.7251247  53.3364992   8.7356658  69.9355870
  52.6083444   7.5552400  70.5424338  49.7650727   8.0040437  73.6631010
  50.3352084   8.4327705  73.0248495  50.3558839   7.7223021  74.3615196
  51.8095532   4.5792108  67.5340812  52.5119576   5.0313151  68.0014739
  51.4776161   3.9375926  68.1620705  50.2575894   3.1703864  81.9092022
  49.6274555   3.8520145  82.1427419  50.1511982   3.0586946  80.9645160
  45.5520866   2.8375660  72.8357946  44.7619920   3.0933189  72.3598057
  46.0432114   3.6523998  72.9409986  59.5684676  10.1780899  75.5863227
  60.3902120   9.7761087  75.3045908  59.5647079  10.0749134  76.5379343
  47.5035612   3.2020239  69.7941423  46.7066775   3.3138934  70.3124918
  47.2761204   3.5406892  68.9282313  53.3341279   9.7264943  77.7423937
  53.3985712  10.1885350  78.5782109  52.6252203   9.0962308  77.8706247
  43.8358569   3.0906151  75.2672937  44.0866608   3.9753161  75.5330513
  44.3718118   2.9110752  74.4948029  67.6590669   6.5219648  71.9348198
  66.9054377   5.9527046  71.7792203  67.7938210   6.4882312  72.8818833
  53.0489297  11.3933050  67.6102918  52.9134972  12.2384586  68.0387765
  53.5899110  11.5952328  66.8468851  49.5356637  -2.5275370  84.2717273
  49.1423582  -3.0809171  84.9464917  50.3522777  -2.2164791  84.6623790
  46.5018694   8.9108488  68.1830843  47.0143215   9.7051738  68.3336407
  47.1541407   8.2134779  68.1164444  48.3113579  12.0274245  70.2653596
  48.4880207  12.9492209  70.0774580  49.1070413  11.7132664  70.6947976
  52.4524598  -1.1117491  81.8637529  53.1934311  -0.5110338  81.7841992
  52.6842520  -1.8539853  81.3055572  47.5965936   4.0738876  80.1415759
  47.4819451   3.1724134  80.4422858  46.7410453   4.3202573  79.7900576
  54.6757773  12.0156617  81.7403260  54.2321628  11.2292995  81.4224164
  55.3374987  12.2035767  81.0747150  49.4344895  13.5452418  76.2663938
  49.9852320  13.4169482  75.4940932  48.5956370  13.8447307  75.9158831
  56.7739011  12.2959417  79.7684661  56.7557487  13.1168298  79.2764930
  57.6958932  12.1713492  79.9934802  53.2312066   9.8103546  80.6108169
  53.7640402   9.0491834  80.3807477  52.7026147   9.5177198  81.3532324
  44.4667611   7.2397143  68.9590413  45.3042833   7.6494151  68.7424121
  44.6445879   6.2996585  68.9290607  56.3632043   4.9072223  64.6474246
  55.8478667   5.6776828  64.8862634  56.0909352   4.2337359  65.2707308
  53.9479154  -0.2478076  69.7059485  53.0920751  -0.6371226  69.5265123
  54.3606106  -0.1686115  68.8459270  55.4778301  -2.7131733  74.1051044
  54.9743097  -2.7501598  73.2918850  55.7708908  -1.8038990  74.1647701
  51.7221187  -2.6293003  73.1117226  52.5874184  -2.8250194  72.7523115
  51.7898696  -2.8582651  74.0386583  61.3366317   7.6604578  66.5827420
  60.5595760   7.3215737  66.1382582  62.0157798   7.6657201  65.9082385
  56.1518346   2.7799315  66.4734027  55.8468482   3.0945464  67.3244171
  57.1048789   2.8580735  66.5161360  54.5964778   8.9389539  68.1226981
  54.0686140   8.2042298  67.8100219  54.0952281   9.7164215  67.8766950
  59.5757624   7.1338559  73.2394028  58.9181299   7.8237820  73.3274156
  60.3798024   7.5234991  73.5828014  49.3283506  -0.3990795  70.4833593
  49.9027258  -0.6215614  69.7506786  49.9154488  -0.3302101  71.2362194
  58.3863083   5.4882932  71.2897969  58.8994965   6.1212924  71.7919679
  59.0364307   4.8884127  70.9241329  49.6553093   1.6313666  64.5029478
  48.8190405   1.9688352  64.8238753  49.5157863   1.4962646  63.5656615
  51.6306174  -3.5249546  69.2108662  50.9770586  -3.8400529  68.5865277
  51.5886648  -4.1473806  69.9368485  52.7417379   6.7569749  61.1261954
  51.8344440   6.5259002  61.3253103  53.2388410   5.9607368  61.3135936
  55.6485457  15.4667256  64.0458640  54.9747156  15.7698953  64.6543598
  56.0351279  16.2696336  63.6964098  54.8643914   2.9632387  73.5356310
  53.9466475   3.1847334  73.3777998  55.2804058   3.0378698  72.6768017
  55.6478962   4.3623803  68.6658990  56.3950781   4.8745200  68.3566112
  55.9170551   4.0407856  69.5263384  53.9205612   6.8582344  65.6485944
  53.0116831   6.5741377  65.7458414  53.9500696   7.2781422  64.7889251
  59.1524879  10.4688933  69.4177112  58.6987206   9.6279843  69.4742302
  58.5218846  11.1050332  69.7551892  58.0957799   1.3980919  70.6477779
  57.3580556   0.8858305  70.9788022  58.3484572   0.9581301  69.8361056
  57.5957819  12.3065430  70.3526930  57.8880793  12.8670487  69.6339296
  58.1056439  12.5993991  71.1080089  44.4893782   4.5787858  69.6301147
  44.2918182   3.9857219  68.9052213  43.9340446   4.2740068  70.3477085
  52.4690506   4.4710964  71.7495740  52.5239116   3.5184801  71.6738216
  51.6581708   4.6270403  72.2337038  53.6181700   8.3991087  62.9874023
  53.1801130   7.6826946  62.5279660  54.3592141   8.6267202  62.4259114
  50.4082866   3.0888024  69.5086119  49.5950731   3.3882195  69.9151311
  50.9041860   2.6943713  70.2260601  52.5591444  13.0845781  71.4420383
  52.5167623  13.3106627  70.5128915  53.4754143  12.8509156  71.5906184
  56.0057078   3.5529849  78.3401013  56.3606465   3.7801322  79.1995478
  56.6529209   3.8848225  77.7178268  61.7354815   6.6748284  69.0450342
  61.5972713   6.8649880  68.1171531  61.3791033   7.4367667  69.5018393
  49.8996941   0.6606380  75.1247354  50.5396320   0.5195139  74.4270317
  49.0674471   0.3740893  74.7485956  61.7624194   8.7424811  74.0561613
  62.1960701   8.6500101  74.9044667  62.4755775   8.7182312  73.4181629
  50.6757245   9.9608810  71.2382346  51.4697843   9.4659130  71.0364921
  49.9648937   9.4326673  70.8750052  55.4952089  12.3426906  75.5894714
  55.5489111  12.9117842  76.3572430  54.6266870  12.5128791  75.2248751
  46.9840008   4.1051892  67.3142099  46.0537596   4.0436347  67.5312061
  47.0797480   3.5827845  66.5178740  46.9025557   0.6306705  69.9020340
  47.1632374   1.5452038  69.7929501  47.7242729   0.1631147  70.0516953
  48.3750482   2.0444462  77.0719165  49.0473536   1.8361824  76.4231814
  47.5480269   1.8466548  76.6324397  62.6239744   8.7848512  76.5894498
  62.8175634   9.6894323  76.8353773  62.5240362   8.3255931  77.4233083
  54.2776054  -1.3293597  79.0884826  53.6303969  -0.6303648  78.9949302
  55.0477070  -0.8957453  79.4561074  57.6854852   8.9355255  82.1635379
  57.5340359   8.7065807  81.2465463  57.6759532   9.8925856  82.1766724
  54.4540189   6.5087168  77.1481646  55.3832249   6.6598327  76.9750613
  54.0331219   6.5971188  76.2930292  53.2528521  10.5337832  74.9180183
  53.1139606  10.1656616  75.7906121  52.4643117  11.0485471  74.7464141
  53.8476673  15.6346928  66.2605720  54.0228428  15.1634972  67.0751342
  53.1609461  16.2612695  66.4886980  54.8033736   9.9119435  72.3069021
  54.4683568   9.8720205  73.2026671  54.3037681   9.2464151  71.8339431
  48.7777980   5.3187065  77.8321602  48.6397778   4.5867304  78.4333141
  49.6882903   5.2295965  77.5505790  57.7392927   7.2575469  62.5806081
  57.1222098   6.5322297  62.4839133  57.2709416   8.0184829  62.2373155
  51.4060280   5.0307024  77.3205282  52.1159899   4.3900216  77.2791900
  51.3629589   5.2819919  78.2431463  59.3947059  11.9674377  80.2411861
  59.3359605  11.2833598  79.5742444  59.7966577  12.7093367  79.7892487
  50.1189214   2.0172242  79.1400921  49.5826571   1.5662980  79.7922518
  49.5305923   2.1518151  78.3971386  48.4137758  18.7836291  73.0345580
  48.6534356  19.4154815  73.7124598  47.5706954  18.4324331  73.3210939
  49.5291473   1.4760893  61.7027385  48.6520940   1.3549694  61.3389632
  50.0049226   0.6846972  61.4506274  59.3964466   9.9313961  78.4725841
  58.5091245   9.5939883  78.5952239  59.9663017   9.1996993  78.7094606
  41.0493613   6.2638053  71.7968892  41.7364653   5.9499783  71.2089907
  40.8941742   7.1679418  71.5236143  45.8528336   1.1528250  76.2253916
  45.7686524   0.5453919  75.4904326  45.0311042   1.6437268  76.2263412
  52.9265620  14.5915414  75.4387084  52.8535791  15.3970385  75.9506388
  52.4843013  14.7907380  74.6135105  52.7155399  13.8287184  68.9489905
  51.9322921  14.3708864  69.0428130  53.4148144  14.3461163  69.3484147
  56.0252049  -0.3618187  71.5924111  56.5220749  -1.1148225  71.2725181
  55.2539031  -0.3253870  71.0267320  63.8781807   5.3422179  73.2342402
  63.8671683   6.2246894  72.8636335  63.0099186   4.9893730  73.0396939
  55.3864303  14.4902248  77.5945242  56.0992275  15.1249713  77.5221144
  54.8954332  14.5866114  76.7785244  57.1081830   8.3953500  69.1662534
  56.1738109   8.5154963  68.9967238  57.2858499   7.4925967  68.9022544
  52.6087018   1.7799196  71.3195795  52.2384806   1.2270237  72.0076701
  53.1046111   1.1757330  70.7670795  60.4954381   4.2370820  69.7012568
  60.9614834   5.0698811  69.6272871  60.9461882   3.7715801  70.4057827
  50.4376217  12.2396691  78.4150813  51.1385676  12.8733174  78.5680208
  49.9671332  12.5811423  77.6546453  58.5630613  10.5814641  66.6998720
  58.8390456  10.4671236  67.6092594  57.6935111  10.1832126  66.6610893
  58.2377503   4.7941299  76.2403364  57.5848953   5.0417206  75.5855816
  58.6157883   3.9805437  75.9065841  55.1984677  14.8300992  70.3431534
  55.3807071  14.0122648  70.8059286  56.0217663  15.0468684  69.9056424
  55.5326842  13.7569177  67.6046582  56.0614609  13.2461632  66.9916745
  55.7955062  13.4411707  68.4692115  54.2865076   5.5361110  82.7269401
  53.6105713   5.4355239  83.3971776  55.1092710   5.3800323  83.1905398
  46.0343935  11.7733046  75.3481916  46.6197372  11.0276734  75.4809820
  45.8368773  12.0837003  76.2318580  48.8882590  14.8084294  70.3644358
  48.2192965  15.2930421  69.8808398  48.7495460  15.0553514  71.2787737
  40.6261590   4.3438646  74.0686359  40.6645689   3.8102237  74.8623477
  40.1201882   3.8173852  73.4497336  53.0287859  16.8428037  76.9627017
  53.5806167  17.0059659  77.7276102  53.3694052  17.4332475  76.2907042
  48.0052352  -0.8096813  77.5648901  48.0693678   0.0518018  77.1526299
  47.9419472  -1.4222811  76.8321260  47.4804624   1.2626319  81.2121936
  48.1076663   0.8803397  81.8259460  46.6232543   1.0440521  81.5777628
  57.8798733  11.6689295  82.8175671  58.4238637  12.2819253  82.3230626
  57.2985578  12.2268873  83.3342684  44.2570167   3.0702749  67.1440291
  44.5523608   2.1613427  67.0907344  43.3558203   3.0490488  66.8221293
  56.1656246  14.7910013  73.9490699  56.0407385  13.9899753  73.4401644
  56.8235337  15.2856206  73.4604669  47.7864414   1.1458745  73.1267839
  47.0651000   1.7594713  72.9875312  48.5757670   1.6816510  73.0484485
  58.2291154  12.5919033  75.5770249  57.2821490  12.4724384  75.5048576
  58.5773927  11.7041531  75.6596510  50.5890728  -1.5186828  79.4008491
  51.1125129  -1.2724532  80.1634800  50.3703061  -0.6866794  78.9811628
  45.9858009   0.7516846  67.2679616  45.6570715  -0.1285775  67.0854722
  46.3397379   0.6964515  68.1556005  55.2337588  12.3871749  71.7774601
  55.0862550  11.4588456  71.9582171  56.0591081  12.4091840  71.2931676
  49.0999832   1.0389816  67.6355093  49.4395904   1.5675737  66.9133702
  49.5471952   1.3770222  68.4113660  58.8371709  13.2100308  72.8639474
  59.7618257  13.0043169  72.7263925  58.6687013  12.9616709  73.7728815
  51.7943273  -0.5773133  77.0858161  51.4540093  -1.3765320  77.4878841
  51.0882279  -0.2771422  76.5134995  52.4459745  -3.4923821  75.5385484
  53.2685814  -3.9663343  75.4164375  52.6897808  -2.7133337  76.0384171
  51.0867979  -0.4635562  65.8348386  51.8076342  -0.0854310  65.3312103
  50.4633283   0.2553314  65.9383364  55.2299102   0.2409587  66.7706718
  55.4462716   1.1234224  66.4695547  54.7493169  -0.1504200  66.0412360
  49.9698323   3.1995300  73.3477463  49.8242904   3.5135603  74.2401745
  49.4923527   3.8180200  72.7948362  51.8294706   0.1897848  73.3958353
  51.8156275  -0.7061059  73.0590651  52.5467134   0.1968512  74.0296639
  53.6820837   0.6235188  75.4411480  53.4238615   1.5452259  75.4395810
  53.1505877   0.2265623  76.1311944  58.6267026  13.7285975  68.2201565
  58.8003903  13.1632398  67.4675418  59.1195917  14.5286870  68.0381055
  44.4443985   5.7400644  76.2865124  43.8997454   6.5160452  76.4185399
  45.3223335   6.0871449  76.1284246  51.2331602  -0.9287772  68.6645923
  51.3547513  -1.8571126  68.8636810  50.9433644  -0.9149086  67.7524238
  54.1022792  -3.2432861  71.8012643  54.1244489  -3.1793528  70.8464622
  54.5190851  -4.0828353  71.9953149  64.4806417   6.4922398  69.8391865
  64.9237563   5.7429723  69.4410988  63.6032927   6.4832534  69.4565597
  59.6142198  13.0452740  65.3198464  60.3093103  13.6659432  65.5385778
  59.9565348  12.1948091  65.5950842  45.2310007   4.8670540  79.1795281
  44.4891743   5.0153176  79.7659912  44.9102752   5.1278806  78.3162030
  61.5133621  10.4952445  66.8485794  62.0384945  10.8339718  66.1235114
  61.4255974   9.5599460  66.6648929  53.1753670  14.4086519  78.9775671
  53.4840796  14.1635665  79.8498371  53.9729152  14.6133157  78.4894541
  53.1974282  16.5624428  71.2081048  52.7579272  16.0700807  71.9013904
  53.9482399  16.0197396  70.9673123  45.6766621  12.7535969  71.2105676
  46.5024641  12.4539741  70.8304319  45.3260673  11.9843592  71.6595464
  50.6448154  12.1062437  73.2803349  50.0228163  11.4433142  72.9805577
  51.3153021  12.1323569  72.5976997  43.8775226  10.6722296  72.1694609
  43.0407134  10.2444470  71.9878611  43.8498871  10.8654739  73.1065401
  50.7172682   0.5844225  82.8735855  50.7660837   1.4606348  82.4913625
  51.2595196   0.0421619  82.3007499  61.2027527  11.1285349  82.1536992
  60.4123071  11.1109488  81.6141492  60.9660882  11.6673642  82.9086029
  61.3225402   7.9777815  79.4669721  61.3723407   7.8127823  80.4085244
  61.2139326   7.1105074  79.0767602  50.2061661  10.6566361  66.7561810
  50.3549781  11.3401825  66.1028483  51.0128105  10.6371451  67.2711266
  58.6129165   3.9608743  80.7829028  59.5139027   3.8215208  80.4913025
  58.6877139   4.1263198  81.7227205  52.9471970   1.3375598  79.6282214
  52.0775279   1.6309164  79.3564803  53.1831450   1.9216043  80.3489478
  62.8243599  10.3974757  79.7111742  62.5328407  10.7604737  80.5475203
  62.2115730   9.6841765  79.5325075  64.0239281   7.9627636  72.2314313
  64.8586173   8.4017440  72.3951873  64.1598410   7.4866290  71.4122558
  61.0730787   5.5207371  78.1791800  61.5484909   5.7135018  77.3710652
  60.1496353   5.5766557  77.9335184  47.9614294   6.6831538  67.7622879
  47.7160336   5.7793868  67.9603089  48.1310209   6.6848689  66.8202357
  55.6511004  -2.4444785  77.1447634  56.1692948  -1.7083758  76.8194123
  55.2966137  -2.1380792  77.9794393  47.2309942   2.4159896  65.2609040
  46.5379187   2.4904251  64.6049076  46.9861693   1.6520240  65.7830557
  53.7057067  13.1514491  64.2273557  53.1331034  13.7704678  63.7744029
  54.2789860  13.7013853  64.7613479  59.7732456   2.3973131  76.4120106
  60.7249879   2.4971229  76.4332330  59.6035907   1.6051400  76.9218190
  57.7946836  -0.5171285  76.5979507  57.1996768  -0.2366273  75.9025996
  57.5096533  -0.0277385  77.3696248  56.9254326  13.4351641  65.3582140
  57.8585000  13.3697203  65.5615015  56.8377539  14.2707908  64.8996672
  59.5542343  12.7517512  62.3186087  59.4755975  12.4177375  63.2121845
  60.3752010  13.2439280  62.3177559  62.2520534   5.6179251  75.5262406
  62.2196854   4.6795252  75.7122090  62.8621158   5.6963288  74.7928231
  54.0903865   4.4875304  61.5689610  55.0362970   4.3581512  61.6378028
  53.7118110   3.7489966  62.0459038  62.4015023   2.4090294  75.5720689
  61.8854071   1.6248751  75.3850618  63.2854971   2.0809011  75.7367208
  68.0697084   6.6795258  74.6668443  68.8000473   6.4180546  75.2276146
  67.4604030   5.9423980  74.7070511  66.1512381   4.8203120  75.2642894
  65.4245545   4.6859085  74.6559385  65.7359668   5.1279949  76.0699612
  53.9742558   8.5393050  83.0290267  54.8945567   8.7171649  83.2230313
  53.9392141   7.5949095  82.8769966  52.2746782   2.4125280  61.5044495
  51.3678238   2.1158393  61.5807209  52.5522763   2.1155098  60.6378781
  43.1924723   3.7331644  71.9543541  42.8727507   2.8796952  71.6617915
  42.6458151   3.9480222  72.7101509  46.9704630   6.4494085  75.6713048
  47.1890640   7.3811193  75.6901082  47.3830404   6.0902059  76.4567852
  53.8908848  -3.0437830  67.6588736  53.0809576  -3.3890745  68.0343982
  54.5793265  -3.3530286  68.2476348  51.8432495   2.0227291  85.0615797
  51.7429222   2.9721647  84.9927888  51.6254038   1.6945529  84.1891867
  51.0445567  -0.7287784  61.6456474  51.9064731  -0.4032886  61.9052292
  51.2295911  -1.5156289  61.1329540  43.0612983   7.3534555  73.9236663
  42.3676454   6.9388508  73.4106617  43.8085974   7.3955092  73.3270082
  59.1978203  -1.8559258  68.7891697  58.6176872  -1.1974454  68.4069750
  58.9314136  -2.6781913  68.3779115  57.6481770  -2.4554200  70.9913018
  58.1481548  -2.3437666  70.1827336  58.2917378  -2.7593147  71.6313826
  51.7063766   5.4524429  83.8780858  51.2230847   6.2524789  84.0844748
  51.7924705   5.4632374  82.9248302  44.9749725   7.2852809  71.8002678
  44.9520413   7.3840496  70.8484561  45.2850362   8.1317960  72.1219844
  47.6337103   9.3428964  75.9149292  48.5880357   9.3112906  75.8479224
  47.4349627   8.8819588  76.7299518  48.2236485   7.9130080  78.4820090
  49.0429374   8.4074159  78.5054927  48.4973293   6.9962048  78.4537657
  57.9803081   0.3040832  67.8448045  57.0928936   0.5890483  67.6268240
  58.3957070   0.1434596  66.9975322  61.3317617   0.3287353  71.5602385
  62.1078008   0.8183806  71.8327002  60.6065752   0.7545408  72.0174254
  63.7690176   1.0414973  72.6176325  64.3634667   0.8010709  71.9069634
  63.8416760   0.3222103  73.2449862  45.9887332  14.8848584  72.9319490
  45.8541800  14.1248984  72.3657488  45.5719394  15.6089483  72.4648279
  57.1246295  10.0685507  61.9396065  57.8282145  10.2735510  62.5553721
  56.4008944  10.6362269  62.2045149  57.9544105   5.8195368  68.0598336
  57.8979306   6.2763920  67.2205968  58.5072448   5.0586053  67.8821178
  61.7648911   1.6085100  68.8848455  61.5085845   1.2081736  69.7156663
  61.1401779   2.3228894  68.7598594  66.0761249   4.3481173  71.3919747
  65.5160807   4.4174363  72.1651309  65.4704752   4.1722158  70.6719243
  49.1456458  15.7817901  73.1437933  49.0288842  16.7263333  73.0416623
  48.3248904  15.4791462  73.5323732  59.0332992  10.5068036  63.9894525
  59.8678596  10.0749235  63.8072000  58.8717335  10.3350050  64.9171420
  58.6878884   7.0100150  65.3550865  58.6327688   6.8444421  64.4139309
  58.0624940   7.7176183  65.5113055  43.4771399   2.2468214  79.1812287
  44.1230263   1.7367168  79.6699512  43.2688550   2.9836896  79.7555712
  56.0024792   9.3149061  84.6804428  56.8715951   9.4889714  84.3191062
  55.5231543  10.1343478  84.5580157  51.9975010  -3.4891741  64.9336183
  51.9853680  -2.5449901  65.0904454  52.8898432  -3.6721596  64.6395644
  50.1710972  16.4346162  76.3593861  51.0738219  16.4669773  76.6760356
  49.9448342  15.5046613  76.3740197  51.9264574  15.1877149  73.0203940
  50.9760205  15.1879011  72.9068312  52.2297060  14.4409884  72.5039974
  47.8168890  -0.6064169  83.2787301  48.6800352  -0.9627364  83.4890626
  47.2434301  -0.9450274  83.9662706  67.6617267  21.0237687  74.0849702
  68.2995677  20.9044435  73.3813042  67.5438110  21.9718531  74.1437654
  64.4706974  20.9765116  74.0211227  64.1325485  20.8606180  73.1331762
  65.3396742  20.5756281  74.0012233  60.3293789  22.8300592  70.0108118
  59.7658654  22.7390529  69.2424406  60.2146184  22.0100496  70.4910610
  64.9526757  22.1299967  79.9797432  64.9415397  21.7352766  79.1077936
  65.1147396  21.3966040  80.5731204  57.8758221  24.3251784  72.8492338
  58.6679513  23.9842608  72.4338638  58.1154871  24.4346759  73.7694492
  65.9093348  26.4971560  65.3222583  65.2581328  27.0825640  64.9356597
  66.7037711  27.0277755  65.3817620  59.8348975  23.5860697  65.7209717
  60.6079851  23.0389684  65.5822593  60.1874374  24.4504946  65.9324179
  61.6734018  24.9137079  78.9276616  61.3823884  25.8182710  78.8123283
  62.3091002  24.9553607  79.6420686  62.5990225  22.2913928  75.5177976
  63.1953797  22.0669950  74.8034939  62.6565196  21.5498673  76.1203424
  62.1715253  19.7453363  63.3528167  62.4240774  19.2234884  62.5911630
  61.2339812  19.5819508  63.4554851  67.2158536  18.7489141  71.1602910
  68.0021625  18.3308564  70.8093327  67.4797240  19.6535233  71.3284559
  67.3868613  24.1861992  65.8591567  66.7514446  24.2596618  66.5712472
  67.0566020  24.7755590  65.1810646  72.6166963  18.6864374  72.0635889
  73.3492135  18.1163591  72.2973718  71.8606319  18.2985975  72.5042394
  61.8911542  21.6481469  65.5552542  61.7747800  20.9726372  66.2233626
  62.0013802  21.1613843  64.7384695  64.2343083  21.1091616  69.2599231
  63.8701290  20.5822237  69.9712153  65.0910199  20.7190085  69.0865717
  70.1392383  12.3985949  76.5230497  69.8075708  13.2681360  76.2991712
  69.5437997  12.0822233  77.2024528  63.8748570  16.1381516  64.2560580
  64.0422972  17.0061752  64.6231051  63.6845739  16.3008797  63.3321869
  66.6323903  24.5998495  75.9226410  66.3324626  25.5023533  75.8142217
  66.2874962  24.3330678  76.7747563  60.0836384  21.0512291  71.9563115
  59.1586881  20.9188506  72.1640806  60.3320797  21.8306511  72.4533057
  70.0321047  17.1181035  73.6023847  69.1237924  17.0496443  73.3082608
  69.9808642  17.5952980  74.4305673  63.8537791  18.5939173  65.2407247
  63.7337416  19.0396224  66.0792727  63.1590379  18.9424491  64.6820785
  57.4445195  20.6945565  72.7906904  57.5737576  20.9480044  73.7046315
  56.7642647  21.2873273  72.4711559  61.6144683  31.3642815  68.8897378
  61.5368712  32.3150640  68.9685858  61.0106326  31.0188687  69.5472304
  64.1061912  18.5370680  81.5458745  63.3295246  19.0964600  81.5361609
  64.7452475  19.0227463  82.0673615  71.8982693  15.3197473  75.3801721
  71.2557073  15.6130006  74.7341516  71.3937622  15.2050393  76.1854918
  69.5522857  19.0660646  66.0687581  70.4640713  19.2988033  65.8935278
  69.0432504  19.6497691  65.5062659  62.3608285  21.3456134  81.1076712
  63.1022969  21.8841178  80.8311535  61.6545270  21.9722422  81.2648264
  67.8363624  23.4885274  79.7048873  68.2446980  23.0467685  78.9603506
  67.1140886  22.9137902  79.9583066  64.1894694  18.4257881  77.0782430
  65.0355890  18.8497294  77.2217079  64.1293332  17.7691505  77.7720993
  68.1592439  24.0486465  73.4601162  67.5301301  24.2132179  72.7577230
  67.7718101  24.4628074  74.2312126  72.0381671  24.9840903  70.8145526
  71.3532709  25.3639804  70.2642559  72.1225520  25.5936229  71.5477474
  67.3394140  16.0862249  78.7363604  67.0955072  16.8404310  78.1997879
  67.6154070  16.4647597  79.5710851  69.2932602  22.6300862  77.4140869
  69.5049498  23.2732622  76.7375250  69.2462351  21.7963178  76.9462799
  66.8958831  15.2418682  74.3177442  66.0343310  15.5399936  74.6094179
  66.9221266  15.4589081  73.3858474  63.7120401  23.7860873  70.7251247
  64.1758746  24.0648576  69.9355870  63.4477199  22.8844317  70.5424338
  60.6044482  23.3332354  73.6631010  61.1745839  23.7619623  73.0248495
  61.1952594  23.0514939  74.3615196  62.6489287  19.9084025  67.5340812
  63.3513330  20.3605069  68.0014739  62.3169915  19.2667844  68.1620705
  61.0969648  18.4995782  81.9092022  60.4668309  19.1812063  82.1427419
  60.9905736  18.3878863  80.9645160  56.3914621  18.1667578  72.8357946
  55.6013675  18.4225106  72.3598057  56.8825868  18.9815916  72.9409986
  70.4078430  25.5072817  75.5863227  71.2295874  25.1053004  75.3045908
  70.4040833  25.4041051  76.5379343  58.3429366  18.5312157  69.7941423
  57.5460530  18.6430851  70.3124918  58.1154958  18.8698809  68.9282313
  64.1735034  25.0556860  77.7423937  64.2379466  25.5177268  78.5782109
  63.4645958  24.4254225  77.8706247  54.6752324  18.4198068  75.2672937
  54.9260362  19.3045078  75.5330513  55.2111872  18.2402670  74.4948029
  78.4984423  21.8511566  71.9348198  77.7448132  21.2818964  71.7792203
  78.6331965  21.8174230  72.8818833  63.8883052  26.7224968  67.6102918
  63.7528726  27.5676504  68.0387765  64.4292864  26.9244246  66.8468851
  60.3750391  12.8016548  84.2717273  59.9817337  12.2482746  84.9464917
  61.1916531  13.1127126  84.6623790  57.3412449  24.2400406  68.1830843
  57.8536969  25.0343656  68.3336407  57.9935162  23.5426696  68.1164444
  59.1507334  27.3566162  70.2653596  59.3273962  28.2784127  70.0774580
  59.9464167  27.0424581  70.6947976  63.2918352  14.2174427  81.8637529
  64.0328066  14.8181580  81.7841992  63.5236275  13.4752065  81.3055572
  58.4359690  19.4030794  80.1415759  58.3213205  18.5016051  80.4422858
  57.5804208  19.6494491  79.7900576  65.5151528  27.3448534  81.7403260
  65.0715382  26.5584913  81.4224164  66.1768741  27.5327685  81.0747150
  60.2738649  28.8744336  76.2663938  60.8246074  28.7461399  75.4940932
  59.4350125  29.1739225  75.9158831  67.6132766  27.6251334  79.7684661
  67.5951241  28.4460215  79.2764930  68.5352686  27.5005410  79.9934802
  64.0705820  25.1395464  80.6108169  64.6034157  24.3783752  80.3807477
  63.5419901  24.8469116  81.3532324  67.2375515  10.2455530  76.1401811
  66.8939784  11.1357171  76.0640922  67.6054478  10.0557187  75.2771396
  55.3061366  22.5689060  68.9590413  56.1436588  22.9786069  68.7424121
  55.4839633  21.6288502  68.9290607  67.2025798  20.2364141  64.6474246
  66.6872421  21.0068745  64.8862634  66.9303106  19.5629277  65.2707308
  64.7872909  15.0813842  69.7059485  63.9314505  14.6920692  69.5265123
  65.1999861  15.1605802  68.8459270  66.3172055  12.6160185  74.1051044
  65.8136851  12.5790320  73.2918850  66.6102662  13.5252928  74.1647701
  62.5614941  12.6998915  73.1117226  63.4267938  12.5041723  72.7523115
  62.6292450  12.4709266  74.0386583  72.1760072  22.9896496  66.5827420
  71.3989515  22.6507655  66.1382582  72.8551553  22.9949119  65.9082385
  66.9912101  18.1091233  66.4734027  66.6862237  18.4237382  67.3244171
  67.9442543  18.1872653  66.5161360  65.4358533  24.2681456  68.1226981
  64.9079894  23.5334216  67.8100219  64.9346036  25.0456133  67.8766950
  70.4151379  22.4630477  73.2394028  69.7575053  23.1529738  73.3274156
  71.2191778  22.8526909  73.5828014  60.1677260  14.9301123  70.4833593
  60.7421012  14.7076304  69.7506786  60.7548243  14.9989817  71.2362194
  69.2256838  20.8174849  71.2897969  69.7388719  21.4504841  71.7919679
  69.8758062  20.2176045  70.9241329  60.4946848  16.9605584  64.5029478
  59.6584160  17.2980270  64.8238753  60.3551617  16.8254563  63.5656615
  62.4699928  11.8042371  69.2108662  61.8164340  11.4891389  68.5865277
  62.4280402  11.1818112  69.9368485  63.5811133  22.0861667  61.1261954
  62.6738195  21.8550920  61.3253103  64.0782165  21.2899286  61.3135936
  66.4879212  30.7959174  64.0458640  65.8140911  31.0990870  64.6543598
  66.8745034  31.5988254  63.6964098  65.7037669  18.2924305  73.5356310
  64.7860230  18.5139252  73.3777998  66.1197812  18.3670615  72.6768017
  66.4872716  19.6915721  68.6658990  67.2344535  20.2037118  68.3566112
  66.7564306  19.3699773  69.5263384  64.7599366  22.1874261  65.6485944
  63.8510586  21.9033294  65.7458414  64.7894450  22.6073340  64.7889251
  69.9918634  25.7980851  69.4177112  69.5380961  24.9571761  69.4742302
  69.3612601  26.4342249  69.7551892  68.9351553  16.7272837  70.6477779
  68.1974310  16.2150223  70.9788022  69.1878327  16.2873219  69.8361056
  68.4351573  27.6357348  70.3526930  68.7274547  28.1962405  69.6339296
  68.9450194  27.9285909  71.1080089  69.0363181   9.5049089  71.2419549
  69.3422058   8.6446452  70.9545464  69.7615786  10.0966709  71.0418543
  55.3287537  19.9079776  69.6301147  55.1311937  19.3149136  68.9052213
  54.7734201  19.6031986  70.3477085  63.3084260  19.8002882  71.7495740
  63.3632870  18.8476718  71.6738216  62.4975463  19.9562321  72.2337038
  64.4575454  23.7283005  62.9874023  64.0194884  23.0118864  62.5279660
  65.1985895  23.9559120  62.4259114  61.2476620  18.4179942  69.5086119
  60.4344486  18.7174112  69.9151311  61.7435615  18.0235631  70.2260601
  63.3985198  28.4137699  71.4420383  63.3561377  28.6398545  70.5128915
  64.3147897  28.1801073  71.5906184  66.8450832  18.8821766  78.3401013
  67.2000220  19.1093239  79.1995478  67.4922963  19.2140143  77.7178268
  72.5748569  22.0040202  69.0450342  72.4366468  22.1941798  68.1171531
  72.2184788  22.7659585  69.5018393  60.7390695  15.9898297  75.1247354
  61.3790074  15.8487056  74.4270317  59.9068226  15.7032811  74.7485956
  72.6017949  24.0716729  74.0561613  73.0354455  23.9792018  74.9044667
  73.3149529  24.0474230  73.4181629  61.5150999  25.2900728  71.2382346
  62.3091598  24.7951048  71.0364921  60.8042691  24.7618591  70.8750052
  66.3345844  27.6718823  75.5894714  66.3882866  28.2409760  76.3572430
  65.4660625  27.8420708  75.2248751  57.8233763  19.4343809  67.3142099
  56.8931351  19.3728265  67.5312061  57.9191235  18.9119762  66.5178740
  57.7419312  15.9598622  69.9020340  58.0026129  16.8743956  69.7929501
  58.5636484  15.4923065  70.0516953  59.2144237  17.3736379  77.0719165
  59.8867290  17.1653742  76.4231814  58.3874023  17.1758465  76.6324397
  73.4633498  24.1140430  76.5894498  73.6569388  25.0186240  76.8353773
  73.3634116  23.6547849  77.4233083  65.1169809  13.9998320  79.0884826
  64.4697724  14.6988270  78.9949302  65.8870824  14.4334464  79.4561074
  68.5248607  24.2647173  82.1635379  68.3734113  24.0357724  81.2465463
  68.5153286  25.2217774  82.1766724  65.2933943  21.8379085  77.1481646
  66.2226003  21.9890245  76.9750613  64.8724973  21.9263106  76.2930292
  64.0922275  25.8629750  74.9180183  63.9533361  25.4948534  75.7906121
  63.3036871  26.3777389  74.7464141  64.6870427  30.9638846  66.2605720
  64.8622183  30.4926889  67.0751342  64.0003215  31.5904612  66.4886980
  65.6427490  25.2411352  72.3069021  65.3077323  25.2012122  73.2026671
  65.1431436  24.5756068  71.8339431  59.6171734  20.6478982  77.8321602
  59.4791532  19.9159221  78.4333141  60.5276658  20.5587883  77.5505790
  68.5786682  22.5867387  62.5806081  67.9615852  21.8614215  62.4839133
  68.1103170  23.3476747  62.2373155  62.2454035  20.3598942  77.3205282
  62.9553653  19.7192134  77.2791900  62.2023343  20.6111837  78.2431463
  70.2340814  27.2966295  80.2411861  70.1753360  26.6125515  79.5742444
  70.6360332  28.0385285  79.7892487  60.9582969  17.3464160  79.1400921
  60.4220326  16.8954898  79.7922518  60.3699677  17.4810068  78.3971386
  59.2531512  34.1128209  73.0345580  59.4928111  34.7446733  73.7124598
  58.4100709  33.7616249  73.3210939  60.3685228  16.8052811  61.7027385
  59.4914694  16.6841612  61.3389632  60.8442981  16.0138889  61.4506274
  70.2358221  25.2605879  78.4725841  69.3485000  24.9231801  78.5952239
  70.8056772  24.5288910  78.7094606  51.8887368  21.5929971  71.7968892
  52.5758408  21.2791701  71.2089907  51.7335497  22.4971335  71.5236143
  56.6922090  16.4820167  76.2253916  56.6080279  15.8745837  75.4904326
  55.8704796  16.9729186  76.2263412  63.7659374  29.9207331  75.4387084
  63.6929546  30.7262303  75.9506388  63.3236767  30.1199297  74.6135105
  63.5549154  29.1579101  68.9489905  62.7716676  29.7000782  69.0428130
  64.2541899  29.6753081  69.3484147  66.8645804  14.9673731  71.5924111
  67.3614503  14.2143693  71.2725181  66.0932785  15.0038048  71.0267320
  74.7175561  20.6714096  73.2342402  74.7065438  21.5538812  72.8636335
  73.8492941  20.3185647  73.0396939  66.2258058  29.8194165  77.5945242
  66.9386030  30.4541630  77.5221144  65.7348086  29.9158031  76.7785244
  67.9475585  23.7245418  69.1662534  67.0131863  23.8446881  68.9967238
  68.1252253  22.8217885  68.9022544  63.4480773  17.1091114  71.3195795
  63.0778560  16.5562154  72.0076701  63.9439865  16.5049247  70.7670795
  71.3348136  19.5662737  69.7012568  71.8008588  20.3990729  69.6272871
  71.7855636  19.1007719  70.4057827  61.2769971  27.5688609  78.4150813
  61.9779431  28.2025092  78.5680208  60.8065086  27.9103340  77.6546453
  69.4024367  25.9106559  66.6998720  69.6784211  25.7963153  67.6092594
  68.5328866  25.5124043  66.6610893  69.3064799  11.9343324  73.7403470
  68.3927879  12.1647551  73.9085677  69.7357900  12.0181768  74.5917502
  69.0771257  20.1233216  76.2403364  68.4242707  20.3709124  75.5855816
  69.4551637  19.3097354  75.9065841  66.0378431  30.1592909  70.3431534
  66.2200826  29.3414565  70.8059286  66.8611417  30.3760602  69.9056424
  66.3720597  29.0861095  67.6046582  66.9008363  28.5753549  66.9916745
  66.6348816  28.7703625  68.4692115  65.1258830  20.8653027  82.7269401
  64.4499467  20.7647157  83.3971776  65.9486464  20.7092241  83.1905398
  56.8737689  27.1024964  75.3481916  57.4591126  26.3568652  75.4809820
  56.6762528  27.4128921  76.2318580  59.7276345  30.1376211  70.3644358
  59.0586720  30.6222339  69.8808398  59.5889214  30.3845432  71.2787737
  51.4655344  19.6730564  74.0686359  51.5039444  19.1394155  74.8623477
  50.9595637  19.1465770  73.4497336  63.8681613  32.1719955  76.9627017
  64.4199921  32.3351576  77.7276102  64.2087807  32.7624393  76.2907042
  58.8446106  14.5195105  77.5648901  58.9087433  15.3809936  77.1526299
  58.7813227  13.9069106  76.8321260  58.3198379  16.5918237  81.2121936
  58.9470418  16.2095314  81.8259460  57.4626298  16.3732439  81.5777628
  68.7192487  26.9981212  82.8175671  69.2632391  27.6111171  82.3230626
  68.1379332  27.5560791  83.3342684  55.0963922  18.3994666  67.1440291
  55.3917363  17.4905345  67.0907344  54.1951957  18.3782406  66.8221293
  67.0050000  30.1201930  73.9490699  66.8801140  29.3191670  73.4401644
  67.6629091  30.6148124  73.4604669  58.6258169  16.4750663  73.1267839
  57.9044754  17.0886631  72.9875312  59.4151424  17.0108428  73.0484485
  69.0684909  27.9210950  75.5770249  68.1215244  27.8016302  75.5048576
  69.4167682  27.0333448  75.6596510  61.4284482  13.8105089  79.4008491
  61.9518884  14.0567386  80.1634800  61.2096815  14.6425124  78.9811628
  56.8251763  16.0808764  67.2679616  56.4964469  15.2006143  67.0854722
  57.1791134  16.0256433  68.1556005  66.0731342  27.7163667  71.7774601
  65.9256304  26.7880374  71.9582171  66.8984836  27.7383757  71.2931676
  59.9393586  16.3681734  67.6355093  60.2789659  16.8967655  66.9133702
  60.3865707  16.7062140  68.4113660  69.6765464  28.5392225  72.8639474
  70.6012011  28.3335087  72.7263925  69.5080767  28.2908627  73.7728815
  62.6337027  14.7518784  77.0858161  62.2933848  13.9526598  77.4878841
  61.9276033  15.0520495  76.5134995  63.2853499  11.8368097  75.5385484
  64.1079568  11.3628575  75.4164375  63.5291563  12.6158581  76.0384171
  61.9261733  14.8656355  65.8348386  62.6470096  15.2437608  65.3312103
  61.3027038  15.5845232  65.9383364  66.0692856  15.5701504  66.7706718
  66.2856471  16.4526142  66.4695547  65.5886924  15.1787718  66.0412360
  60.8092078  18.5287218  73.3477463  60.6636658  18.8427521  74.2401745
  60.3317281  19.1472118  72.7948362  62.6688461  15.5189765  73.3958353
  62.6550029  14.6230859  73.0590651  63.3860889  15.5260429  74.0296639
  64.5214591  15.9527106  75.4411480  64.2632369  16.8744176  75.4395810
  63.9899632  15.5557540  76.1311944  69.4660780  29.0577893  68.2201565
  69.6397658  28.4924315  67.4675418  69.9589671  29.8578788  68.0381055
  55.2837740  21.0692562  76.2865124  54.7391208  21.8452370  76.4185399
  56.1617090  21.4163366  76.1284246  62.0725357  14.4004146  68.6645923
  62.1941268  13.4720792  68.8636810  61.7827399  14.4142832  67.7524238
  64.9416547  12.0859056  71.8012643  64.9638244  12.1498389  70.8464622
  65.3584606  11.2463565  71.9953149  75.3200171  21.8214316  69.8391865
  75.7631317  21.0721641  69.4410988  74.4426682  21.8124452  69.4565597
  70.4535953  28.3744657  65.3198464  71.1486857  28.9951350  65.5385778
  70.7959103  27.5240008  65.5950842  56.0703762  20.1962458  79.1795281
  55.3285498  20.3445094  79.7659912  55.7496506  20.4570724  78.3162030
  72.3527376  25.8244363  66.8485794  72.8778700  26.1631636  66.1235114
  72.2649728  24.8891378  66.6648929  64.0147424  29.7378436  78.9775671
  64.3234551  29.4927583  79.8498371  64.8122906  29.9425075  78.4894541
  64.0368036  31.8916346  71.2081048  63.5973027  31.3992725  71.9013904
  64.7876153  31.3489314  70.9673123  56.5160375  28.0827887  71.2105676
  57.3418395  27.7831659  70.8304319  56.1654427  27.3135509  71.6595464
  61.4841909  27.4354355  73.2803349  60.8621918  26.7725060  72.9805577
  62.1546776  27.4615487  72.5976997  54.7168981  26.0014213  72.1694609
  53.8800889  25.5736388  71.9878611  54.6892626  26.1946657  73.1065401
  61.5566436  15.9136143  82.8735855  61.6054592  16.7898266  82.4913625
  62.0988950  15.3713536  82.3007499  72.0421282  26.4577266  82.1536992
  71.2516825  26.4401405  81.6141492  71.8054636  26.9965560  82.9086029
  72.1619157  23.3069733  79.4669721  72.2117162  23.1419740  80.4085244
  72.0533080  22.4396992  79.0767602  61.0455416  25.9858278  66.7561810
  61.1943536  26.6693743  66.1028483  61.8521859  25.9663369  67.2711266
  69.4522919  19.2900661  80.7829028  70.3532782  19.1507126  80.4913025
  69.5270894  19.4555116  81.7227205  63.7865725  16.6667516  79.6282214
  62.9169034  16.9601082  79.3564803  64.0225205  17.2507961  80.3489478
  73.6637354  25.7266674  79.7111742  73.3722162  26.0896655  80.5475203
  73.0509485  25.0133683  79.5325075  74.8633036  23.2919554  72.2314313
  75.6979927  23.7309358  72.3951873  74.9992165  22.8158207  71.4122558
  71.9124542  20.8499289  78.1791800  72.3878664  21.0426935  77.3710652
  70.9890107  20.9058475  77.9335184  58.8008049  22.0123456  67.7622879
  58.5554090  21.1085786  67.9603089  58.9703963  22.0140607  66.8202357
  66.4904758  12.8847132  77.1447634  67.0086702  13.6208159  76.8194123
  66.1359891  13.1911126  77.9794393  58.0703696  17.7451814  65.2609040
  57.3772941  17.8196169  64.6049076  57.8255448  16.9812157  65.7830557
  66.7417353   9.3047415  72.6648531  67.0219106   8.6370604  73.2908958
  67.5267959   9.4976511  72.1523195  64.5450821  28.4806409  64.2273557
  63.9724788  29.0996596  63.7744029  65.1183615  29.0305771  64.7613479
  70.6126211  17.7265049  76.4120106  71.5643634  17.8263147  76.4332330
  70.4429661  16.9343318  76.9218190  68.6340590  14.8120632  76.5979507
  68.0390522  15.0925645  75.9025996  68.3490287  15.3014533  77.3696248
  67.7648081  28.7643559  65.3582140  68.6978754  28.6989121  65.5615015
  67.6771294  29.5999826  64.8996672  70.3936098  28.0809429  62.3186087
  70.3149729  27.7469293  63.2121845  71.2145764  28.5731197  62.3177559
  73.0914289  20.9471169  75.5262406  73.0590609  20.0087169  75.7122090
  73.7014912  21.0255205  74.7928231  64.9297620  19.8167222  61.5689610
  65.8756724  19.6873430  61.6378028  64.5511865  19.0781884  62.0459038
  73.2408777  17.7382212  75.5720689  72.7247826  16.9540669  75.3850618
  74.1248726  17.4100929  75.7367208  70.9019504  11.4823228  71.5316502
  70.7044325  11.1738316  72.4159834  71.5119210  12.2084867  71.6614431
  78.9090839  22.0087176  74.6668443  79.6394227  21.7472464  75.2276146
  78.2997784  21.2715897  74.7070511  76.9906136  20.1495038  75.2642894
  76.2639299  20.0151003  74.6559385  76.5753423  20.4571867  76.0699612
  64.8136312  23.8684968  83.0290267  65.7339322  24.0463567  83.2230313
  64.7785895  22.9241013  82.8769966  63.1140537  17.7417198  61.5044495
  62.2071992  17.4450311  61.5807209  63.3916518  17.4447016  60.6378781
  54.0318477  19.0623561  71.9543541  53.7121261  18.2088870  71.6617915
  53.4851905  19.2772140  72.7101509  57.8098385  21.7786002  75.6713048
  58.0284394  22.7103110  75.6901082  58.2224158  21.4193977  76.4567852
  64.7302602  12.2854088  67.6588736  63.9203331  11.9401173  68.0343982
  65.4187019  11.9761631  68.2476348  66.6593151  11.3632135  69.2813033
  67.2124189  11.7827588  69.9403056  66.8963237  10.4367883  69.3235989
  62.6826250  17.3519208  85.0615797  62.5822977  18.3013565  84.9927888
  62.4647792  17.0237447  84.1891867  61.8839321  14.6004133  61.6456474
  62.7458485  14.9259032  61.9052292  62.0689665  13.8135629  61.1329540
  53.9006737  22.6826473  73.9236663  53.2070209  22.2680426  73.4106617
  54.6479728  22.7247009  73.3270082  70.0371958  13.4732660  68.7891697
  69.4570627  14.1317464  68.4069750  69.7707890  12.6510004  68.3779115
  68.4875524  12.8737717  70.9913018  68.9875303  12.9854252  70.1827336
  69.1311132  12.5698770  71.6313826  62.5457520  20.7816347  83.8780858
  62.0624602  21.5816707  84.0844748  62.6318459  20.7924292  82.9248302
  55.8143480  22.6144727  71.8002678  55.7914168  22.7132414  70.8484561
  56.1244116  23.4609878  72.1219844  58.4730858  24.6720882  75.9149292
  59.4274111  24.6404824  75.8479224  58.2743381  24.2111505  76.7299518
  59.0630240  23.2421998  78.4820090  59.8823129  23.7366076  78.5054927
  59.3367047  22.3253966  78.4537657  68.8196836  15.6332750  67.8448045
  67.9322691  15.9182401  67.6268240  69.2350825  15.4726513  66.9975322
  72.1711372  15.6579271  71.5602385  72.9471762  16.1475724  71.8327002
  71.4459506  16.0837325  72.0174254  74.6083931  16.3706890  72.6176325
  75.2028421  16.1302626  71.9069634  74.6810514  15.6514021  73.2449862
  56.8281086  30.2140501  72.9319490  56.6935554  29.4540902  72.3657488
  56.4113149  30.9381401  72.4648279  67.9640049  25.3977425  61.9396065
  68.6675899  25.6027427  62.5553721  67.2402698  25.9654187  62.2045149
  68.7937860  21.1487286  68.0598336  68.7373061  21.6055837  67.2205968
  69.3466202  20.3877971  67.8821178  72.6042665  16.9377018  68.8848455
  72.3479600  16.5373654  69.7156663  71.9795534  17.6520812  68.7598594
  76.9155003  19.6773091  71.3919747  76.3554561  19.7466280  72.1651309
  76.3098507  19.5014076  70.6719243  59.9850212  31.1109818  73.1437933
  59.8682596  32.0555251  73.0416623  59.1642658  30.8083380  73.5323732
  69.8726747  25.8359954  63.9894525  70.7072351  25.4041152  63.8072000
  69.7111090  25.6641968  64.9171420  69.5272639  22.3392067  65.3550865
  69.4721443  22.1736339  64.4139309  68.9018694  23.0468100  65.5113055
  54.3165154  17.5760132  79.1812287  54.9624017  17.0659086  79.6699512
  54.1082305  18.3128813  79.7555712  66.8418546  24.6440979  84.6804428
  67.7109706  24.8181631  84.3191062  66.3625298  25.4635396  84.5580157
  62.8368764  11.8400176  64.9336183  62.8247434  12.7842016  65.0904454
  63.7292186  11.6570322  64.6395644  61.0104726  31.7638080  76.3593861
  61.9131973  31.7961690  76.6760356  60.7842096  30.8338531  76.3740197
  62.7658328  30.5169067  73.0203940  61.8153959  30.5170928  72.9068312
  63.0690814  29.7701801  72.5039974  66.6520884   8.4342953  69.1882120
  65.8853280   7.8801440  69.3338802  67.0631589   8.5064822  70.0496272
  58.6562645  14.7227749  83.2787301  59.5194106  14.3664554  83.4890626
  58.0828056  14.3841644  83.9662706  78.5011022  36.3529605  74.0849702
  79.1389432  36.2336352  73.3813042  78.3831865  37.3010449  74.1437654
  75.3100728  36.3057033  74.0211227  74.9719240  36.1898098  73.1331762
  76.1790496  35.9048198  74.0012233  71.1687544  38.1592510  70.0108118
  70.6052409  38.0682447  69.2424406  71.0539939  37.3392414  70.4910610
  75.7920511  37.4591885  79.9797432  75.7809152  37.0644683  79.1077936
  75.9541151  36.7257958  80.5731204  68.7151976  39.6543701  72.8492338
  69.5073268  39.3134526  72.4338638  68.9548626  39.7638676  73.7694492
  76.7487103  41.8263477  65.3222583  76.0975082  42.4117558  64.9356597
  77.5431465  42.3569672  65.3817620  70.6742730  38.9152614  65.7209717
  71.4473606  38.3681602  65.5822593  71.0268129  39.7796864  65.9324179
  72.5127772  40.2428997  78.9276616  72.2217638  41.1474628  78.8123283
  73.1484757  40.2845524  79.6420686  73.4383979  37.6205845  75.5177976
  74.0347551  37.3961868  74.8034939  73.4958951  36.8790591  76.1203424
  73.0109007  35.0745281  63.3528167  73.2634528  34.5526802  62.5911630
  72.0733567  34.9111426  63.4554851  78.0552290  34.0781059  71.1602910
  78.8415380  33.6600482  70.8093327  78.3190995  34.9827151  71.3284559
  78.2262368  39.5153909  65.8591567  77.5908201  39.5888536  66.5712472
  77.8959774  40.1047508  65.1810646  83.4560717  34.0156292  72.0635889
  84.1885889  33.4455509  72.2973718  82.7000073  33.6277893  72.5042394
  72.7305296  36.9773387  65.5552542  72.6141554  36.3018290  66.2233626
  72.8407556  36.4905760  64.7384695  75.0736837  36.4383534  69.2599231
  74.7095044  35.9114155  69.9712153  75.9303953  36.0482003  69.0865717
  80.9786138  27.7277866  76.5230497  80.6469463  28.5973277  76.2991712
  80.3831751  27.4114150  77.2024528  74.7142324  31.4673433  64.2560580
  74.8816726  32.3353670  64.6231051  74.5239493  31.6300715  63.3321869
  77.4717657  39.9290412  75.9226410  77.1718380  40.8315451  75.8142217
  77.1268717  39.6622595  76.7747563  70.9230139  36.3804209  71.9563115
  69.9980635  36.2480423  72.1640806  71.1714552  37.1598428  72.4533057
  80.8714801  32.4472952  73.6023847  79.9631678  32.3788361  73.3082608
  80.8202397  32.9244897  74.4305673  74.6931545  33.9231091  65.2407247
  74.5731170  34.3688142  66.0792727  73.9984133  34.2716409  64.6820785
  68.2838950  36.0237483  72.7906904  68.4131331  36.2771962  73.7046315
  67.6036401  36.6165191  72.4711559  72.4538437  46.6934733  68.8897378
  72.3762467  47.6442558  68.9685858  71.8500081  46.3480605  69.5472304
  74.9455667  33.8662598  81.5458745  74.1689001  34.4256518  81.5361609
  75.5846230  34.3519381  82.0673615  82.7376447  30.6489391  75.3801721
  82.0950828  30.9421924  74.7341516  82.2331376  30.5342311  76.1854918
  80.3916611  34.3952564  66.0687581  81.3034467  34.6279951  65.8935278
  79.8826258  34.9789608  65.5062659  73.2002039  36.6748051  81.1076712
  73.9416724  37.2133095  80.8311535  72.4939025  37.3014340  81.2648264
  78.6757379  38.8177192  79.7048873  79.0840735  38.3759602  78.9603506
  77.9534640  38.2429819  79.9583066  75.0288449  33.7549799  77.0782430
  75.8749644  34.1789212  77.2217079  74.9687087  33.0983423  77.7720993
  78.9986193  39.3778382  73.4601162  78.3695056  39.5424097  72.7577230
  78.6111856  39.7919992  74.2312126  82.8775425  40.3132820  70.8145526
  82.1926464  40.6931722  70.2642559  82.9619275  40.9228147  71.5477474
  78.1787894  31.4154167  78.7363604  77.9348826  32.1696228  78.1997879
  78.4547825  31.7939515  79.5710851  80.1326357  37.9592779  77.4140869
  80.3443252  38.6024539  76.7375250  80.0856105  37.1255096  76.9462799
  77.7352586  30.5710600  74.3177442  76.8737065  30.8691854  74.6094179
  77.7615021  30.7880999  73.3858474  74.5514155  39.1152791  70.7251247
  75.0152501  39.3940494  69.9355870  74.2870953  38.2136235  70.5424338
  71.4438236  38.6624272  73.6631010  72.0139593  39.0911540  73.0248495
  72.0346348  38.3806857  74.3615196  73.4883041  35.2375943  67.5340812
  74.1907085  35.6896987  68.0014739  73.1563670  34.5959762  68.1620705
  71.9363403  33.8287700  81.9092022  71.3062063  34.5103980  82.1427419
  71.8299491  33.7170781  80.9645160  67.2308375  33.4959496  72.8357946
  66.4407429  33.7517024  72.3598057  67.7219623  34.3107833  72.9409986
  81.2472185  40.8364735  75.5863227  82.0689629  40.4344922  75.3045908
  81.2434588  40.7332969  76.5379343  69.1823121  33.8604075  69.7941423
  68.3854284  33.9722769  70.3124918  68.9548713  34.1990727  68.9282313
  75.0128788  40.3848778  77.7423937  75.0773221  40.8469185  78.5782109
  74.3039712  39.7546143  77.8706247  65.5146078  33.7489986  75.2672937
  65.7654117  34.6336996  75.5330513  66.0505627  33.5694588  74.4948029
  89.3378178  37.1803483  71.9348198  88.5841886  36.6110881  71.7792203
  89.4725719  37.1466148  72.8818833  74.7276806  42.0516886  67.6102918
  74.5922481  42.8968421  68.0387765  75.2686619  42.2536163  66.8468851
  71.2144146  28.1308465  84.2717273  70.8211091  27.5774664  84.9464917
  72.0310286  28.4419044  84.6623790  68.1806203  39.5692324  68.1830843
  68.6930724  40.3635574  68.3336407  68.8328916  38.8718614  68.1164444
  69.9901088  42.6858080  70.2653596  70.1667716  43.6076045  70.0774580
  70.7857922  42.3716499  70.6947976  74.1312107  29.5466344  81.8637529
  74.8721820  30.1473498  81.7841992  74.3630029  28.8043982  81.3055572
  69.2753445  34.7322712  80.1415759  69.1606960  33.8307969  80.4422858
  68.4197962  34.9786409  79.7900576  76.3545282  42.6740452  81.7403260
  75.9109137  41.8876831  81.4224164  77.0162496  42.8619603  81.0747150
  71.1132404  44.2036254  76.2663938  71.6639829  44.0753317  75.4940932
  70.2743879  44.5031143  75.9158831  78.4526520  42.9543252  79.7684661
  78.4344996  43.7752133  79.2764930  79.3746441  42.8297327  79.9934802
  74.9099575  40.4687381  80.6108169  75.4427911  39.7075670  80.3807477
  74.3813656  40.1761033  81.3532324  78.0769270  25.5747447  76.1401811
  77.7333539  26.4649089  76.0640922  78.4448232  25.3849105  75.2771396
  66.1455120  37.8980978  68.9590413  66.9830342  38.3077986  68.7424121
  66.3233388  36.9580420  68.9290607  78.0419552  35.5656059  64.6474246
  77.5266176  36.3360663  64.8862634  77.7696861  34.8921195  65.2707308
  75.6266663  30.4105759  69.7059485  74.7708260  30.0212610  69.5265123
  76.0393615  30.4897720  68.8459270  77.1565810  27.9452103  74.1051044
  76.6530606  27.9082238  73.2918850  77.4496417  28.8544845  74.1647701
  73.4008696  28.0290832  73.1117226  74.2661693  27.8333641  72.7523115
  73.4686205  27.8001184  74.0386583  83.0153826  38.3188413  66.5827420
  82.2383269  37.9799573  66.1382582  83.6945307  38.3241036  65.9082385
  77.8305855  33.4383151  66.4734027  77.5255991  33.7529300  67.3244171
  78.7836298  33.5164571  66.5161360  76.2752287  39.5973374  68.1226981
  75.7473649  38.8626134  67.8100219  75.7739790  40.3748050  67.8766950
  81.2545133  37.7922394  73.2394028  80.5968808  38.4821656  73.3274156
  82.0585533  38.1818826  73.5828014  71.0071015  30.2593040  70.4833593
  71.5814767  30.0368222  69.7506786  71.5941997  30.3281735  71.2362194
  80.0650592  36.1466767  71.2897969  80.5782474  36.7796759  71.7919679
  80.7151816  35.5467963  70.9241329  71.3340602  32.2897501  64.5029478
  70.4977914  32.6272188  64.8238753  71.1945372  32.1546481  63.5656615
  73.3093683  27.1334289  69.2108662  72.6558095  26.8183306  68.5865277
  73.2674157  26.5110030  69.9368485  74.4204887  37.4153584  61.1261954
  73.5131949  37.1842838  61.3253103  74.9175919  36.6191203  61.3135936
  77.3272966  46.1251091  64.0458640  76.6534665  46.4282788  64.6543598
  77.7138788  46.9280172  63.6964098  76.5431423  33.6216223  73.5356310
  75.6253984  33.8431170  73.3777998  76.9591567  33.6962533  72.6768017
  77.3266471  35.0207638  68.6658990  78.0738290  35.5329036  68.3566112
  77.5958060  34.6991691  69.5263384  75.5993121  37.5166179  65.6485944
  74.6904340  37.2325212  65.7458414  75.6288205  37.9365258  64.7889251
  80.8312388  41.1272769  69.4177112  80.3774715  40.2863678  69.4742302
  80.2006355  41.7634167  69.7551892  79.7745308  32.0564755  70.6477779
  79.0368065  31.5442141  70.9788022  80.0272081  31.6165136  69.8361056
  79.2745328  42.9649265  70.3526930  79.5668302  43.5254322  69.6339296
  79.7843948  43.2577826  71.1080089  79.8756935  24.8341007  71.2419549
  80.1815812  23.9738370  70.9545464  80.6009540  25.4258627  71.0418543
  66.1681291  35.2371693  69.6301147  65.9705691  34.6441054  68.9052213
  65.6127955  34.9323903  70.3477085  74.1478015  35.1294800  71.7495740
  74.2026625  34.1768636  71.6738216  73.3369217  35.2854239  72.2337038
  75.2969209  39.0574923  62.9874023  74.8588639  38.3410782  62.5279660
  76.0379650  39.2851038  62.4259114  72.0870375  33.7471859  69.5086119
  71.2738240  34.0466030  69.9151311  72.5829369  33.3527548  70.2260601
  74.2378953  43.7429616  71.4420383  74.1955132  43.9690463  70.5128915
  75.1541652  43.5092991  71.5906184  77.6844587  34.2113684  78.3401013
  78.0393974  34.4385157  79.1995478  78.3316718  34.5432061  77.7178268
  83.4142324  37.3332120  69.0450342  83.2760222  37.5233716  68.1171531
  83.0578542  38.0951503  69.5018393  71.5784450  31.3190215  75.1247354
  72.2183829  31.1778974  74.4270317  70.7461980  31.0324728  74.7485956
  83.4411703  39.4008647  74.0561613  83.8748210  39.3083936  74.9044667
  84.1543284  39.3766147  73.4181629  72.3544754  40.6192645  71.2382346
  73.1485352  40.1242966  71.0364921  71.6436446  40.0910509  70.8750052
  77.1739598  43.0010741  75.5894714  77.2276620  43.5701677  76.3572430
  76.3054379  43.1712626  75.2248751  68.6627517  34.7635727  67.3142099
  67.7325105  34.7020183  67.5312061  68.7584989  34.2411680  66.5178740
  68.5813066  31.2890540  69.9020340  68.8419883  32.2035873  69.7929501
  69.4030238  30.8214983  70.0516953  70.0537991  32.7028297  77.0719165
  70.7261045  32.4945659  76.4231814  69.2267778  32.5050383  76.6324397
  84.3027253  39.4432347  76.5894498  84.4963143  40.3478158  76.8353773
  84.2027871  38.9839767  77.4233083  75.9563563  29.3290238  79.0884826
  75.3091478  30.0280188  78.9949302  76.7264579  29.7626382  79.4561074
  79.3642361  39.5939090  82.1635379  79.2127868  39.3649642  81.2465463
  79.3547041  40.5509692  82.1766724  76.1327698  37.1671003  77.1481646
  77.0619758  37.3182163  76.9750613  75.7118728  37.2555024  76.2930292
  74.9316030  41.1921667  74.9180183  74.7927115  40.8240452  75.7906121
  74.1430626  41.7069307  74.7464141  75.5264182  46.2930764  66.2605720
  75.7015937  45.8218807  67.0751342  74.8396970  46.9196530  66.4886980
  76.4821245  40.5703270  72.3069021  76.1471077  40.5304040  73.2026671
  75.9825190  39.9047986  71.8339431  70.4565489  35.9770900  77.8321602
  70.3185287  35.2451139  78.4333141  71.3670412  35.8879800  77.5505790
  79.4180436  37.9159304  62.5806081  78.8009607  37.1906133  62.4839133
  78.9496925  38.6768665  62.2373155  73.0847789  35.6890859  77.3205282
  73.7947408  35.0484052  77.2791900  73.0417097  35.9403754  78.2431463
  81.0734568  42.6258213  80.2411861  81.0147114  41.9417433  79.5742444
  81.4754086  43.3677203  79.7892487  71.7976723  32.6756077  79.1400921
  71.2614080  32.2246816  79.7922518  71.2093432  32.8101986  78.3971386
  71.2078982  32.1344729  61.7027385  70.3308449  32.0133529  61.3389632
  71.6836735  31.3430807  61.4506274  81.0751975  40.5897797  78.4725841
  80.1878754  40.2523718  78.5952239  81.6450526  39.8580828  78.7094606
  62.7281122  36.9221888  71.7968892  63.4152162  36.6083618  71.2089907
  62.5729251  37.8263253  71.5236143  67.5315845  31.8112085  76.2253916
  67.4474033  31.2037755  75.4904326  66.7098551  32.3021103  76.2263412
  74.6053129  45.2499249  75.4387084  74.5323300  46.0554221  75.9506388
  74.1630522  45.4491215  74.6135105  74.3942908  44.4871019  68.9489905
  73.6110430  45.0292699  69.0428130  75.0935653  45.0044999  69.3484147
  77.7039558  30.2965649  71.5924111  78.2008258  29.5435611  71.2725181
  76.9326540  30.3329965  71.0267320  85.5569316  36.0006014  73.2342402
  85.5459192  36.8830729  72.8636335  84.6886695  35.6477565  73.0396939
  77.0651812  45.1486083  77.5945242  77.7779784  45.7833548  77.5221144
  76.5741841  45.2449949  76.7785244  78.7869339  39.0537336  69.1662534
  77.8525618  39.1738798  68.9967238  78.9646008  38.1509803  68.9022544
  74.2874527  32.4383032  71.3195795  73.9172315  31.8854072  72.0076701
  74.7833620  31.8341165  70.7670795  82.1741890  34.8954655  69.7012568
  82.6402343  35.7282647  69.6272871  82.6249391  34.4299637  70.4057827
  72.1163726  42.8980527  78.4150813  72.8173185  43.5317009  78.5680208
  71.6458841  43.2395258  77.6546453  80.2418122  41.2398476  66.6998720
  80.5177965  41.1255071  67.6092594  79.3722620  40.8415961  66.6610893
  80.1458553  27.2635242  73.7403470  79.2321633  27.4939469  73.9085677
  80.5751655  27.3473686  74.5917502  79.9165012  35.4525134  76.2403364
  79.2636462  35.7001041  75.5855816  80.2945392  34.6389272  75.9065841
  76.8772186  45.4884827  70.3431534  77.0594580  44.6706483  70.8059286
  77.7005172  45.7052519  69.9056424  77.2114351  44.4153012  67.6046582
  77.7402117  43.9045467  66.9916745  77.4742571  44.0995542  68.4692115
  75.9652585  36.1944945  82.7269401  75.2893222  36.0939074  83.3971776
  76.7880219  36.0384159  83.1905398  67.7131444  42.4316882  75.3481916
  68.2984881  41.6860569  75.4809820  67.5156282  42.7420838  76.2318580
  70.5670099  45.4668129  70.3644358  69.8980474  45.9514257  69.8808398
  70.4282969  45.7137349  71.2787737  62.3049099  35.0022482  74.0686359
  62.3433198  34.4686072  74.8623477  61.7989391  34.4757687  73.4497336
  74.7075368  47.5011872  76.9627017  75.2593676  47.6643494  77.7276102
  75.0481561  48.0916310  76.2907042  69.6839861  29.8487022  77.5648901
  69.7481187  30.7101853  77.1526299  69.6206981  29.2361024  76.8321260
  69.1592133  31.9210155  81.2121936  69.7864172  31.5387232  81.8259460
  68.3020052  31.7024357  81.5777628  79.5586242  42.3273130  82.8175671
  80.1026146  42.9403088  82.3230626  78.9773087  42.8852708  83.3342684
  65.9357676  33.7286584  67.1440291  66.2311117  32.8197262  67.0907344
  65.0345712  33.7074323  66.8221293  77.8443755  45.4493848  73.9490699
  77.7194894  44.6483588  73.4401644  78.5022846  45.9440041  73.4604669
  69.4651923  31.8042581  73.1267839  68.7438509  32.4178548  72.9875312
  70.2545179  32.3400345  73.0484485  79.9078663  43.2502868  75.5770249
  78.9608999  43.1308219  75.5048576  80.2561436  42.3625366  75.6596510
  72.2678237  29.1397007  79.4008491  72.7912638  29.3859304  80.1634800
  72.0490570  29.9717042  78.9811628  67.6645518  31.4100682  67.2679616
  67.3358224  30.5298061  67.0854722  68.0184888  31.3548350  68.1556005
  76.9125097  43.0455584  71.7774601  76.7650059  42.1172292  71.9582171
  77.7378590  43.0675675  71.2931676  70.7787341  31.6973651  67.6355093
  71.1183413  32.2259573  66.9133702  71.2259461  32.0354058  68.4113660
  80.5159218  43.8684143  72.8639474  81.4405766  43.6627004  72.7263925
  80.3474522  43.6200544  73.7728815  73.4730782  30.0810702  77.0858161
  73.1327602  29.2818515  77.4878841  72.7669788  30.3812413  76.5134995
  74.1247253  27.1660015  75.5385484  74.9473323  26.6920493  75.4164375
  74.3685317  27.9450498  76.0384171  72.7655488  30.1948273  65.8348386
  73.4863850  30.5729526  65.3312103  72.1420792  30.9137150  65.9383364
  76.9086611  30.8993422  66.7706718  77.1250225  31.7818060  66.4695547
  76.4280678  30.5079635  66.0412360  71.6485832  33.8579135  73.3477463
  71.5030413  34.1719438  74.2401745  71.1711036  34.4764036  72.7948362
  73.5082215  30.8481683  73.3958353  73.4943784  29.9522776  73.0590651
  74.2254643  30.8552347  74.0296639  75.3608346  31.2819023  75.4411480
  75.1026124  32.2036094  75.4395810  74.8293386  30.8849458  76.1311944
  80.3054535  44.3869810  68.2201565  80.4791412  43.8216233  67.4675418
  80.7983426  45.1870705  68.0381055  66.1231494  36.3984480  76.2865124
  65.5784962  37.1744288  76.4185399  67.0010844  36.7455284  76.1284246
  72.9119111  29.7296063  68.6645923  73.0335022  28.8012710  68.8636810
  72.6221153  29.7434749  67.7524238  75.7810301  27.4150974  71.8012643
  75.8031998  27.4790307  70.8464622  76.1978360  26.5755483  71.9953149
  86.1593926  37.1506233  69.8391865  86.6025072  36.4013559  69.4410988
  85.2820436  37.1416370  69.4565597  81.2929707  43.7036575  65.3198464
  81.9880612  44.3243268  65.5385778  81.6352857  42.8531926  65.5950842
  66.9097516  35.5254376  79.1795281  66.1679252  35.6737011  79.7659912
  66.5890261  35.7862641  78.3162030  83.1921130  41.1536280  66.8485794
  83.7172454  41.4923553  66.1235114  83.1043483  40.2183296  66.6648929
  74.8541179  45.0670354  78.9775671  75.1628305  44.8219501  79.8498371
  75.6516661  45.2716993  78.4894541  74.8761791  47.2208264  71.2081048
  74.4366781  46.7284642  71.9013904  75.6269908  46.6781231  70.9673123
  67.3554130  43.4119805  71.2105676  68.1812150  43.1123576  70.8304319
  67.0048182  42.6427427  71.6595464  72.3235663  42.7646273  73.2803349
  71.7015672  42.1016978  72.9805577  72.9940530  42.7907405  72.5976997
  65.5562735  41.3306131  72.1694609  64.7194643  40.9028305  71.9878611
  65.5286380  41.5238574  73.1065401  72.3960191  31.2428061  82.8735855
  72.4448346  32.1190184  82.4913625  72.9382705  30.7005454  82.3007499
  82.8815036  41.7869184  82.1536992  82.0910580  41.7693323  81.6141492
  82.6448391  42.3257478  82.9086029  83.0012911  38.6361650  79.4669721
  83.0510916  38.4711658  80.4085244  82.8926835  37.7688909  79.0767602
  71.8849170  41.3150196  66.7561810  72.0337290  41.9985661  66.1028483
  72.6915613  41.2955286  67.2711266  80.2916674  34.6192578  80.7829028
  81.1926536  34.4799043  80.4913025  80.3664648  34.7847033  81.7227205
  74.6259479  31.9959433  79.6282214  73.7562788  32.2892999  79.3564803
  74.8618959  32.5799878  80.3489478  84.5031108  41.0558592  79.7111742
  84.2115916  41.4188573  80.5475203  83.8903239  40.3425600  79.5325075
  85.7026790  38.6211472  72.2314313  86.5373682  39.0601276  72.3951873
  85.8385919  38.1450125  71.4122558  82.7518296  36.1791207  78.1791800
  83.2272418  36.3718853  77.3710652  81.8283862  36.2350392  77.9335184
  69.6401803  37.3415374  67.7622879  69.3947845  36.4377704  67.9603089
  69.8097718  37.3432524  66.8202357  77.3298513  28.2139050  77.1447634
  77.8480457  28.9500077  76.8194123  76.9753646  28.5203043  77.9794393
  68.9097451  33.0743731  65.2609040  68.2166695  33.1488086  64.6049076
  68.6649202  32.3104075  65.7830557  77.5811107  24.6339333  72.6648531
  77.8612861  23.9662522  73.2908958  78.3661714  24.8268428  72.1523195
  75.3844576  43.8098327  64.2273557  74.8118543  44.4288514  63.7744029
  75.9577369  44.3597688  64.7613479  81.4519965  33.0556967  76.4120106
  82.4037388  33.1555064  76.4332330  81.2823416  32.2635235  76.9218190
  79.4734345  30.1412550  76.5979507  78.8784277  30.4217563  75.9025996
  79.1884042  30.6306451  77.3696248  78.6041835  44.0935477  65.3582140
  79.5372508  44.0281038  65.5615015  78.5165048  44.9291744  64.8996672
  81.2329852  43.4101347  62.3186087  81.1543484  43.0761211  63.2121845
  82.0539519  43.9023115  62.3177559  83.9308043  36.2763086  75.5262406
  83.8984363  35.3379087  75.7122090  84.5408667  36.3547123  74.7928231
  75.7691374  35.1459139  61.5689610  76.7150479  35.0165347  61.6378028
  75.3905619  34.4073801  62.0459038  84.0802532  33.0674130  75.5720689
  83.5641580  32.2832586  75.3850618  84.9642480  32.7392846  75.7367208
  81.7413259  26.8115145  71.5316502  81.5438080  26.5030234  72.4159834
  82.3512964  27.5376784  71.6614431  89.7484593  37.3379093  74.6668443
  90.4787982  37.0764381  75.2276146  89.1391539  36.6007815  74.7070511
  87.8299890  35.4786956  75.2642894  87.1033054  35.3442921  74.6559385
  87.4147177  35.7863784  76.0699612  75.6530067  39.1976885  83.0290267
  76.5733076  39.3755484  83.2230313  75.6179650  38.2532931  82.8769966
  73.9534291  33.0709116  61.5044495  73.0465747  32.7742228  61.5807209
  74.2310272  32.7738934  60.6378781  64.8712232  34.3915479  71.9543541
  64.5515016  33.5380787  71.6617915  64.3245660  34.6064057  72.7101509
  68.6492139  37.1077920  75.6713048  68.8678149  38.0395028  75.6901082
  69.0617913  36.7485895  76.4567852  75.5696357  27.6146005  67.6588736
  74.7597085  27.2693090  68.0343982  76.2580774  27.3053549  68.2476348
  77.4986905  26.6924052  69.2813033  78.0517944  27.1119506  69.9403056
  77.7356992  25.7659800  69.3235989  73.5220004  32.6811126  85.0615797
  73.4216731  33.6305483  84.9927888  73.3041546  32.3529365  84.1891867
  72.7233076  29.9296051  61.6456474  73.5852240  30.2550949  61.9052292
  72.9083420  29.1427547  61.1329540  64.7400492  38.0118391  73.9236663
  64.0463963  37.5972343  73.4106617  65.4873483  38.0538927  73.3270082
  80.8765712  28.8024577  68.7891697  80.2964381  29.4609381  68.4069750
  80.6101645  27.9801922  68.3779115  79.3269279  28.2029635  70.9913018
  79.8269057  28.3146170  70.1827336  79.9704887  27.8990688  71.6313826
  73.3851275  36.1108265  83.8780858  72.9018356  36.9108625  84.0844748
  73.4712214  36.1216210  82.9248302  66.6537234  37.9436644  71.8002678
  66.6307922  38.0424332  70.8484561  66.9637871  38.7901795  72.1219844
  69.3124612  40.0012799  75.9149292  70.2667866  39.9696742  75.8479224
  69.1137136  39.5403423  76.7299518  69.9023994  38.5713915  78.4820090
  70.7216883  39.0657994  78.5054927  70.1760802  37.6545884  78.4537657
  79.6590590  30.9624668  67.8448045  78.7716445  31.2474318  67.6268240
  80.0744579  30.8018431  66.9975322  83.0105126  30.9871189  71.5602385
  83.7865517  31.4767641  71.8327002  82.2853261  31.4129243  72.0174254
  85.4477685  31.6998808  72.6176325  86.0422176  31.4594544  71.9069634
  85.5204269  30.9805939  73.2449862  67.6674841  45.5432419  72.9319490
  67.5329309  44.7832820  72.3657488  67.2506903  46.2673319  72.4648279
  78.8033804  40.7269342  61.9396065  79.5069654  40.9319345  62.5553721
  78.0796453  41.2946104  62.2045149  79.6331614  36.4779204  68.0598336
  79.5766815  36.9347755  67.2205968  80.1859957  35.7169888  67.8821178
  83.4436420  32.2668936  68.8848455  83.1873354  31.8665571  69.7156663
  82.8189288  32.9812730  68.7598594  87.7548758  35.0065009  71.3919747
  87.1948316  35.0758198  72.1651309  87.1492261  34.8305993  70.6719243
  70.8243967  46.4401736  73.1437933  70.7076351  47.3847168  73.0416623
  70.0036413  46.1375297  73.5323732  80.7120501  41.1651872  63.9894525
  81.5466105  40.7333070  63.8072000  80.5504844  40.9933885  64.9171420
  80.3666393  37.6683985  65.3550865  80.3115197  37.5028256  64.4139309
  79.7412449  38.3760018  65.5113055  65.1558908  32.9052049  79.1812287
  65.8017772  32.3951003  79.6699512  64.9476059  33.6420731  79.7555712
  77.6812301  39.9732897  84.6804428  78.5503460  40.1473549  84.3191062
  77.2019052  40.7927314  84.5580157  73.6762519  27.1692094  64.9336183
  73.6641189  28.1133934  65.0904454  74.5685941  26.9862239  64.6395644
  71.8498481  47.0929998  76.3593861  72.7525727  47.1253608  76.6760356
  71.6235851  46.1630449  76.3740197  73.6052083  45.8460984  73.0203940
  72.6547714  45.8462846  72.9068312  73.9084569  45.0993719  72.5039974
  77.4914638  23.7634871  69.1882120  76.7247034  23.2093357  69.3338802
  77.9025343  23.8356739  70.0496272  69.4956399  30.0519666  83.2787301
  70.3587861  29.6956471  83.4890626  68.9221810  29.7133561  83.9662706
  89.3404776  51.6821523  74.0849702  89.9783186  51.5628270  73.3813042
  89.2225619  52.6302367  74.1437654  86.1494483  51.6348951  74.0211227
  85.8112994  51.5190016  73.1331762  87.0184251  51.2340116  74.0012233
  82.0081298  53.4884427  70.0108118  81.4446163  53.3974364  69.2424406
  81.8933693  52.6684332  70.4910610  86.6314266  52.7883803  79.9797432
  86.6202906  52.3936601  79.1077936  86.7934905  52.0549875  80.5731204
  87.5880857  57.1555395  65.3222583  86.9368837  57.7409475  64.9356597
  88.3825220  57.6861590  65.3817620  83.3521527  55.5720914  78.9276616
  83.0611393  56.4766545  78.8123283  83.9878511  55.6137442  79.6420686
  84.2777734  52.9497763  75.5177976  84.8741306  52.7253785  74.8034939
  84.3352705  52.2082508  76.1203424  83.8502762  50.4037198  63.3528167
  84.1028283  49.8818720  62.5911630  82.9127321  50.2403344  63.4554851
  88.8946045  49.4072977  71.1602910  89.6809134  48.9892400  70.8093327
  89.1584749  50.3119069  71.3284559  89.0656122  54.8445827  65.8591567
  88.4301955  54.9180453  66.5712472  88.7353529  55.4339426  65.1810646
  94.2954472  49.3448210  72.0635889  95.0279644  48.7747427  72.2973718
  93.5393828  48.9569810  72.5042394  83.5699051  52.3065304  65.5552542
  83.4535309  51.6310208  66.2233626  83.6801311  51.8197678  64.7384695
  85.9130592  51.7675451  69.2599231  85.5488799  51.2406072  69.9712153
  86.7697708  51.3773920  69.0865717  91.8179892  43.0569784  76.5230497
  91.4863217  43.9265195  76.2991712  91.2225506  42.7406068  77.2024528
  85.5536079  46.7965351  64.2560580  85.7210481  47.6645587  64.6231051
  85.3633248  46.9592633  63.3321869  88.3111412  55.2582330  75.9226410
  88.0112135  56.1607369  75.8142217  87.9662471  54.9914513  76.7747563
  81.7623893  51.7096127  71.9563115  80.8374390  51.5772341  72.1640806
  82.0108306  52.4890346  72.4533057  91.7108556  47.7764870  73.6023847
  90.8025433  47.7080279  73.3082608  91.6596151  48.2536815  74.4305673
  85.5325299  49.2523009  65.2407247  85.4124925  49.6980059  66.0792727
  84.8377888  49.6008326  64.6820785  79.1232704  51.3529400  72.7906904
  79.2525085  51.6063879  73.7046315  78.4430156  51.9457108  72.4711559
  85.7849421  49.1954516  81.5458745  85.0082755  49.7548436  81.5361609
  86.4239984  49.6811299  82.0673615  93.5770202  45.9781309  75.3801721
  92.9344582  46.2713842  74.7341516  93.0725130  45.8634229  76.1854918
  91.2310366  49.7244482  66.0687581  92.1428222  49.9571868  65.8935278
  90.7220013  50.3081526  65.5062659  84.0395794  52.0039969  81.1076712
  84.7810478  52.5425013  80.8311535  83.3332779  52.6306258  81.2648264
  89.5151133  54.1469110  79.7048873  89.9234489  53.7051520  78.9603506
  88.7928395  53.5721737  79.9583066  85.8682203  49.0841716  77.0782430
  86.7143399  49.5081130  77.2217079  85.8080841  48.4275341  77.7720993
  89.8379948  54.7070300  73.4601162  89.2088810  54.8716014  72.7577230
  89.4505610  55.1211910  74.2312126  93.7169180  55.6424738  70.8145526
  93.0320218  56.0223639  70.2642559  93.8013029  56.2520065  71.5477474
  89.0181649  46.7446085  78.7363604  88.7742581  47.4988145  78.1997879
  89.2941579  47.1231432  79.5710851  90.9720111  53.2884697  77.4140869
  91.1837007  53.9316457  76.7375250  90.9249860  52.4547014  76.9462799
  88.5746340  45.9002518  74.3177442  87.7130819  46.1983771  74.6094179
  88.6008775  46.1172917  73.3858474  85.3907910  54.4444708  70.7251247
  85.8546255  54.7232411  69.9355870  85.1264708  53.5428153  70.5424338
  82.2831991  53.9916190  73.6631010  82.8533348  54.4203458  73.0248495
  82.8740103  53.7098774  74.3615196  84.3276796  50.5667861  67.5340812
  85.0300839  51.0188904  68.0014739  83.9957424  49.9251679  68.1620705
  82.7757157  49.1579617  81.9092022  82.1455818  49.8395898  82.1427419
  82.6693245  49.0462699  80.9645160  78.0702130  48.8251413  72.8357946
  77.2801184  49.0808942  72.3598057  78.5613377  49.6399751  72.9409986
  80.0216875  49.1895993  69.7941423  79.2248038  49.3014687  70.3124918
  79.7942467  49.5282645  68.9282313  85.8522543  55.7140696  77.7423937
  85.9166975  56.1761103  78.5782109  85.1433467  55.0838061  77.8706247
  76.3539833  49.0781904  75.2672937  76.6047871  49.9628914  75.5330513
  76.8899381  48.8986505  74.4948029 100.1771932  52.5095401  71.9348198
  99.4235641  51.9402799  71.7792203 100.3119474  52.4758065  72.8818833
  82.0537900  43.4600383  84.2717273  81.6604846  42.9066582  84.9464917
  82.8704040  43.7710962  84.6623790  84.9705861  44.8758262  81.8637529
  85.7115574  45.4765415  81.7841992  85.2023784  44.1335900  81.3055572
  80.1147199  50.0614629  80.1415759  80.0000714  49.1599887  80.4422858
  79.2591717  50.3078326  79.7900576  85.7493329  55.7979299  80.6108169
  86.2821666  55.0367587  80.3807477  85.2207410  55.5052951  81.3532324
  88.9163024  40.9039365  76.1401811  88.5727293  41.7941007  76.0640922
  89.2841987  40.7141023  75.2771396  88.8813307  50.8947976  64.6474246
  88.3659930  51.6652581  64.8862634  88.6090615  50.2213112  65.2707308
  86.4660418  45.7397677  69.7059485  85.6102014  45.3504527  69.5265123
  86.8787370  45.8189638  68.8459270  87.9959564  43.2744020  74.1051044
  87.4924360  43.2374155  73.2918850  88.2890171  44.1836763  74.1647701
  84.2402450  43.3582750  73.1117226  85.1055447  43.1625559  72.7523115
  84.3079959  43.1293102  74.0386583  93.8547581  53.6480331  66.5827420
  93.0777024  53.3091490  66.1382582  94.5339062  53.6532954  65.9082385
  88.6699610  48.7675068  66.4734027  88.3649746  49.0821217  67.3244171
  89.6230052  48.8456488  66.5161360  87.1146042  54.9265292  68.1226981
  86.5867403  54.1918051  67.8100219  86.6133545  55.7039968  67.8766950
  92.0938888  53.1214312  73.2394028  91.4362562  53.8113574  73.3274156
  92.8979287  53.5110744  73.5828014  81.8464769  45.5884958  70.4833593
  82.4208521  45.3660139  69.7506786  82.4335752  45.6573652  71.2362194
  90.9044347  51.4758685  71.2897969  91.4176228  52.1088677  71.7919679
  91.5545571  50.8759880  70.9241329  82.1734357  47.6189419  64.5029478
  81.3371669  47.9564105  64.8238753  82.0339126  47.4838399  63.5656615
  84.1487437  42.4626207  69.2108662  83.4951849  42.1475224  68.5865277
  84.1067911  41.8401947  69.9368485  85.2598642  52.7445502  61.1261954
  84.3525704  52.5134755  61.3253103  85.7569674  51.9483121  61.3135936
  88.1666721  61.4543009  64.0458640  87.4928420  61.7574706  64.6543598
  88.5532543  62.2572089  63.6964098  87.3825177  48.9508140  73.5356310
  86.4647739  49.1723087  73.3777998  87.7985321  49.0254451  72.6768017
  88.1660225  50.3499556  68.6658990  88.9132044  50.8620953  68.3566112
  88.4351815  50.0283609  69.5263384  86.4386875  52.8458097  65.6485944
  85.5298095  52.5617130  65.7458414  86.4681959  53.2657175  64.7889251
  91.6706143  56.4564686  69.4177112  91.2168470  55.6155596  69.4742302
  91.0400110  57.0926085  69.7551892  90.6139062  47.3856672  70.6477779
  89.8761819  46.8734058  70.9788022  90.8665836  46.9457054  69.8361056
  90.1139082  58.2941183  70.3526930  90.4062056  58.8546240  69.6339296
  90.6237703  58.5869744  71.1080089  90.7150690  40.1632924  71.2419549
  91.0209567  39.3030288  70.9545464  91.4403295  40.7550544  71.0418543
  84.9871769  50.4586717  71.7495740  85.0420379  49.5060554  71.6738216
  84.1762971  50.6146156  72.2337038  86.1362963  54.3866840  62.9874023
  85.6982393  53.6702699  62.5279660  86.8773404  54.6142955  62.4259114
  82.9264129  49.0763777  69.5086119  82.1131995  49.3757948  69.9151311
  83.4223124  48.6819466  70.2260601  88.5238341  49.5405602  78.3401013
  88.8787729  49.7677075  79.1995478  89.1710472  49.8723978  77.7178268
  94.2536078  52.6624037  69.0450342  94.1153977  52.8525633  68.1171531
  93.8972297  53.4243420  69.5018393  82.4178204  46.6482133  75.1247354
  83.0577583  46.5070892  74.4270317  81.5855735  46.3616646  74.7485956
  94.2805458  54.7300564  74.0561613  94.7141964  54.6375854  74.9044667
  94.9937038  54.7058065  73.4181629  79.5021272  50.0927645  67.3142099
  78.5718860  50.0312100  67.5312061  79.5978744  49.5703598  66.5178740
  79.4206821  46.6182458  69.9020340  79.6813638  47.5327791  69.7929501
  80.2423993  46.1506900  70.0516953  80.8931746  48.0320215  77.0719165
  81.5654799  47.8237577  76.4231814  80.0661532  47.8342301  76.6324397
  95.1421007  54.7724265  76.5894498  95.3356897  55.6770076  76.8353773
  95.0421625  54.3131684  77.4233083  86.7957318  44.6582156  79.0884826
  86.1485233  45.3572105  78.9949302  87.5658333  45.0918300  79.4561074
  90.2036116  54.9231008  82.1635379  90.0521622  54.6941560  81.2465463
  90.1940795  55.8801609  82.1766724  86.9721452  52.4962921  77.1481646
  87.9013512  52.6474080  76.9750613  86.5512482  52.5846941  76.2930292
  87.3214999  55.8995188  72.3069021  86.9864832  55.8595958  73.2026671
  86.8218945  55.2339904  71.8339431  81.2959243  51.3062818  77.8321602
  81.1579041  50.5743057  78.4333141  82.2064167  51.2171718  77.5505790
  90.2574191  53.2451222  62.5806081  89.6403361  52.5198050  62.4839133
  89.7890679  54.0060582  62.2373155  83.9241544  51.0182777  77.3205282
  84.6341162  50.3775969  77.2791900  83.8810852  51.2695672  78.2431463
  82.6370478  48.0047995  79.1400921  82.1007835  47.5538733  79.7922518
  82.0487186  48.1393904  78.3971386  82.0472737  47.4636646  61.7027385
  81.1702203  47.3425447  61.3389632  82.5230490  46.6722725  61.4506274
  78.3709599  47.1404003  76.2253916  78.2867788  46.5329672  75.4904326
  77.5492305  47.6313021  76.2263412  88.5433313  45.6257566  71.5924111
  89.0402012  44.8727529  71.2725181  87.7720294  45.6621883  71.0267320
  96.3963070  51.3297932  73.2342402  96.3852947  52.2122647  72.8636335
  95.5280450  50.9769483  73.0396939  89.6263094  54.3829253  69.1662534
  88.6919372  54.5030716  68.9967238  89.8039762  53.4801720  68.9022544
  85.1268282  47.7674949  71.3195795  84.7566069  47.2145990  72.0076701
  85.6227374  47.1633083  70.7670795  93.0135645  50.2246573  69.7012568
  93.4796097  51.0574564  69.6272871  93.4643145  49.7591554  70.4057827
  91.0811876  56.5690394  66.6998720  91.3571720  56.4546989  67.6092594
  90.2116375  56.1707879  66.6610893  90.9852308  42.5927160  73.7403470
  90.0715387  42.8231387  73.9085677  91.4145409  42.6765604  74.5917502
  90.7558766  50.7817052  76.2403364  90.1030216  51.0292959  75.5855816
  91.1339146  49.9681190  75.9065841  86.8046339  51.5236863  82.7269401
  86.1286976  51.4230992  83.3971776  87.6273973  51.3676076  83.1905398
  80.5233615  45.1778940  77.5648901  80.5874942  46.0393771  77.1526299
  80.4600736  44.5652942  76.8321260  79.9985888  47.2502073  81.2121936
  80.6257927  46.8679150  81.8259460  79.1413807  47.0316274  81.5777628
  80.3045678  47.1334498  73.1267839  79.5832263  47.7470466  72.9875312
  81.0938933  47.6692263  73.0484485  83.1071991  44.4688925  79.4008491
  83.6306393  44.7151221  80.1634800  82.8884324  45.3008960  78.9811628
  78.5039272  46.7392599  67.2679616  78.1751978  45.8589978  67.0854722
  78.8578643  46.6840268  68.1556005  81.6181095  47.0265569  67.6355093
  81.9577168  47.5551490  66.9133702  82.0653216  47.3645975  68.4113660
  84.3124536  45.4102620  77.0858161  83.9721357  44.6110433  77.4878841
  83.6063542  45.7104331  76.5134995  84.9641008  42.4951932  75.5385484
  85.7867077  42.0212410  75.4164375  85.2079072  43.2742416  76.0384171
  83.6049242  45.5240191  65.8348386  84.3257605  45.9021443  65.3312103
  82.9814547  46.2429067  65.9383364  87.7480365  46.2285340  66.7706718
  87.9643980  47.1109978  66.4695547  87.2674433  45.8371553  66.0412360
  82.4879587  49.1871053  73.3477463  82.3424167  49.5011356  74.2401745
  82.0104790  49.8055953  72.7948362  84.3475970  46.1773601  73.3958353
  84.3337538  45.2814694  73.0590651  85.0648398  46.1844265  74.0296639
  86.2002100  46.6110941  75.4411480  85.9419878  47.5328012  75.4395810
  85.6687141  46.2141376  76.1311944  91.1448289  59.7161728  68.2201565
  91.3185167  59.1508151  67.4675418  91.6377180  60.5162623  68.0381055
  76.9625249  51.7276397  76.2865124  76.4178717  52.5036205  76.4185399
  77.8404599  52.0747202  76.1284246  83.7512866  45.0587981  68.6645923
  83.8728777  44.1304627  68.8636810  83.4614908  45.0726667  67.7524238
  86.6204056  42.7442892  71.8012643  86.6425753  42.8082225  70.8464622
  87.0372115  41.9047400  71.9953149  96.9987680  52.4798151  69.8391865
  97.4418826  51.7305476  69.4410988  96.1214191  52.4708287  69.4565597
  92.1323462  59.0328493  65.3198464  92.8274366  59.6535185  65.5385778
  92.4746612  58.1823844  65.5950842  77.7491271  50.8546294  79.1795281
  77.0073007  51.0028929  79.7659912  77.4284015  51.1154559  78.3162030
  94.0314885  56.4828198  66.8485794  94.5566209  56.8215471  66.1235114
  93.9437237  55.5475213  66.6648929  83.2353945  46.5719978  82.8735855
  83.2842101  47.4482101  82.4913625  83.7776459  46.0297372  82.3007499
  93.8406666  53.9653568  79.4669721  93.8904671  53.8003576  80.4085244
  93.7320589  53.0980827  79.0767602  91.1310428  49.9484496  80.7829028
  92.0320291  49.8090961  80.4913025  91.2058403  50.1138951  81.7227205
  85.4653234  47.3251351  79.6282214  84.5956543  47.6184917  79.3564803
  85.7012714  47.9091796  80.3489478  95.3424863  56.3850510  79.7111742
  95.0509671  56.7480490  80.5475203  94.7296994  55.6717518  79.5325075
  96.5420545  53.9503389  72.2314313  97.3767436  54.3893193  72.3951873
  96.6779674  53.4742043  71.4122558  93.5912051  51.5083124  78.1791800
  94.0666172  51.7010771  77.3710652  92.6677616  51.5642310  77.9335184
  88.1692267  43.5430968  77.1447634  88.6874211  44.2791995  76.8194123
  87.8147400  43.8494961  77.9794393  79.7491205  48.4035649  65.2609040
  79.0560450  48.4780004  64.6049076  79.5042957  47.6395993  65.7830557
  88.4204862  39.9631250  72.6648531  88.7006615  39.2954439  73.2908958
  89.2055468  40.1560346  72.1523195  92.2913720  48.3848884  76.4120106
  93.2431143  48.4846982  76.4332330  92.1217170  47.5927153  76.9218190
  90.3128099  45.4704468  76.5979507  89.7178031  45.7509480  75.9025996
  90.0277796  45.9598368  77.3696248  89.4435590  59.4227394  65.3582140
  90.3766263  59.3572956  65.5615015  89.3558803  60.2583661  64.8996672
  92.0723606  58.7393265  62.3186087  91.9937238  58.4053128  63.2121845
  92.8933273  59.2315033  62.3177559  94.7701798  51.6055004  75.5262406
  94.7378118  50.6671005  75.7122090  95.3802421  51.6839041  74.7928231
  86.6085129  50.4751057  61.5689610  87.5544233  50.3457265  61.6378028
  86.2299373  49.7365719  62.0459038  94.9196286  48.3966047  75.5720689
  94.4035335  47.6124504  75.3850618  95.8036235  48.0684764  75.7367208
  92.5807013  42.1407063  71.5316502  92.3831834  41.8322151  72.4159834
  93.1906719  42.8668702  71.6614431 100.5878348  52.6671011  74.6668443
 101.3181736  52.4056299  75.2276146  99.9785293  51.9299733  74.7070511
  98.6693645  50.8078873  75.2642894  97.9426808  50.6734838  74.6559385
  98.2540932  51.1155702  76.0699612  86.4923821  54.5268803  83.0290267
  87.4126831  54.7047402  83.2230313  86.4573404  53.5824848  82.8769966
  84.7928046  48.4001033  61.5044495  83.8859501  48.1034146  61.5807209
  85.0704027  48.1030851  60.6378781  79.4885894  52.4369838  75.6713048
  79.7071903  53.3686946  75.6901082  79.9011667  52.0777812  76.4567852
  86.4090111  42.9437923  67.6588736  85.5990840  42.5985008  68.0343982
  87.0974528  42.6345467  68.2476348  88.3380660  42.0215970  69.2813033
  88.8911698  42.4411423  69.9403056  88.5750746  41.0951718  69.3235989
  84.3613759  48.0103044  85.0615797  84.2610486  48.9597401  84.9927888
  84.1435301  47.6821282  84.1891867  83.5626830  45.2587969  61.6456474
  84.4245994  45.5842867  61.9052292  83.7477174  44.4719465  61.1329540
  91.7159467  44.1316495  68.7891697  91.1358136  44.7901299  68.4069750
  91.4495399  43.3093840  68.3779115  90.1663033  43.5321553  70.9913018
  90.6662812  43.6438087  70.1827336  90.8098641  43.2282606  71.6313826
  84.2245029  51.4400182  83.8780858  83.7412111  52.2400543  84.0844748
  84.3105968  51.4508127  82.9248302  80.1518366  55.3304717  75.9149292
  81.1061620  55.2988659  75.8479224  79.9530890  54.8695341  76.7299518
  80.7417749  53.9005833  78.4820090  81.5610638  54.3949912  78.5054927
  81.0154556  52.9837801  78.4537657  90.4984345  46.2916585  67.8448045
  89.6110200  46.5766236  67.6268240  90.9138334  46.1310349  66.9975322
  93.8498881  46.3163106  71.5602385  94.6259271  46.8059559  71.8327002
  93.1247015  46.7421161  72.0174254  96.2871440  47.0290726  72.6176325
  96.8815930  46.7886462  71.9069634  96.3598023  46.3097856  73.2449862
  89.6427558  56.0561260  61.9396065  90.3463408  56.2611263  62.5553721
  88.9190207  56.6238022  62.2045149  90.4725369  51.8071121  68.0598336
  90.4160570  52.2639673  67.2205968  91.0253711  51.0461806  67.8821178
  94.2830174  47.5960853  68.8848455  94.0267109  47.1957489  69.7156663
  93.6583043  48.3104647  68.7598594  98.5942512  50.3356927  71.3919747
  98.0342070  50.4050116  72.1651309  97.9886016  50.1597911  70.6719243
  91.5514256  56.4943789  63.9894525  92.3859860  56.0624988  63.8072000
  91.3898599  56.3225803  64.9171420  91.2060148  52.9975903  65.3550865
  91.1508952  52.8320174  64.4139309  90.5806203  53.7051936  65.5113055
  75.9952663  48.2343967  79.1812287  76.6411526  47.7242921  79.6699512
  75.7869814  48.9712649  79.7555712  88.5206055  55.3024814  84.6804428
  89.3897215  55.4765467  84.3191062  88.0412807  56.1219231  84.5580157
  84.5156273  42.4984012  64.9336183  84.5034943  43.4425852  65.0904454
  85.4079695  42.3154157  64.6395644  88.3308393  39.0926788  69.1882120
  87.5640789  38.5385275  69.3338802  88.7419098  39.1648657  70.0496272
  80.3350154  45.3811584  83.2787301  81.1981615  45.0248389  83.4890626
  79.7615565  45.0425479  83.9662706 100.1798531  67.0113440  74.0849702
 100.8176941  66.8920188  73.3813042 100.0619374  67.9594284  74.1437654
  96.9888237  66.9640869  74.0211227  96.6506749  66.8481933  73.1331762
  97.8578005  66.5632034  74.0012233  92.8475053  68.8176345  70.0108118
  92.2839918  68.7266282  69.2424406  92.7327448  67.9976249  70.4910610
  97.4708020  68.1175720  79.9797432  97.4596661  67.7228519  79.1077936
  97.6328660  67.3841793  80.5731204  90.3939485  70.3127537  72.8492338
  91.1860777  69.9718361  72.4338638  90.6336135  70.4222512  73.7694492
  98.4274611  72.4847313  65.3222583  97.7762591  73.0701393  64.9356597
  99.2218974  73.0153508  65.3817620  92.3530239  69.5736450  65.7209717
  93.1261115  69.0265437  65.5822593  92.7055637  70.4380699  65.9324179
  94.1915281  70.9012832  78.9276616  93.9005147  71.8058463  78.8123283
  94.8272266  70.9429360  79.6420686  95.1171488  68.2789681  75.5177976
  95.7135060  68.0545703  74.8034939  95.1746460  67.5374426  76.1203424
  94.6896516  65.7329116  63.3528167  94.9422037  65.2110637  62.5911630
  93.7521076  65.5695261  63.4554851  99.7339799  64.7364894  71.1602910
 100.5202888  64.3184317  70.8093327  99.9978504  65.6410986  71.3284559
  99.9049877  70.1737745  65.8591567  99.2695710  70.2472371  66.5712472
  99.5747283  70.7631343  65.1810646 105.1348226  64.6740127  72.0635889
 105.8673398  64.1039344  72.2973718 104.3787582  64.2861728  72.5042394
  94.4092805  67.6357222  65.5552542  94.2929063  66.9602125  66.2233626
  94.5195065  67.1489596  64.7384695  96.7524346  67.0967369  69.2599231
  96.3882553  66.5697990  69.9712153  97.6091462  66.7065838  69.0865717
 102.6573647  58.3861702  76.5230497 102.3256972  59.2557113  76.2991712
 102.0619260  58.0697986  77.2024528  96.3929833  62.1257269  64.2560580
  96.5604235  62.9937505  64.6231051  96.2027002  62.2884550  63.3321869
  99.1505166  70.5874248  75.9226410  98.8505889  71.4899286  75.8142217
  98.8056226  70.3206431  76.7747563  92.6017648  67.0388044  71.9563115
  91.6768144  66.9064259  72.1640806  92.8502061  67.8182264  72.4533057
 102.5502310  63.1056788  73.6023847 101.6419187  63.0372196  73.3082608
 102.4989906  63.5828733  74.4305673  96.3719054  64.5814926  65.2407247
  96.2518679  65.0271977  66.0792727  95.6771642  64.9300244  64.6820785
  89.9626459  66.6821318  72.7906904  90.0918840  66.9355797  73.7046315
  89.2823910  67.2749026  72.4711559  94.1325946  77.3518568  68.8897378
  94.0549976  78.3026393  68.9685858  93.5287590  77.0064440  69.5472304
 104.4163956  61.3073226  75.3801721 103.7738337  61.6005759  74.7341516
 103.9118885  61.1926147  76.1854918 102.0704120  65.0536399  66.0687581
 102.9821976  65.2863786  65.8935278 101.5613767  65.6373444  65.5062659
 100.3544888  69.4761027  79.7048873 100.7628244  69.0343438  78.9603506
  99.6322149  68.9013655  79.9583066  96.7075958  64.4133634  77.0782430
  97.5537153  64.8373048  77.2217079  96.6474596  63.7567258  77.7720993
 100.6773702  70.0362218  73.4601162 100.0482565  70.2007932  72.7577230
 100.2899365  70.4503827  74.2312126 104.5562934  70.9716656  70.8145526
 103.8713972  71.3515557  70.2642559 104.6406784  71.5811982  71.5477474
  99.8575403  62.0738002  78.7363604  99.6136335  62.8280063  78.1997879
 100.1335334  62.4523350  79.5710851 101.8113866  68.6176615  77.4140869
 102.0230761  69.2608375  76.7375250 101.7643614  67.7838931  76.9462799
  99.4140095  61.2294435  74.3177442  98.5524574  61.5275689  74.6094179
  99.4402530  61.4464834  73.3858474  96.2301664  69.7736626  70.7251247
  96.6940010  70.0524329  69.9355870  95.9658462  68.8720070  70.5424338
  93.1225745  69.3208107  73.6631010  93.6927102  69.7495376  73.0248495
  93.7133857  69.0390692  74.3615196  95.1670550  65.8959778  67.5340812
  95.8694594  66.3480822  68.0014739  94.8351179  65.2543597  68.1620705
 102.9259694  71.4948570  75.5863227 103.7477138  71.0928757  75.3045908
 102.9222097  71.3916804  76.5379343  90.8610630  64.5187910  69.7941423
  90.0641793  64.6306604  70.3124918  90.6336222  64.8574562  68.9282313
  96.6916297  71.0432613  77.7423937  96.7560730  71.5053021  78.5782109
  95.9827221  70.4129978  77.8706247 111.0165687  67.8387319  71.9348198
 110.2629395  67.2694717  71.7792203 111.1513228  67.8049983  72.8818833
  96.4064315  72.7100721  67.6102918  96.2709990  73.5552257  68.0387765
  96.9474127  72.9119999  66.8468851  89.8593712  70.2276159  68.1830843
  90.3718233  71.0219409  68.3336407  90.5116425  69.5302449  68.1164444
  91.6688597  73.3441915  70.2653596  91.8455225  74.2659880  70.0774580
  92.4645431  73.0300334  70.6947976  98.0332791  73.3324287  81.7403260
  97.5896646  72.5460666  81.4224164  98.6950005  73.5203438  81.0747150
  92.7919913  74.8620089  76.2663938  93.3427338  74.7337152  75.4940932
  91.9531388  75.1614978  75.9158831 100.1314029  73.6127087  79.7684661
 100.1132505  74.4335968  79.2764930 101.0533949  73.4881163  79.9934802
  96.5887084  71.1271217  80.6108169  97.1215420  70.3659505  80.3807477
  96.0601165  70.8344869  81.3532324  99.7556779  56.2331283  76.1401811
  99.4121048  57.1232924  76.0640922 100.1235741  56.0432940  75.2771396
  99.7207061  66.2239894  64.6474246  99.2053685  66.9944499  64.8862634
  99.4484370  65.5505030  65.2707308  97.3054172  61.0689595  69.7059485
  96.4495769  60.6796445  69.5265123  97.7181124  61.1481555  68.8459270
  98.8353319  58.6035938  74.1051044  98.3318115  58.5666073  73.2918850
  99.1283926  59.5128681  74.1647701  95.0796205  58.6874668  73.1117226
  95.9449202  58.4917476  72.7523115  95.1473714  58.4585019  74.0386583
 104.6941335  68.9772249  66.5827420 103.9170778  68.6383408  66.1382582
 105.3732816  68.9824872  65.9082385  99.5093364  64.0966986  66.4734027
  99.2043500  64.4113135  67.3244171 100.4623807  64.1748406  66.5161360
  97.9539796  70.2557209  68.1226981  97.4261158  69.5209969  67.8100219
  97.4527299  71.0331886  67.8766950 102.9332642  68.4506230  73.2394028
 102.2756317  69.1405491  73.3274156 103.7373042  68.8402662  73.5828014
  92.6858524  60.9176876  70.4833593  93.2602276  60.6952057  69.7506786
  93.2729506  60.9865570  71.2362194 101.7438101  66.8050602  71.2897969
 102.2569983  67.4380594  71.7919679 102.3939325  66.2051798  70.9241329
  93.0128111  62.9481337  64.5029478  92.1765423  63.2856023  64.8238753
  92.8732881  62.8130316  63.5656615  94.9881192  57.7918124  69.2108662
  94.3345604  57.4767142  68.5865277  94.9461666  57.1693865  69.9368485
  96.0992396  68.0737420  61.1261954  95.1919458  67.8426673  61.3253103
  96.5963428  67.2775039  61.3135936  99.0060475  76.7834927  64.0458640
  98.3322174  77.0866624  64.6543598  99.3926297  77.5864007  63.6964098
  98.2218932  64.2800058  73.5356310  97.3041493  64.5015005  73.3777998
  98.6379076  64.3546369  72.6768017  99.0053980  65.6791474  68.6658990
  99.7525799  66.1912871  68.3566112  99.2745569  65.3575526  69.5263384
  97.2780630  68.1750014  65.6485944  96.3691849  67.8909047  65.7458414
  97.3075714  68.5949093  64.7889251 102.5099897  71.7856604  69.4177112
 102.0562224  70.9447514  69.4742302 101.8793864  72.4218002  69.7551892
 101.4532817  62.7148590  70.6477779 100.7155574  62.2025976  70.9788022
 101.7059590  62.2748972  69.8361056 100.9532837  73.6233101  70.3526930
 101.2455811  74.1838158  69.6339296 101.4631457  73.9161662  71.1080089
 101.5544444  55.4924842  71.2419549 101.8603321  54.6322205  70.9545464
 102.2797049  56.0842462  71.0418543  95.8265524  65.7878635  71.7495740
  95.8814134  64.8352471  71.6738216  95.0156726  65.9438074  72.2337038
  96.9756718  69.7158758  62.9874023  96.5376148  68.9994617  62.5279660
  97.7167159  69.9434873  62.4259114  93.7657884  64.4055695  69.5086119
  92.9525749  64.7049865  69.9151311  94.2616878  64.0111384  70.2260601
  95.9166462  74.4013452  71.4420383  95.8742641  74.6274298  70.5128915
  96.8329161  74.1676826  71.5906184  99.3632096  64.8697519  78.3401013
  99.7181483  65.0968992  79.1995478 100.0104227  65.2015896  77.7178268
 105.0929832  67.9915955  69.0450342 104.9547731  68.1817551  68.1171531
 104.7366051  68.7535338  69.5018393 105.1199212  70.0592482  74.0561613
 105.5535719  69.9667771  74.9044667 105.8330793  70.0349983  73.4181629
  94.0332263  71.2776481  71.2382346  94.8272861  70.7826801  71.0364921
  93.3223955  70.7494344  70.8750052  98.8527107  73.6594576  75.5894714
  98.9064129  74.2285513  76.3572430  97.9841888  73.8296461  75.2248751
  90.3415026  65.4219562  67.3142099  89.4112614  65.3604018  67.5312061
  90.4372498  64.8995515  66.5178740  90.2600575  61.9474375  69.9020340
  90.5207392  62.8619709  69.7929501  91.0817747  61.4798818  70.0516953
 105.9814762  70.1016183  76.5894498 106.1750652  71.0061993  76.8353773
 105.8815380  69.6423602  77.4233083  97.6351072  59.9874073  79.0884826
  96.9878987  60.6864023  78.9949302  98.4052088  60.4210217  79.4561074
 101.0429870  70.2522926  82.1635379 100.8915377  70.0233477  81.2465463
 101.0334550  71.2093527  82.1766724  97.8115207  67.8254838  77.1481646
  98.7407267  67.9765998  76.9750613  97.3906237  67.9138859  76.2930292
  96.6103539  71.8505503  74.9180183  96.4714624  71.4824287  75.7906121
  95.8218135  72.3653142  74.7464141  97.2051691  76.9514599  66.2605720
  97.3803446  76.4802642  67.0751342  96.5184479  77.5780365  66.4886980
  98.1608754  71.2287105  72.3069021  97.8258586  71.1887875  73.2026671
  97.6612699  70.5631821  71.8339431 101.0967945  68.5743140  62.5806081
 100.4797116  67.8489968  62.4839133 100.6284434  69.3352500  62.2373155
 102.7522077  73.2842048  80.2411861 102.6934623  72.6001268  79.5742444
 103.1541595  74.0261038  79.7892487  91.7712776  80.1003962  73.0345580
  92.0109374  80.7322486  73.7124598  90.9281972  79.7492002  73.3210939
  92.8866491  62.7928564  61.7027385  92.0095958  62.6717365  61.3389632
  93.3624244  62.0014642  61.4506274 102.7539484  71.2481632  78.4725841
 101.8666263  70.9107554  78.5952239 103.3238035  70.5164663  78.7094606
  96.2840638  75.9083084  75.4387084  96.2110809  76.7138056  75.9506388
  95.8418031  76.1075050  74.6135105  96.0730417  75.1454854  68.9489905
  95.2897939  75.6876535  69.0428130  96.7723162  75.6628834  69.3484147
  99.3827067  60.9549484  71.5924111  99.8795767  60.2019446  71.2725181
  98.6114049  60.9913801  71.0267320 107.2356825  66.6589849  73.2342402
 107.2246701  67.5414565  72.8636335 106.3674204  66.3061400  73.0396939
  98.7439321  75.8069918  77.5945242  99.4567293  76.4417383  77.5221144
  98.2529350  75.9033784  76.7785244 100.4656848  69.7121171  69.1662534
  99.5313127  69.8322634  68.9967238 100.6433517  68.8093638  68.9022544
  95.9662036  63.0966867  71.3195795  95.5959824  62.5437907  72.0076701
  96.4621129  62.4925000  70.7670795 103.8529399  65.5538490  69.7012568
 104.3189852  66.3866482  69.6272871 104.3036900  65.0883472  70.4057827
  93.7951235  73.5564362  78.4150813  94.4960694  74.1900845  78.5680208
  93.3246350  73.8979093  77.6546453 101.9205631  71.8982312  66.6998720
 102.1965474  71.7838906  67.6092594 101.0510129  71.4999797  66.6610893
 101.8246062  57.9219077  73.7403470 100.9109142  58.1523304  73.9085677
 102.2539164  58.0057521  74.5917502 101.5952521  66.1108969  76.2403364
 100.9423971  66.3584877  75.5855816 101.9732901  65.2973108  75.9065841
  98.5559695  76.1468663  70.3431534  98.7382089  75.3290318  70.8059286
  99.3792681  76.3636355  69.9056424  98.8901860  75.0736848  67.6046582
  99.4189626  74.5629302  66.9916745  99.1530080  74.7579378  68.4692115
  92.2457608  76.1251964  70.3644358  91.5767983  76.6098092  69.8808398
  92.1070478  76.3721185  71.2787737  96.3862877  78.1595708  76.9627017
  96.9381185  78.3227329  77.7276102  96.7269070  78.7500146  76.2907042
 101.2373751  72.9856965  82.8175671 101.7813655  73.5986924  82.3230626
 100.6560596  73.5436544  83.3342684  87.6145185  64.3870419  67.1440291
  87.9098626  63.4781098  67.0907344  86.7133221  64.3658159  66.8221293
  99.5231264  76.1077683  73.9490699  99.3982403  75.3067423  73.4401644
 100.1810355  76.6023877  73.4604669 101.5866172  73.9086703  75.5770249
 100.6396508  73.7892055  75.5048576 101.9348945  73.0209201  75.6596510
  89.3433027  62.0684517  67.2679616  89.0145733  61.1881896  67.0854722
  89.6972397  62.0132186  68.1556005  98.5912606  73.7039420  71.7774601
  98.4437568  72.7756127  71.9582171  99.4166099  73.7259510  71.2931676
  92.4574850  62.3557487  67.6355093  92.7970922  62.8843408  66.9133702
  92.9046970  62.6937893  68.4113660 102.1946727  74.5267978  72.8639474
 103.1193275  74.3210840  72.7263925 102.0262031  74.2784380  73.7728815
  95.1518291  60.7394537  77.0858161  94.8115111  59.9402351  77.4878841
  94.4457297  61.0396248  76.5134995  95.8034762  57.8243850  75.5385484
  96.6260832  57.3504328  75.4164375  96.0472826  58.6034334  76.0384171
  94.4442997  60.8532108  65.8348386  95.1651359  61.2313361  65.3312103
  93.8208301  61.5720985  65.9383364  98.5874120  61.5577257  66.7706718
  98.8037734  62.4401895  66.4695547  98.1068187  61.1663471  66.0412360
  95.1869724  61.5065519  73.3958353  95.1731293  60.6106612  73.0590651
  95.9042152  61.5136182  74.0296639  97.0395855  61.9402859  75.4411480
  96.7813633  62.8619929  75.4395810  96.5080895  61.5433293  76.1311944
 101.9842044  75.0453646  68.2201565 102.1578921  74.4800068  67.4675418
 102.4770935  75.8454541  68.0381055  94.5906620  60.3879899  68.6645923
  94.7122531  59.4596545  68.8636810  94.3008662  60.4018585  67.7524238
  97.4597810  58.0734809  71.8012643  97.4819507  58.1374142  70.8464622
  97.8765869  57.2339318  71.9953149 107.8381435  67.8090069  69.8391865
 108.2812581  67.0597394  69.4410988 106.9607945  67.8000205  69.4565597
 102.9717216  74.3620410  65.3198464 103.6668121  74.9827103  65.5385778
 103.3140366  73.5115761  65.5950842 104.8708639  71.8120116  66.8485794
 105.3959963  72.1507389  66.1235114 104.7830992  70.8767131  66.6648929
  96.5328688  75.7254189  78.9775671  96.8415814  75.4803336  79.8498371
  97.3304170  75.9300828  78.4894541  96.5549300  77.8792099  71.2081048
  96.1154290  77.3868478  71.9013904  97.3057417  77.3365067  70.9673123
  89.0341639  74.0703640  71.2105676  89.8599659  73.7707412  70.8304319
  88.6835691  73.3011262  71.6595464  94.0023172  73.4230108  73.2803349
  93.3803181  72.7600813  72.9805577  94.6728039  73.4491240  72.5976997
  87.2350244  71.9889966  72.1694609  86.3982152  71.5612141  71.9878611
  87.2073889  72.1822410  73.1065401 104.5602545  72.4453019  82.1536992
 103.7698089  72.4277158  81.6141492 104.3235900  72.9841313  82.9086029
 104.6800420  69.2945486  79.4669721 104.7298425  69.1295493  80.4085244
 104.5714344  68.4272745  79.0767602  93.5636679  71.9734031  66.7561810
  93.7124799  72.6569496  66.1028483  94.3703122  71.9539122  67.2711266
 101.9704183  65.2776414  80.7829028 102.8714045  65.1382879  80.4913025
 102.0452157  65.4430869  81.7227205 106.1818617  71.7142427  79.7111742
 105.8903425  72.0772408  80.5475203 105.5690748  71.0009436  79.5325075
 107.3814299  69.2795307  72.2314313 108.2161191  69.7185111  72.3951873
 107.5173428  68.8033960  71.4122558 104.4305805  66.8375042  78.1791800
 104.9059927  67.0302688  77.3710652 103.5071371  66.8934228  77.9335184
  91.3189312  67.9999209  67.7622879  91.0735354  67.0961539  67.9603089
  91.4885227  68.0016360  66.8202357  99.0086022  58.8722886  77.1447634
  99.5267966  59.6083912  76.8194123  98.6541155  59.1786879  77.9794393
  90.5884960  63.7327567  65.2609040  89.8954204  63.8071922  64.6049076
  90.3436711  62.9687910  65.7830557  99.2598616  55.2923168  72.6648531
  99.5400370  54.6246357  73.2908958 100.0449223  55.4852264  72.1523195
  97.0632085  74.4682162  64.2273557  96.4906052  75.0872349  63.7744029
  97.6364878  75.0181524  64.7613479 103.1307474  63.7140802  76.4120106
 104.0824897  63.8138900  76.4332330 102.9610925  62.9219071  76.9218190
 101.1521854  60.7996385  76.5979507 100.5571786  61.0801398  75.9025996
 100.8671551  61.2890286  77.3696248 100.2829344  74.7519312  65.3582140
 101.2160017  74.6864874  65.5615015 100.1952557  75.5875579  64.8996672
 102.9117361  74.0685182  62.3186087 102.8330993  73.7345046  63.2121845
 103.7327028  74.5606950  62.3177559 105.6095552  66.9346922  75.5262406
 105.5771872  65.9962922  75.7122090 106.2196176  67.0130958  74.7928231
  97.4478883  65.8042975  61.5689610  98.3937988  65.6749183  61.6378028
  97.0693128  65.0657637  62.0459038 105.7590041  63.7257965  75.5720689
 105.2429089  62.9416422  75.3850618 106.6429989  63.3976682  75.7367208
 103.4200768  57.4698981  71.5316502 103.2225589  57.1614069  72.4159834
 104.0300473  58.1960620  71.6614431 111.4272102  67.9962929  74.6668443
 112.1575490  67.7348217  75.2276146 110.8179047  67.2591651  74.7070511
 109.5087399  66.1370791  75.2642894 108.7820563  66.0026756  74.6559385
 109.0934686  66.4447620  76.0699612  95.6321800  63.7292951  61.5044495
  94.7253256  63.4326064  61.5807209  95.9097781  63.4322769  60.6378781
  97.2483866  58.2729841  67.6588736  96.4384594  57.9276926  68.0343982
  97.9368283  57.9637385  68.2476348  99.1774414  57.3507888  69.2813033
  99.7305453  57.7703341  69.9403056  99.4144501  56.4243636  69.3235989
  94.4020585  60.5879886  61.6456474  95.2639749  60.9134785  61.9052292
  94.5870929  59.8011382  61.1329540 102.5553221  59.4608413  68.7891697
 101.9751890  60.1193217  68.4069750 102.2889154  58.6385757  68.3779115
 101.0056788  58.8613470  70.9913018 101.5056566  58.9730005  70.1827336
 101.6492396  58.5574523  71.6313826  88.3324743  68.6020480  71.8002678
  88.3095431  68.7008167  70.8484561  88.6425380  69.4485631  72.1219844
  90.9912121  70.6596635  75.9149292  91.9455375  70.6280577  75.8479224
  90.7924645  70.1987259  76.7299518 101.3378099  61.6208503  67.8448045
 100.4503954  61.9058154  67.6268240 101.7532088  61.4602267  66.9975322
 104.6892635  61.6455024  71.5602385 105.4653026  62.1351477  71.8327002
 103.9640770  62.0713078  72.0174254 107.1265194  62.3582643  72.6176325
 107.7209685  62.1178379  71.9069634 107.1991778  61.6389774  73.2449862
  89.3462350  76.2016254  72.9319490  89.2116818  75.4416655  72.3657488
  88.9294412  76.9257154  72.4648279 100.4821313  71.3853178  61.9396065
 101.1857163  71.5903180  62.5553721  99.7583962  71.9529940  62.2045149
 101.3119123  67.1363039  68.0598336 101.2554324  67.5931591  67.2205968
 101.8647466  66.3753724  67.8821178 105.1223929  62.9252771  68.8848455
 104.8660863  62.5249407  69.7156663 104.4976797  63.6396565  68.7598594
 109.4336267  65.6648844  71.3919747 108.8735825  65.7342034  72.1651309
 108.8279770  65.4889829  70.6719243  92.5031476  77.0985571  73.1437933
  92.3863860  78.0431004  73.0416623  91.6823922  76.7959133  73.5323732
 102.3908010  71.8235707  63.9894525 103.2253614  71.3916905  63.8072000
 102.2292353  71.6517721  64.9171420 102.0453902  68.3267820  65.3550865
 101.9902706  68.1612092  64.4139309 101.4199958  69.0343853  65.5113055
  99.3599810  70.6316732  84.6804428 100.2290969  70.8057384  84.3191062
  98.8806561  71.4511149  84.5580157  95.3550028  57.8275929  64.9336183
  95.3428698  58.7717769  65.0904454  96.2473450  57.6446075  64.6395644
  93.5285990  77.7513833  76.3593861  94.4313236  77.7837443  76.6760356
  93.3023360  76.8214284  76.3740197  95.2839592  76.5044820  73.0203940
  94.3335223  76.5046681  72.9068312  95.5872078  75.7577554  72.5039974
  99.1702147  54.4218706  69.1882120  98.4034543  53.8677193  69.3338802
  99.5812852  54.4940575  70.0496272 111.0192285  82.3405358  74.0849702
 111.6570695  82.2212105  73.3813042 110.9013128  83.2886202  74.1437654
 107.8281992  82.2932786  74.0211227 107.4900503  82.1773851  73.1331762
 108.6971760  81.8923951  74.0012233 103.6868807  84.1468263  70.0108118
 103.1233672  84.0558200  69.2424406 103.5721202  83.3268167  70.4910610
 108.3101775  83.4467638  79.9797432 108.2990415  83.0520436  79.1077936
 108.4722414  82.7133711  80.5731204 101.2333239  85.6419454  72.8492338
 102.0254531  85.3010279  72.4338638 101.4729889  85.7514429  73.7694492
 109.2668366  87.8139230  65.3222583 108.6156346  88.3993311  64.9356597
 110.0612729  88.3445425  65.3817620 103.1923993  84.9028367  65.7209717
 103.9654869  84.3557355  65.5822593 103.5449392  85.7672617  65.9324179
 105.0309036  86.2304750  78.9276616 104.7398902  87.1350381  78.8123283
 105.6666020  86.2721277  79.6420686 105.9565243  83.6081598  75.5177976
 106.5528815  83.3837621  74.8034939 106.0140214  82.8666344  76.1203424
 105.5290271  81.0621034  63.3528167 105.7815792  80.5402555  62.5911630
 104.5914830  80.8987179  63.4554851 110.5733554  80.0656812  71.1602910
 111.3596643  79.6476235  70.8093327 110.8372258  80.9702904  71.3284559
 110.7443631  85.5029662  65.8591567 110.1089464  85.5764289  66.5712472
 110.4141038  86.0923261  65.1810646 115.9741981  80.0032045  72.0635889
 116.7067153  79.4331262  72.2973718 115.2181337  79.6153646  72.5042394
 105.2486560  82.9649140  65.5552542 105.1322818  82.2894043  66.2233626
 105.3588820  82.4781513  64.7384695 107.5918101  82.4259287  69.2599231
 107.2276308  81.8989908  69.9712153 108.4485217  82.0357756  69.0865717
 113.4967401  73.7153619  76.5230497 113.1650726  74.5849030  76.2991712
 112.9013015  73.3989903  77.2024528 107.2323588  77.4549186  64.2560580
 107.3997990  78.3229423  64.6231051 107.0420757  77.6176468  63.3321869
 109.9898921  85.9166165  75.9226410 109.6899644  86.8191204  75.8142217
 109.6449980  85.6498348  76.7747563 103.4411402  82.3679962  71.9563115
 102.5161899  82.2356176  72.1640806 103.6895815  83.1474181  72.4533057
 113.3896065  78.4348705  73.6023847 112.4812942  78.3664114  73.3082608
 113.3383660  78.9120650  74.4305673 107.2112808  79.9106844  65.2407247
 107.0912434  80.3563895  66.0792727 106.5165397  80.2592162  64.6820785
 100.8020213  82.0113236  72.7906904 100.9312594  82.2647715  73.7046315
 100.1217665  82.6040944  72.4711559 104.9719701  92.6810486  68.8897378
 104.8943730  93.6318311  68.9685858 104.3681344  92.3356358  69.5472304
 107.4636930  79.8538351  81.5458745 106.6870264  80.4132271  81.5361609
 108.1027493  80.3395134  82.0673615 115.2557711  76.6365144  75.3801721
 114.6132091  76.9297677  74.7341516 114.7512639  76.5218064  76.1854918
 112.9097875  80.3828317  66.0687581 113.8215731  80.6155704  65.8935278
 112.4007522  80.9665361  65.5062659 105.7183303  82.6623804  81.1076712
 106.4597987  83.2008848  80.8311535 105.0120288  83.2890093  81.2648264
 111.1938642  84.8052945  79.7048873 111.6021998  84.3635355  78.9603506
 110.4715904  84.2305572  79.9583066 107.5469712  79.7425552  77.0782430
 108.3930908  80.1664965  77.2217079 107.4868350  79.0859176  77.7720993
 111.5167457  85.3654135  73.4601162 110.8876319  85.5299850  72.7577230
 111.1293119  85.7795745  74.2312126 115.3956689  86.3008573  70.8145526
 114.7107727  86.6807475  70.2642559 115.4800538  86.9103900  71.5477474
 110.6969158  77.4029920  78.7363604 110.4530090  78.1571981  78.1997879
 110.9729088  77.7815268  79.5710851 112.6507620  83.9468532  77.4140869
 112.8624516  84.5900292  76.7375250 112.6037369  83.1130849  76.9462799
 110.2533849  76.5586353  74.3177442 109.3918328  76.8567607  74.6094179
 110.2796284  76.7756752  73.3858474 107.0695419  85.1028544  70.7251247
 107.5333764  85.3816247  69.9355870 106.8052217  84.2011988  70.5424338
 103.9619500  84.6500025  73.6631010 104.5320857  85.0787293  73.0248495
 104.5527612  84.3682610  74.3615196 106.0064305  81.2251696  67.5340812
 106.7088348  81.6772740  68.0014739 105.6744933  80.5835515  68.1620705
 104.4544666  79.8163453  81.9092022 103.8243327  80.4979733  82.1427419
 104.3480754  79.7046534  80.9645160  99.7489639  79.4835249  72.8357946
  98.9588693  79.7392777  72.3598057 100.2400886  80.2983586  72.9409986
 113.7653448  86.8240488  75.5863227 114.5870892  86.4220675  75.3045908
 113.7615851  86.7208722  76.5379343 101.7004384  79.8479828  69.7941423
 100.9035547  79.9598522  70.3124918 101.4729976  80.1866480  68.9282313
 107.5310052  86.3724531  77.7423937 107.5954484  86.8344938  78.5782109
 106.8220976  85.7421896  77.8706247  98.0327342  79.7365739  75.2672937
  98.2835380  80.6212749  75.5330513  98.5686890  79.5570341  74.4948029
 107.2458069  88.0392639  67.6102918 107.1103744  88.8844174  68.0387765
 107.7867882  88.2411916  66.8468851 103.7325409  74.1184218  84.2717273
 103.3392355  73.5650417  84.9464917 104.5491549  74.4294797  84.6623790
 100.6987467  85.5568077  68.1830843 101.2111987  86.3511327  68.3336407
 101.3510180  84.8594367  68.1164444 102.5082352  88.6733833  70.2653596
 102.6848980  89.5951798  70.0774580 103.3039185  88.3592252  70.6947976
 106.6493370  75.5342098  81.8637529 107.3903083  76.1349251  81.7841992
 106.8811293  74.7919735  81.3055572 101.7934708  80.7198465  80.1415759
 101.6788223  79.8183722  80.4422858 100.9379226  80.9662162  79.7900576
 108.8726546  88.6616205  81.7403260 108.4290400  87.8752584  81.4224164
 109.5343759  88.8495356  81.0747150 103.6313667  90.1912007  76.2663938
 104.1821092  90.0629070  75.4940932 102.7925143  90.4906896  75.9158831
 110.9707784  88.9419005  79.7684661 110.9526259  89.7627886  79.2764930
 111.8927704  88.8173080  79.9934802 107.4280838  86.4563135  80.6108169
 107.9609175  85.6951423  80.3807477 106.8994919  86.1636786  81.3532324
 110.5950533  71.5623200  76.1401811 110.2514802  72.4524842  76.0640922
 110.9629496  71.3724858  75.2771396  98.6636384  83.8856731  68.9590413
  99.5011606  84.2953739  68.7424121  98.8414651  82.9456173  68.9290607
 110.5600816  81.5531812  64.6474246 110.0447439  82.3236416  64.8862634
 110.2878124  80.8796948  65.2707308 108.1447927  76.3981512  69.7059485
 107.2889523  76.0088363  69.5265123 108.5574879  76.4773473  68.8459270
 109.6747073  73.9327856  74.1051044 109.1711869  73.8957991  73.2918850
 109.9677680  74.8420598  74.1647701 105.9189959  74.0166585  73.1117226
 106.7842956  73.8209394  72.7523115 105.9867468  73.7876937  74.0386583
 115.5335090  84.3064166  66.5827420 114.7564533  83.9675326  66.1382582
 116.2126571  84.3116789  65.9082385 110.3487119  79.4258904  66.4734027
 110.0437255  79.7405053  67.3244171 111.3017561  79.5040324  66.5161360
 108.7933551  85.5849127  68.1226981 108.2654912  84.8501887  67.8100219
 108.2921054  86.3623803  67.8766950 113.7726397  83.7798147  73.2394028
 113.1150071  84.4697409  73.3274156 114.5766796  84.1694579  73.5828014
 103.5252278  76.2468793  70.4833593 104.0996030  76.0243975  69.7506786
 104.1123261  76.3157488  71.2362194 112.5831856  82.1342520  71.2897969
 113.0963737  82.7672512  71.7919679 113.2333079  81.5343716  70.9241329
 103.8521866  78.2773254  64.5029478 103.0159178  78.6147941  64.8238753
 103.7126635  78.1422234  63.5656615 105.8274946  73.1210042  69.2108662
 105.1739358  72.8059059  68.5865277 105.7855420  72.4985783  69.9368485
 106.9386151  83.4029337  61.1261954 106.0313213  83.1718591  61.3253103
 107.4357183  82.6066956  61.3135936 109.8454230  92.1126844  64.0458640
 109.1715929  92.4158541  64.6543598 110.2320052  92.9155925  63.6964098
 109.0612686  79.6091976  73.5356310 108.1435248  79.8306923  73.3777998
 109.4772830  79.6838286  72.6768017 109.8447734  81.0083391  68.6658990
 110.5919553  81.5204789  68.3566112 110.1139324  80.6867444  69.5263384
 108.1174384  83.5041932  65.6485944 107.2085604  83.2200965  65.7458414
 108.1469468  83.9241011  64.7889251 113.3493652  87.1148522  69.4177112
 112.8955979  86.2739431  69.4742302 112.7187619  87.7509920  69.7551892
 112.2926571  78.0440508  70.6477779 111.5549328  77.5317894  70.9788022
 112.5453345  77.6040889  69.8361056 111.7926591  88.9525018  70.3526930
 112.0849565  89.5130075  69.6339296 112.3025212  89.2453579  71.1080089
 112.3938199  70.8216760  71.2419549 112.6997076  69.9614123  70.9545464
 113.1190804  71.4134380  71.0418543  98.6862555  81.2247446  69.6301147
  98.4886955  80.6316807  68.9052213  98.1309219  80.9199656  70.3477085
 106.6659278  81.1170553  71.7495740 106.7207888  80.1644389  71.6738216
 105.8550480  81.2729992  72.2337038 107.8150472  85.0450676  62.9874023
 107.3769902  84.3286535  62.5279660 108.5560913  85.2726791  62.4259114
 104.6051638  79.7347612  69.5086119 103.7919504  80.0341783  69.9151311
 105.1010633  79.3403301  70.2260601 106.7560216  89.7305369  71.4420383
 106.7136395  89.9566216  70.5128915 107.6722915  89.4968744  71.5906184
 110.2025850  80.1989437  78.3401013 110.5575238  80.4260910  79.1995478
 110.8497981  80.5307814  77.7178268 115.9323587  83.3207873  69.0450342
 115.7941486  83.5109469  68.1171531 115.5759806  84.0827256  69.5018393
 104.0965713  77.3065968  75.1247354 104.7365092  77.1654727  74.4270317
 103.2643244  77.0200481  74.7485956 115.9592967  85.3884400  74.0561613
 116.3929473  85.2959689  74.9044667 116.6724547  85.3641900  73.4181629
 104.8726017  86.6068398  71.2382346 105.6666616  86.1118719  71.0364921
 104.1617709  86.0786262  70.8750052 109.6920862  88.9886494  75.5894714
 109.7457884  89.5577430  76.3572430 108.8235643  89.1588379  75.2248751
 101.1808780  80.7511480  67.3142099 100.2506369  80.6895936  67.5312061
 101.2766252  80.2287433  66.5178740 101.0994330  77.2766293  69.9020340
 101.3601147  78.1911626  69.7929501 101.9211502  76.8090736  70.0516953
 102.5719255  78.6904050  77.0719165 103.2442308  78.4821412  76.4231814
 101.7449041  78.4926136  76.6324397 116.8208516  85.4308100  76.5894498
 117.0144406  86.3353911  76.8353773 116.7209134  84.9715520  77.4233083
 108.4744827  75.3165991  79.0884826 107.8272742  76.0155941  78.9949302
 109.2445842  75.7502135  79.4561074 111.8823625  85.5814843  82.1635379
 111.7309131  85.3525395  81.2465463 111.8728304  86.5385445  82.1766724
 108.6508961  83.1546756  77.1481646 109.5801021  83.3057916  76.9750613
 108.2299991  83.2430777  76.2930292 107.4497293  87.1797420  74.9180183
 107.3108379  86.8116205  75.7906121 106.6611889  87.6945060  74.7464141
 108.0445445  92.2806517  66.2605720 108.2197201  91.8094560  67.0751342
 107.3578233  92.9072283  66.4886980 109.0002508  86.5579023  72.3069021
 108.6652341  86.5179793  73.2026671 108.5006454  85.8923739  71.8339431
 102.9746752  81.9646653  77.8321602 102.8366550  81.2326892  78.4333141
 103.8851676  81.8755553  77.5505790 111.9361700  83.9035057  62.5806081
 111.3190870  83.1781886  62.4839133 111.4678188  84.6644418  62.2373155
 105.6029053  81.6766612  77.3205282 106.3128671  81.0359805  77.2791900
 105.5598361  81.9279507  78.2431463 113.5915831  88.6133966  80.2411861
 113.5328378  87.9293186  79.5742444 113.9935350  89.3552956  79.7892487
 104.3157987  78.6631830  79.1400921 103.7795344  78.2122569  79.7922518
 103.7274695  78.7977739  78.3971386 102.6106530  95.4295880  73.0345580
 102.8503129  96.0614404  73.7124598 101.7675727  95.0783920  73.3210939
 103.7260246  78.1220482  61.7027385 102.8489712  78.0009283  61.3389632
 104.2017999  77.3306560  61.4506274 113.5933239  86.5773550  78.4725841
 112.7060018  86.2399472  78.5952239 114.1631790  85.8456581  78.7094606
  95.2462386  82.9097641  71.7968892  95.9333426  82.5959371  71.2089907
  95.0910515  83.8139006  71.5236143 100.0497108  77.7987838  76.2253916
  99.9655297  77.1913508  75.4904326  99.2279814  78.2896856  76.2263412
 107.1234392  91.2375002  75.4387084 107.0504564  92.0429974  75.9506388
 106.6811785  91.4366968  74.6135105 106.9124172  90.4746772  68.9489905
 106.1291694  91.0168452  69.0428130 107.6116917  90.9920752  69.3484147
 110.2220822  76.2841402  71.5924111 110.7189521  75.5311364  71.2725181
 109.4507803  76.3205718  71.0267320 118.0750579  81.9881767  73.2342402
 118.0640456  82.8706483  72.8636335 117.2067959  81.6353318  73.0396939
 109.5833076  91.1361836  77.5945242 110.2961048  91.7709301  77.5221144
 109.0923104  91.2325702  76.7785244 111.3050603  85.0413089  69.1662534
 110.3706881  85.1614551  68.9967238 111.4827271  84.1385556  68.9022544
 106.8055791  78.4258785  71.3195795 106.4353578  77.8729825  72.0076701
 107.3014883  77.8216918  70.7670795 114.6923154  80.8830408  69.7012568
 115.1583606  81.7158400  69.6272871 115.1430654  80.4175390  70.4057827
 104.6344989  88.8856280  78.4150813 105.3354449  89.5192763  78.5680208
 104.1640104  89.2271011  77.6546453 112.7599385  87.2274229  66.6998720
 113.0359229  87.1130824  67.6092594 111.8903884  86.8291714  66.6610893
 112.6639817  73.2510995  73.7403470 111.7502896  73.4815222  73.9085677
 113.0932918  73.3349439  74.5917502 112.4346275  81.4400887  76.2403364
 111.7817725  81.6876794  75.5855816 112.8126655  80.6265025  75.9065841
 109.3953449  91.4760580  70.3431534 109.5775844  90.6582236  70.8059286
 110.2186435  91.6928272  69.9056424 109.7295615  90.4028765  67.6046582
 110.2583381  89.8921220  66.9916745 109.9923834  90.0871296  68.4692115
 108.4833848  82.1820698  82.7269401 107.8074485  82.0814827  83.3971776
 109.3061482  82.0259912  83.1905398 100.2312707  88.4192635  75.3481916
 100.8166144  87.6736323  75.4809820 100.0337546  88.7296591  76.2318580
 103.0851362  91.4543882  70.3644358 102.4161738  91.9390010  69.8808398
 102.9464232  91.7013102  71.2787737  94.8230362  80.9898235  74.0686359
  94.8614462  80.4561826  74.8623477  94.3170655  80.4633440  73.4497336
 107.2256631  93.4887626  76.9627017 107.7774939  93.6519247  77.7276102
 107.5662825  94.0792063  76.2907042 102.2021124  75.8362775  77.5648901
 102.2662451  76.6977606  77.1526299 102.1388245  75.2236777  76.8321260
 101.6773397  77.9085908  81.2121936 102.3045436  77.5262985  81.8259460
 100.8201316  77.6900110  81.5777628 112.0767505  88.3148883  82.8175671
 112.6207409  88.9278841  82.3230626 111.4954350  88.8728461  83.3342684
  98.4538940  79.7162337  67.1440291  98.7492381  78.8073015  67.0907344
  97.5526975  79.6950076  66.8221293 110.3625018  91.4369601  73.9490699
 110.2376158  90.6359341  73.4401644 111.0204109  91.9315794  73.4604669
 101.9833187  77.7918334  73.1267839 101.2619772  78.4054301  72.9875312
 102.7726442  78.3276098  73.0484485 112.4259927  89.2378621  75.5770249
 111.4790262  89.1183972  75.5048576 112.7742700  88.3501119  75.6596510
 104.7859500  75.1272760  79.4008491 105.3093902  75.3735057  80.1634800
 104.5671833  75.9592795  78.9811628 100.1826781  77.3976435  67.2679616
  99.8539487  76.5173814  67.0854722 100.5366152  77.3424103  68.1556005
 109.4306360  89.0331337  71.7774601 109.2831322  88.1048045  71.9582171
 110.2559854  89.0551428  71.2931676 103.2968604  77.6849404  67.6355093
 103.6364677  78.2135326  66.9133702 103.7440725  78.0229811  68.4113660
 113.0340482  89.8559896  72.8639474 113.9587029  89.6502757  72.7263925
 112.8655785  89.6076297  73.7728815 105.9912045  76.0686455  77.0858161
 105.6508865  75.2694268  77.4878841 105.2851051  76.3688166  76.5134995
 106.6428517  73.1535768  75.5385484 107.4654586  72.6796246  75.4164375
 106.8866580  73.9326251  76.0384171 105.2836751  76.1824026  65.8348386
 106.0045114  76.5605279  65.3312103 104.6602056  76.9012903  65.9383364
 109.4267874  76.8869175  66.7706718 109.6431489  77.7693813  66.4695547
 108.9461941  76.4955388  66.0412360 104.1667096  79.8454888  73.3477463
 104.0211676  80.1595191  74.2401745 103.6892299  80.4639789  72.7948362
 106.0263479  76.8357436  73.3958353 106.0125047  75.9398530  73.0590651
 106.7435907  76.8428100  74.0296639 107.8789609  77.2694776  75.4411480
 107.6207387  78.1911847  75.4395810 107.3474650  76.8725211  76.1311944
 112.8235798  90.3745564  68.2201565 112.9972676  89.8091986  67.4675418
 113.3164689  91.1746458  68.0381055  98.6412758  82.3860233  76.2865124
  98.0966226  83.1620041  76.4185399  99.5192108  82.7331037  76.1284246
 105.4300375  75.7171816  68.6645923 105.5516286  74.7888463  68.8636810
 105.1402417  75.7310502  67.7524238 108.2991565  73.4026727  71.8012643
 108.3213262  73.4666060  70.8464622 108.7159624  72.5631236  71.9953149
 113.8110971  89.6912328  65.3198464 114.5061875  90.3119021  65.5385778
 114.1534121  88.8407679  65.5950842  99.4278780  81.5130129  79.1795281
  98.6860516  81.6612764  79.7659912  99.1071524  81.7738394  78.3162030
 115.7102394  87.1412033  66.8485794 116.2353718  87.4799306  66.1235114
 115.6224746  86.2059049  66.6648929 107.3722442  91.0546107  78.9775671
 107.6809569  90.8095254  79.8498371 108.1697924  91.2592746  78.4894541
 107.3943054  93.2084017  71.2081048 106.9548045  92.7160395  71.9013904
 108.1451171  92.6656984  70.9673123  99.8735393  89.3995558  71.2105676
 100.6993413  89.0999329  70.8304319  99.5229445  88.6303180  71.6595464
 104.8416927  88.7522026  73.2803349 104.2196936  88.0892731  72.9805577
 105.5121793  88.7783158  72.5976997  98.0743998  87.3181884  72.1694609
  97.2375907  86.8904058  71.9878611  98.0467644  87.5114327  73.1065401
 104.9141454  77.2303814  82.8735855 104.9629610  78.1065937  82.4913625
 105.4563968  76.6881207  82.3007499 115.3996300  87.7744937  82.1536992
 114.6091843  87.7569076  81.6141492 115.1629654  88.3133231  82.9086029
 115.5194175  84.6237403  79.4669721 115.5692180  84.4587411  80.4085244
 115.4108098  83.7564662  79.0767602 104.4030433  87.3025949  66.7561810
 104.5518554  87.9861414  66.1028483 105.2096877  87.2831039  67.2711266
 112.8097937  80.6068331  80.7829028 113.7107800  80.4674796  80.4913025
 112.8845912  80.7722786  81.7227205 107.1440743  77.9835186  79.6282214
 106.2744052  78.2768752  79.3564803 107.3800223  78.5675631  80.3489478
 117.0212372  87.0434345  79.7111742 116.7297180  87.4064326  80.5475203
 116.4084503  86.3301353  79.5325075 115.2699560  82.1666960  78.1791800
 115.7453681  82.3594606  77.3710652 114.3465125  82.2226145  77.9335184
 102.1583066  83.3291127  67.7622879 101.9129108  82.4253457  67.9603089
 102.3278981  83.3308277  66.8202357 109.8479776  74.2014803  77.1447634
 110.3661720  74.9375830  76.8194123 109.4934909  74.5078796  77.9794393
 101.4278714  79.0619484  65.2609040 100.7347959  79.1363839  64.6049076
 101.1830466  78.2979828  65.7830557 110.0992371  70.6215086  72.6648531
 110.3794124  69.9538275  73.2908958 110.8842977  70.8144181  72.1523195
 107.9025839  89.7974080  64.2273557 107.3299806  90.4164267  63.7744029
 108.4758633  90.3473441  64.7613479 113.9701229  79.0432720  76.4120106
 114.9218652  79.1430817  76.4332330 113.8004679  78.2510988  76.9218190
 111.9915608  76.1288303  76.5979507 111.3965540  76.4093316  75.9025996
 111.7065305  76.6182204  77.3696248 111.1223099  90.0811230  65.3582140
 112.0553772  90.0156791  65.5615015 111.0346312  90.9167497  64.8996672
 113.7511115  89.3977100  62.3186087 113.6724747  89.0636964  63.2121845
 114.5720782  89.8898868  62.3177559 116.4489307  82.2638839  75.5262406
 116.4165627  81.3254840  75.7122090 117.0589930  82.3422876  74.7928231
 108.2872638  81.1334892  61.5689610 109.2331742  81.0041100  61.6378028
 107.9086882  80.3949554  62.0459038 116.5983795  79.0549883  75.5720689
 116.0822844  78.2708339  75.3850618 117.4823744  78.7268599  75.7367208
 114.2594522  72.7990898  71.5316502 114.0619343  72.4905987  72.4159834
 114.8694228  73.5252537  71.6614431 108.1711330  85.1852638  83.0290267
 109.0914340  85.3631238  83.2230313 108.1360913  84.2408684  82.8769966
 106.4715555  79.0584869  61.5044495 105.5647010  78.7617981  61.5807209
 106.7491536  78.7614687  60.6378781  97.3893495  80.3791232  71.9543541
  97.0696279  79.5256540  71.6617915  96.8426923  80.5939810  72.7101509
 101.1673403  83.0953673  75.6713048 101.3859412  84.0270781  75.6901082
 101.5799176  82.7361648  76.4567852 108.0877620  73.6021758  67.6588736
 107.2778349  73.2568843  68.0343982 108.7762037  73.2929302  68.2476348
 110.0168169  72.6799805  69.2813033 110.5699207  73.0995259  69.9403056
 110.2538255  71.7535553  69.3235989 106.0401268  78.6686879  85.0615797
 105.9397995  79.6181236  84.9927888 105.8222810  78.3405118  84.1891867
 105.2414339  75.9171804  61.6456474 106.1033503  76.2426702  61.9052292
 105.4264683  75.1303300  61.1329540  97.2581755  83.9994144  73.9236663
  96.5645226  83.5848096  73.4106617  98.0054746  84.0414680  73.3270082
 113.3946976  74.7900330  68.7891697 112.8145645  75.4485134  68.4069750
 113.1282908  73.9677675  68.3779115 111.8450542  74.1905388  70.9913018
 112.3450321  74.3021923  70.1827336 112.4886150  73.8866441  71.6313826
 105.9032538  82.0984018  83.8780858 105.4199620  82.8984378  84.0844748
 105.9893477  82.1091963  82.9248302  99.1718498  83.9312397  71.8002678
  99.1489186  84.0300085  70.8484561  99.4819134  84.7777548  72.1219844
 101.8305875  85.9888552  75.9149292 102.7849129  85.9572495  75.8479224
 101.6318399  85.5279176  76.7299518 102.4205258  84.5589669  78.4820090
 103.2398147  85.0533747  78.5054927 102.6942065  83.6421637  78.4537657
 112.1771854  76.9500421  67.8448045 111.2897709  77.2350071  67.6268240
 112.5925843  76.7894184  66.9975322 115.5286390  76.9746942  71.5602385
 116.3046780  77.4643394  71.8327002 114.8034524  77.4004996  72.0174254
 100.1856104  91.5308172  72.9319490 100.0510572  90.7708573  72.3657488
  99.7688167  92.2549072  72.4648279 111.3215067  86.7145095  61.9396065
 112.0250917  86.9195098  62.5553721 110.5977716  87.2821857  62.2045149
 112.1512878  82.4654957  68.0598336 112.0948079  82.9223508  67.2205968
 112.7041220  81.7045641  67.8821178 115.9617683  78.2544689  68.8848455
 115.7054618  77.8541324  69.7156663 115.3370551  78.9688483  68.7598594
 103.3425230  92.4277489  73.1437933 103.2257614  93.3722921  73.0416623
 102.5217676  92.1251051  73.5323732 113.2301765  87.1527625  63.9894525
 114.0647369  86.7208823  63.8072000 113.0686108  86.9809638  64.9171420
 112.8847657  83.6559738  65.3550865 112.8296461  83.4904009  64.4139309
 112.2593712  84.3635771  65.5113055  97.6740172  78.8927802  79.1812287
  98.3199035  78.3826756  79.6699512  97.4657323  79.6296484  79.7555712
 110.1993564  85.9608650  84.6804428 111.0684724  86.1349302  84.3191062
 109.7200316  86.7803067  84.5580157 106.1943782  73.1567847  64.9336183
 106.1822452  74.1009687  65.0904454 107.0867204  72.9737992  64.6395644
 104.3679744  93.0805751  76.3593861 105.2706991  93.1129361  76.6760356
 104.1417114  92.1506202  76.3740197 106.1233346  91.8336737  73.0203940
 105.1728977  91.8338599  72.9068312 106.4265832  91.0869472  72.5039974
 110.0095902  69.7510624  69.1882120 109.2428298  69.1969110  69.3338802
 110.4206607  69.8232492  70.0496272 102.0137663  76.0395419  83.2787301
 102.8769124  75.6832224  83.4890626 101.4403073  75.7009314  83.9662706
 114.5262562  99.4760180  70.0108118 113.9627427  99.3850117  69.2424406
 114.4114957  98.6560085  70.4910610 112.0726994 100.9711372  72.8492338
 112.8648286 100.6302197  72.4338638 112.3123644 101.0806347  73.7694492
 114.0317748 100.2320285  65.7209717 114.8048624  99.6849272  65.5822593
 114.3843146 101.0964534  65.9324179 115.8702790 101.5596667  78.9276616
 115.5792656 102.4642298  78.8123283 116.5059775 101.6013195  79.6420686
 116.7958997  98.9373516  75.5177976 117.3922569  98.7129538  74.8034939
 116.8533969  98.1958261  76.1203424 116.3684025  96.3912951  63.3528167
 116.6209546  95.8694473  62.5911630 115.4308585  96.2279097  63.4554851
 116.0880314  98.2941057  65.5552542 115.9716572  97.6185961  66.2233626
 116.1982574  97.8073431  64.7384695 118.0717342  92.7841104  64.2560580
 118.2391744  93.6521340  64.6231051 117.8814511  92.9468386  63.3321869
 114.2805157  97.6971880  71.9563115 113.3555653  97.5648094  72.1640806
 114.5289570  98.4766099  72.4533057 118.0506563  95.2398762  65.2407247
 117.9306188  95.6855812  66.0792727 117.3559151  95.5884079  64.6820785
 111.6413968  97.3405153  72.7906904 111.7706349  97.5939632  73.7046315
 110.9611419  97.9332861  72.4711559 116.5577057  97.9915722  81.1076712
 117.2991742  98.5300766  80.8311535 115.8514043  98.6182011  81.2648264
 114.8013254  99.9791943  73.6631010 115.3714611 100.4079211  73.0248495
 115.3921366  99.6974528  74.3615196 116.8458059  96.5543614  67.5340812
 117.5482103  97.0064657  68.0014739 116.5138688  95.9127432  68.1620705
 115.2938421  95.1455370  81.9092022 114.6637081  95.8271651  82.1427419
 115.1874509  95.0338452  80.9645160 110.5883393  94.8127166  72.8357946
 109.7982447  95.0684695  72.3598057 111.0794641  95.6275504  72.9409986
 112.5398139  95.1771746  69.7941423 111.7429302  95.2890440  70.3124918
 112.3123731  95.5158398  68.9282313 108.8721096  95.0657657  75.2672937
 109.1229135  95.9504667  75.5330513 109.4080645  94.8862258  74.4948029
 114.5719164  89.4476136  84.2717273 114.1786109  88.8942335  84.9464917
 115.3885304  89.7586715  84.6623790 111.5381221 100.8859994  68.1830843
 112.0505742 101.6803245  68.3336407 112.1903934 100.1886285  68.1164444
 117.4887125  90.8634015  81.8637529 118.2296838  91.4641168  81.7841992
 117.7205047  90.1211653  81.3055572 112.6328463  96.0490382  80.1415759
 112.5181978  95.1475640  80.4422858 111.7772980  96.2954079  79.7900576
 109.5030138  99.2148649  68.9590413 110.3405360  99.6245657  68.7424121
 109.6808406  98.2748091  68.9290607 116.7583714  89.3458503  73.1117226
 117.6236711  89.1501312  72.7523115 116.8261223  89.1168855  74.0386583
 114.3646033  91.5760711  70.4833593 114.9389785  91.3535892  69.7506786
 114.9517015  91.6449405  71.2362194 114.6915620  93.6065172  64.5029478
 113.8552932  93.9439859  64.8238753 114.5520390  93.4714152  63.5656615
 116.6668701  88.4501960  69.2108662 116.0133113  88.1350977  68.5865277
 116.6249175  87.8277700  69.9368485 109.5256309  96.5539364  69.6301147
 109.3280709  95.9608725  68.9052213 108.9702973  96.2491574  70.3477085
 117.5053033  96.4462470  71.7495740 117.5601643  95.4936307  71.6738216
 116.6944235  96.6021909  72.2337038 115.4445393  95.0639530  69.5086119
 114.6313258  95.3633701  69.9151311 115.9404387  94.6695219  70.2260601
 114.9359468  92.6357886  75.1247354 115.5758847  92.4946645  74.4270317
 114.1036998  92.3492399  74.7485956 115.7119772 101.9360316  71.2382346
 116.5060370 101.4410636  71.0364921 115.0011464 101.4078179  70.8750052
 112.0202535  96.0803398  67.3142099 111.0900123  96.0187853  67.5312061
 112.1160007  95.5579351  66.5178740 111.9388084  92.6058211  69.9020340
 112.1994901  93.5203544  69.7929501 112.7605256  92.1382653  70.0516953
 113.4113009  94.0195968  77.0719165 114.0836063  93.8113330  76.4231814
 112.5842796  93.8218054  76.6324397 113.8140507  97.2938571  77.8321602
 113.6760305  96.5618810  78.4333141 114.7245430  97.2047471  77.5505790
 116.4422807  97.0058530  77.3205282 117.1522426  96.3651722  77.2791900
 116.3992115  97.2571425  78.2431463 115.1551741  93.9923748  79.1400921
 114.6189098  93.5414486  79.7922518 114.5668450  94.1269657  78.3971386
 114.5654000  93.4512399  61.7027385 113.6883467  93.3301200  61.3389632
 115.0411753  92.6598478  61.4506274 106.0856140  98.2389559  71.7968892
 106.7727180  97.9251289  71.2089907 105.9304269  99.1430924  71.5236143
 110.8890862  93.1279756  76.2253916 110.8049051  92.5205425  75.4904326
 110.0673569  93.6188774  76.2263412 117.6449545  93.7550702  71.3195795
 117.2747333  93.2021743  72.0076701 118.1408638  93.1508836  70.7670795
 111.0706462 103.7484552  75.3481916 111.6559899 103.0028240  75.4809820
 110.8731300 104.0588509  76.2318580 105.6624116  96.3190152  74.0686359
 105.7008216  95.7853743  74.8623477 105.1564409  95.7925358  73.4497336
 113.0414879  91.1654693  77.5648901 113.1056205  92.0269524  77.1526299
 112.9781999  90.5528695  76.8321260 112.5167151  93.2377826  81.2121936
 113.1439190  92.8554903  81.8259460 111.6595070  93.0192027  81.5777628
 109.2932694  95.0454255  67.1440291 109.5886135  94.1364933  67.0907344
 108.3920730  95.0241994  66.8221293 112.8226941  93.1210251  73.1267839
 112.1013527  93.7346219  72.9875312 113.6120197  93.6568016  73.0484485
 115.6253255  90.4564678  79.4008491 116.1487656  90.7026974  80.1634800
 115.4065588  91.2884713  78.9811628 111.0220536  92.7268352  67.2679616
 110.6933242  91.8465731  67.0854722 111.3759906  92.6716021  68.1556005
 114.1362359  93.0141322  67.6355093 114.4758431  93.5427243  66.9133702
 114.5834479  93.3521728  68.4113660 116.8305800  91.3978373  77.0858161
 116.4902620  90.5986186  77.4878841 116.1244806  91.6980084  76.5134995
 116.1230506  91.5115944  65.8348386 116.8438868  91.8897196  65.3312103
 115.4995810  92.2304821  65.9383364 115.0060850  95.1746806  73.3477463
 114.8605431  95.4887109  74.2401745 114.5286054  95.7931706  72.7948362
 116.8657233  92.1649354  73.3958353 116.8518802  91.2690447  73.0590651
 117.5829661  92.1720018  74.0296639 109.4806512  97.7152150  76.2865124
 108.9359980  98.4911958  76.4185399 110.3585862  98.0622955  76.1284246
 116.2694129  91.0463734  68.6645923 116.3910040  90.1180380  68.8636810
 115.9796171  91.0602420  67.7524238 110.2672534  96.8422047  79.1795281
 109.5254270  96.9904682  79.7659912 109.9465279  97.1030312  78.3162030
 110.7129148 104.7287475  71.2105676 111.5387168 104.4291247  70.8304319
 110.3623200 103.9595098  71.6595464 108.9137753 102.6473802  72.1694609
 108.0769661 102.2195976  71.9878611 108.8861398 102.8406245  73.1065401
 115.7535209  92.5595732  82.8735855 115.8023364  93.4357854  82.4913625
 116.2957723  92.0173125  82.3007499 117.9834497  93.3127104  79.6282214
 117.1137806  93.6060670  79.3564803 118.2193977  93.8967549  80.3489478
 112.9976821  98.6583044  67.7622879 112.7522863  97.7545374  67.9603089
 113.1672736  98.6600195  66.8202357 112.2672468  94.3911402  65.2609040
 111.5741713  94.4655757  64.6049076 112.0224220  93.6271746  65.7830557
 117.3109309  94.3876786  61.5044495 116.4040765  94.0909899  61.5807209
 117.5885290  94.0906605  60.6378781 108.2287250  95.7083150  71.9543541
 107.9090034  94.8548458  71.6617915 107.6820678  95.9231728  72.7101509
 112.0067157  98.4245591  75.6713048 112.2253167  99.3562699  75.6901082
 112.4192931  98.0653565  76.4567852 116.8795022  93.9978797  85.0615797
 116.7791749  94.9473154  84.9927888 116.6616564  93.6697035  84.1891867
 116.0808094  91.2463722  61.6456474 116.9427258  91.5718620  61.9052292
 116.2658438  90.4595218  61.1329540 108.0975510  99.3286061  73.9236663
 107.4038981  98.9140014  73.4106617 108.8448501  99.3706598  73.3270082
 116.7426292  97.4275935  83.8780858 116.2593374  98.2276296  84.0844748
 116.8287232  97.4383880  82.9248302 110.0112252  99.2604315  71.8002678
 109.9882940  99.3592002  70.8484561 110.3212889 100.1069466  72.1219844
 112.6699630 101.3180470  75.9149292 113.6242883 101.2864412  75.8479224
 112.4712154 100.8571094  76.7299518 113.2599012  99.8881586  78.4820090
 114.0791901 100.3825665  78.5054927 113.5335820  98.9713554  78.4537657
 108.5133926  94.2219720  79.1812287 109.1592790  93.7118674  79.6699512
 108.3051077  94.9588402  79.7555712 117.0337537  88.4859765  64.9336183
 117.0216207  89.4301605  65.0904454 117.9260959  88.3029910  64.6395644
 112.8531417  91.3687337  83.2787301 113.7162879  91.0124142  83.4890626
 112.2796828  91.0301232  83.9662706  48.4137759  -4.2101586  59.7590886
  48.6534357  -3.5783062  60.4369905  47.5706956  -4.5613546  60.0456246
  60.3293791  -0.1637285  56.7353425  59.7658656  -0.2547349  55.9669712
  60.2146186  -0.9837381  57.2155917  57.8758222   1.3313906  59.5737645
  58.6679514   0.9904731  59.1583944  58.1154873   1.4408881  60.4939798
  65.9093349   3.5033682  52.0467889  65.2581329   4.0887763  51.6601903
  66.7037712   4.0339877  52.1062927  59.8348976   0.5922819  52.4455024
  60.6079852   0.0451806  52.3067900  60.1874375   1.4567069  52.6569485
  61.6734019   1.9199202  65.6521923  61.3823885   2.8244832  65.5368589
  62.3091003   1.9615729  66.3665993  62.5990226  -0.7023950  62.2423283
  63.1953798  -0.9267927  61.5280246  62.6565197  -1.4439204  62.8448731
  67.3868614   1.1924114  52.5836874  66.7514447   1.2658741  53.2957778
  67.0566021   1.7817713  51.9055953  61.8911543  -1.3456409  52.2797849
  61.7747801  -2.0211505  52.9478933  62.0013803  -1.8324035  51.4630002
  66.6323904   1.6060617  62.6471717  66.3324627   2.5085656  62.5387524
  66.2874964   1.3392800  63.4992870  60.0836386  -1.9425586  58.6808421
  59.1586882  -2.0749372  58.8886113  60.3320799  -1.1631367  59.1778364
  57.4445197  -2.2992312  59.5152210  57.5737578  -2.0457834  60.4291622
  56.7642648  -1.7064604  59.1956865  61.6144684   8.3704938  55.6142684
  61.5368714   9.3212763  55.6931165  61.0106327   8.0250810  56.2717611
  62.3608286  -1.6481744  67.8322018  63.1022970  -1.1096700  67.5556842
  61.6545271  -1.0215455  67.9893570  68.1592440   1.0548587  60.1846469
  67.5301303   1.2194302  59.4822537  67.7718102   1.4690197  60.9557433
  72.0381672   1.9903025  57.5390833  71.3532710   2.3701927  56.9887866
  72.1225521   2.5998352  58.2722780  63.7120402   0.7922995  57.4496554
  64.1758748   1.0710698  56.6601176  63.4477200  -0.1093560  57.2669645
  60.6044483   0.3394477  60.3876317  61.1745840   0.7681745  59.7493802
  61.1952595   0.0577062  61.0860503  70.4078432   2.5134940  62.3108533
  71.2295875   2.1115127  62.0291215  70.4040835   2.4103174  63.2624649
  64.1735035   2.0618983  64.4669244  64.2379468   2.5239390  65.3027416
  63.4645959   1.4316348  64.5951554  63.8883053   3.7287090  54.3348224
  63.7528728   4.5738626  54.7633072  64.4292865   3.9306368  53.5714158
  57.3412450   1.2462529  54.9076149  57.8536971   2.0405779  55.0581714
  57.9935163   0.5488819  54.8409751  59.1507335   4.3628285  56.9898902
  59.3273963   5.2846249  56.8019886  59.9464168   4.0486704  57.4193282
  65.5151529   4.3510657  68.4648566  65.0715383   3.5647036  68.1469471
  66.1768743   4.5389807  67.7992457  60.2738650   5.8806459  62.9909245
  60.8246075   5.7523522  62.2186239  59.4350126   6.1801348  62.6404138
  67.6132767   4.6313457  66.4929968  67.5951243   5.4522338  66.0010237
  68.5352687   4.5067532  66.7180109  64.0705821   2.1457586  67.3353476
  64.6034158   1.3845875  67.1052784  63.5419902   1.8531238  68.0777630
  55.3061367  -0.4248817  55.6835720  56.1436589  -0.0151809  55.4669428
  55.4839635  -1.3649375  55.6535914  65.4358534   1.2743579  54.8472288
  64.9079896   0.5396338  54.5345525  64.9346037   2.0518255  54.6012256
  66.4879213   7.8021296  50.7703947  65.8140912   8.1052993  51.3788905
  66.8745035   8.6050377  50.4209404  64.7599368  -0.8063616  52.3731251
  63.8510587  -1.0904583  52.4703721  64.7894452  -0.3864537  51.5134558
  69.9918635   2.8042973  56.1422419  69.5380962   1.9633883  56.1987609
  69.3612602   3.4404372  56.4797199  68.4351574   4.6419470  57.0772237
  68.7274549   5.2024527  56.3584602  68.9450195   4.9348031  57.8325396
  55.3287538  -3.0858102  56.3546453  55.1311938  -3.6788741  55.6297520
  54.7734202  -3.3905892  57.0722392  64.4575456   0.7345128  49.7119330
  64.0194885   0.0180987  49.2524967  65.1985896   0.9621242  49.1504421
  63.3985200   5.4199821  58.1665690  63.3561378   5.6460668  57.2374222
  64.3147898   5.1863196  58.3151491  61.5151000   2.2962850  57.9627653
  62.3091599   1.8013170  57.7610228  60.8042693   1.7680713  57.5995358
  66.3345845   4.6780946  62.3140020  66.3882867   5.2471882  63.0817736
  65.4660626   4.8482831  61.9494057  68.5248608   1.2709295  68.8880686
  68.3734115   1.0419847  67.9710769  68.5153288   2.2279897  68.9012031
  64.0922276   2.8691872  61.6425490  63.9533362   2.5010657  62.5151428
  63.3036873   3.3839512  61.4709448  64.6870428   7.9700969  52.9851026
  64.8622184   7.4989012  53.7996649  64.0003216   8.5966735  53.2132287
  65.6427491   2.2473475  59.0314328  65.3077324   2.2074245  59.9271977
  65.1431437   1.5818191  58.5584738  70.2340815   4.3028418  66.9657168
  70.1753361   3.6187638  66.2987751  70.6360333   5.0447408  66.5137794
  59.2531514  11.1190332  59.7590886  59.4928112  11.7508856  60.4369905
  58.4100710  10.7678372  60.0456246  70.2358222   2.2668002  65.1971147
  69.3485001   1.9293923  65.3197546  70.8056773   1.5351033  65.4339913
  51.8887369  -1.4007907  58.5214199  52.5758409  -1.7146177  57.9335214
  51.7335498  -0.4966542  58.2481450  63.7659375   6.9269454  62.1632390
  63.6929547   7.7324425  62.6751695  63.3236769   7.1261420  61.3380412
  63.5549155   6.1641224  55.6735212  62.7716677   6.7062904  55.7673437
  64.2541900   6.6815204  56.0729453  66.2258059   6.8256288  64.3190549
  66.9386031   7.4603753  64.2466451  65.7348088   6.9220154  63.5030551
  61.2769972   4.5750731  65.1396120  61.9779432   5.2087214  65.2925514
  60.8065087   4.9165463  64.3791759  69.4024368   2.9168681  53.4244027
  69.6784212   2.8025276  54.3337901  68.5328867   2.5186166  53.3856200
  66.0378432   7.1655032  57.0676841  66.2200827   6.3476688  57.5304593
  66.8611418   7.3822724  56.6301731  66.3720598   6.0923217  54.3291889
  66.9008364   5.5815672  53.7162051  66.6348817   5.7765747  55.1937422
  56.8737691   4.1087086  62.0727223  57.4591127   3.3630774  62.2055127
  56.6762529   4.4191043  62.9563887  59.7276346   7.1438334  57.0889665
  59.0586721   7.6284462  56.6053705  59.5889215   7.3907554  58.0033044
  51.4655345  -3.3207313  60.7931666  51.5039445  -3.8543723  61.5868784
  50.9595638  -3.8472108  60.1742643  63.8681614   9.1782077  63.6872323
  64.4199922   9.3413699  64.4521409  64.2087808   9.7686515  63.0152348
  68.7192489   4.0043335  69.5420978  69.2632393   4.6173293  69.0475933
  68.1379334   4.5622913  70.0587991  67.0050002   7.1264053  60.6736006
  66.8801141   6.3253793  60.1646951  67.6629093   7.6210246  60.1849976
  69.0684910   4.9273073  62.3015556  68.1215246   4.8078424  62.2293882
  69.4167683   4.0395571  62.3841817  66.0731343   4.7225789  58.5019908
  65.9256306   3.7942497  58.6827478  66.8984837   4.7445880  58.0176983
  69.6765465   5.5454348  59.5884781  70.6012013   5.3397209  59.4509232
  69.5080769   5.2970749  60.4974122  69.4660781   6.0640015  54.9446872
  69.6397659   5.4986438  54.1920725  69.9589673   6.8640910  54.7626362
  55.2837741  -1.9245316  63.0110431  54.7391209  -1.1485508  63.1430705
  56.1617091  -1.5774511  62.8529552  70.4535954   5.3806780  52.0443770
  71.1486858   6.0013472  52.2631085  70.7959104   4.5302131  52.3196148
  56.0703763  -2.7975419  65.9040588  55.3285499  -2.6492784  66.4905218
  55.7496507  -2.5367154  65.0407337  72.3527377   2.8306485  53.5731101
  72.8778701   3.1693758  52.8480421  72.2649730   1.8953501  53.3894236
  64.0147426   6.7440559  65.7020978  64.3234552   6.4989706  66.5743677
  64.8122908   6.9487197  65.2139848  64.0368038   8.8978469  57.9326354
  63.5973028   8.4054847  58.6259211  64.7876155   8.3551436  57.6918430
  56.5160377   5.0890009  57.9350982  57.3418397   4.7893781  57.5549626
  56.1654429   4.3197632  58.3840771  61.4841910   4.4416478  60.0048656
  60.8621919   3.7787183  59.7050884  62.1546777   4.4677610  59.3222304
  54.7168982   3.0076336  58.8939916  53.8800890   2.5798510  58.7123917
  54.6892627   3.2008779  59.8310707  72.0421283   3.4639389  68.8782299
  71.2516827   3.4463528  68.3386798  71.8054638   4.0027683  69.6331336
  61.0455417   2.9920401  53.4807117  61.1943537   3.6755865  52.8273789
  61.8521860   2.9725491  53.9956572  73.6637355   2.7328797  66.4357049
  73.3722163   3.0958777  67.2720510  73.0509486   2.0195805  66.2570381
  58.8008050  -0.9814421  54.4868185  58.5554092  -1.8852091  54.6848396
  58.9703964  -0.9797271  53.5447663  64.5450822   5.4868531  50.9518864
  63.9724789   6.1058719  50.4989336  65.1183616   6.0367893  51.4858786
  67.7648082   5.7705682  52.0827446  68.6978755   5.7051243  52.2860322
  67.6771295   6.6061948  51.6241979  70.3936099   5.0871552  49.0431394
  70.3149730   4.7531416  49.9367152  71.2145766   5.5793320  49.0422866
  64.8136313   0.8747090  69.7535573  65.7339323   1.0525689  69.9475620
  64.7785896  -0.0696864  69.6015273  54.0318478  -3.9314316  58.6788848
  53.7121263  -4.7849008  58.3863222  53.4851907  -3.7165738  59.4346815
  57.8098386  -1.2151875  62.3958355  58.0284396  -0.2834767  62.4146388
  58.2224160  -1.5743901  63.1813158  53.9006738  -0.3111404  60.6481970
  53.2070210  -0.7257452  60.1351924  54.6479729  -0.2690868  60.0515389
  55.8143481  -0.3793151  58.5247985  55.7914169  -0.2805463  57.5729868
  56.1244117   0.4672000  58.8465151  58.4730859   1.6783004  62.6394599
  59.4274112   1.6466947  62.5724530  58.2743382   1.2173628  63.4544825
  59.0630241   0.2484120  65.2065397  59.8823130   0.7428199  65.2300234
  59.3367049  -0.6683911  65.1782964  56.8281088   7.2202624  59.6564797
  56.6935555   6.4603025  59.0902795  56.4113150   7.9443524  59.1893586
  67.9640051   2.4039547  48.6641372  68.6675901   2.6089550  49.2799028
  67.2402699   2.9716309  48.9290456  59.9850213   8.1171941  59.8683239
  59.8682598   9.0617373  59.7661930  59.1642660   7.8145502  60.2569039
  69.8726748   2.8422077  50.7139832  70.7072352   2.4103275  50.5317307
  69.7111091   2.6704090  51.6416727  66.8418547   1.6503102  71.4049734
  67.7109707   1.8243754  71.0436369  66.3625299   2.4697519  71.2825464
  61.0104728   8.7700203  63.0839168  61.9131974   8.8023813  63.4005663
  60.7842098   7.8400654  63.0985504  62.7658330   7.5231189  59.7449246
  61.8153961   7.5233051  59.6313619  63.0690816   6.7763924  59.2285281
  78.5011023  13.3591728  60.8095009  79.1389433  13.2398475  60.1058349
  78.3831866  14.3072572  60.8682961  75.3100729  13.3119156  60.7456534
  74.9719241  13.1960220  59.8577068  76.1790498  12.9110321  60.7257540
  71.1687545  15.1654632  56.7353425  70.6052410  15.0744569  55.9669712
  71.0539940  14.3454537  57.2155917  75.7920512  14.4654008  66.7042739
  75.7809153  14.0706806  65.8323243  75.9541152  13.7320080  67.2976511
  68.7151977  16.6605824  59.5737645  69.5073269  16.3196648  59.1583944
  68.9548627  16.7700799  60.4939798  76.7487104  18.8325600  52.0467889
  76.0975084  19.4179680  51.6601903  77.5431467  19.3631795  52.1062927
  70.6742731  15.9214737  52.4455024  71.4473607  15.3743724  52.3067900
  71.0268130  16.7858986  52.6569485  72.5127773  17.2491119  65.6521923
  72.2217639  18.1536750  65.5368589  73.1484758  17.2907647  66.3665993
  73.4383980  14.6267968  62.2423283  74.0347553  14.4023990  61.5280246
  73.4958952  13.8852713  62.8448731  73.0109009  12.0807403  50.0773474
  73.2634529  11.5588924  49.3156937  72.0733568  11.9173549  50.1800157
  78.0552292  11.0843182  57.8848217  78.8415381  10.6662605  57.5338634
  78.3190996  11.9889274  58.0529865  78.2262369  16.5216032  52.5836874
  77.5908202  16.5950658  53.2957778  77.8959775  17.1109631  51.9055953
  83.4560719  11.0218415  58.7881195  84.1885891  10.4517632  59.0219025
  82.7000074  10.6340015  59.2287701  72.7305297  13.9835509  52.2797849
  72.6141556  13.3080413  52.9478933  72.8407557  13.4967883  51.4630002
  75.0736838  13.4445656  55.9844538  74.7095046  12.9176277  56.6957459
  75.9303954  13.0544125  55.8111023  80.9786139   4.7339989  63.2475804
  80.6469464   5.6035400  63.0237019  80.3831752   4.4176273  63.9269834
  74.7142325   8.4735556  50.9805886  74.8816728   9.3415792  51.3476357
  74.5239494   8.6362838  50.0567176  77.4717659  16.9352535  62.6471717
  77.1718382  17.8377574  62.5387524  77.1268718  16.6684718  63.4992870
  70.9230140  13.3866332  58.6808421  69.9980637  13.2542546  58.8886113
  71.1714553  14.1660551  59.1778364  80.8714802   9.4535075  60.3269154
  79.9631680   9.3850483  60.0327915  80.8202398   9.9307020  61.1550980
  74.6931546  10.9293213  51.9652553  74.5731171  11.3750264  52.8038034
  73.9984135  11.2778531  51.4066091  68.2838951  13.0299605  59.5152210
  68.4131332  13.2834084  60.4291622  67.6036402  13.6227313  59.1956865
  72.4538438  23.6996855  55.6142684  72.3762468  24.6504680  55.6931165
  71.8500082  23.3542728  56.2717611  74.9455668  10.8724721  68.2704051
  74.1689002  11.4318641  68.2606916  75.5846231  11.3581504  68.7918921
  82.7376449   7.6551513  62.1047028  82.0950829   7.9484047  61.4586823
  82.2331377   7.5404434  62.9100225  80.3916612  11.4014687  52.7932887
  81.3034469  11.6342073  52.6180585  79.8826259  11.9851731  52.2307966
  73.2002040  13.6810174  67.8322018  73.9416725  14.2195218  67.5556842
  72.4939026  14.3076463  67.9893570  78.6757380  15.8239314  66.4294180
  79.0840736  15.3821725  65.6848812  77.9534642  15.2491942  66.6828373
  75.0288450  10.7611921  63.8027737  75.8749645  11.1851335  63.9462386
  74.9687088  10.1045546  64.4966300  78.9986195  16.3840505  60.1846469
  78.3695057  16.5486219  59.4822537  78.6111857  16.7982115  60.9557433
  82.8775427  17.3194943  57.5390833  82.1926465  17.6993844  56.9887866
  82.9619276  17.9290270  58.2722780  78.1787895   8.4216290  65.4608910
  77.9348827   9.1758350  64.9243186  78.4547826   8.8001637  66.2956158
  80.1326358  14.9654902  64.1386176  80.3443253  15.6086662  63.4620557
  80.0856106  14.1317218  63.6708106  77.7352587   7.5772723  61.0422748
  76.8737066   7.8753976  61.3339486  77.7615022   7.7943121  60.1103781
  74.5514157  16.1214913  57.4496554  75.0152502  16.4002616  56.6601176
  74.2870955  15.2198358  57.2669645  71.4438238  15.6686395  60.3876317
  72.0139595  16.0973663  59.7493802  72.0346350  15.3868979  61.0860503
  73.4883043  12.2438066  54.2586119  74.1907086  12.6959109  54.7260045
  73.1563671  11.6021884  54.8866012  71.9363404  10.8349822  68.6337328
  71.3062065  11.5166103  68.8672725  71.8299492  10.7232904  67.6890467
  67.2308377  10.5021618  59.5603253  66.4407431  10.7579147  59.0843363
  67.7219624  11.3169956  59.6655293  81.2472186  17.8426857  62.3108533
  82.0689630  17.4407045  62.0291215  81.2434589  17.7395092  63.2624649
  69.1823122  10.8666197  56.5186729  68.3854285  10.9784892  57.0370225
  68.9548714  11.2052850  55.6527620  75.0128790  17.3910901  64.4669244
  75.0773222  17.8531308  65.3027416  74.3039713  16.7608266  64.5951554
  65.5146080  10.7552109  61.9918243  65.7654118  11.6399119  62.2575819
  66.0505628  10.5756710  61.2193335  89.3378179  14.1865606  58.6593505
  88.5841888  13.6173004  58.5037509  89.4725720  14.1528270  59.6064140
  74.7276807  19.0579008  54.3348224  74.5922482  19.9030544  54.7633072
  75.2686620  19.2598286  53.5714158  71.2144147   5.1370588  70.9962579
  70.8211092   4.5836787  71.6710224  72.0310287   5.4481166  71.3869097
  68.1806205  16.5754446  54.9076149  68.6930725  17.3697696  55.0581714
  68.8328917  15.8780737  54.8409751  69.9901089  19.6920202  56.9898902
  70.1667718  20.6138167  56.8019886  70.7857923  19.3778622  57.4193282
  74.1312108   6.5528467  68.5882836  74.8721821   7.1535620  68.5087298
  74.3630031   5.8106105  68.0300879  69.2753446  11.7384834  66.8661066
  69.1606961  10.8370092  67.1668165  68.4197964  11.9848531  66.5145882
  76.3545284  19.6802575  68.4648566  75.9109138  18.8938953  68.1469471
  77.0162497  19.8681725  67.7992457  71.1132405  21.2098376  62.9909245
  71.6639830  21.0815440  62.2186239  70.2743881  21.5093265  62.6404138
  78.4526522  19.9605375  66.4929968  78.4344997  20.7814256  66.0010237
  79.3746442  19.8359450  66.7180109  74.9099576  17.4749504  67.3353476
  75.4427913  16.7137792  67.1052784  74.3813657  17.1823156  68.0777630
  66.1455121  14.9043100  55.6835720  66.9830343  15.3140109  55.4669428
  66.3233389  13.9642543  55.6535914  78.0419554  12.5718181  51.3719553
  77.5266177  13.3422786  51.6107940  77.7696862  11.8983317  51.9952614
  75.6266665   7.4167882  56.4304791  74.7708261   7.0274732  56.2510430
  76.0393616   7.4959843  55.5704577  77.1565811   4.9514225  60.8296351
  76.6530607   4.9144360  60.0164156  77.4496418   5.8606968  60.8893008
  73.4008697   5.0352955  59.8362533  74.2661694   4.8395764  59.4768422
  73.4686206   4.8063307  60.7631889  83.0153828  15.3250536  53.3072726
  82.2383270  14.9861695  52.8627888  83.6945309  15.3303159  52.6327691
  77.8305857  10.4445273  53.1979334  77.5255992  10.7591422  54.0489477
  78.7836299  10.5226693  53.2406667  76.2752289  16.6035497  54.8472288
  75.7473650  15.8688256  54.5345525  75.7739791  17.3810173  54.6012256
  81.2545135  14.7984517  59.9639334  80.5968809  15.4883778  60.0519463
  82.0585534  15.1880949  60.3073321  71.0071016   7.2655163  57.2078899
  71.5814768   7.0430344  56.4752092  71.5941999   7.3343857  57.9607501
  80.0650593  13.1528890  58.0143276  80.5782475  13.7858882  58.5164986
  80.7151817  12.5530085  57.6486636  71.3340603   9.2959624  51.2274785
  70.4977916   9.6334310  51.5484059  71.1945373   9.1608604  50.2901922
  73.3093684   4.1396412  55.9353969  72.6558096   3.8245429  55.3110584
  73.2674158   3.5172152  56.6613792  74.4204889  14.4215707  47.8507261
  73.5131950  14.1904960  48.0498410  74.9175921  13.6253326  48.0381243
  77.3272968  23.1313214  50.7703947  76.6534666  23.4344911  51.3788905
  77.7138790  23.9342294  50.4209404  76.5431424  10.6278345  60.2601617
  75.6253986  10.8493292  60.1023305  76.9591568  10.7024656  59.4013324
  77.3266472  12.0269761  55.3904297  78.0738291  12.5391158  55.0811419
  77.5958062  11.7053814  56.2508690  75.5993122  14.5228302  52.3731251
  74.6904341  14.2387334  52.4703721  75.6288206  14.9427380  51.5134558
  80.8312390  18.1334891  56.1422419  80.3774717  17.2925801  56.1987609
  80.2006356  18.7696290  56.4797199  79.7745309   9.0626877  57.3723086
  79.0368066   8.5504263  57.7033329  80.0272083   8.6227259  56.5606363
  79.2745329  19.9711388  57.0772237  79.5668303  20.5316445  56.3584602
  79.7843949  20.2639949  57.8325396  66.1681293  12.2433816  56.3546453
  65.9705692  11.6503177  55.6297520  65.6127957  11.9386026  57.0722392
  74.1478016  12.1356922  58.4741046  74.2026626  11.1830759  58.3983523
  73.3369218  12.2916361  58.9582345  75.2969210  16.0637045  49.7119330
  74.8588640  15.3472904  49.2524967  76.0379651  16.2913160  49.1504421
  72.0870376  10.7533982  56.2331425  71.2738242  11.0528153  56.6396617
  72.5829370  10.3589671  56.9505908  74.2378954  20.7491739  58.1665690
  74.1955133  20.9752585  57.2374222  75.1541653  20.5155114  58.3151491
  77.6844588  11.2175806  65.0646319  78.0393976  11.4447280  65.9240785
  78.3316719  11.5494183  64.4423574  83.4142325  14.3394242  55.7695648
  83.2760223  14.5295838  54.8416837  83.0578544  15.1013625  56.2263699
  71.5784451   8.3252338  61.8492660  72.2183830   8.1841097  61.1515624
  70.7461981   8.0386851  61.4731262  83.4411704  16.4070769  60.7806920
  83.8748211  16.3146058  61.6289974  84.1543285  16.3828270  60.1426936
  72.3544755  17.6254768  57.9627653  73.1485353  17.1305088  57.7610228
  71.6436447  17.0972631  57.5995358  77.1739599  20.0072863  62.3140020
  77.2276622  20.5763800  63.0817736  76.3054381  20.1774749  61.9494057
  68.6627518  11.7697850  54.0387405  67.7325106  11.7082305  54.2557368
  68.7584990  11.2473802  53.2424047  68.5813067   8.2952663  56.6265647
  68.8419885   9.2097996  56.5174808  69.4030240   7.8277105  56.7762260
  70.0537993   9.7090420  63.7964472  70.7261046   9.5007782  63.1477120
  69.2267779   9.5112506  63.3569704  84.3027254  16.4494470  63.3139805
  84.4963144  17.3540281  63.5599080  84.2027872  15.9901889  64.1478390
  75.9563565   6.3352361  65.8130132  75.3091480   7.0342310  65.7194609
  76.7264580   6.7688505  66.1806381  79.3642363  16.6001213  68.8880686
  79.2127869  16.3711764  67.9710769  79.3547042  17.5571814  68.9012031
  76.1327699  14.1733126  63.8726952  77.0619759  14.3244285  63.6995919
  75.7118729  14.2617146  63.0175599  74.9316031  18.1983790  61.6425490
  74.7927117  17.8302574  62.5151428  74.1430627  18.7131429  61.4709448
  75.5264183  23.2992886  52.9851026  75.7015938  22.8280930  53.7996649
  74.8396971  23.9258653  53.2132287  76.4821246  17.5765393  59.0314328
  76.1471079  17.5366163  59.9271977  75.9825192  16.9110109  58.5584738
  70.4565490  12.9833023  64.5566909  70.3185288  12.2513262  65.1578448
  71.3670413  12.8941923  64.2751096  79.4180438  14.9221427  49.3051387
  78.8009608  14.1968255  49.2084440  78.9496926  15.6830787  48.9618461
  73.0847791  12.6952982  64.0450588  73.7947409  12.0546174  64.0037207
  73.0417099  12.9465877  64.9676769  81.0734569  19.6320335  66.9657168
  81.0147115  18.9479555  66.2987751  81.4754088  20.3739325  66.5137794
  71.7976725   9.6818200  65.8646228  71.2614082   9.2308938  66.5167824
  71.2093433   9.8164109  65.1216692  70.0925268  26.4482249  59.7590886
  70.3321866  27.0800773  60.4369905  69.2494465  26.0970289  60.0456246
  71.2078984   9.1406851  48.4272692  70.3308450   9.0195652  48.0634938
  71.6836737   8.3492930  48.1751580  81.0751977  17.5959919  65.1971147
  80.1878755  17.2585841  65.3197546  81.6450528  16.8642951  65.4339913
  62.7281124  13.9284011  58.5214199  63.4152163  13.6145741  57.9335214
  62.5729252  14.8325376  58.2481450  67.5315846   8.8174208  62.9499222
  67.4474035   8.2099877  62.2149632  66.7098552   9.3083226  62.9508719
  74.6053130  22.2561372  62.1632390  74.5323301  23.0616343  62.6751695
  74.1630523  22.4553337  61.3380412  74.3942910  21.4933142  55.6735212
  73.6110431  22.0354822  55.7673437  75.0935655  22.0107121  56.0729453
  77.7039560   7.3027771  58.3169417  78.2008259   6.5497733  57.9970488
  76.9326541   7.3392088  57.7512627  85.5569317  13.0068137  59.9587709
  85.5459193  13.8892852  59.5881642  84.6886697  12.6539687  59.7642246
  77.0651813  22.1548206  64.3190549  77.7779786  22.7895670  64.2466451
  76.5741842  22.2512072  63.5030551  78.7869340  16.0599458  55.8907841
  77.8525619  16.1800921  55.7212545  78.9646009  15.1571925  55.6267851
  74.2874528   9.4445154  58.0441102  73.9172316   8.8916194  58.7322008
  74.7833621   8.8403288  57.4916102  82.1741892  11.9016778  56.4257875
  82.6402344  12.7344769  56.3518178  82.6249392  11.4361759  57.1303133
  72.1163727  19.9042649  65.1396120  72.8173186  20.5379132  65.2925514
  71.6458842  20.2457381  64.3791759  80.2418123  18.2460599  53.4244027
  80.5177967  18.1317193  54.3337901  79.3722622  17.8478084  53.3856200
  79.9165013  12.4587257  62.9648670  79.2636463  12.7063164  62.3101123
  80.2945393  11.6451395  62.6311148  76.8772187  22.4946950  57.0676841
  77.0594581  21.6768606  57.5304593  77.7005173  22.7114642  56.6301731
  77.2114352  21.4215135  54.3291889  77.7402119  20.9107589  53.7162051
  77.4742572  21.1057665  55.1937422  75.9652586  13.2007068  69.4514707
  75.2893223  13.1001197  70.1217083  76.7880220  13.0446281  69.9150705
  67.7131445  19.4379004  62.0727223  68.2984882  18.6922692  62.2055127
  67.5156284  19.7482961  62.9563887  70.5670100  22.4730252  57.0889665
  69.8980476  22.9576379  56.6053705  70.4282970  22.7199472  58.0033044
  62.3049100  12.0084604  60.7931666  62.3433199  11.4748195  61.5868784
  61.7989393  11.4819810  60.1742643  74.7075369  24.5073995  63.6872323
  75.2593677  24.6705617  64.4521409  75.0481562  25.0978433  63.0152348
  69.6839862   6.8549145  64.2894208  69.7481189   7.7163976  63.8771606
  69.6206982   6.2423147  63.5566567  69.1592135   8.9272277  67.9367242
  69.7864173   8.5449355  68.5504767  68.3020053   8.7086479  68.3022935
  79.5586243  19.3335253  69.5420978  80.1026147  19.9465211  69.0475933
  78.9773088  19.8914831  70.0587991  65.9357677  10.7348707  53.8685597
  66.2311118   9.8259385  53.8152651  65.0345713  10.7136446  53.5466600
  77.8443756  22.4555971  60.6736006  77.7194896  21.6545710  60.1646951
  78.5022847  22.9502164  60.1849976  69.4651924   8.8104703  59.8513146
  68.7438510   9.4240671  59.7120619  70.2545180   9.3462468  59.7729792
  79.9078665  20.2564991  62.3015556  78.9609000  20.1370342  62.2293882
  80.2561438  19.3687489  62.3841817  72.2678238   6.1459130  66.1253798
  72.7912640   6.3921426  66.8880107  72.0490571   6.9779164  65.7056935
  67.6645519   8.4162804  53.9924922  67.3358225   7.5360183  53.8100028
  68.0184890   8.3610473  54.8801312  76.9125098  20.0517707  58.5019908
  76.7650060  19.1234414  58.6827478  77.7378591  20.0737798  58.0176983
  70.7787342   8.7035774  54.3600400  71.1183415   9.2321695  53.6379008
  71.2259463   9.0416180  55.1358967  80.5159220  20.8746266  59.5884781
  81.4405767  20.6689127  59.4509232  80.3474523  20.6262667  60.4974122
  73.4730783   7.0872825  63.8103468  73.1327603   6.2880638  64.2124148
  72.7669789   7.3874536  63.2380301  74.1247255   4.1722137  62.2630791
  74.9473324   3.6982615  62.1409681  74.3685318   4.9512621  62.7629477
  72.7655489   7.2010396  52.5593693  73.4863852   7.5791648  52.0557410
  72.1420793   7.9199272  52.6628671  76.9086612   7.9055545  53.4952025
  77.1250227   8.7880182  53.1940853  76.4280679   7.5141758  52.7657667
  71.6485834  10.8641258  60.0722770  71.5030414  11.1781561  60.9647051
  71.1711037  11.4826158  59.5193668  73.5082216   7.8543806  60.1203659
  73.4943785   6.9584899  59.7835957  74.2254645   7.8614470  60.7541945
  75.3608347   8.2881146  62.1656787  75.1026125   9.2098217  62.1641117
  74.8293387   7.8911581  62.8557251  80.3054536  21.3931933  54.9446872
  80.4791413  20.8278356  54.1920725  80.7983427  22.1932828  54.7626362
  66.1231496  13.4046602  63.0110431  65.5784964  14.1806410  63.1430705
  67.0010846  13.7517407  62.8529552  72.9119112   6.7358186  55.3891229
  73.0335024   5.8074832  55.5882117  72.6221155   6.7496872  54.4769545
  75.7810303   4.4213096  58.5257949  75.8032000   4.4852430  57.5709929
  76.1978362   3.5817605  58.7198455  86.1593927  14.1568356  56.5637172
  86.6025073  13.4075681  56.1656295  85.2820437  14.1478492  56.1810904
  81.2929708  20.7098697  52.0443770  81.9880613  21.3305390  52.2631085
  81.6352858  19.8594049  52.3196148  66.9097518  12.5316498  65.9040588
  66.1679254  12.6799134  66.4905218  66.5890262  12.7924764  65.0407337
  83.1921131  18.1598403  53.5731101  83.7172456  18.4985676  52.8480421
  83.1043484  17.2245418  53.3894236  74.8541180  22.0732477  65.7020978
  75.1628307  21.8281623  66.5743677  75.6516662  22.2779115  65.2139848
  74.8761792  24.2270386  57.9326354  74.4366783  23.7346765  58.6259211
  75.6269909  23.6843354  57.6918430  67.3554131  20.4181927  57.9350982
  68.1812151  20.1185699  57.5549626  67.0048183  19.6489550  58.3840771
  72.3235664  19.7708395  60.0048656  71.7015674  19.1079100  59.7050884
  72.9940531  19.7969527  59.3222304  65.5562736  18.3368254  58.8939916
  64.7194645  17.9090428  58.7123917  65.5286382  18.5300697  59.8310707
  72.3960192   8.2490183  69.5981162  72.4448347   9.1252306  69.2158932
  72.9382706   7.7067576  69.0252805  82.8815038  18.7931307  68.8782299
  82.0910581  18.7755446  68.3386798  82.6448392  19.3319600  69.6331336
  83.0012913  15.6423773  66.1915028  83.0510918  15.4773780  67.1330550
  82.8926836  14.7751032  65.8012908  71.8849171  18.3212319  53.4807117
  72.0337292  19.0047783  52.8273789  72.6915615  18.3017409  53.9956572
  80.2916675  11.6254701  67.5074334  81.1926538  11.4861166  67.2158332
  80.3664649  11.7909156  68.4472512  74.6259480   9.0021556  66.3527521
  73.7562790   9.2955122  66.0810109  74.8618961   9.5862001  67.0734784
  84.5031109  18.0620715  66.4357049  84.2115918  18.4250695  67.2720510
  83.8903241  17.3487723  66.2570381  85.7026792  15.6273594  58.9559619
  86.5373683  16.0663398  59.1197180  85.8385921  15.1512248  58.1367865
  82.7518298  13.1853329  64.9037107  83.2272419  13.3780975  64.0955959
  81.8283863  13.2412515  64.6580491  69.6401804  14.3477496  54.4868185
  69.3947846  13.4439826  54.6848396  69.8097719  14.3494647  53.5447663
  77.3298514   5.2201173  63.8692941  77.8480458   5.9562200  63.5439430
  76.9753647   5.5265166  64.7039700  68.9097452  10.0805854  51.9854347
  68.2166697  10.1550209  51.3294383  68.6649204   9.3166198  52.5075864
  75.3844577  20.8160449  50.9518864  74.8118544  21.4350636  50.4989336
  75.9577370  21.3659811  51.4858786  81.4519967  10.0619089  63.1365413
  82.4037390  10.1617187  63.1577637  81.2823417   9.2697358  63.6463497
  79.4734346   7.1474672  63.3224814  78.8784278   7.4279685  62.6271302
  79.1884043   7.6368573  64.0941555  78.6041837  21.0997599  52.0827446
  79.5372510  21.0343161  52.2860322  78.5165049  21.9353866  51.6241979
  81.2329853  20.4163470  49.0431394  81.1543485  20.0823333  49.9367152
  82.0539520  20.9085238  49.0422866  83.9308044  13.2825209  62.2507712
  83.8984365  12.3441210  62.4367396  84.5408668  13.3609246  61.5173537
  75.7691375  12.1521262  48.2934916  76.7150480  12.0227470  48.3623334
  75.3905620  11.4135924  48.7704345  84.0802533  10.0736252  62.2965996
  83.5641582   9.2894709  62.1095924  84.9642481   9.7454969  62.4612515
  89.7484594  14.3441216  61.3913749  90.4787983  14.0826504  61.9521453
  89.1391540  13.6069938  61.4315817  87.8299891  12.4849078  61.9888200
  87.1033055  12.3505043  61.3804692  87.4147178  12.7925907  62.7944918
  75.6530068  16.2039008  69.7535573  76.5733077  16.3817607  69.9475620
  75.6179651  15.2595053  69.6015273  73.9534292  10.0771238  48.2289802
  73.0465748   9.7804351  48.3052515  74.2310273   9.7801056  47.3624088
  64.8712233  11.3977602  58.6788848  64.5515017  10.5442910  58.3863222
  64.3245661  11.6126180  59.4346815  68.6492140  14.1140043  62.3958355
  68.8678150  15.0457151  62.4146388  69.0617914  13.7548017  63.1813158
  75.5696358   4.6208128  54.3834043  74.7597087   4.2755213  54.7589289
  76.2580775   4.3115672  54.9721655  73.5220006   9.6873248  71.7861103
  73.4216733  10.6367605  71.7173195  73.3041548   9.3591487  70.9137174
  72.7233077   6.9358174  48.3701781  73.5852241   7.2613072  48.6297598
  72.9083421   6.1489669  47.8574847  64.7400493  15.0180513  60.6481970
  64.0463964  14.6034466  60.1351924  65.4873484  15.0601050  60.0515389
  80.8765714   5.8086700  55.5137004  80.2964383   6.4671504  55.1315056
  80.6101646   4.9864045  55.1024421  79.3269280   5.2091758  57.7158324
  79.8269058   5.3208292  56.9072643  79.9704888   4.9052811  58.3559133
  73.3851276  13.1170387  70.6026165  72.9018357  13.9170747  70.8090054
  73.4712215  13.1278332  69.6493609  66.6537235  14.9498767  58.5247985
  66.6307923  15.0486454  57.5729868  66.9637872  15.7963918  58.8465151
  69.3124613  17.0074922  62.6394599  70.2667867  16.9758864  62.5724530
  69.1137137  16.5465546  63.4544825  69.9023995  15.5776038  65.2065397
  70.7216884  16.0720117  65.2300234  70.1760803  14.6608006  65.1782964
  79.6590592   7.9686790  54.5693352  78.7716447   8.2536441  54.3513547
  80.0744581   7.8080554  53.7220629  83.0105128   7.9933311  58.2847691
  83.7865518   8.4829764  58.5572308  82.2853262   8.4191366  58.7419561
  85.4477686   8.7060931  59.3421632  86.0422177   8.4656667  58.6314940
  85.5204270   7.9868061  59.9695168  67.6674842  22.5494542  59.6564797
  67.5329310  21.7894942  59.0902795  67.2506904  23.2735441  59.1893586
  78.8033805  17.7331465  48.6641372  79.5069655  17.9381468  49.2799028
  78.0796454  18.3008227  48.9290456  79.6331615  13.4841326  54.7843642
  79.5766817  13.9409878  53.9451275  80.1859958  12.7232011  54.6066485
  83.4436421   9.2731058  55.6093762  83.1873355   8.8727694  56.4401969
  82.8189289   9.9874852  55.4843901  87.7548759  12.0127131  58.1165053
  87.1948317  12.0820321  58.8896615  87.1492262  11.8368116  57.3964549
  70.8243968  23.4463859  59.8683239  70.7076352  24.3909291  59.7661930
  70.0036414  23.1437420  60.2569039  80.7120502  18.1713994  50.7139832
  81.5466106  17.7395193  50.5317307  80.5504845  17.9996008  51.6416727
  80.3666395  14.6746108  52.0796171  80.3115198  14.5090379  51.1384616
  79.7412450  15.3822140  52.2358361  65.1558910   9.9114172  65.9057594
  65.8017773   9.4013126  66.3944819  64.9476061  10.6482854  66.4801019
  77.6812302  16.9795019  71.4049734  78.5503461  17.1535672  71.0436369
  77.2019053  17.7989436  71.2825464  73.6762520   4.1754217  51.6581490
  73.6641190   5.1196056  51.8149761  74.5685942   3.9924362  51.3640951
  71.8498482  24.0992120  63.0839168  72.7525729  24.1315731  63.4005663
  71.6235852  23.1692571  63.0985504  73.6052084  22.8523107  59.7449246
  72.6547715  22.8524969  59.6313619  73.9084570  22.1055842  59.2285281
  69.4956401   7.0581789  70.0032608  70.3587862   6.7018594  70.2135932
  68.9221811   6.7195684  70.6908012  89.3404778  28.6883645  60.8095009
  89.9783187  28.5690393  60.1058349  89.2225620  29.6364489  60.8682961
  86.1494484  28.6411073  60.7456534  85.8112995  28.5252138  59.8577068
  87.0184252  28.2402239  60.7257540  82.0081300  30.4946550  56.7353425
  81.4446165  30.4036487  55.9669712  81.8933695  29.6746454  57.2155917
  86.6314267  29.7945925  66.7042739  86.6202908  29.3998723  65.8323243
  86.7934906  29.0611998  67.2976511  79.5545731  31.9897741  59.5737645
  80.3467023  31.6488566  59.1583944  79.7942382  32.0992717  60.4939798
  87.5880858  34.1617518  52.0467889  86.9368838  34.7471598  51.6601903
  88.3825221  34.6923712  52.1062927  81.5136485  31.2506655  52.4455024
  82.2867361  30.7035642  52.3067900  81.8661884  32.1150904  52.6569485
  83.3521528  32.5783037  65.6521923  83.0611394  33.4828668  65.5368589
  83.9878512  32.6199565  66.3665993  84.2777735  29.9559886  62.2423283
  84.8741307  29.7315908  61.5280246  84.3352706  29.2144631  62.8448731
  83.8502763  27.4099321  50.0773474  84.1028284  26.8880842  49.3156937
  82.9127322  27.2465466  50.1800157  88.8946046  26.4135099  57.8848217
  89.6809135  25.9954522  57.5338634  89.1584750  27.3181191  58.0529865
  89.0656123  31.8507950  52.5836874  88.4301956  31.9242576  53.2957778
  88.7353530  32.4401548  51.9055953  94.2954473  26.3510332  58.7881195
  95.0279645  25.7809549  59.0219025  93.5393829  25.9631933  59.2287701
  83.5699052  29.3127427  52.2797849  83.4535310  28.6372330  52.9478933
  83.6801312  28.8259801  51.4630002  85.9130593  28.7737574  55.9844538
  85.5488800  28.2468195  56.6957459  86.7697709  28.3836043  55.8111023
  91.8179893  20.0631907  63.2475804  91.4863218  20.9327317  63.0237019
  91.2225507  19.7468191  63.9269834  85.5536080  23.8027474  50.9805886
  85.7210482  24.6707710  51.3476357  85.3633249  23.9654755  50.0567176
  88.3111413  32.2644453  62.6471717  88.0112136  33.1669491  62.5387524
  87.9662473  31.9976636  63.4992870  81.7623895  28.7158249  58.6808421
  80.8374391  28.5834463  58.8886113  82.0108308  29.4952469  59.1778364
  91.7108557  24.7826993  60.3269154  90.8025434  24.7142401  60.0327915
  91.6596153  25.2598938  61.1550980  85.5325301  26.2585131  51.9652553
  85.4124926  26.7042182  52.8038034  84.8377889  26.6070449  51.4066091
  79.1232706  28.3591523  59.5152210  79.2525087  28.6126002  60.4291622
  78.4430157  28.9519231  59.1956865  83.2932193  39.0288773  55.6142684
  83.2156223  39.9796598  55.6931165  82.6893836  38.6834645  56.2717611
  85.7849423  26.2016638  68.2704051  85.0082757  26.7610558  68.2606916
  86.4239986  26.6873421  68.7918921  93.5770203  22.9843431  62.1047028
  92.9344583  23.2775964  61.4586823  93.0725132  22.8696351  62.9100225
  91.2310367  26.7306604  52.7932887  92.1428223  26.9633991  52.6180585
  90.7220014  27.3143648  52.2307966  84.0395795  29.0102092  67.8322018
  84.7810479  29.5487136  67.5556842  83.3332780  29.6368380  67.9893570
  89.5151135  31.1531232  66.4294180  89.9234491  30.7113643  65.6848812
  88.7928396  30.5783860  66.6828373  85.8682205  26.0903839  63.8027737
  86.7143400  26.5143252  63.9462386  85.8080842  25.4337463  64.4966300
  89.8379949  31.7132423  60.1846469  89.2088812  31.8778137  59.4822537
  89.4505611  32.1274032  60.9557433  93.7169181  32.6486861  57.5390833
  93.0320219  33.0285762  56.9887866  93.8013030  33.2582187  58.2722780
  89.0181650  23.7508207  65.4608910  88.7742582  24.5050268  64.9243186
  89.2941580  24.1293555  66.2956158  90.9720113  30.2946820  64.1386176
  91.1837008  30.9378580  63.4620557  90.9249861  29.4609136  63.6708106
  88.5746342  22.9064640  61.0422748  87.7130821  23.2045894  61.3339486
  88.6008776  23.1235039  60.1103781  85.3907911  31.4506831  57.4496554
  85.8546257  31.7294534  56.6601176  85.1264709  30.5490275  57.2669645
  82.2831992  30.9978312  60.3876317  82.8533349  31.4265581  59.7493802
  82.8740104  30.7160897  61.0860503  84.3276797  27.5729983  54.2586119
  85.0300840  28.0251027  54.7260045  83.9957426  26.9313802  54.8866012
  82.7757159  26.1641740  68.6337328  82.1455819  26.8458021  68.8672725
  82.6693247  26.0524821  67.6890467  78.0702131  25.8313536  59.5603253
  77.2801185  26.0871064  59.0843363  78.5613378  26.6461874  59.6655293
  92.0865941  33.1718775  62.3108533  92.9083384  32.7698962  62.0291215
  92.0828344  33.0687009  63.2624649  80.0216876  26.1958115  56.5186729
  79.2248040  26.3076809  57.0370225  79.7942469  26.5344767  55.6527620
  85.8522544  32.7202818  64.4669244  85.9166977  33.1823226  65.3027416
  85.1433468  32.0900183  64.5951554  76.3539834  26.0844026  61.9918243
  76.6047872  26.9691036  62.2575819  76.8899382  25.9048628  61.2193335
 100.1771934  29.5157524  58.6593505  99.4235642  28.9464922  58.5037509
 100.3119475  29.4820188  59.6064140  85.5670562  34.3870926  54.3348224
  85.4316237  35.2322462  54.7633072  86.1080374  34.5890203  53.5714158
  82.0537901  20.4662506  70.9962579  81.6604847  19.9128704  71.6710224
  82.8704042  20.7773084  71.3869097  79.0199959  31.9046364  54.9076149
  79.5324480  32.6989614  55.0581714  79.6722672  31.2072654  54.8409751
  80.8294844  35.0212120  56.9898902  81.0061472  35.9430085  56.8019886
  81.6251677  34.7070539  57.4193282  84.9705862  21.8820385  68.5882836
  85.7115576  22.4827538  68.5087298  85.2023785  21.1398023  68.0300879
  80.1147200  27.0676752  66.8661066  80.0000716  26.1662009  67.1668165
  79.2591718  27.3140449  66.5145882  87.1939038  35.0094492  68.4648566
  86.7502892  34.2230871  68.1469471  87.8556252  35.1973643  67.7992457
  81.9526159  36.5390294  62.9909245  82.5033584  36.4107357  62.2186239
  81.1137635  36.8385183  62.6404138  89.2920276  35.2897292  66.4929968
  89.2738752  36.1106173  66.0010237  90.2140196  35.1651367  66.7180109
  85.7493330  32.8041422  67.3353476  86.2821667  32.0429710  67.1052784
  85.2207411  32.5115074  68.0777630  88.9163025  17.9101488  62.8647118
  88.5727295  18.8003129  62.7886228  89.2841988  17.7203145  62.0016703
  76.9848876  30.2335018  55.6835720  77.8224098  30.6432027  55.4669428
  77.1627144  29.2934460  55.6535914  88.8813308  27.9010099  51.3719553
  88.3659931  28.6714703  51.6107940  88.6090616  27.2275235  51.9952614
  86.4660419  22.7459800  56.4304791  85.6102015  22.3566650  56.2510430
  86.8787371  22.8251760  55.5704577  87.9959566  20.2806143  60.8296351
  87.4924361  20.2436278  60.0164156  88.2890173  21.1898886  60.8893008
  84.2402452  20.3644873  59.8362533  85.1055448  20.1687681  59.4768422
  84.3079961  20.1355224  60.7631889  93.8547582  30.6542453  53.3072726
  93.0777025  30.3153613  52.8627888  94.5339063  30.6595077  52.6327691
  88.6699611  25.7737191  53.1979334  88.3649747  26.0883340  54.0489477
  89.6230053  25.8518611  53.2406667  87.1146043  31.9327414  54.8472288
  86.5867405  31.1980174  54.5345525  86.6133546  32.7102091  54.6012256
  92.0938889  30.1276435  59.9639334  91.4362564  30.8175696  60.0519463
  92.8979288  30.5172867  60.3073321  81.8464771  22.5947081  57.2078899
  82.4208523  22.3722262  56.4752092  82.4335753  22.6635775  57.9607501
  90.9044348  28.4820807  58.0143276  91.4176230  29.1150799  58.5164986
  91.5545572  27.8822003  57.6486636  82.1734358  24.6251542  51.2274785
  81.3371670  24.9626228  51.5484059  82.0339127  24.4900521  50.2901922
  84.1487438  19.4688329  55.9353969  83.4951851  19.1537347  55.3110584
  84.1067913  18.8464070  56.6613792  85.2598643  29.7507624  47.8507261
  84.3525705  29.5196878  48.0498410  85.7569675  28.9545244  48.0381243
  88.1666722  38.4605132  50.7703947  87.4928421  38.7636828  51.3788905
  88.5532544  39.2634212  50.4209404  87.3825179  25.9570263  60.2601617
  86.4647740  26.1785210  60.1023305  87.7985322  26.0316573  59.4013324
  88.1660227  27.3561679  55.3904297  88.9132045  27.8683076  55.0811419
  88.4351816  27.0345731  56.2508690  86.4386877  29.8520219  52.3731251
  85.5298096  29.5679252  52.4703721  86.4681960  30.2719298  51.5134558
  91.6706144  33.4626809  56.1422419  91.2168471  32.6217719  56.1987609
  91.0400111  34.0988207  56.4797199  90.6139064  24.3918795  57.3723086
  89.8761820  23.8796181  57.7033329  90.8665837  23.9519176  56.5606363
  90.1139083  35.3003306  57.0772237  90.4062058  35.8608363  56.3584602
  90.6237704  35.5931867  57.8325396  90.7150691  17.1695047  57.9664855
  91.0209568  16.3092410  57.6790770  91.4403296  17.7612667  57.7663849
  77.0075047  27.5725733  56.3546453  76.8099447  26.9795094  55.6297520
  76.4521711  27.2677944  57.0722392  84.9871771  27.4648840  58.4741046
  85.0420381  26.5122676  58.3983523  84.1762973  27.6208279  58.9582345
  86.1362964  31.3928963  49.7119330  85.6982394  30.6764822  49.2524967
  86.8773405  31.6205078  49.1504421  82.9264131  26.0825900  56.2331425
  82.1131996  26.3820070  56.6396617  83.4223125  25.6881588  56.9505908
  85.0772709  36.0783657  58.1665690  85.0348887  36.3044503  57.2374222
  85.9935407  35.8447031  58.3151491  88.5238342  26.5467724  65.0646319
  88.8787730  26.7739197  65.9240785  89.1710474  26.8786101  64.4423574
  94.2536079  29.6686160  55.7695648  94.1153978  29.8587756  54.8416837
  93.8972298  30.4305543  56.2263699  82.4178205  23.6544255  61.8492660
  83.0577585  23.5133014  61.1515624  81.5855736  23.3678769  61.4731262
  94.2805459  31.7362687  60.7806920  94.7141966  31.6437976  61.6289974
  94.9937040  31.7120188  60.1426936  83.1938509  32.9546686  57.9627653
  83.9879108  32.4597006  57.7610228  82.4830202  32.4264549  57.5995358
  88.0133354  35.3364781  62.3140020  88.0670376  35.9055717  63.0817736
  87.1448135  35.5066666  61.9494057  79.5021273  27.0989767  54.0387405
  78.5718861  27.0374223  54.2557368  79.5978745  26.5765720  53.2424047
  79.4206822  23.6244580  56.6265647  79.6813639  24.5389913  56.5174808
  80.2423994  23.1569023  56.7762260  80.8931747  25.0382337  63.7964472
  81.5654801  24.8299700  63.1477120  80.0661534  24.8404423  63.3569704
  95.1421008  31.7786388  63.3139805  95.3356899  32.6832198  63.5599080
  95.0421627  31.3193807  64.1478390  86.7957319  21.6644278  65.8130132
  86.1485234  22.3634228  65.7194609  87.5658335  22.0980422  66.1806381
  90.2036117  31.9293130  68.8880686  90.0521624  31.7003682  67.9710769
  90.1940797  32.8863732  68.9012031  86.9721454  29.5025043  63.8726952
  87.9013514  29.6536203  63.6995919  86.5512484  29.5909064  63.0175599
  85.7709785  33.5275708  61.6425490  85.6320871  33.1594492  62.5151428
  84.9824382  34.0423347  61.4709448  86.3657937  38.6284804  52.9851026
  86.5409693  38.1572847  53.7996649  85.6790725  39.2550570  53.2132287
  87.3215000  32.9057310  59.0314328  86.9864833  32.8658080  59.9271977
  86.8218946  32.2402026  58.5584738  81.2959244  28.3124940  64.5566909
  81.1579042  27.5805179  65.1578448  82.2064168  28.2233840  64.2751096
  90.2574192  30.2513345  49.3051387  89.6403363  29.5260173  49.2084440
  89.7890681  31.0122705  48.9618461  83.9241545  28.0244900  64.0450588
  84.6341164  27.3838092  64.0037207  83.8810853  28.2757795  64.9676769
  91.9128324  34.9612253  66.9657168  91.8540870  34.2771473  66.2987751
  92.3147842  35.7031243  66.5137794  82.6370479  25.0110118  65.8646228
  82.1007836  24.5600856  66.5167824  82.0487188  25.1456026  65.1216692
  80.9319023  41.7774167  59.7590886  81.1715621  42.4092691  60.4369905
  80.0888219  41.4262207  60.0456246  82.0472738  24.4698769  48.4272692
  81.1702204  24.3487570  48.0634938  82.5230491  23.6784847  48.1751580
  91.9145731  32.9251837  65.1971147  91.0272510  32.5877759  65.3197546
  92.4844282  32.1934868  65.4339913  73.5674878  29.2575929  58.5214199
  74.2545918  28.9437659  57.9335214  73.4123007  30.1617293  58.2481450
  78.3709600  24.1466125  62.9499222  78.2867789  23.5391795  62.2149632
  77.5492307  24.6375144  62.9508719  85.4446884  37.5853289  62.1632390
  85.3717056  38.3908261  62.6751695  85.0024278  37.7845255  61.3380412
  85.2336664  36.8225059  55.6735212  84.4504186  37.3646740  55.7673437
  85.9329409  37.3399039  56.0729453  88.5433314  22.6319689  58.3169417
  89.0402014  21.8789651  57.9970488  87.7720296  22.6684005  57.7512627
  96.3963072  28.3360054  59.9587709  96.3852948  29.2184770  59.5881642
  95.5280451  27.9831605  59.7642246  87.9045568  37.4840123  64.3190549
  88.6173540  38.1187588  64.2466451  87.4135597  37.5803989  63.5030551
  89.6263095  31.3891376  55.8907841  88.6919374  31.5092838  55.7212545
  89.8039763  30.4863843  55.6267851  85.1268283  24.7737072  58.0441102
  84.7566070  24.2208112  58.7322008  85.6227375  24.1695205  57.4916102
  93.0135646  27.2308695  56.4257875  93.4796098  28.0636687  56.3518178
  93.4643147  26.7653677  57.1303133  82.9557481  35.2334567  65.1396120
  83.6566941  35.8671050  65.2925514  82.4852596  35.5749298  64.3791759
  91.0811877  33.5752517  53.4244027  91.3571721  33.4609111  54.3337901
  90.2116376  33.1770001  53.3856200  90.9852309  19.5989282  60.4648776
  90.0715389  19.8293509  60.6330983  91.4145410  19.6827726  61.3162809
  90.7558767  27.7879174  62.9648670  90.1030218  28.0355082  62.3101123
  91.1339147  26.9743312  62.6311148  87.7165941  37.8238867  57.0676841
  87.8988336  37.0060523  57.5304593  88.5398927  38.0406560  56.6301731
  88.0508107  36.7507053  54.3291889  88.5795873  36.2399507  53.7162051
  88.3136326  36.4349583  55.1937422  86.8046340  28.5298985  69.4514707
  86.1286977  28.4293115  70.1217083  87.6273974  28.3738199  69.9150705
  78.5525200  34.7670922  62.0727223  79.1378636  34.0214610  62.2055127
  78.3550038  35.0774879  62.9563887  81.4063855  37.8022169  57.0889665
  80.7374230  38.2868297  56.6053705  81.2676724  38.0491390  58.0033044
  73.1442854  27.3376522  60.7931666  73.1826954  26.8040113  61.5868784
  72.6383147  26.8111728  60.1742643  85.5469123  39.8365913  63.6872323
  86.0987431  39.9997534  64.4521409  85.8875317  40.4270351  63.0152348
  80.5233617  22.1841063  64.2894208  80.5874943  23.0455893  63.8771606
  80.4600737  21.5715064  63.5566567  79.9985889  24.2564195  67.9367242
  80.6257928  23.8741272  68.5504767  79.1413808  24.0378397  68.3022935
  90.3979998  34.6627170  69.5420978  90.9419902  35.2757129  69.0475933
  89.8166843  35.2206749  70.0587991  76.7751432  26.0640624  53.8685597
  77.0704873  25.1551303  53.8152651  75.8739468  26.0428364  53.5466600
  88.6837511  37.7847888  60.6736006  88.5588650  36.9837628  60.1646951
  89.3416602  38.2794082  60.1849976  80.3045679  24.1396621  59.8513146
  79.5832265  24.7532588  59.7120619  81.0938935  24.6754386  59.7729792
  90.7472419  35.5856908  62.3015556  89.8002755  35.4662260  62.2293882
  91.0955192  34.6979406  62.3841817  83.1071992  21.4751047  66.1253798
  83.6306394  21.7213344  66.8880107  82.8884326  22.3071082  65.7056935
  78.5039273  23.7454722  53.9924922  78.1751980  22.8652101  53.8100028
  78.8578644  23.6902391  54.8801312  87.7518852  35.3809625  58.5019908
  87.6043815  34.4526332  58.6827478  88.5772346  35.4029715  58.0176983
  81.6181097  24.0327692  54.3600400  81.9577169  24.5613613  53.6379008
  82.0653217  24.3708098  55.1358967  91.3552974  36.2038183  59.5884781
  92.2799522  35.9981045  59.4509232  91.1868278  35.9554584  60.4974122
  84.3124537  22.4164742  63.8103468  83.9721358  21.6172555  64.2124148
  83.6063544  22.7166453  63.2380301  84.9641009  19.5014055  62.2630791
  85.7867079  19.0274533  62.1409681  85.2079073  20.2804539  62.7629477
  83.6049244  22.5302313  52.5593693  84.3257606  22.9083566  52.0557410
  82.9814548  23.2491190  52.6628671  87.7480367  23.2347462  53.4952025
  87.9643981  24.1172100  53.1940853  87.2674434  22.8433676  52.7657667
  82.4879588  26.1933175  60.0722770  82.3424169  26.5073479  60.9647051
  82.0104792  26.8118076  59.5193668  84.3475971  23.1835723  60.1203659
  84.3337540  22.2876817  59.7835957  85.0648399  23.1906387  60.7541945
  86.2002102  23.6173064  62.1656787  85.9419879  24.5390134  62.1641117
  85.6687142  23.2203498  62.8557251  91.1448290  36.7223851  54.9446872
  91.3185168  36.1570273  54.1920725  91.6377182  37.5224746  54.7626362
  76.9625250  28.7338520  63.0110431  76.4178718  29.5098328  63.1430705
  77.8404600  29.0809324  62.8529552  83.7512867  22.0650104  55.3891229
  83.8728778  21.1366750  55.5882117  83.4614909  22.0788790  54.4769545
  86.6204057  19.7505014  58.5257949  86.6425754  19.8144347  57.5709929
  87.0372116  18.9109523  58.7198455  96.9987682  29.4860274  56.5637172
  97.4418828  28.7367599  56.1656295  96.1214192  29.4770410  56.1810904
  92.1323463  36.0390615  52.0443770  92.8274367  36.6597308  52.2631085
  92.4746613  35.1885966  52.3196148  77.7491272  27.8608416  65.9040588
  77.0073008  28.0091051  66.4905218  77.4284016  28.1216682  65.0407337
  94.0314886  33.4890321  53.5731101  94.5566210  33.8277593  52.8480421
  93.9437239  32.5537336  53.3894236  85.6934935  37.4024394  65.7020978
  86.0022061  37.1573541  66.5743677  86.4910417  37.6071033  65.2139848
  85.7155547  39.5562304  57.9326354  85.2760537  39.0638683  58.6259211
  86.4663664  39.0135272  57.6918430  78.1947886  35.7473845  57.9350982
  79.0205906  35.4477617  57.5549626  77.8441938  34.9781467  58.3840771
  83.1629419  35.1000313  60.0048656  82.5409428  34.4371018  59.7050884
  83.8334286  35.1261445  59.3222304  76.3956491  33.6660171  58.8939916
  75.5588399  33.2382346  58.7123917  76.3680136  33.8592615  59.8310707
  83.2353946  23.5782101  69.5981162  83.2842102  24.4544224  69.2158932
  83.7776461  23.0359494  69.0252805  93.7208792  34.1223224  68.8782299
  92.9304336  34.1047363  68.3386798  93.4842147  34.6611518  69.6331336
  93.8406667  30.9715691  66.1915028  93.8904672  30.8065698  67.1330550
  93.7320590  30.1042950  65.8012908  82.7242926  33.6504236  53.4807117
  82.8731046  34.3339701  52.8273789  83.5309369  33.6309326  53.9956572
  91.1310429  26.9546619  67.5074334  92.0320292  26.8153084  67.2158332
  91.2058404  27.1201074  68.4472512  85.4653235  24.3313473  66.3527521
  84.5956544  24.6247040  66.0810109  85.7012715  24.9153918  67.0734784
  95.3424864  33.3912632  66.4357049  95.0509672  33.7542613  67.2720510
  94.7296995  32.6779641  66.2570381  96.5420546  30.9565512  58.9559619
  97.3767438  31.3955316  59.1197180  96.6779675  30.4804165  58.1367865
  93.5912052  28.5145247  64.9037107  94.0666174  28.7072893  64.0955959
  92.6677618  28.5704433  64.6580491  80.4795559  29.6769414  54.4868185
  80.2341601  28.7731744  54.6848396  80.6491473  29.6786564  53.5447663
  88.1692269  20.5493090  63.8692941  88.6874213  21.2854117  63.5439430
  87.8147401  20.8557084  64.7039700  79.7491206  25.4097772  51.9854347
  79.0560451  25.4842127  51.3294383  79.5042958  24.6458115  52.5075864
  88.4204863  16.9693373  59.3893838  88.7006617  16.3016562  60.0154264
  89.2055470  17.1622469  58.8768501  86.2238331  36.1452367  50.9518864
  85.6512298  36.7642554  50.4989336  86.7971125  36.6951729  51.4858786
  92.2913721  25.3911007  63.1365413  93.2431144  25.4909105  63.1577637
  92.1217172  24.5989275  63.6463497  90.3128101  22.4766590  63.3224814
  89.7178033  22.7571603  62.6271302  90.0277797  22.9660491  64.0941555
  89.4435591  36.4289517  52.0827446  90.3766264  36.3635079  52.2860322
  89.3558804  37.2645784  51.6241979  92.0723608  35.7455387  49.0431394
  91.9937239  35.4115251  49.9367152  92.8933275  36.2377155  49.0422866
  94.7701799  28.6117127  62.2507712  94.7378119  27.6733127  62.4367396
  95.3802423  28.6901163  61.5173537  86.6085130  27.4813180  48.2934916
  87.5544235  27.3519388  48.3623334  86.2299375  26.7427842  48.7704345
  94.9196287  25.4028170  62.2965996  94.4035336  24.6186627  62.1095924
  95.8036236  25.0746887  62.4612515  92.5807014  19.1469186  58.2561808
  92.3831835  18.8384274  59.1405140  93.1906720  19.8730825  58.3859738
 100.5878349  29.6733133  61.3913749 101.3181737  29.4118422  61.9521453
  99.9785294  28.9361855  61.4315817  98.6693646  27.8140996  61.9888200
  97.9426809  27.6796961  61.3804692  98.2540933  28.1217825  62.7944918
  86.4923822  31.5330926  69.7535573  87.4126832  31.7109525  69.9475620
  86.4573405  30.5886971  69.6015273  84.7928047  25.4063156  48.2289802
  83.8859502  25.1096269  48.3052515  85.0704028  25.1092974  47.3624088
  75.7105987  26.7269519  58.6788848  75.3908772  25.8734828  58.3863222
  75.1639416  26.9418098  59.4346815  79.4885895  29.4431960  62.3958355
  79.7071905  30.3749068  62.4146388  79.9011669  29.0839935  63.1813158
  86.4090113  19.9500046  54.3834043  85.5990841  19.6047131  54.7589289
  87.0974530  19.6407589  54.9721655  88.3380661  19.0278093  56.0058340
  88.8911700  19.4473546  56.6648363  88.5750747  18.1013841  56.0481296
  84.3613760  25.0165166  71.7861103  84.2610487  25.9659523  71.7173195
  84.1435302  24.6883405  70.9137174  83.5626832  22.2650091  48.3701781
  84.4245996  22.5904990  48.6297598  83.7477176  21.4781587  47.8574847
  75.5794247  30.3472431  60.6481970  74.8857719  29.9326384  60.1351924
  76.3267238  30.3892967  60.0515389  91.7159468  21.1378618  55.5137004
  91.1358137  21.7963422  55.1315056  91.4495401  20.3155962  55.1024421
  90.1663034  20.5383675  57.7158324  90.6662813  20.6500210  56.9072643
  90.8098642  20.2344728  58.3559133  84.2245030  28.4462305  70.6026165
  83.7412112  29.2462665  70.8090054  84.3105969  28.4570250  69.6493609
  77.4930990  30.2790685  58.5247985  77.4701678  30.3778372  57.5729868
  77.8031626  31.1255835  58.8465151  80.1518368  32.3366840  62.6394599
  81.1061621  32.3050782  62.5724530  79.9530891  31.8757463  63.4544825
  80.7417750  30.9067956  65.2065397  81.5610639  31.4012034  65.2300234
  81.0154558  29.9899924  65.1782964  90.4984346  23.2978708  54.5693352
  89.6110201  23.5828359  54.3513547  90.9138335  23.1372471  53.7220629
  93.8498882  23.3225229  58.2847691  94.6259272  23.8121681  58.5572308
  93.1247016  23.7483283  58.7419561  96.2871441  24.0352848  59.3421632
  96.8815932  23.7948584  58.6314940  96.3598025  23.3159979  59.9695168
  78.5068597  37.8786459  59.6564797  78.3723064  37.1186860  59.0902795
  78.0900659  38.6027359  59.1893586  89.6427560  33.0623383  48.6641372
  90.3463410  33.2673385  49.2799028  88.9190208  33.6300145  48.9290456
  90.4725370  28.8133244  54.7843642  90.4160571  29.2701795  53.9451275
  91.0253712  28.0523929  54.6066485  94.2830176  24.6022976  55.6093762
  94.0267110  24.2019612  56.4401969  93.6583044  25.3166770  55.4843901
  98.5942514  27.3419049  58.1165053  98.0342072  27.4112238  58.8896615
  97.9886017  27.1660034  57.3964549  81.6637722  38.7755776  59.8683239
  81.5470107  39.7201209  59.7661930  80.8430169  38.4729338  60.2569039
  91.5514257  33.5005912  50.7139832  92.3859861  33.0687110  50.5317307
  91.3898600  33.3287926  51.6416727  91.2060149  30.0038025  52.0796171
  91.1508953  29.8382297  51.1384616  90.5806204  30.7114058  52.2358361
  75.9952664  25.2406090  65.9057594  76.6411528  24.7305044  66.3944819
  75.7869815  25.9774771  66.4801019  88.5206056  32.3086937  71.4049734
  89.3897216  32.4827589  71.0436369  88.0412808  33.1281354  71.2825464
  84.5156275  19.5046134  51.6581490  84.5034944  20.4487974  51.8149761
  85.4079696  19.3216280  51.3640951  82.6892237  39.4284038  63.0839168
  83.5919483  39.4607648  63.4005663  82.4629607  38.4984489  63.0985504
  84.4445839  38.1815025  59.7449246  83.4941470  38.1816886  59.6313619
  84.7478325  37.4347759  59.2285281  88.3308394  16.0988911  55.9127427
  87.5640790  15.5447398  56.0584109  88.7419099  16.1710780  56.7741578
  80.3350155  22.3873707  70.0032608  81.1981617  22.0310512  70.2135932
  79.7615566  22.0487602  70.6908012 100.1798532  44.0175563  60.8095009
 100.8176942  43.8982310  60.1058349 100.0619375  44.9656407  60.8682961
  96.9888238  43.9702991  60.7456534  96.6506750  43.8544056  59.8577068
  97.8578007  43.5694156  60.7257540  92.8475054  45.8238468  56.7353425
  92.2839919  45.7328405  55.9669712  92.7327449  45.0038372  57.2155917
  97.4708021  45.1237843  66.7042739  97.4596662  44.7290641  65.8323243
  97.6328661  44.3903915  67.2976511  90.3939486  47.3189659  59.5737645
  91.1860778  46.9780484  59.1583944  90.6336136  47.4284634  60.4939798
  98.4274613  49.4909435  52.0467889  97.7762592  50.0763516  51.6601903
  99.2218976  50.0215630  52.1062927  92.3530240  46.5798572  52.4455024
  93.1261116  46.0327559  52.3067900  92.7055639  47.4442822  52.6569485
  94.1915282  47.9074955  65.6521923  93.9005148  48.8120586  65.5368589
  94.8272267  47.9491482  66.3665993  95.1171489  45.2851803  62.2423283
  95.7135062  45.0607826  61.5280246  95.1746461  44.5436549  62.8448731
  94.6896518  42.7391239  50.0773474  94.9422038  42.2172760  49.3156937
  93.7521077  42.5757384  50.1800157  99.7339801  41.7427017  57.8848217
 100.5202890  41.3246440  57.5338634  99.9978505  42.6473109  58.0529865
  99.9049878  47.1799867  52.5836874  99.2695711  47.2534494  53.2957778
  99.5747284  47.7693466  51.9055953 105.1348228  41.6802250  58.7881195
 105.8673400  41.1101467  59.0219025 104.3787583  41.2923851  59.2287701
  94.4092806  44.6419344  52.2797849  94.2929065  43.9664248  52.9478933
  94.5195066  44.1551718  51.4630002  96.7524347  44.1029492  55.9844538
  96.3882555  43.5760113  56.6957459  97.6091463  43.7127961  55.8111023
 102.6573648  35.3923824  63.2475804 102.3256973  36.2619235  63.0237019
 102.0619261  35.0760108  63.9269834  96.3929834  39.1319391  50.9805886
  96.5604237  39.9999628  51.3476357  96.2027003  39.2946673  50.0567176
  99.1505168  47.5936370  62.6471717  98.8505891  48.4961409  62.5387524
  98.8056227  47.3268553  63.4992870  92.6017649  44.0450167  58.6808421
  91.6768145  43.9126381  58.8886113  92.8502062  44.8244386  59.1778364
 102.5502311  40.1118910  60.3269154 101.6419189  40.0434319  60.0327915
 102.4989907  40.5890855  61.1550980  96.3719055  41.5877049  51.9652553
  96.2518680  42.0334100  52.8038034  95.6771644  41.9362366  51.4066091
  89.9626460  43.6883441  59.5152210  90.0918841  43.9417920  60.4291622
  89.2823911  44.2811149  59.1956865  94.1325947  54.3580691  55.6142684
  94.0549977  55.3088516  55.6931165  93.5287591  54.0126563  56.2717611
  96.6243177  41.5308556  68.2704051  95.8476511  42.0902476  68.2606916
  97.2633740  42.0165339  68.7918921 104.4163958  38.3135349  62.1047028
 103.7738338  38.6067882  61.4586823 103.9118886  38.1988269  62.9100225
 102.0704121  42.0598522  52.7932887 102.9821977  42.2925909  52.6180585
 101.5613768  42.6435566  52.2307966  94.8789549  44.3394009  67.8322018
  95.6204234  44.8779053  67.5556842  94.1726535  44.9660298  67.9893570
 100.3544889  46.4823150  66.4294180 100.7628245  46.0405560  65.6848812
  99.6322151  45.9075777  66.6828373  96.7075959  41.4195757  63.8027737
  97.5537154  41.8435170  63.9462386  96.6474597  40.7629381  64.4966300
 100.6773704  47.0424340  60.1846469 100.0482566  47.2070055  59.4822537
 100.2899366  47.4565950  60.9557433 104.5562936  47.9778778  57.5390833
 103.8713974  48.3577680  56.9887866 104.6406785  48.5874105  58.2722780
  99.8575404  39.0800125  65.4608910  99.6136336  39.8342185  64.9243186
 100.1335335  39.4585473  66.2956158 101.8113867  45.6238737  64.1386176
 102.0230762  46.2670497  63.4620557 101.7643615  44.7901054  63.6708106
  99.4140096  38.2356558  61.0422748  98.5524575  38.5337812  61.3339486
  99.4402531  38.4526957  60.1103781  96.2301666  46.7798749  57.4496554
  96.6940011  47.0586451  56.6601176  95.9658464  45.8782193  57.2669645
  93.1225747  46.3270230  60.3876317  93.6927104  46.7557498  59.7493802
  93.7133858  46.0452815  61.0860503  95.1670552  42.9021901  54.2586119
  95.8694595  43.3542945  54.7260045  94.8351180  42.2605720  54.8866012
  93.6150913  41.4933658  68.6337328  92.9849574  42.1749938  68.8672725
  93.5087001  41.3816739  67.6890467  88.9095886  41.1605454  59.5603253
  88.1194940  41.4162982  59.0843363  89.4007133  41.9753791  59.6655293
 102.9259695  48.5010693  62.3108533 103.7477139  48.0990880  62.0291215
 102.9222098  48.3978927  63.2624649  90.8610631  41.5250033  56.5186729
  90.0641794  41.6368727  57.0370225  90.6336223  41.8636685  55.6527620
  96.6916299  48.0494736  64.4669244  96.7560731  48.5115143  65.3027416
  95.9827222  47.4192101  64.5951554  87.1933589  41.4135944  61.9918243
  87.4441627  42.2982954  62.2575819  87.7293137  41.2340546  61.2193335
 111.0165688  44.8449441  58.6593505 110.2629397  44.2756839  58.5037509
 111.1513229  44.8112106  59.6064140  96.4064316  49.7162843  54.3348224
  96.2709991  50.5614379  54.7633072  96.9474129  49.9182121  53.5714158
  92.8931656  35.7954423  70.9962579  92.4998601  35.2420622  71.6710224
  93.7097796  36.1065002  71.3869097  89.8593714  47.2338282  54.9076149
  90.3718234  48.0281532  55.0581714  90.5116426  46.5364572  54.8409751
  91.6688598  50.3504038  56.9898902  91.8455227  51.2722003  56.8019886
  92.4645432  50.0362457  57.4193282  95.8099617  37.2112302  68.5882836
  96.5509330  37.8119456  68.5087298  96.0417540  36.4689940  68.0300879
  90.9540955  42.3968670  66.8661066  90.8394470  41.4953927  67.1668165
  90.0985473  42.6432366  66.5145882  98.0332793  50.3386410  68.4648566
  97.5896647  49.5522789  68.1469471  98.6950006  50.5265561  67.7992457
  92.7919914  51.8682212  62.9909245  93.3427339  51.7399275  62.2186239
  91.9531390  52.1677101  62.6404138 100.1314031  50.6189210  66.4929968
 100.1132506  51.4398091  66.0010237 101.0533951  50.4943285  66.7180109
  96.5887085  48.1333339  67.3353476  97.1215422  47.3721628  67.1052784
  96.0601166  47.8406991  68.0777630  99.7556780  33.2393405  62.8647118
  99.4121049  34.1295047  62.7886228 100.1235742  33.0495063  62.0016703
  87.8242630  45.5626936  55.6835720  88.6617852  45.9723944  55.4669428
  88.0020898  44.6226378  55.6535914  99.7207063  43.2302016  51.3719553
  99.2053686  44.0006621  51.6107940  99.4484371  42.5567153  51.9952614
  97.3054174  38.0751717  56.4304791  96.4495770  37.6858568  56.2510430
  97.7181125  38.1543678  55.5704577  98.8353320  35.6098061  60.8296351
  98.3318116  35.5728196  60.0164156  99.1283927  36.5190803  60.8893008
  95.0796206  35.6936790  59.8362533  95.9449203  35.4979599  59.4768422
  95.1473715  35.4647142  60.7631889 104.6941337  45.9834371  53.3072726
 103.9170779  45.6445531  52.8627888 105.3732818  45.9886994  52.6327691
  99.5093366  41.1029109  53.1979334  99.2043501  41.4175258  54.0489477
 100.4623808  41.1810528  53.2406667  97.9539798  47.2619332  54.8472288
  97.4261159  46.5272091  54.5345525  97.4527300  48.0394008  54.6012256
 102.9332644  45.4568352  59.9639334 102.2756318  46.1467614  60.0519463
 103.7373043  45.8464784  60.3073321  92.6858525  37.9238998  57.2078899
  93.2602277  37.7014180  56.4752092  93.2729508  37.9927693  57.9607501
 101.7438102  43.8112725  58.0143276 102.2569984  44.4442717  58.5164986
 102.3939326  43.2113921  57.6486636  93.0128112  39.9543459  51.2274785
  92.1765425  40.2918146  51.5484059  92.8732882  39.8192439  50.2901922
  94.9881193  34.7980247  55.9353969  94.3345605  34.4829264  55.3110584
  94.9461667  34.1755988  56.6613792  96.0992398  45.0799542  47.8507261
  95.1919459  44.8488796  48.0498410  96.5963430  44.2837161  48.0381243
  99.0060477  53.7897049  50.7703947  98.3322175  54.0928746  51.3788905
  99.3926299  54.5926130  50.4209404  98.2218933  41.2862181  60.2601617
  97.3041495  41.5077128  60.1023305  98.6379077  41.3608491  59.4013324
  99.0053981  42.6853596  55.3904297  99.7525800  43.1974994  55.0811419
  99.2745571  42.3637649  56.2508690  97.2780631  45.1812137  52.3731251
  96.3691850  44.8971170  52.4703721  97.3075715  45.6011216  51.5134558
 102.5099899  48.7918727  56.1422419 102.0562226  47.9509636  56.1987609
 101.8793865  49.4280125  56.4797199 101.4532818  39.7210713  57.3723086
 100.7155575  39.2088099  57.7033329 101.7059592  39.2811094  56.5606363
 100.9532838  50.6295223  57.0772237 101.2455812  51.1900280  56.3584602
 101.4631458  50.9223784  57.8325396 101.5544445  32.4986965  57.9664855
 101.8603322  31.6384328  57.6790770 102.2797050  33.0904585  57.7663849
  87.8468802  42.9017651  56.3546453  87.6493201  42.3087012  55.6297520
  87.2915466  42.5969861  57.0722392  95.8265525  42.7940758  58.4741046
  95.8814135  41.8414594  58.3983523  95.0156727  42.9500197  58.9582345
  96.9756719  46.7220881  49.7119330  96.5376149  46.0056740  49.2524967
  97.7167160  46.9496996  49.1504421  93.7657885  41.4117817  56.2331425
  92.9525751  41.7111988  56.6396617  94.2616879  41.0173506  56.9505908
  95.9166463  51.4075574  58.1665690  95.8742642  51.6336421  57.2374222
  96.8329162  51.1738949  58.3151491  99.3632097  41.8759642  65.0646319
  99.7181485  42.1031115  65.9240785 100.0104228  42.2078019  64.4423574
 105.0929834  44.9978078  55.7695648 104.9547732  45.1879674  54.8416837
 104.7366053  45.7597461  56.2263699  93.2571960  38.9836173  61.8492660
  93.8971339  38.8424932  61.1515624  92.4249490  38.6970686  61.4731262
 105.1199213  47.0654605  60.7806920 105.5535720  46.9729894  61.6289974
 105.8330794  47.0412105  60.1426936  94.0332264  48.2838603  57.9627653
  94.8272862  47.7888923  57.7610228  93.3223956  47.7556466  57.5995358
  98.8527108  50.6656699  62.3140020  98.9064131  51.2347635  63.0817736
  97.9841890  50.8358584  61.9494057  90.3415027  42.4281685  54.0387405
  89.4112615  42.3666141  54.2557368  90.4372499  41.9057638  53.2424047
  90.2600576  38.9536498  56.6265647  90.5207394  39.8681831  56.5174808
  91.0817749  38.4860940  56.7762260  91.7325502  40.3674255  63.7964472
  92.4048555  40.1591617  63.1477120  90.9055288  40.1696341  63.3569704
 105.9814763  47.1078305  63.3139805 106.1750653  48.0124116  63.5599080
 105.8815381  46.6485724  64.1478390  97.6351074  36.9936196  65.8130132
  96.9878989  37.6926146  65.7194609  98.4052089  37.4272340  66.1806381
 101.0429872  47.2585048  68.8880686 100.8915378  47.0295600  67.9710769
 101.0334551  48.2155650  68.9012031  97.8115208  44.8316961  63.8726952
  98.7407268  44.9828120  63.6995919  97.3906238  44.9200982  63.0175599
  96.6103540  48.8567625  61.6425490  96.4714625  48.4886410  62.5151428
  95.8218136  49.3715265  61.4709448  97.2051692  53.9576722  52.9851026
  97.3803447  53.4864765  53.7996649  96.5184480  54.5842488  53.2132287
  98.1608755  48.2349228  59.0314328  97.8258588  48.1949998  59.9271977
  97.6612701  47.5693944  58.5584738  92.1352999  43.6416858  64.5566909
  91.9972797  42.9097097  65.1578448  93.0457922  43.5525758  64.2751096
 101.0967947  45.5805262  49.3051387 100.4797117  44.8552091  49.2084440
 100.6284435  46.3414623  48.9618461  94.7635300  43.3536817  64.0450588
  95.4734918  42.7130010  64.0037207  94.7204608  43.6049712  64.9676769
 102.7522078  50.2904171  66.9657168 102.6934624  49.6063391  66.2987751
 103.1541597  51.0323161  66.5137794  93.4764234  40.3402035  65.8646228
  92.9401591  39.8892774  66.5167824  92.8880942  40.4747944  65.1216692
  91.7712777  57.1066085  59.7590886  92.0109375  57.7384609  60.4369905
  90.9281974  56.7554125  60.0456246  92.8866493  39.7990687  48.4272692
  92.0095959  39.6779487  48.0634938  93.3624246  39.0076765  48.1751580
 102.7539486  48.2543755  65.1971147 101.8666264  47.9169676  65.3197546
 103.3238037  47.5226786  65.4339913  84.4068633  44.5867846  58.5214199
  85.0939672  44.2729576  57.9335214  84.2516761  45.4909211  58.2481450
  89.2103355  39.4758043  62.9499222  89.1261544  38.8683712  62.2149632
  88.3886061  39.9667061  62.9508719  96.2840639  52.9145207  62.1632390
  96.2110810  53.7200178  62.6751695  95.8418032  53.1137173  61.3380412
  96.0730419  52.1516977  55.6735212  95.2897940  52.6938657  55.7673437
  96.7723164  52.6690957  56.0729453  99.3827069  37.9611606  58.3169417
  99.8795768  37.2081569  57.9970488  98.6114050  37.9975923  57.7512627
 107.2356826  43.6651972  59.9587709 107.2246702  44.5476687  59.5881642
 106.3674205  43.3123523  59.7642246  98.7439322  52.8132041  64.3190549
  99.4567295  53.4479506  64.2466451  98.2529351  52.9095907  63.5030551
 100.4656849  46.7183294  55.8907841  99.5313128  46.8384756  55.7212545
 100.6433518  45.8155760  55.6267851  95.9662037  40.1028989  58.0441102
  95.5959825  39.5500030  58.7322008  96.4621130  39.4987123  57.4916102
 103.8529401  42.5600613  56.4257875 104.3189853  43.3928605  56.3518178
 104.3036901  42.0945595  57.1303133  93.7951236  50.5626484  65.1396120
  94.4960695  51.1962967  65.2925514  93.3246351  50.9041216  64.3791759
 101.9205632  48.9044434  53.4244027 102.1965476  48.7901029  54.3337901
 101.0510131  48.5061919  53.3856200 101.8246063  34.9281200  60.4648776
 100.9109143  35.1585427  60.6330983 102.2539165  35.0119644  61.3162809
 101.5952522  43.1171092  62.9648670 100.9423972  43.3646999  62.3101123
 101.9732902  42.3035230  62.6311148  98.5559696  53.1530785  57.0676841
  98.7382090  52.3352441  57.5304593  99.3792682  53.3698477  56.6301731
  98.8901861  52.0798970  54.3291889  99.4189628  51.5691425  53.7162051
  99.1530081  51.7641500  55.1937422  97.6440095  43.8590903  69.4514707
  96.9680732  43.7585032  70.1217083  98.4667729  43.7030117  69.9150705
  89.3918954  50.0962840  62.0727223  89.9772391  49.3506527  62.2055127
  89.1943792  50.4066796  62.9563887  92.2457609  53.1314087  57.0889665
  91.5767985  53.6160215  56.6053705  92.1070479  53.3783307  58.0033044
  83.9836609  42.6668440  60.7931666  84.0220708  42.1332030  61.5868784
  83.4776902  42.1403645  60.1742643  96.3862878  55.1657830  63.6872323
  96.9381186  55.3289452  64.4521409  96.7269071  55.7562268  63.0152348
  91.3627371  37.5132980  64.2894208  91.4268698  38.3747811  63.8771606
  91.2994491  36.9006982  63.5566567  90.8379644  39.5856113  67.9367242
  91.4651682  39.2033190  68.5504767  89.9807562  39.3670315  68.3022935
 101.2373752  49.9919088  69.5420978 101.7813656  50.6049046  69.0475933
 100.6560597  50.5498666  70.0587991  87.6145186  41.3932542  53.8685597
  87.9098627  40.4843220  53.8152651  86.7133222  41.3720281  53.5466600
  99.5231265  53.1139806  60.6736006  99.3982405  52.3129546  60.1646951
 100.1810356  53.6085999  60.1849976  91.1439433  39.4688538  59.8513146
  90.4226019  40.0824506  59.7120619  91.9332689  40.0046303  59.7729792
 101.5866173  50.9148826  62.3015556 100.6396509  50.7954177  62.2293882
 101.9348947  50.0271324  62.3841817  93.9465747  36.8042965  66.1253798
  94.4700149  37.0505262  66.8880107  93.7278080  37.6363000  65.7056935
  89.3433028  39.0746640  53.9924922  89.0145734  38.1944018  53.8100028
  89.6972399  39.0194308  54.8801312  98.5912607  50.7101542  58.5019908
  98.4437569  49.7818250  58.6827478  99.4166100  50.7321633  58.0176983
  92.4574851  39.3619609  54.3600400  92.7970924  39.8905531  53.6379008
  92.9046972  39.7000015  55.1358967 102.1946729  51.5330101  59.5884781
 103.1193276  51.3272962  59.4509232 102.0262032  51.2846502  60.4974122
  95.1518292  37.7456660  63.8103468  94.8115112  36.9464473  64.2124148
  94.4457298  38.0458371  63.2380301  95.8034764  34.8305972  62.2630791
  96.6260833  34.3566451  62.1409681  96.0472827  35.6096456  62.7629477
  94.4442998  37.8594231  52.5593693  95.1651361  38.2375484  52.0557410
  93.8208302  38.5783108  52.6628671  98.5874121  38.5639380  53.4952025
  98.8037735  39.4464018  53.1940853  98.1068188  38.1725593  52.7657667
  93.3273342  41.5225093  60.0722770  93.1817923  41.8365396  60.9647051
  92.8498546  42.1409993  59.5193668  95.1869725  38.5127641  60.1203659
  95.1731294  37.6168734  59.7835957  95.9042153  38.5198305  60.7541945
  97.0395856  38.9464981  62.1656787  96.7813634  39.8682052  62.1641117
  96.5080896  38.5495416  62.8557251 101.9842045  52.0515768  54.9446872
 102.1578922  51.4862191  54.1920725 102.4770936  52.8516663  54.7626362
  87.8019005  44.0630438  63.0110431  87.2572473  44.8390245  63.1430705
  88.6798355  44.4101242  62.8529552  94.5906621  37.3942021  55.3891229
  94.7122533  36.4658668  55.5882117  94.3008664  37.4080707  54.4769545
  97.4597812  35.0796932  58.5257949  97.4819509  35.1436265  57.5709929
  97.8765871  34.2401440  58.7198455 107.8381436  44.8152191  56.5637172
 108.2812582  44.0659517  56.1656295 106.9607946  44.8062328  56.1810904
 102.9717217  51.3682533  52.0443770 103.6668122  51.9889226  52.2631085
 103.3140367  50.5177884  52.3196148  88.5885027  43.1900334  65.9040588
  87.8466763  43.3382969  66.4905218  88.2677771  43.4508599  65.0407337
 104.8708640  48.8182238  53.5731101 105.3959965  49.1569511  52.8480421
 104.7830993  47.8829254  53.3894236  96.5328689  52.7316312  65.7020978
  96.8415816  52.4865459  66.5743677  97.3304171  52.9362950  65.2139848
  96.5549301  54.8854222  57.9326354  96.1154291  54.3930600  58.6259211
  97.3057418  54.3427189  57.6918430  89.0341640  51.0765763  57.9350982
  89.8599660  50.7769534  57.5549626  88.6835692  50.3073385  58.3840771
  94.0023173  50.4292231  60.0048656  93.3803183  49.7662936  59.7050884
  94.6728040  50.4553363  59.3222304  87.2350245  48.9952089  58.8939916
  86.3982154  48.5674263  58.7123917  87.2073891  49.1884532  59.8310707
  94.0747701  38.9074019  69.5981162  94.1235856  39.7836142  69.2158932
  94.6170215  38.3651412  69.0252805 104.5602547  49.4515142  68.8782299
 103.7698090  49.4339281  68.3386798 104.3235901  49.9903436  69.6331336
 104.6800422  46.3007608  66.1915028 104.7298427  46.1357616  67.1330550
 104.5714345  45.4334867  65.8012908  93.5636680  48.9796154  53.4807117
  93.7124801  49.6631618  52.8273789  94.3703124  48.9601244  53.9956572
 101.9704184  42.2838536  67.5074334 102.8714047  42.1445001  67.2158332
 102.0452158  42.4492991  68.4472512  96.3046989  39.6605391  66.3527521
  95.4350299  39.9538957  66.0810109  96.5406470  40.2445836  67.0734784
 106.1818618  48.7204550  66.4357049 105.8903427  49.0834530  67.2720510
 105.5690750  48.0071558  66.2570381 107.3814301  46.2857430  58.9559619
 108.2161192  46.7247234  59.1197180 107.5173430  45.8096083  58.1367865
 104.4305807  43.8437165  64.9037107 104.9059928  44.0364811  64.0955959
 103.5071372  43.8996350  64.6580491  91.3189313  45.0061332  54.4868185
  91.0735355  44.1023662  54.6848396  91.4885228  45.0078482  53.5447663
  99.0086023  35.8785008  63.8692941  99.5267967  36.6146035  63.5439430
  98.6541156  36.1849001  64.7039700  90.5884961  40.7389689  51.9854347
  89.8954206  40.8134044  51.3294383  90.3436713  39.9750033  52.5075864
  99.2598617  32.2985291  59.3893838  99.5400371  31.6308480  60.0154264
 100.0449224  32.4914386  58.8768501  97.0632086  51.4744285  50.9518864
  96.4906053  52.0934472  50.4989336  97.6364879  52.0243646  51.4858786
 103.1307476  40.7202925  63.1365413 104.0824899  40.8201022  63.1577637
 102.9610926  39.9281193  63.6463497 101.1521855  37.8058508  63.3224814
 100.5571787  38.0863521  62.6271302 100.8671552  38.2952409  64.0941555
 100.2829346  51.7581435  52.0827446 101.2160019  51.6926996  52.2860322
 100.1952558  52.5937702  51.6241979 102.9117362  51.0747305  49.0431394
 102.8330994  50.7407169  49.9367152 103.7327029  51.5669073  49.0422866
 105.6095553  43.9409044  62.2507712 105.5771874  43.0025045  62.4367396
 106.2196177  44.0193081  61.5173537  97.4478884  42.8105097  48.2934916
  98.3937989  42.6811305  48.3623334  97.0693129  42.0719759  48.7704345
 105.7590042  40.7320088  62.2965996 105.2429091  39.9478544  62.1095924
 106.6429990  40.4038804  62.4612515 103.4200769  34.4761103  58.2561808
 103.2225590  34.1676191  59.1405140 104.0300474  35.2022742  58.3859738
 111.4272103  45.0025051  61.3913749 112.1575492  44.7410339  61.9521453
 110.8179049  44.2653773  61.4315817 109.5087400  43.1432914  61.9888200
 108.7820564  43.0088879  61.3804692 109.0934687  43.4509742  62.7944918
  97.3317577  46.8622843  69.7535573  98.2520586  47.0401442  69.9475620
  97.2967160  45.9178889  69.6015273  95.6321801  40.7355074  48.2289802
  94.7253257  40.4388186  48.3052515  95.9097782  40.4384892  47.3624088
  86.5499742  42.0561437  58.6788848  86.2302526  41.2026745  58.3863222
  86.0033170  42.2710015  59.4346815  90.3279649  44.7723878  62.3958355
  90.5465659  45.7040986  62.4146388  90.7405423  44.4131852  63.1813158
  97.2483867  35.2791963  54.3834043  96.4384595  34.9339048  54.7589289
  97.9368284  34.9699507  54.9721655  99.1774415  34.3570010  56.0058340
  99.7305454  34.7765464  56.6648363  99.4144502  33.4305758  56.0481296
  95.2007515  40.3457084  71.7861103  95.1004242  41.2951441  71.7173195
  94.9829057  40.0175323  70.9137174  94.4020586  37.5942009  48.3701781
  95.2639750  37.9196907  48.6297598  94.5870930  36.8073505  47.8574847
  86.4188002  45.6764349  60.6481970  85.7251473  45.2618301  60.1351924
  87.1660993  45.7184885  60.0515389 102.5553223  36.4670535  55.5137004
 101.9751892  37.1255339  55.1315056 102.2889155  35.6447880  55.1024421
 101.0056789  35.8675593  57.7158324 101.5056567  35.9792128  56.9072643
 101.6492397  35.5636646  58.3559133  95.0638785  43.7754223  70.6026165
  94.5805866  44.5754583  70.8090054  95.1499724  43.7862168  69.6493609
  88.3324744  45.6082602  58.5247985  88.3095432  45.7070290  57.5729868
  88.6425381  46.4547753  58.8465151  90.9912122  47.6658757  62.6394599
  91.9455376  47.6342700  62.5724530  90.7924646  47.2049381  63.4544825
  91.5811504  46.2359873  65.2065397  92.4004393  46.7303952  65.2300234
  91.8548312  45.3191842  65.1782964 101.3378101  38.6270626  54.5693352
 100.4503956  38.9120276  54.3513547 101.7532090  38.4664389  53.7220629
 104.6892637  38.6517147  58.2847691 105.4653027  39.1413599  58.5572308
 103.9640771  39.0775201  58.7419561 107.1265195  39.3644766  59.3421632
 107.7209686  39.1240502  58.6314940 107.1991779  38.6451897  59.9695168
  89.3462351  53.2078377  59.6564797  89.2116819  52.4478778  59.0902795
  88.9294413  53.9319277  59.1893586 100.4821314  48.3915300  48.6641372
 101.1857164  48.5965303  49.2799028  99.7583963  48.9592062  48.9290456
 101.3119124  44.1425162  54.7843642 101.2554326  44.5993713  53.9451275
 101.8647467  43.3815846  54.6066485 105.1223930  39.9314894  55.6093762
 104.8660864  39.5311529  56.4401969 104.4976798  40.6458687  55.4843901
 109.4336268  42.6710967  58.1165053 108.8735826  42.7404156  58.8896615
 108.8279771  42.4951951  57.3964549  92.5031477  54.1047694  59.8683239
  92.3863861  55.0493126  59.7661930  91.6823923  53.8021255  60.2569039
 102.3908011  48.8297830  50.7139832 103.2253615  48.3979028  50.5317307
 102.2292354  48.6579843  51.6416727 102.0453904  45.3329943  52.0796171
 101.9902707  45.1674214  51.1384616 101.4199959  46.0405976  52.2358361
  86.8346419  40.5698007  65.9057594  87.4805282  40.0596961  66.3944819
  86.6263570  41.3066689  66.4801019  99.3599811  47.6378855  71.4049734
 100.2290970  47.8119507  71.0436369  98.8806562  48.4573272  71.2825464
  95.3550029  34.8338052  51.6581490  95.3428699  35.7779892  51.8149761
  96.2473451  34.6508197  51.3640951  93.5285991  54.7575956  63.0839168
  94.4313238  54.7899566  63.4005663  93.3023361  53.8276407  63.0985504
  95.2839593  53.5106942  59.7449246  94.3335224  53.5108804  59.6313619
  95.5872079  52.7639677  59.2285281  99.1702149  31.4280829  55.9127427
  98.4034544  30.8739315  56.0584109  99.5812853  31.5002697  56.7741578
  91.1743910  37.7165624  70.0032608  92.0375371  37.3602429  70.2135932
  90.6009320  37.3779519  70.6908012 111.0192287  59.3467481  60.8095009
 111.6570696  59.2274228  60.1058349 110.9013129  60.2948325  60.8682961
 107.8281993  59.2994909  60.7456534 107.4900504  59.1835974  59.8577068
 108.6971761  58.8986074  60.7257540 103.6868808  61.1530385  56.7353425
 103.1233674  61.0620322  55.9669712 103.5721204  60.3330290  57.2155917
 108.3101776  60.4529761  66.7042739 108.2990417  60.0582559  65.8323243
 108.4722415  59.7195833  67.2976511 101.2333240  62.6481577  59.5737645
 102.0254532  62.3072401  59.1583944 101.4729891  62.7576552  60.4939798
 109.2668367  64.8201353  52.0467889 108.6156347  65.4055433  51.6601903
 110.0612730  65.3507548  52.1062927 103.1923994  61.9090490  52.4455024
 103.9654870  61.3619477  52.3067900 103.5449393  62.7734739  52.6569485
 105.0309037  63.2366872  65.6521923 104.7398903  64.1412503  65.5368589
 105.6666021  63.2783400  66.3665993 105.9565244  60.6143721  62.2423283
 106.5528816  60.3899743  61.5280246 106.0140215  59.8728466  62.8448731
 105.5290272  58.0683156  50.0773474 105.7815793  57.5464677  49.3156937
 104.5914831  57.9049302  50.1800157 110.5733555  57.0718935  57.8848217
 111.3596644  56.6538358  57.5338634 110.8372259  57.9765027  58.0529865
 110.7443632  62.5091785  52.5836874 110.1089465  62.5826411  53.2957778
 110.4141039  63.0985384  51.9055953 115.9741982  57.0094168  58.7881195
 116.7067154  56.4393385  59.0219025 115.2181338  56.6215768  59.2287701
 105.2486561  59.9711262  52.2797849 105.1322819  59.2956166  52.9478933
 105.3588821  59.4843636  51.4630002 107.5918102  59.4321409  55.9844538
 107.2276309  58.9052030  56.6957459 108.4485218  59.0419878  55.8111023
 113.4967402  50.7215742  63.2475804 113.1650727  51.5911153  63.0237019
 112.9013016  50.4052026  63.9269834 107.2323589  54.4611309  50.9805886
 107.3997991  55.3291545  51.3476357 107.0420758  54.6238591  50.0567176
 109.9898922  62.9228288  62.6471717 109.6899645  63.8253327  62.5387524
 109.6449982  62.6560471  63.4992870 103.4411403  59.3742085  58.6808421
 102.5161900  59.2418299  58.8886113 103.6895817  60.1536304  59.1778364
 113.3896066  55.4410828  60.3269154 112.4812943  55.3726236  60.0327915
 113.3383662  55.9182773  61.1550980 107.2112810  56.9168966  51.9652553
 107.0912435  57.3626017  52.8038034 106.5165398  57.2654284  51.4066091
 100.8020215  59.0175358  59.5152210 100.9312596  59.2709837  60.4291622
 100.1217666  59.6103066  59.1956865 104.9719702  69.6872608  55.6142684
 104.8943732  70.6380433  55.6931165 104.3681345  69.3418481  56.2717611
 107.4636932  56.8600474  68.2704051 106.6870266  57.4194394  68.2606916
 108.1027495  57.3457257  68.7918921 115.2557712  53.6427266  62.1047028
 114.6132092  53.9359800  61.4586823 114.7512641  53.5280187  62.9100225
 112.9097876  57.3890440  52.7932887 113.8215732  57.6217826  52.6180585
 112.4007523  57.9727484  52.2307966 105.7183304  59.6685927  67.8322018
 106.4597988  60.2070971  67.5556842 105.0120289  60.2952216  67.9893570
 111.1938644  61.8115067  66.4294180 111.6022000  61.3697478  65.6848812
 110.4715905  61.2367695  66.6828373 107.5469714  56.7487674  63.8027737
 108.3930909  57.1727088  63.9462386 107.4868351  56.0921299  64.4966300
 111.5167458  62.3716258  60.1846469 110.8876321  62.5361972  59.4822537
 111.1293120  62.7857868  60.9557433 115.3956690  63.3070696  57.5390833
 114.7107728  63.6869597  56.9887866 115.4800539  63.9166023  58.2722780
 110.6969159  54.4092043  65.4608910 110.4530091  55.1634103  64.9243186
 110.9729089  54.7877390  66.2956158 112.6507622  60.9530655  64.1386176
 112.8624517  61.5962415  63.4620557 112.6037370  60.1192972  63.6708106
 110.2533851  53.5648476  61.0422748 109.3918330  53.8629729  61.3339486
 110.2796285  53.7818875  60.1103781 107.0695420  62.1090666  57.4496554
 107.5333766  62.3878369  56.6601176 106.8052218  61.2074111  57.2669645
 103.9619501  61.6562148  60.3876317 104.5320858  62.0849416  59.7493802
 104.5527613  61.3744732  61.0860503 106.0064306  58.2313819  54.2586119
 106.7088349  58.6834862  54.7260045 105.6744935  57.5897637  54.8866012
 104.4544668  56.8225575  68.6337328 103.8243328  57.5041856  68.8672725
 104.3480756  56.7108657  67.6890467  99.7489640  56.4897371  59.5603253
  98.9588694  56.7454900  59.0843363 100.2400887  57.3045709  59.6655293
 113.7653450  63.8302610  62.3108533 114.5870893  63.4282798  62.0291215
 113.7615852  63.7270845  63.2624649 101.7004385  56.8541950  56.5186729
 100.9035549  56.9660645  57.0370225 101.4729978  57.1928603  55.6527620
 107.5310053  63.3786654  64.4669244 107.5954486  63.8407061  65.3027416
 106.8220977  62.7484019  64.5951554  98.0327343  56.7427862  61.9918243
  98.2835381  57.6274872  62.2575819  98.5686891  56.5632463  61.2193335
 107.2458071  65.0454761  54.3348224 107.1103746  65.8906297  54.7633072
 107.7867883  65.2474039  53.5714158 103.7325410  51.1246341  70.9962579
 103.3392356  50.5712540  71.6710224 104.5491551  51.4356919  71.3869097
 100.6987468  62.5630199  54.9076149 101.2111989  63.3573449  55.0581714
 101.3510181  61.8656490  54.8409751 102.5082353  65.6795955  56.9898902
 102.6848981  66.6013920  56.8019886 103.3039186  65.3654375  57.4193282
 106.6493371  52.5404220  68.5882836 107.3903085  53.1411373  68.5087298
 106.8811294  51.7981858  68.0300879 101.7934709  57.7260587  66.8661066
 101.6788225  56.8245845  67.1668165 100.9379227  57.9724284  66.5145882
 108.8726547  65.6678328  68.4648566 108.4290401  64.8814706  68.1469471
 109.5343761  65.8557478  67.7992457 103.6313668  67.1974129  62.9909245
 104.1821093  67.0691193  62.2186239 102.7925144  67.4969018  62.6404138
 110.9707785  65.9481128  66.4929968 110.9526261  66.7690009  66.0010237
 111.8927705  65.8235203  66.7180109 107.4280839  63.4625257  67.3353476
 107.9609176  62.7013545  67.1052784 106.8994920  63.1698909  68.0777630
 110.5950534  48.5685323  62.8647118 110.2514804  49.4586965  62.7886228
 110.9629497  48.3786981  62.0016703  98.6636385  60.8918854  55.6835720
  99.5011607  61.3015862  55.4669428  98.8414653  59.9518296  55.6535914
 110.5600817  58.5593934  51.3719553 110.0447440  59.3298539  51.6107940
 110.2878125  57.8859070  51.9952614 108.1447928  53.4043635  56.4304791
 107.2889524  53.0150485  56.2510430 108.5574880  53.4835596  55.5704577
 109.6747075  50.9389978  60.8296351 109.1711870  50.9020113  60.0164156
 109.9677682  51.8482721  60.8893008 105.9189961  51.0228708  59.8362533
 106.7842957  50.8271517  59.4768422 105.9867469  50.7939060  60.7631889
 115.5335091  61.3126289  53.3072726 114.7564534  60.9737448  52.8627888
 116.2126572  61.3178912  52.6327691 110.3487120  56.4321026  53.1979334
 110.0437256  56.7467175  54.0489477 111.3017562  56.5102446  53.2406667
 108.7933552  62.5911250  54.8472288 108.2654914  61.8564009  54.5345525
 108.2921055  63.3685926  54.6012256 113.7726398  60.7860270  59.9639334
 113.1150072  61.4759531  60.0519463 114.5766797  61.1756702  60.3073321
 103.5252280  53.2530916  57.2078899 104.0996032  53.0306097  56.4752092
 104.1123262  53.3219610  57.9607501 112.5831857  59.1404643  58.0143276
 113.0963739  59.7734635  58.5164986 113.2333081  58.5405838  57.6486636
 103.8521867  55.2835377  51.2274785 103.0159179  55.6210063  51.5484059
 103.7126636  55.1484357  50.2901922 105.8274947  50.1272165  55.9353969
 105.1739360  49.8121182  55.3110584 105.7855422  49.5047905  56.6613792
 106.9386152  60.4091460  47.8507261 106.0313214  60.1780713  48.0498410
 107.4357184  59.6129079  48.0381243 109.8454231  69.1188967  50.7703947
 109.1715930  69.4220664  51.3788905 110.2320053  69.9218047  50.4209404
 109.0612688  56.6154098  60.2601617 108.1435249  56.8369045  60.1023305
 109.4772831  56.6900409  59.4013324 109.8447735  58.0145514  55.3904297
 110.5919554  58.5266911  55.0811419 110.1139325  57.6929567  56.2508690
 108.1174386  60.5104055  52.3731251 107.2085605  60.2263088  52.4703721
 108.1469469  60.9303133  51.5134558 113.3493653  64.1210644  56.1422419
 112.8955980  63.2801554  56.1987609 112.7187620  64.7572043  56.4797199
 112.2926573  55.0502630  57.3723086 111.5549329  54.5380016  57.7033329
 112.5453346  54.6103012  56.5606363 111.7926592  65.9587141  57.0772237
 112.0849567  66.5192198  56.3584602 112.3025213  66.2515702  57.8325396
 112.3938200  47.8278882  57.9664855 112.6997077  46.9676246  57.6790770
 113.1190805  48.4196502  57.7663849  98.6862556  58.2309569  56.3546453
  98.4886956  57.6378930  55.6297520  98.1309220  57.9261779  57.0722392
 106.6659280  58.1232675  58.4741046 106.7207889  57.1706512  58.3983523
 105.8550482  58.2792114  58.9582345 107.8150473  62.0512798  49.7119330
 107.3769903  61.3348657  49.2524967 108.5560914  62.2788913  49.1504421
 104.6051640  56.7409735  56.2331425 103.7919505  57.0403906  56.6396617
 105.1010634  56.3465424  56.9505908 106.7560218  66.7367492  58.1665690
 106.7136396  66.9628338  57.2374222 107.6722916  66.5030867  58.3151491
 110.2025851  57.2051560  65.0646319 110.5575239  57.4323033  65.9240785
 110.8497983  57.5369936  64.4423574 115.9323588  60.3269995  55.7695648
 115.7941487  60.5171591  54.8416837 115.5759807  61.0889378  56.2263699
 104.0965714  54.3128091  61.8492660 104.7365094  54.1716850  61.1515624
 103.2643245  54.0262604  61.4731262 115.9592968  62.3946522  60.7806920
 116.3929475  62.3021812  61.6289974 116.6724549  62.3704023  60.1426936
 104.8726018  63.6130521  57.9627653 105.6666617  63.1180841  57.7610228
 104.1617711  63.0848384  57.5995358 109.6920863  65.9948617  62.3140020
 109.7457885  66.5639553  63.0817736 108.8235644  66.1650502  61.9494057
 101.1808782  57.7573603  54.0387405 100.2506370  57.6958058  54.2557368
 101.2766254  57.2349555  53.2424047 101.0994331  54.2828416  56.6265647
 101.3601148  55.1973749  56.5174808 101.9211503  53.8152858  56.7762260
 102.5719256  55.6966173  63.7964472 103.2442310  55.4883535  63.1477120
 101.7449043  55.4988259  63.3569704 116.8208517  62.4370223  63.3139805
 117.0144407  63.3416034  63.5599080 116.7209136  61.9777642  64.1478390
 108.4744828  52.3228114  65.8130132 107.8272743  53.0218063  65.7194609
 109.2445844  52.7564258  66.1806381 111.8823626  62.5876966  68.8880686
 111.7309133  62.3587518  67.9710769 111.8728306  63.5447567  68.9012031
 108.6508962  60.1608879  63.8726952 109.5801022  60.3120038  63.6995919
 108.2299993  60.2492899  63.0175599 107.4497294  64.1859543  61.6425490
 107.3108380  63.8178327  62.5151428 106.6611891  64.7007182  61.4709448
 108.0445446  69.2868639  52.9851026 108.2197202  68.8156683  53.7996649
 107.3578234  69.9134406  53.2132287 109.0002509  63.5641146  59.0314328
 108.6652342  63.5241916  59.9271977 108.5006455  62.8985862  58.5584738
 102.9746753  58.9708776  64.5566909 102.8366551  58.2389015  65.1578448
 103.8851677  58.8817676  64.2751096 111.9361701  60.9097180  49.3051387
 111.3190872  60.1844008  49.2084440 111.4678190  61.6706540  48.9618461
 105.6029054  58.6828735  64.0450588 106.3128673  58.0421927  64.0037207
 105.5598362  58.9341630  64.9676769 113.5915833  65.6196088  66.9657168
 113.5328379  64.9355309  66.2987751 113.9935351  66.3615078  66.5137794
 104.3157988  55.6693953  65.8646228 103.7795345  55.2184691  66.5167824
 103.7274696  55.8039862  65.1216692 102.6106532  72.4358002  59.7590886
 102.8503130  73.0676526  60.4369905 101.7675728  72.0846042  60.0456246
 103.7260247  55.1282604  48.4272692 102.8489713  55.0071405  48.0634938
 104.2018000  54.3368683  48.1751580 113.5933240  63.5835672  65.1971147
 112.7060019  63.2461594  65.3197546 114.1631791  62.8518704  65.4339913
  95.2462387  59.9159764  58.5214199  95.9333427  59.6021494  57.9335214
  95.0910516  60.8201129  58.2481450 100.0497109  54.8049961  62.9499222
  99.9655298  54.1975630  62.2149632  99.2279816  55.2958979  62.9508719
 107.1234393  68.2437125  62.1632390 107.0504565  69.0492096  62.6751695
 106.6811787  68.4429090  61.3380412 106.9124173  67.4808895  55.6735212
 106.1291695  68.0230575  55.7673437 107.6116918  67.9982874  56.0729453
 110.2220823  53.2903524  58.3169417 110.7189523  52.5373486  57.9970488
 109.4507805  53.3267841  57.7512627 118.0750581  58.9943890  59.9587709
 118.0640457  59.8768605  59.5881642 117.2067960  58.6415441  59.7642246
 109.5833077  68.1423959  64.3190549 110.2961049  68.7771424  64.2466451
 109.0923106  68.2387825  63.5030551 111.3050604  62.0475211  55.8907841
 110.3706883  62.1676674  55.7212545 111.4827272  61.1447678  55.6267851
 106.8055792  55.4320907  58.0441102 106.4353579  54.8791948  58.7322008
 107.3014884  54.8279041  57.4916102 114.6923155  57.8892531  56.4257875
 115.1583607  58.7220522  56.3518178 115.1430656  57.4237512  57.1303133
 104.6344990  65.8918402  65.1396120 105.3354450  66.5254885  65.2925514
 104.1640105  66.2333134  64.3791759 112.7599386  64.2336352  53.4244027
 113.0359230  64.1192947  54.3337901 111.8903885  63.8353837  53.3856200
 112.6639818  50.2573118  60.4648776 111.7502898  50.4877344  60.6330983
 113.0932919  50.3411562  61.3162809 112.4346276  58.4463010  62.9648670
 111.7817727  58.6938917  62.3101123 112.8126656  57.6327148  62.6311148
 109.3953450  68.4822703  57.0676841 109.5775845  67.6644359  57.5304593
 110.2186436  68.6990395  56.6301731 109.7295616  67.4090888  54.3291889
 110.2583382  66.8983342  53.7162051 109.9923835  67.0933418  55.1937422
 108.4833849  59.1882821  69.4514707 107.8074486  59.0876950  70.1217083
 109.3061483  59.0322034  69.9150705 100.2312709  65.4254757  62.0727223
 100.8166145  64.6798445  62.2055127 100.0337547  65.7358714  62.9563887
 103.0851364  68.4606005  57.0889665 102.4161739  68.9452132  56.6053705
 102.9464233  68.7075225  58.0033044  94.8230363  57.9960357  60.7931666
  94.8614463  57.4623948  61.5868784  94.3170656  57.4695563  60.1742643
 107.2256632  70.4949748  63.6872323 107.7774940  70.6581370  64.4521409
 107.5662826  71.0854186  63.0152348 102.2021126  52.8424898  64.2894208
 102.2662452  53.7039729  63.8771606 102.1388246  52.2298900  63.5566567
 101.6773398  54.9148030  67.9367242 102.3045437  54.5325108  68.5504767
 100.8201317  54.6962232  68.3022935 112.0767507  65.3211006  69.5420978
 112.6207411  65.9340964  69.0475933 111.4954351  65.8790584  70.0587991
  98.4538941  56.7224460  53.8685597  98.7492382  55.8135138  53.8152651
  97.5526977  56.7012199  53.5466600 110.3625020  68.4431724  60.6736006
 110.2376159  67.6421463  60.1646951 111.0204111  68.9377917  60.1849976
 101.9833188  54.7980456  59.8513146 101.2619774  55.4116424  59.7120619
 102.7726444  55.3338221  59.7729792 112.4259928  66.2440744  62.3015556
 111.4790264  66.1246095  62.2293882 112.7742701  65.3563242  62.3841817
 104.7859501  52.1334883  66.1253798 105.3093903  52.3797179  66.8880107
 104.5671835  52.9654917  65.7056935 100.1826782  54.4038557  53.9924922
  99.8539489  53.5235936  53.8100028 100.5366153  54.3486226  54.8801312
 109.4306361  66.0393460  58.5019908 109.2831324  65.1110167  58.6827478
 110.2559855  66.0613551  58.0176983 103.2968606  54.6911527  54.3600400
 103.6364678  55.2197448  53.6379008 103.7440726  55.0291933  55.1358967
 113.0340483  66.8622019  59.5884781 113.9587031  66.6564880  59.4509232
 112.8655787  66.6138420  60.4974122 105.9912046  53.0748578  63.8103468
 105.6508867  52.2756391  64.2124148 105.2851053  53.3750289  63.2380301
 106.6428518  50.1597890  62.2630791 107.4654588  49.6858368  62.1409681
 106.8866582  50.9388374  62.7629477 105.2836753  53.1886149  52.5593693
 106.0045115  53.5667401  52.0557410 104.6602057  53.9075025  52.6628671
 109.4267876  53.8931298  53.4952025 109.6431490  54.7755935  53.1940853
 108.9461943  53.5017511  52.7657667 104.1667097  56.8517011  60.0722770
 104.0211678  57.1657314  60.9647051 103.6892301  57.4701911  59.5193668
 106.0263480  53.8419559  60.1203659 106.0125049  52.9460652  59.7835957
 106.7435908  53.8490223  60.7541945 107.8789611  54.2756899  62.1656787
 107.6207388  55.1973970  62.1641117 107.3474651  53.8787334  62.8557251
 112.8235799  67.3807686  54.9446872 112.9972677  66.8154109  54.1920725
 113.3164691  68.1808581  54.7626362  98.6412759  59.3922355  63.0110431
  98.0966227  60.1682163  63.1430705  99.5192109  59.7393160  62.8529552
 105.4300376  52.7233939  55.3891229 105.5516287  51.7950585  55.5882117
 105.1402418  52.7372625  54.4769545 108.2991566  50.4088850  58.5257949
 108.3213263  50.4728183  57.5709929 108.7159625  49.5693358  58.7198455
 113.8110972  66.6974451  52.0443770 114.5061876  67.3181143  52.2631085
 114.1534122  65.8469802  52.3196148  99.4278781  58.5192251  65.9040588
  98.6860517  58.6674887  66.4905218  99.1071525  58.7800517  65.0407337
 115.7102395  64.1474156  53.5731101 116.2353719  64.4861429  52.8480421
 115.6224748  63.2121171  53.3894236 107.3722444  68.0608230  65.7020978
 107.6809570  67.8157376  66.5743677 108.1697926  68.2654868  65.2139848
 107.3943056  70.2146139  57.9326354 106.9548046  69.7222518  58.6259211
 108.1451173  69.6719107  57.6918430  99.8735395  66.4057680  57.9350982
 100.6993415  66.1061452  57.5549626  99.5229447  65.6365303  58.3840771
 104.8416928  65.7584148  60.0048656 104.2196937  65.0954853  59.7050884
 105.5121795  65.7845280  59.3222304  98.0744000  64.3244007  58.8939916
  97.2375908  63.8966181  58.7123917  98.0467645  64.5176450  59.8310707
 104.9141455  54.2365936  69.5981162 104.9629611  55.1128059  69.2158932
 105.4563970  53.6943329  69.0252805 115.3996301  64.7807060  68.8782299
 114.6091845  64.7631199  68.3386798 115.1629656  65.3195353  69.6331336
 115.5194176  61.6299526  66.1915028 115.5692181  61.4649534  67.1330550
 115.4108099  60.7626785  65.8012908 104.4030435  64.3088072  53.4807117
 104.5518555  64.9923536  52.8273789 105.2096878  64.2893162  53.9956572
 112.8097938  57.6130454  67.5074334 113.7107801  57.4736919  67.2158332
 112.8845913  57.7784909  68.4472512 107.1440744  54.9897309  66.3527521
 106.2744053  55.2830875  66.0810109 107.3800224  55.5737754  67.0734784
 117.0212373  64.0496468  66.4357049 116.7297181  64.4126448  67.2720510
 116.4084504  63.3363476  66.2570381 115.2699561  59.1729082  64.9037107
 115.7453683  59.3656729  64.0955959 114.3465127  59.2288268  64.6580491
 102.1583068  60.3353249  54.4868185 101.9129110  59.4315579  54.6848396
 102.3278982  60.3370400  53.5447663 109.8479778  51.2076926  63.8692941
 110.3661721  51.9437953  63.5439430 109.4934910  51.5140919  64.7039700
 101.4278715  56.0681607  51.9854347 100.7347960  56.1425962  51.3294383
 101.1830467  55.3041951  52.5075864 110.0992372  47.6277208  59.3893838
 110.3794126  46.9600397  60.0154264 110.8842979  47.8206304  58.8768501
 107.9025840  66.8036202  50.9518864 107.3299807  67.4226389  50.4989336
 108.4758634  67.3535564  51.4858786 113.9701230  56.0494842  63.1365413
 114.9218653  56.1492940  63.1577637 113.8004681  55.2573111  63.6463497
 111.9915610  53.1350426  63.3224814 111.3965542  53.4155438  62.6271302
 111.7065306  53.6244326  64.0941555 111.1223100  67.0873352  52.0827446
 112.0553773  67.0218914  52.2860322 111.0346313  67.9229619  51.6241979
 113.7511117  66.4039223  49.0431394 113.6724748  66.0699086  49.9367152
 114.5720784  66.8960991  49.0422866 116.4489308  59.2700962  62.2507712
 116.4165628  58.3316963  62.4367396 117.0589932  59.3484999  61.5173537
 108.2872639  58.1397015  48.2934916 109.2331744  58.0103223  48.3623334
 107.9086884  57.4011677  48.7704345 116.5983796  56.0612005  62.2965996
 116.0822845  55.2770462  62.1095924 117.4823745  55.7330722  62.4612515
 114.2594523  49.8053021  58.2561808 114.0619344  49.4968109  59.1405140
 114.8694229  50.5314660  58.3859738 108.1711331  62.1914761  69.7535573
 109.0914341  62.3693360  69.9475620 108.1360914  61.2470806  69.6015273
 106.4715556  56.0646991  48.2289802 105.5647011  55.7680104  48.3052515
 106.7491537  55.7676809  47.3624088  97.3893496  57.3853355  58.6788848
  97.0696281  56.5318663  58.3863222  96.8426925  57.6001933  59.4346815
 101.1673404  60.1015796  62.3958355 101.3859414  61.0332904  62.4146388
 101.5799178  59.7423770  63.1813158 108.0877622  50.6083881  54.3834043
 107.2778350  50.2630966  54.7589289 108.7762039  50.2991425  54.9721655
 110.0168170  49.6861928  56.0058340 110.5699209  50.1057381  56.6648363
 110.2538256  48.7597676  56.0481296 106.0401269  55.6749002  71.7861103
 105.9397996  56.6243358  71.7173195 105.8222811  55.3467240  70.9137174
 105.2414341  52.9233927  48.3701781 106.1033505  53.2488825  48.6297598
 105.4264685  52.1365422  47.8574847  97.2581756  61.0056266  60.6481970
  96.5645228  60.5910219  60.1351924  98.0054747  61.0476803  60.0515389
 113.3946977  51.7962453  55.5137004 112.8145646  52.4547257  55.1315056
 113.1282910  50.9739798  55.1024421 111.8450543  51.1967511  57.7158324
 112.3450322  51.3084045  56.9072643 112.4886151  50.8928564  58.3559133
 105.9032539  59.1046140  70.6026165 105.4199621  59.9046500  70.8090054
 105.9893478  59.1154085  69.6493609  99.1718499  60.9374520  58.5247985
  99.1489187  61.0362207  57.5729868  99.4819135  61.7839671  58.8465151
 101.8305877  62.9950675  62.6394599 102.7849130  62.9634617  62.5724530
 101.6318400  62.5341299  63.4544825 102.4205259  61.5651791  65.2065397
 103.2398148  62.0595870  65.2300234 102.6942067  60.6483759  65.1782964
 112.1771855  53.9562543  54.5693352 111.2897710  54.2412194  54.3513547
 112.5925844  53.7956307  53.7220629 115.5286391  53.9809064  58.2847691
 116.3046781  54.4705517  58.5572308 114.8034525  54.4067119  58.7419561
 100.1856106  68.5370295  59.6564797 100.0510573  67.7770695  59.0902795
  99.7688168  69.2611194  59.1893586 111.3215069  63.7207218  48.6641372
 112.0250919  63.9257221  49.2799028 110.5977717  64.2883980  48.9290456
 112.1512879  59.4717079  54.7843642 112.0948080  59.9285631  53.9451275
 112.7041221  58.7107764  54.6066485 115.9617685  55.2606811  55.6093762
 115.7054619  54.8603447  56.4401969 115.3370553  55.9750605  55.4843901
 103.3425231  69.4339612  59.8683239 103.2257616  70.3785044  59.7661930
 102.5217678  69.1313173  60.2569039 113.2301766  64.1589747  50.7139832
 114.0647370  63.7270946  50.5317307 113.0686109  63.9871761  51.6416727
 112.8847658  60.6621861  52.0796171 112.8296462  60.4966132  51.1384616
 112.2593713  61.3697894  52.2358361  97.6740173  55.8989925  65.9057594
  98.3199037  55.3888879  66.3944819  97.4657324  56.6358607  66.4801019
 110.1993565  62.9670772  71.4049734 111.0684725  63.1411425  71.0436369
 109.7200317  63.7865189  71.2825464 106.1943784  50.1629970  51.6581490
 106.1822453  51.1071810  51.8149761 107.0867205  49.9800115  51.3640951
 104.3679746  70.0867873  63.0839168 105.2706992  70.1191484  63.4005663
 104.1417116  69.1568324  63.0985504 106.1233348  68.8398860  59.7449246
 105.1728979  68.8400722  59.6313619 106.4265834  68.0931595  59.2285281
 110.0095903  46.7572746  55.9127427 109.2428299  46.2031233  56.0584109
 110.4206608  46.8294615  56.7741578 102.0137664  53.0457542  70.0032608
 102.8769126  52.6894347  70.2135932 101.4403075  52.7071437  70.6908012
 114.5262563  76.4822303  56.7353425 113.9627428  76.3912240  55.9669712
 114.4114958  75.6622207  57.2155917 112.0726995  77.9773495  59.5737645
 112.8648287  77.6364319  59.1583944 112.3123645  78.0868470  60.4939798
 114.0317749  77.2382408  52.4455024 114.8048625  76.6911395  52.3067900
 114.3843148  78.1026657  52.6569485 115.8702791  78.5658790  65.6521923
 115.5792657  79.4704421  65.5368589 116.5059776  78.6075318  66.3665993
 116.7958998  75.9435639  62.2423283 117.3922571  75.7191661  61.5280246
 116.8533970  75.2020384  62.8448731 116.3684027  73.3975074  50.0773474
 116.6209547  72.8756595  49.3156937 115.4308586  73.2341219  50.1800157
 116.0880315  75.3003180  52.2797849 115.9716574  74.6248083  52.9478933
 116.1982575  74.8135554  51.4630002 118.0717343  69.7903227  50.9805886
 118.2391746  70.6583463  51.3476357 117.8814512  69.9530508  50.0567176
 114.2805158  74.7034002  58.6808421 113.3555654  74.5710216  58.8886113
 114.5289571  75.4828222  59.1778364 118.0506564  72.2460884  51.9652553
 117.9306189  72.6917935  52.8038034 117.3559153  72.5946202  51.4066091
 111.6413969  74.3467276  59.5152210 111.7706350  74.6001755  60.4291622
 110.9611420  74.9394984  59.1956865 115.8113456  85.0164526  55.6142684
 115.7337486  85.9672351  55.6931165 115.2075100  84.6710398  56.2717611
 116.5577058  74.9977845  67.8322018 117.2991743  75.5362889  67.5556842
 115.8514044  75.6244133  67.9893570 114.8013256  76.9854065  60.3876317
 115.3714613  77.4141334  59.7493802 115.3921367  76.7036650  61.0860503
 116.8458061  73.5605736  54.2586119 117.5482104  74.0126780  54.7260045
 116.5138689  72.9189555  54.8866012 115.2938422  72.1517493  68.6337328
 114.6637083  72.8333774  68.8672725 115.1874510  72.0400574  67.6890467
 110.5883395  71.8189289  59.5603253 109.7982449  72.0746817  59.0843363
 111.0794642  72.6337627  59.6655293 112.5398140  72.1833868  56.5186729
 111.7429303  72.2952562  57.0370225 112.3123732  72.5220520  55.6527620
 108.8721098  72.0719779  61.9918243 109.1229136  72.9566789  62.2575819
 109.4080646  71.8924381  61.2193335 114.5719165  66.4538259  70.9962579
 114.1786110  65.9004457  71.6710224 115.3885305  66.7648837  71.3869097
 111.5381223  77.8922117  54.9076149 112.0505743  78.6865367  55.0581714
 112.1903935  77.1948407  54.8409751 113.3476107  81.0087873  56.9898902
 113.5242736  81.9305838  56.8019886 114.1432941  80.6946292  57.4193282
 117.4887126  67.8696138  68.5882836 118.2296839  68.4703291  68.5087298
 117.7205049  67.1273776  68.0300879 112.6328464  73.0552505  66.8661066
 112.5181979  72.1537762  67.1668165 111.7772982  73.3016202  66.5145882
 114.4707423  82.5266047  62.9909245 115.0214848  82.3983110  62.2186239
 113.6318899  82.8260936  62.6404138 109.5030139  76.2210771  55.6835720
 110.3405361  76.6307780  55.4669428 109.6808407  75.2810213  55.6535914
 116.7583715  66.3520626  59.8362533 117.6236712  66.1563434  59.4768422
 116.8261224  66.1230977  60.7631889 114.3646034  68.5822834  57.2078899
 114.9389786  68.3598015  56.4752092 114.9517017  68.6511528  57.9607501
 114.6915621  70.6127295  51.2274785 113.8552934  70.9501981  51.5484059
 114.5520391  70.4776274  50.2901922 116.6668702  65.4564082  55.9353969
 116.0133114  65.1413100  55.3110584 116.6249176  64.8339823  56.6613792
 109.5256311  73.5601487  56.3546453 109.3280710  72.9670847  55.6297520
 108.9702975  73.2553697  57.0722392 117.5053034  73.4524593  58.4741046
 117.5601644  72.4998429  58.3983523 116.6944236  73.6084032  58.9582345
 115.4445394  72.0701653  56.2331425 114.6313260  72.3695823  56.6396617
 115.9404388  71.6757342  56.9505908 114.9359469  69.6420008  61.8492660
 115.5758848  69.5008767  61.1515624 114.1036999  69.3554522  61.4731262
 115.7119773  78.9422439  57.9627653 116.5060371  78.4472759  57.7610228
 115.0011465  78.4140302  57.5995358 112.0202536  73.0865520  54.0387405
 111.0900124  73.0249976  54.2557368 112.1160008  72.5641473  53.2424047
 111.9388085  69.6120333  56.6265647 112.1994903  70.5265666  56.5174808
 112.7605258  69.1444776  56.7762260 113.4113011  71.0258090  63.7964472
 114.0836064  70.8175453  63.1477120 112.5842797  70.8280176  63.3569704
 113.8140508  74.3000693  64.5566909 113.6760306  73.5680932  65.1578448
 114.7245431  74.2109593  64.2751096 116.4422809  74.0120653  64.0450588
 117.1522427  73.3713845  64.0037207 116.3992117  74.2633548  64.9676769
 115.1551743  70.9985871  65.8646228 114.6189100  70.5476609  66.5167824
 114.5668451  71.1331779  65.1216692 113.4500286  87.7649920  59.7590886
 113.6896884  88.3968444  60.4369905 112.6069483  87.4137960  60.0456246
 114.5654001  70.4574522  48.4272692 113.6883468  70.3363323  48.0634938
 115.0411755  69.6660600  48.1751580 106.0856142  75.2451682  58.5214199
 106.7727181  74.9313412  57.9335214 105.9304270  76.1493046  58.2481450
 110.8890864  70.1341878  62.9499222 110.8049052  69.5267548  62.2149632
 110.0673570  70.6250897  62.9508719 117.9628148  83.5729042  62.1632390
 117.8898319  84.3784014  62.6751695 117.5205541  83.7721008  61.3380412
 117.6449546  70.7612825  58.0441102 117.2747334  70.2083865  58.7322008
 118.1408639  70.1570958  57.4916102 115.4738745  81.2210320  65.1396120
 116.1748204  81.8546803  65.2925514 115.0033860  81.5625051  64.3791759
 111.0706463  80.7546675  62.0727223 111.6559900  80.0090363  62.2055127
 110.8731301  81.0650632  62.9563887 113.9245118  83.7897922  57.0889665
 113.2555493  84.2744050  56.6053705 113.7857988  84.0367143  58.0033044
 105.6624118  73.3252275  60.7931666 105.7008217  72.7915866  61.5868784
 105.1564411  72.7987481  60.1742643 113.0414880  68.1716816  64.2894208
 113.1056207  69.0331646  63.8771606 112.9782000  67.5590817  63.5566567
 112.5167153  70.2439948  67.9367242 113.1439191  69.8617025  68.5504767
 111.6595071  70.0254150  68.3022935 109.2932695  72.0516377  53.8685597
 109.5886136  71.1427056  53.8152651 108.3920731  72.0304117  53.5466600
 112.8226942  70.1272374  59.8513146 112.1013528  70.7408342  59.7120619
 113.6120198  70.6630139  59.7729792 115.6253256  67.4626800  66.1253798
 116.1487658  67.7089097  66.8880107 115.4065589  68.2946835  65.7056935
 111.0220537  69.7330475  53.9924922 110.6933243  68.8527854  53.8100028
 111.3759908  69.6778144  54.8801312 114.1362360  70.0203445  54.3600400
 114.4758433  70.5489366  53.6379008 114.5834481  70.3583851  55.1358967
 116.8305801  68.4040495  63.8103468 116.4902621  67.6048308  64.2124148
 116.1244807  68.7042206  63.2380301 116.1230507  68.5178066  52.5593693
 116.8438870  68.8959319  52.0557410 115.4995811  69.2366943  52.6628671
 115.0060851  72.1808928  60.0722770 114.8605432  72.4949232  60.9647051
 114.5286055  72.7993829  59.5193668 116.8657234  69.1711476  60.1203659
 116.8518803  68.2752570  59.7835957 117.5829662  69.1782140  60.7541945
 109.4806514  74.7214273  63.0110431 108.9359982  75.4974081  63.1430705
 110.3585863  75.0685077  62.8529552 116.2694130  68.0525857  55.3891229
 116.3910041  67.1242503  55.5882117 115.9796173  68.0664543  54.4769545
 110.2672535  73.8484169  65.9040588 109.5254272  73.9966805  66.4905218
 109.9465280  74.1092435  65.0407337 110.7129149  81.7349598  57.9350982
 111.5387169  81.4353370  57.5549626 110.3623201  80.9657220  58.3840771
 115.6810682  81.0876066  60.0048656 115.0590692  80.4246771  59.7050884
 116.3515549  81.1137198  59.3222304 108.9137754  79.6535924  58.8939916
 108.0769663  79.2258099  58.7123917 108.8861400  79.8468368  59.8310707
 115.7535210  69.5657854  69.5981162 115.8023365  70.4419977  69.2158932
 116.2957724  69.0235247  69.0252805 115.2424189  79.6379989  53.4807117
 115.3912310  80.3215454  52.8273789 116.0490633  79.6185079  53.9956572
 117.9834498  70.3189227  66.3527521 117.1137808  70.6122793  66.0810109
 118.2193979  70.9029672  67.0734784 112.9976822  75.6645167  54.4868185
 112.7522864  74.7607497  54.6848396 113.1672737  75.6662318  53.5447663
 112.2672470  71.3973525  51.9854347 111.5741715  71.4717880  51.3294383
 112.0224222  70.6333868  52.5075864 117.3109310  71.3938909  48.2289802
 116.4040766  71.0972022  48.3052515 117.5885291  71.0968727  47.3624088
 108.2287251  72.7145272  58.6788848 107.9090035  71.8610581  58.3863222
 107.6820679  72.9293851  59.4346815 112.0067158  75.4307713  62.3958355
 112.2253168  76.3624821  62.4146388 112.4192932  75.0715688  63.1813158
 116.8795024  71.0040919  71.7861103 116.7791751  71.9535276  71.7173195
 116.6616566  70.6759158  70.9137174 116.0808095  68.2525844  48.3701781
 116.9427259  68.5780743  48.6297598 116.2658439  67.4657340  47.8574847
 108.0975511  76.3348184  60.6481970 107.4038982  75.9202137  60.1351924
 108.8448502  76.3768720  60.0515389 116.7426294  74.4338058  70.6026165
 116.2593375  75.2338418  70.8090054 116.8287233  74.4446003  69.6493609
 110.0112253  76.2666438  58.5247985 109.9882941  76.3654125  57.5729868
 110.3212890  77.1131589  58.8465151 112.6699631  78.3242593  62.6394599
 113.6242885  78.2926535  62.5724530 112.4712155  77.8633216  63.4544825
 113.2599013  76.8943709  65.2065397 114.0791902  77.3887787  65.2300234
 113.5335821  75.9775677  65.1782964 111.0249860  83.8662212  59.6564797
 110.8904328  83.1062613  59.0902795 110.6081922  84.5903112  59.1893586
 114.1818986  84.7631529  59.8683239 114.0651370  85.7076962  59.7661930
 113.3611432  84.4605091  60.2569039 108.5133928  71.2281843  65.9057594
 109.1592791  70.7180797  66.3944819 108.3051079  71.9650524  66.4801019
 117.0337538  65.4921887  51.6581490 117.0216208  66.4363727  51.8149761
 117.9260960  65.3092033  51.3640951 115.2073500  85.4159791  63.0839168
 116.1100747  85.4483401  63.4005663 114.9810870  84.4860242  63.0985504
 116.9627102  84.1690778  59.7449246 116.0122733  84.1692639  59.6313619
 117.2659588  83.4223512  59.2285281 112.8531419  68.3749460  70.0032608
 113.7162880  68.0186265  70.2135932 112.2796829  68.0363355  70.6908012
 116.9249896  90.5743599  58.5214199 117.6120936  90.2605329  57.9335214
 116.7698025  91.4784964  58.2481450 116.5017872  88.6544193  60.7931666
 116.5401972  88.1207783  61.5868784 115.9958165  88.1279398  60.1742643
  70.0925269   3.4544372  46.4836193  70.3321868   4.0862896  47.1615212
  69.2494466   3.1032412  46.7701552  82.0081301   7.5008672  43.4598731
  81.4446166   7.4098609  42.6915019  81.8933696   6.6808577  43.9401224
  79.5545733   8.9959864  46.2982952  80.3467025   8.6550689  45.8829251
  79.7942383   9.1054839  47.2185105  87.5880860  11.1679640  38.7713196
  86.9368839  11.7533721  38.3847210  88.3825222  11.6985835  38.8308234
  81.5136487   8.2568777  39.1700330  82.2867363   7.7097764  39.0313206
  81.8661886   9.1213027  39.3814792  83.3521529   9.5845160  52.3767230
  83.0611395  10.4890790  52.2613896  83.9878514   9.6261687  53.0911299
  84.2777736   6.9622008  48.9668589  84.8741308   6.7378031  48.2525552
  84.3352708   6.2206754  49.5694037  89.0656125   8.8570072  39.3082180
  88.4301958   8.9304699  40.0203085  88.7353531   9.4463671  38.6301260
  83.5699053   6.3189549  39.0043155  83.4535311   5.6434453  39.6724240
  83.6801313   5.8321923  38.1875308  88.3111414   9.2706575  49.3717023
  88.0112137  10.1731614  49.2632831  87.9662474   9.0038758  50.2238176
  81.7623896   5.7220372  45.4053728  80.8374392   5.5896586  45.6131420
  82.0108309   6.5014591  45.9023670  79.1232707   5.3653645  46.2397517
  79.2525088   5.6188124  47.1536929  78.4430158   5.9581354  45.9202172
  83.2932194  16.0350895  42.3387991  83.2156224  16.9858721  42.4176472
  82.6893838  15.6896768  42.9962917  84.0395796   6.0164214  54.5567325
  84.7810481   6.5549258  54.2802149  83.3332782   6.6430503  54.7138877
  89.8379950   8.7194545  46.9091775  89.2088813   8.8840259  46.2067843
  89.4505613   9.1336155  47.6802739  93.7169182   9.6548983  44.2636139
  93.0320221  10.0347885  43.7133172  93.8013032  10.2644310  44.9968087
  85.3907912   8.4568953  44.1741860  85.8546258   8.7356656  43.3846483
  85.1264710   7.5552398  43.9914951  82.2831993   8.0040435  47.1121624
  82.8533350   8.4327703  46.4739108  82.8740105   7.7223020  47.8105809
  92.0865942  10.1780898  49.0353840  92.9083386   9.7761085  48.7536522
  92.0828345  10.0749132  49.9869956  85.8522545   9.7264941  51.1914551
  85.9166978  10.1885348  52.0272722  85.1433469   9.0962306  51.3196860
  85.5670563  11.3933048  41.0593531  85.4316238  12.2384584  41.4878379
  86.1080376  11.5952326  40.2959465  79.0199960   8.9108486  41.6321456
  79.5324481   9.7051737  41.7827021  79.6722673   8.2134777  41.5655057
  80.8294845  12.0274243  43.7144209  81.0061473  12.9492207  43.5265193
  81.6251679  11.7132662  44.1438589  87.1939039  12.0156615  55.1893873
  86.7502894  11.2292993  54.8714777  87.8556253  12.2035765  54.5237764
  81.9526161  13.5452417  49.7154551  82.5033586  13.4169480  48.9431545
  81.1137636  13.8447306  49.3649444  89.2920277  12.2959415  53.2175274
  89.2738753  13.1168296  52.7255543  90.2140198  12.1713490  53.4425415
  85.7493332   9.8103544  54.0598783  86.2821668   9.0491833  53.8298091
  85.2207413   9.5177196  54.8022937  76.9848877   7.2397141  42.4081026
  77.8224099   7.6494149  42.1914734  77.1627145   6.2996583  42.3781220
  87.1146044   8.9389537  41.5717595  86.5867406   8.2042296  41.2590832
  86.6133547   9.7164213  41.3257563  88.1666723  15.4667254  37.4949254
  87.4928422  15.7698951  38.1034212  88.5532545  16.2696335  37.1454711
  86.4386878   6.8582342  39.0976558  85.5298097   6.5741375  39.1949027
  86.4681962   7.2781421  38.2379865  91.6706145  10.4688931  42.8667725
  91.2168472   9.6279841  42.9232916  91.0400112  11.1050330  43.2042505
  90.1139085  12.3065428  43.8017543  90.4062059  12.8670485  43.0829909
  90.6237705  12.5993989  44.5570703  77.0075048   4.5787856  43.0791760
  76.8099448   3.9857217  42.3542826  76.4521712   4.2740066  43.7967699
  86.1362966   8.3991086  36.4364636  85.6982396   7.6826945  35.9770274
  86.8773407   8.6267200  35.8749728  85.0772710  13.0845779  44.8910997
  85.0348889  13.3106626  43.9619529  85.9935409  12.8509154  45.0396798
  83.1938511   9.9608808  44.6872959  83.9879109   9.4659128  44.4855534
  82.4830203   9.4326671  44.3240665  88.0133355  12.3426904  49.0385327
  88.0670377  12.9117840  49.8063043  87.1448136  12.5128789  48.6739364
  90.2036118   8.9355253  55.6125992  90.0521625   8.7065805  54.6956076
  90.1940798   9.8925854  55.6257337  85.7709787  10.5337830  48.3670796
  85.6320872  10.1656615  49.2396735  84.9824383  11.0485470  48.1954754
  86.3657939  15.6346927  39.7096333  86.5409694  15.1634970  40.5241956
  85.6790727  16.2612693  39.9377594  87.3215002   9.9119433  45.7559634
  86.9864834   9.8720203  46.6517284  86.8218947   9.2464149  45.2830044
  91.9128325  11.9674376  53.6902474  91.8540871  11.2833596  53.0233057
  92.3147843  12.7093366  53.2383100  80.9319024  18.7836289  46.4836193
  81.1715622  19.4154814  47.1615212  80.0888220  18.4324329  46.7701552
  91.9145732   9.9313960  51.9216454  91.0272511   9.5939881  52.0442853
  92.4844283   9.1996991  52.1585219  73.5674879   6.2638051  45.2459505
  74.2545919   5.9499781  44.6580521  73.4123008   7.1679416  44.9726757
  85.4446886  14.5915412  48.8877697  85.3717057  15.3970383  49.3997002
  85.0024279  14.7907378  48.0625718  85.2336665  13.8287182  42.3980519
  84.4504187  14.3708862  42.4918743  85.9329410  14.3461162  42.7974760
  87.9045569  14.4902246  51.0435856  88.6173541  15.1249711  50.9711757
  87.4135598  14.5866112  50.2275858  82.9557483  12.2396689  51.8641427
  83.6566942  12.8733172  52.0170821  82.4852598  12.5811421  51.1037066
  91.0811879  10.5814639  40.1489334  91.3571722  10.4671234  41.0583208
  90.2116377  10.1832124  40.1101507  87.7165943  14.8300990  43.7922147
  87.8988337  14.0122646  44.2549900  88.5398929  15.0468682  43.3547037
  88.0508108  13.7569175  41.0537196  88.5795874  13.2461630  40.4407358
  88.3136328  13.4411705  41.9182729  78.5525201  11.7733044  48.7972529
  79.1378638  11.0276732  48.9300433  78.3550039  12.0837001  49.6809193
  81.4063856  14.8084292  43.8134972  80.7374231  15.2930419  43.3299012
  81.2676726  15.0553512  44.7278350  73.1442856   4.3438645  47.5176972
  73.1826955   3.8102235  48.3114091  72.6383148   3.8173850  46.8987950
  85.5469125  16.8428035  50.4117630  86.0987433  17.0059657  51.1766715
  85.8875318  17.4332473  49.7397655  90.3979999  11.6689293  56.2666284
  90.9419903  12.2819251  55.7721239  89.8166844  12.2268871  56.7833297
  88.6837512  14.7910011  47.3981312  88.5588651  13.9899751  46.8892258
  89.3416603  15.2856204  46.9095282  90.7472420  12.5919031  49.0260862
  89.8002756  12.4724382  48.9539189  91.0955193  11.7041529  49.1087124
  87.7518854  12.3871747  45.2265214  87.6043816  11.4588455  45.4072785
  88.5772347  12.4091838  44.7422290  91.3552975  13.2100306  46.3130087
  92.2799523  13.0043167  46.1754538  91.1868279  12.9616707  47.2219429
  91.1448292  13.7285973  41.6692179  91.3185169  13.1632396  40.9166031
  91.6377183  14.5286868  41.4871669  76.9625251   5.7400642  49.7355738
  76.4178719   6.5160450  49.8676012  77.8404601   6.0871447  49.5774859
  92.1323464  13.0452738  38.7689077  92.8274369  13.6659430  38.9876392
  92.4746614  12.1948089  39.0441455  77.7491273   4.8670539  52.6285894
  77.0073009   5.0153174  53.2150525  77.4284018   5.1278804  51.7652644
  94.0314887  10.4952443  40.2976408  94.5566211  10.8339716  39.5725728
  93.9437240   9.5599459  40.1139542  85.6934936  14.4086517  52.4266284
  86.0022062  14.1635664  53.2988984  86.4910418  14.6133155  51.9385155
  85.7155548  16.5624427  44.6571661  85.2760538  16.0700805  45.3504518
  86.4663665  16.0197394  44.4163736  78.1947887  12.7535967  44.6596289
  79.0205907  12.4539739  44.2794933  77.8441939  11.9843590  45.1086078
  83.1629420  12.1062436  46.7293963  82.5409429  11.4433141  46.4296190
  83.8334287  12.1323568  46.0467610  76.3956492  10.6722294  45.6185223
  75.5588400  10.2444468  45.4369224  76.3680137  10.8654737  46.5556014
  93.7208793  11.1285347  55.6027606  92.9304337  11.1109486  55.0632105
  93.4842148  11.6673641  56.3576642  82.7242927  10.6566359  40.2052423
  82.8731047  11.3401823  39.5519096  83.5309370  10.6371449  40.7201879
  95.3424865  10.3974755  53.1602356  95.0509673  10.7604735  53.9965817
  94.7296996   9.6841763  52.9815688  80.4795560   6.6831537  41.2113492
  80.2341602   5.7793867  41.4093702  80.6491475   6.6848687  40.2692970
  86.2238333  13.1514489  37.6764171  85.6512300  13.7704677  37.2234642
  86.7971126  13.7013851  38.2104093  89.4435592  13.4351640  38.8072753
  90.3766265  13.3697201  39.0105628  89.3558805  14.2707906  38.3487286
  92.0723609  12.7517510  35.7676700  91.9937241  12.4177374  36.6612458
  92.8933276  13.2439278  35.7668173  86.4923824   8.5393048  56.4780880
  87.4126833   8.7171647  56.6720927  86.4573407   7.5949094  56.3260579
  75.7105989   3.7331642  45.4034155  75.3908773   2.8796950  45.1108529
  75.1639417   3.9480220  46.1592122  79.4885896   6.4494083  49.1203661
  79.7071906   7.3811191  49.1391695  79.9011670   6.0902057  49.9058465
  75.5794249   7.3534553  47.3727276  74.8857720   6.9388506  46.8597231
  76.3267240   7.3955090  46.7760695  77.4930991   7.2852807  45.2493291
  77.4701679   7.3840495  44.2975174  77.8031628   8.1317958  45.5710457
  80.1518369   9.3428962  49.3639906  81.1061623   9.3112905  49.2969837
  79.9530893   8.8819586  50.1790131  80.7417751   7.9130078  51.9310703
  81.5610640   8.4074157  51.9545541  81.0154559   6.9962046  51.9028271
  78.5068598  14.8848582  46.3810103  78.3723066  14.1248983  45.8148101
  78.0900660  15.6089482  45.9138892  89.6427561  10.0685505  35.3886679
  90.3463411  10.2735508  36.0044334  88.9190210  10.6362267  35.6535762
  81.6637724  15.7817899  46.5928546  81.5470108  16.7263331  46.4907236
  80.8430170  15.4791460  46.9814345  91.5514258  10.5068035  37.4385139
  92.3859862  10.0749233  37.2562614  91.3898601  10.3350048  38.3662033
  88.5206058   9.3149060  58.1295041  89.3897217   9.4889712  57.7681676
  88.0412809  10.1343477  58.0070770  82.6892238  16.4346161  49.8084475
  83.5919484  16.4669771  50.1250969  82.4629608  15.5046612  49.8230810
  84.4445840  15.1877147  46.4694553  83.4941471  15.1879009  46.3558925
  84.7478326  14.4409882  45.9530588 100.1798533  21.0237686  47.5340316
 100.8176943  20.9044433  46.8303656 100.0619376  21.9718530  47.5928268
  96.9888240  20.9765114  47.4701840  96.6506751  20.8606178  46.5822375
  97.8578008  20.5756279  47.4502846  92.8475055  22.8300590  43.4598731
  92.2839920  22.7390527  42.6915019  92.7327450  22.0100495  43.9401224
  97.4708023  22.1299965  53.4288046  97.4596663  21.7352764  52.5568549
  97.6328662  21.3966038  54.0221817  90.3939487  24.3251782  46.2982952
  91.1860779  23.9842606  45.8829251  90.6336137  24.4346757  47.2185105
  98.4274614  26.4971558  38.7713196  97.7762594  27.0825638  38.3847210
  99.2218977  27.0277753  38.8308234  92.3530241  23.5860695  39.1700330
  93.1261117  23.0389682  39.0313206  92.7055640  24.4504944  39.3814792
  94.1915284  24.9137077  52.3767230  93.9005150  25.8182708  52.2613896
  94.8272268  24.9553605  53.0911299  95.1171491  22.2913926  48.9668589
  95.7135063  22.0669948  48.2525552  95.1746462  21.5498671  49.5694037
  94.6896519  19.7453361  36.8018780  94.9422040  19.2234882  36.0402243
  93.7521078  19.5819507  36.9045464  99.7339802  18.7489139  44.6093524
 100.5202891  18.3308563  44.2583941  99.9978506  19.6535232  44.7775172
  99.9049879  24.1861990  39.3082180  99.2695712  24.2596616  40.0203085
  99.5747286  24.7755589  38.6301260 105.1348229  18.6864373  45.5126502
 105.8673401  18.1163589  45.7464332 104.3787585  18.2985973  45.9533008
  94.4092808  21.6481467  39.0043155  94.2929066  20.9726370  39.6724240
  94.5195068  21.1613841  38.1875308  96.7524349  21.1091614  42.7089845
  96.3882556  20.5822235  43.4202766  97.6091465  20.7190083  42.5356330
 102.6573649  12.3985947  49.9721111 102.3256974  13.2681358  49.7482326
 102.0619263  12.0822231  50.6515141  96.3929836  16.1381514  37.7051193
  96.5604238  17.0061750  38.0721664  96.2027005  16.3008796  36.7812482
  99.1505169  24.5998493  49.3717023  98.8505892  25.5023532  49.2632831
  98.8056228  24.3330676  50.2238176  92.6017650  21.0512290  45.4053728
  91.6768147  20.9188504  45.6131420  92.8502063  21.8306509  45.9023670
 102.5502313  17.1181033  47.0514461 101.6419190  17.0496441  46.7573222
 102.4989908  17.5952978  47.8796286  96.3719056  18.5939171  38.6897860
  96.2518682  19.0396222  39.5283340  95.6771645  18.9424489  38.1311398
  89.9626461  20.6945563  46.2397517  90.0918842  20.9480042  47.1536929
  89.2823913  21.2873271  45.9202172  94.1325949  31.3642813  42.3387991
  94.0549978  32.3150638  42.4176472  93.5287592  31.0188686  42.9962917
  96.6243178  18.5370679  54.9949358  95.8476512  19.0964599  54.9852223
  97.2633741  19.0227462  55.5164228 104.4163959  15.3197471  48.8292335
 103.7738339  15.6130005  48.1832129 103.9118888  15.2050392  49.6345531
 102.0704123  19.0660645  39.5178194 102.9821979  19.2988031  39.3425891
 101.5613770  19.6497689  38.9553273  94.8789551  21.3456132  54.5567325
  95.6204235  21.8841176  54.2802149  94.1726536  21.9722421  54.7138877
 100.3544890  23.4885272  53.1539487 100.7628246  23.0467683  52.4094119
  99.6322152  22.9137900  53.4073679  96.7075960  18.4257879  50.5273043
  97.5537156  18.8497293  50.6707692  96.6474598  17.7691503  51.2211607
 100.6773705  24.0486463  46.9091775 100.0482567  24.2132177  46.2067843
 100.2899367  24.4628073  47.6802739 104.5562937  24.9840901  44.2636139
 103.8713975  25.3639802  43.7133172 104.6406786  25.5936228  44.9968087
  99.8575406  16.0862248  52.1854217  99.6136338  16.8404308  51.6488493
 100.1335336  16.4647595  53.0201464 101.8113868  22.6300860  50.8631483
 102.0230764  23.2732620  50.1865864 101.7643617  21.7963176  50.3953413
  99.4140097  15.2418681  47.7668055  98.5524576  15.5399934  48.0584792
  99.4402532  15.4589079  46.8349087  96.2301667  23.7860871  44.1741860
  96.6940012  24.0648574  43.3846483  95.9658465  22.8844316  43.9914951
  93.1225748  23.3332353  47.1121624  93.6927105  23.7619621  46.4739108
  93.7133860  23.0514937  47.8105809  95.1670553  19.9084023  40.9831426
  95.8694596  20.3605067  41.4505352  94.8351181  19.2667842  41.6111319
  93.6150914  18.4995780  55.3582635  92.9849575  19.1812061  55.5918032
  93.5087002  18.3878862  54.4135773  88.9095887  18.1667576  46.2848559
  88.1194941  18.4225105  45.8088670  89.4007134  18.9815914  46.3900600
 102.9259696  25.5072815  49.0353840 103.7477140  25.1053003  48.7536522
 102.9222099  25.4041049  49.9869956  90.8610632  18.5312155  43.2432036
  90.0641795  18.6430850  43.7615532  90.6336224  18.8698808  42.3772926
  96.6916300  25.0556859  51.1914551  96.7560732  25.5177266  52.0272722
  95.9827224  24.4254224  51.3196860  87.1933590  18.4198067  48.7163550
  87.4441628  19.3045076  48.9821126  87.7293138  18.2402668  47.9438642
 111.0165689  21.8511564  45.3838811 110.2629398  21.2818962  45.2282816
 111.1513231  21.8174228  46.3309446  96.4064317  26.7224966  41.0593531
  96.2709992  27.5676502  41.4878379  96.9474130  26.9244244  40.2959465
  92.8931657  12.8016546  57.7207886  92.4998603  12.2482744  58.3955530
  93.7097797  13.1127124  58.1114404  89.8593715  24.2400404  41.6321456
  90.3718235  25.0343654  41.7827021  90.5116428  23.5426695  41.5655057
  91.6688600  27.3566160  43.7144209  91.8455228  28.2784125  43.5265193
  92.4645433  27.0424580  44.1438589  95.8099618  14.2174425  55.3128143
  96.5509332  14.8181578  55.2332605  96.0417541  13.4752063  54.7546185
  90.9540956  19.4030792  53.5906372  90.8394471  18.5016050  53.8913471
  90.0985474  19.6494489  53.2391189  98.0332794  27.3448533  55.1893873
  97.5896648  26.5584911  54.8714777  98.6950007  27.5327683  54.5237764
  92.7919915  28.8744334  49.7154551  93.3427340  28.7461398  48.9431545
  91.9531391  29.1739223  49.3649444 100.1314032  27.6251333  53.2175274
 100.1132507  28.4460214  52.7255543 101.0533952  27.5005408  53.4425415
  96.5887086  25.1395462  54.0598783  97.1215423  24.3783750  53.8298091
  96.0601167  24.8469114  54.8022937  87.8242632  22.5689058  42.4081026
  88.6617854  22.9786067  42.1914734  88.0020899  21.6288501  42.3781220
  99.7207064  20.2364139  38.0964859  99.2053687  21.0068744  38.3353247
  99.4484372  19.5629275  38.7197921  97.3054175  15.0813840  43.1550098
  96.4495771  14.6920690  42.9755736  97.7181127  15.1605801  42.2949883
  98.8353321  12.6160183  47.5541658  98.3318117  12.5790318  46.7409463
  99.1283928  13.5252926  47.6138314  95.0796207  12.6998913  46.5607839
  95.9449204  12.5041722  46.2013729  95.1473716  12.4709265  47.4877196
 104.6941338  22.9896494  40.0318033 103.9170781  22.6507653  39.5873195
 105.3732819  22.9949117  39.3572998  99.5093367  18.1091231  39.9224641
  99.2043503  18.4237380  40.7734784 100.4623809  18.1872651  39.9651974
  97.9539799  24.2681454  41.5717595  97.4261160  23.5334214  41.2590832
  97.4527302  25.0456131  41.3257563 102.9332645  22.4630475  46.6884641
 102.2756319  23.1529736  46.7764770 103.7373044  22.8526907  47.0318627
  92.6858526  14.9301121  43.9324206  93.2602278  14.7076302  43.1997399
  93.2729509  14.9989815  44.6852807 101.7438104  20.8174848  44.7388583
 102.2569985  21.4504840  45.2410292 102.3939328  20.2176043  44.3731943
  93.0128114  16.9605582  37.9520091  92.1765426  17.2980268  38.2729366
  92.8732883  16.8254562  37.0147228  94.9881194  11.8042370  42.6599276
  94.3345606  11.4891387  42.0355890  94.9461668  11.1818110  43.3859098
  96.0992399  22.0861665  34.5752568  95.1919461  21.8550918  34.7743717
  96.5963431  21.2899284  34.7626549  99.0060478  30.7959172  37.4949254
  98.3322177  31.0990869  38.1034212  99.3926300  31.5988252  37.1454711
  98.2218934  18.2924303  46.9846923  97.3041496  18.5139250  46.8268611
  98.6379078  18.3670614  46.1258630  99.0053982  19.6915719  42.1149603
  99.7525801  20.2037116  41.8056725  99.2745572  19.3699772  42.9753997
  97.2780632  22.1874260  39.0976558  96.3691852  21.9033292  39.1949027
  97.3075716  22.6073338  38.2379865 102.5099900  25.7980849  42.8667725
 102.0562227  24.9571759  42.9232916 101.8793867  26.4342247  43.2042505
 101.4532819  16.7272835  44.0968393 100.7155576  16.2150221  44.4278635
 101.7059593  16.2873217  43.2851670 100.9532839  27.6357346  43.8017543
 101.2455813  28.1962403  43.0829909 101.4631460  27.9285907  44.5570703
  87.8468803  19.9079774  43.0791760  87.6493203  19.3149134  42.3542826
  87.2915467  19.6031984  43.7967699  95.8265526  19.8002880  45.1986353
  95.8814136  18.8476717  45.1228830  95.0156728  19.9562319  45.6827651
  96.9756720  23.7283003  36.4364636  96.5376150  23.0118862  35.9770274
  97.7167161  23.9559118  35.8749728  93.7657886  18.4179940  42.9576732
  92.9525752  18.7174111  43.3641924  94.2616881  18.0235629  43.6751214
  95.9166464  28.4137697  44.8910997  95.8742643  28.6398543  43.9619529
  96.8329163  28.1801071  45.0396798  99.3632098  18.8821764  51.7891626
  99.7181486  19.1093238  52.6486092 100.0104229  19.2140141  51.1668881
 105.0929835  22.0040200  42.4940955 104.9547734  22.1941796  41.5662144
 104.7366054  22.7659583  42.9509006  93.2571961  15.9898295  48.5737967
  93.8971340  15.8487055  47.8760930  92.4249492  15.7032809  48.1976569
 105.1199215  24.0716727  47.5052226 105.5535721  23.9792016  48.3535280
 105.8330795  24.0474228  46.8672242  94.0332265  25.2900726  44.6872959
  94.8272864  24.7951046  44.4855534  93.3223957  24.7618589  44.3240665
  98.8527110  27.6718821  49.0385327  98.9064132  28.2409758  49.8063043
  97.9841891  27.8420706  48.6739364  90.3415029  19.4343808  40.7632712
  89.4112617  19.3728263  40.9802674  90.4372501  18.9119760  39.9669353
  90.2600578  15.9598620  43.3510954  90.5207395  16.8743954  43.2420114
  91.0817750  15.4923063  43.5007566  91.7325503  17.3736378  50.5209778
  92.4048556  17.1653740  49.8722427  90.9055289  17.1758464  50.0815010
 105.9814764  24.1140428  50.0385112 106.1750654  25.0186238  50.2844387
 105.8815382  23.6547847  50.8723697  97.6351075  13.9998319  52.5375439
  96.9878990  14.6988268  52.4439915  98.4052090  14.4334462  52.9051687
 101.0429873  24.2647171  55.6125992 100.8915379  24.0357722  54.6956076
 101.0334552  25.2217772  55.6257337  97.8115209  21.8379083  50.5972259
  98.7407269  21.9890243  50.4241226  97.3906239  21.9263104  49.7420905
  96.6103541  25.8629748  48.3670796  96.4714627  25.4948532  49.2396735
  95.8218137  26.3777387  48.1954754  97.2051693  30.9638844  39.7096333
  97.3803449  30.4926888  40.5241956  96.5184481  31.5904611  39.9377594
  98.1608756  25.2411351  45.7559634  97.8258589  25.2012121  46.6517284
  97.6612702  24.5756067  45.2830044  92.1353000  20.6478981  51.2812215
  91.9972798  19.9159219  51.8823754  93.0457924  20.5587881  50.9996403
 101.0967948  22.5867385  36.0296694 100.4797118  21.8614213  35.9329747
 100.6284436  23.3476745  35.6863768  94.7635301  20.3598940  50.7695895
  95.4734919  19.7192132  50.7282513  94.7204609  20.6111835  51.6922076
 102.7522080  27.2966293  53.6902474 102.6934626  26.6125513  53.0233057
 103.1541598  28.0385283  53.2383100  93.4764235  17.3464158  52.5891534
  92.9401592  16.8954896  53.2413131  92.8880943  17.4810067  51.8461999
  91.7712778  34.1128207  46.4836193  92.0109377  34.7446731  47.1615212
  90.9281975  33.7616247  46.7701552  92.8866494  16.8052809  35.1517998
  92.0095960  16.6841610  34.7880245  93.3624247  16.0138888  34.8996887
 102.7539487  25.2605877  51.9216454 101.8666266  24.9231799  52.0442853
 103.3238038  24.5288908  52.1585219  84.4068634  21.5929969  45.2459505
  85.0939674  21.2791699  44.6580521  84.2516763  22.4971334  44.9726757
  89.2103356  16.4820166  49.6744529  89.1261545  15.8745835  48.9394939
  88.3886062  16.9729184  49.6754025  96.2840640  29.9207330  48.8877697
  96.2110812  30.7262301  49.3997002  95.8418033  30.1199295  48.0625718
  96.0730420  29.1579100  42.3980519  95.2897942  29.7000780  42.4918743
  96.7723165  29.6753079  42.7974760  99.3827070  14.9673729  45.0414724
  99.8795769  14.2143691  44.7215794  98.6114051  15.0038046  44.4757933
 107.2356827  20.6714095  46.6833016 107.2246704  21.5538810  46.3126949
 106.3674207  20.3185645  46.4887553  98.7439324  29.8194164  51.0435856
  99.4567296  30.4541628  50.9711757  98.2529352  29.9158030  50.2275858
 100.4656851  23.7245416  42.6153147  99.5313129  23.8446879  42.4457852
 100.6433519  22.8217883  42.3513157  95.9662039  17.1091112  44.7686409
  95.5959826  16.5562152  45.4567314  96.4621131  16.5049246  44.2161409
 103.8529402  19.5662736  43.1503182 104.3189854  20.3990727  43.0763484
 104.3036902  19.1007717  43.8548440  93.7951237  27.5688607  51.8641427
  94.4960697  28.2025090  52.0170821  93.3246352  27.9103339  51.1037066
 101.9205633  25.9106557  40.1489334 102.1965477  25.7963151  41.0583208
 101.0510132  25.5124042  40.1101507 101.5952523  20.1233215  49.6893977
 100.9423973  20.3709122  49.0346430 101.9732903  19.3097353  49.3556454
  98.5559697  30.1592908  43.7922147  98.7382092  29.3414564  44.2549900
  99.3792683  30.3760600  43.3547037  98.8901863  29.0861093  41.0537196
  99.4189629  28.5753547  40.4407358  99.1530082  28.7703623  41.9182729
  97.6440096  20.8653026  56.1760014  96.9680733  20.7647155  56.8462389
  98.4667730  20.7092239  56.6396011  89.3918955  27.1024962  48.7972529
  89.9772392  26.3568650  48.9300433  89.1943794  27.4128919  49.6809193
  92.2457611  30.1376210  43.8134972  91.5767986  30.6222337  43.3299012
  92.1070480  30.3845430  44.7278350  83.9836610  19.6730562  47.5176972
  84.0220710  19.1394153  48.3114091  83.4776903  19.1465768  46.8987950
  96.3862879  32.1719953  50.4117630  96.9381187  32.3351575  51.1766715
  96.7269073  32.7624391  49.7397655  91.3627372  14.5195103  51.0139515
  91.4268699  15.3809934  50.6016912  91.2994493  13.9069104  50.2811873
  90.8379645  16.5918235  54.6612549  91.4651684  16.2095313  55.2750073
  89.9807564  16.3732437  55.0268241 101.2373753  26.9981211  56.2666284
 101.7813657  27.6111169  55.7721239 100.6560598  27.5560789  56.7833297
  87.6145188  18.3994664  40.5930904  87.9098629  17.4905343  40.5397957
  86.7133223  18.3782404  40.2711906  99.5231266  30.1201929  47.3981312
  99.3982406  29.3191668  46.8892258 100.1810357  30.6148122  46.9095282
  91.1439435  16.4750661  46.5758452  90.4226020  17.0886629  46.4365926
  91.9332690  17.0108426  46.4975098 101.5866175  27.9210949  49.0260862
 100.6396510  27.8016300  48.9539189 101.9348948  27.0333447  49.1087124
  93.9465748  13.8105088  52.8499104  94.4700150  14.0567384  53.6125413
  93.7278081  14.6425122  52.4302241  89.3433029  16.0808762  40.7170229
  89.0145735  15.2006141  40.5345335  89.6972400  16.0256431  41.6046618
  98.5912608  27.7163665  45.2265214  98.4437570  26.7880372  45.4072785
  99.4166102  27.7383756  44.7422290  92.4574852  16.3681732  41.0845707
  92.7970925  16.8967653  40.3624315  92.9046973  16.7062138  41.8604273
 102.1946730  28.5392224  46.3130087 103.1193277  28.3335085  46.1754538
 102.0262033  28.2908625  47.2219429  95.1518293  14.7518783  50.5348775
  94.8115114  13.9526596  50.9369455  94.4457299  15.0520494  49.9625608
  95.8034765  11.8368095  48.9876098  96.6260834  11.3628573  48.8654988
  96.0472829  12.6158579  49.4874784  94.4442999  14.8656354  39.2838999
  95.1651362  15.2437606  38.7802716  93.8208304  15.5845230  39.3873977
  98.5874122  15.5701503  40.2197332  98.8037737  16.4526140  39.9186160
  98.1068190  15.1787716  39.4902974  93.3273344  18.5287216  46.7968076
  93.1817924  18.8427519  47.6892358  92.8498547  19.1472116  46.2438975
  95.1869727  15.5189764  46.8448966  95.1731295  14.6230857  46.5081264
  95.9042155  15.5260427  47.4787252  97.0395857  15.9527104  48.8902093
  96.7813635  16.8744175  48.8886424  96.5080898  15.5557538  49.5802557
 101.9842046  29.0577891  41.6692179 102.1578924  28.4924314  40.9166031
 102.4770937  29.8578786  41.4871669  87.8019006  21.0692560  49.7355738
  87.2572474  21.8452368  49.8676012  88.6798356  21.4163365  49.5774859
  94.5906623  14.4004144  42.1136536  94.7122534  13.4720790  42.3127424
  94.3008665  14.4142830  41.2014851  97.4597813  12.0859054  45.2503256
  97.4819510  12.1498388  44.2955235  97.8765872  11.2463563  45.4443762
 107.8381437  21.8214314  43.2882478 108.2812583  21.0721639  42.8901602
 106.9607948  21.8124450  42.9056210 102.9717219  28.3744655  38.7689077
 103.6668123  28.9951348  38.9876392 103.3140369  27.5240007  39.0441455
  88.5885028  20.1962456  52.6285894  87.8466764  20.3445092  53.2150525
  88.2677772  20.4570722  51.7652644 104.8708642  25.8244361  40.2976408
 105.3959966  26.1631634  39.5725728 104.7830994  24.8891376  40.1139542
  96.5328690  29.7378435  52.4266284  96.8415817  29.4927581  53.2988984
  97.3304172  29.9425073  51.9385155  96.5549302  31.8916344  44.6571661
  96.1154293  31.3992723  45.3504518  97.3057419  31.3489312  44.4163736
  89.0341641  28.0827885  44.6596289  89.8599661  27.7831657  44.2794933
  88.6835693  27.3135508  45.1086078  94.0023175  27.4354353  46.7293963
  93.3803184  26.7725058  46.4296190  94.6728042  27.4615485  46.0467610
  87.2350246  26.0014212  45.6185223  86.3982155  25.5736386  45.4369224
  87.2073892  26.1946655  46.5556014  94.0747702  15.9136141  56.3226469
  94.1235858  16.7898264  55.9404238  94.6170216  15.3713534  55.7498112
 104.5602548  26.4577265  55.6027606 103.7698091  26.4401403  55.0632105
 104.3235902  26.9965558  56.3576642 104.6800423  23.3069731  52.9160334
 104.7298428  23.1419738  53.8575857 104.5714346  22.4396990  52.5258215
  93.5636682  25.9858277  40.2052423  93.7124802  26.6693741  39.5519096
  94.3703125  25.9663367  40.7201879 101.9704185  19.2900659  54.2319641
 102.8714048  19.1507124  53.9403639 102.0452160  19.4555114  55.1717818
  96.3046991  16.6667514  53.0772827  95.4350300  16.9601080  52.8055416
  96.5406471  17.2507959  53.7980091 106.1818620  25.7266673  53.1602356
 105.8903428  26.0896653  53.9965817 105.5690751  25.0133681  52.9815688
 107.3814302  23.2919552  45.6804926 108.2161193  23.7309356  45.8442486
 107.5173431  22.8158205  44.8613172 104.4305808  20.8499287  51.6282414
 104.9059929  21.0426933  50.8201265 103.5071373  20.9058473  51.3825797
  91.3189314  22.0123454  41.2113492  91.0735356  21.1085784  41.4093702
  91.4885229  22.0140605  40.2692970  99.0086024  12.8847131  50.5938248
  99.5267968  13.6208158  50.2684736  98.6541157  13.1911124  51.4285007
  90.5884962  17.7451812  38.7099654  89.8954207  17.8196167  38.0539689
  90.3436714  16.9812156  39.2321170  97.0632087  28.4806407  37.6764171
  96.4906054  29.0996594  37.2234642  97.6364881  29.0305769  38.2104093
 103.1307477  17.7265047  49.8610719 104.0824900  17.8263145  49.8822943
 102.9610927  16.9343316  50.3708804 101.1521856  14.8120630  50.0470120
 100.5571788  15.0925643  49.3516609 100.8671553  15.3014531  50.8186861
 100.2829347  28.7643557  38.8072753 101.2160020  28.6989119  39.0105628
 100.1952560  29.5999824  38.3487286 102.9117364  28.0809428  35.7676700
 102.8330995  27.7469291  36.6612458 103.7327030  28.5731196  35.7668173
 105.6095555  20.9471167  48.9753019 105.5771875  20.0087168  49.1612703
 106.2196178  21.0255204  48.2418844  97.4478886  19.8167220  35.0180223
  98.3937990  19.6873428  35.0868641  97.0693130  19.0781882  35.4949651
 105.7590043  17.7382210  49.0211302 105.2429092  16.9540667  48.8341231
 106.6429992  17.4100927  49.1857822 111.4272105  22.0087174  48.1159056
 112.1575493  21.7472462  48.6766759 110.8179050  21.2715896  48.1561124
 109.5087402  20.1495036  48.7133507 108.7820565  20.0151001  48.1049999
 109.0934689  20.4571865  49.5190225  97.3317578  23.8684966  56.4780880
  98.2520588  24.0463565  56.6720927  97.2967161  22.9241011  56.3260579
  95.6321803  17.7417196  34.9535108  94.7253258  17.4450309  35.0297822
  95.9097784  17.4447014  34.0869395  86.5499743  19.0623560  45.4034155
  86.2302527  18.2088868  45.1108529  86.0033171  19.2772138  46.1592122
  90.3279651  21.7786001  49.1203661  90.5465660  22.7103108  49.1391695
  90.7405424  21.4193975  49.9058465  97.2483868  12.2854086  41.1079350
  96.4384597  11.9401171  41.4834596  97.9368285  11.9761630  41.6966961
  95.2007516  17.3519206  58.5106410  95.1004243  18.3013563  58.4418501
  94.9829058  17.0237445  57.6382480  94.4020587  14.6004131  35.0947087
  95.2639751  14.9259030  35.3542905  94.5870931  13.8135627  34.5820153
  86.4188003  22.6826471  47.3727276  85.7251475  22.2680424  46.8597231
  87.1660994  22.7247008  46.7760695 102.5553224  13.4732658  42.2382310
 101.9751893  14.1317462  41.8560363 102.2889156  12.6510003  41.8269728
 101.0056790  12.8737716  44.4403631 101.5056569  12.9854250  43.6317950
 101.6492398  12.5698769  45.0804439  95.0638786  20.7816345  57.3271472
  94.5805868  21.5816705  57.5335361  95.1499725  20.7924290  56.3738916
  88.3324746  22.6144725  45.2493291  88.3095434  22.7132412  44.2975174
  88.6425382  23.4609876  45.5710457  90.9912123  24.6720880  49.3639906
  91.9455377  24.6404822  49.2969837  90.7924647  24.2111504  50.1790131
  91.5811506  23.2421996  51.9310703  92.4004395  23.7366075  51.9545541
  91.8548313  22.3253964  51.9028271 101.3378102  15.6332748  41.2938659
 100.4503957  15.9182399  41.0758853 101.7532091  15.4726512  40.4465936
 104.6892638  15.6579269  45.0092998 105.4653028  16.1475722  45.2817615
 103.9640772  16.0837324  45.4664867 107.1265197  16.3706889  46.0666939
 107.7209687  16.1302624  45.3560247 107.1991780  15.6514019  46.6940475
  89.3462352  30.2140499  46.3810103  89.2116820  29.4540900  45.8148101
  88.9294415  30.9381399  45.9138892 100.4821315  25.3977423  35.3886679
 101.1857165  25.6027426  36.0044334  99.7583964  25.9654185  35.6535762
 101.3119126  21.1487284  41.5088949 101.2554327  21.6055836  40.6696581
 101.8647468  20.3877969  41.3311792 105.1223931  16.9377016  42.3339068
 104.8660866  16.5373652  43.1647276 104.4976800  17.6520810  42.2089208
 109.4336269  19.6773089  44.8410360 108.8735827  19.7466279  45.6141922
 108.8279773  19.5014074  44.1209856  92.5031478  31.1109816  46.5928546
  92.3863862  32.0555249  46.4907236  91.6823924  30.8083378  46.9814345
 102.3908013  25.8359952  37.4385139 103.2253617  25.4041151  37.2562614
 102.2292356  25.6641966  38.3662033 102.0453905  22.3392066  38.8041478
 101.9902709  22.1736337  37.8629922 101.4199960  23.0468098  38.9603668
  86.8346420  17.5760130  52.6302900  87.4805283  17.0659084  53.1190125
  86.6263571  18.3128812  53.2046326  99.3599812  24.6440977  58.1295041
 100.2290972  24.8181630  57.7681676  98.8806564  25.4635394  58.0070770
  95.3550030  11.8400175  38.3826796  95.3428700  12.7842014  38.5395067
  96.2473452  11.6570320  38.0886258  93.5285992  31.7638078  49.8084475
  94.4313239  31.7961689  50.1250969  93.3023362  30.8338529  49.8230810
  95.2839594  30.5169065  46.4694553  94.3335225  30.5170927  46.3558925
  95.5872080  29.7701799  45.9530588  91.1743911  14.7227747  56.7277915
  92.0375372  14.3664552  56.9381239  90.6009322  14.3841642  57.4153319
 111.0192288  36.3529603  47.5340316 111.6570698  36.2336351  46.8303656
 110.9013131  37.3010447  47.5928268 107.8281994  36.3057031  47.4701840
 107.4900506  36.1898096  46.5822375 108.6971762  35.9048197  47.4502846
 103.6868810  38.1592508  43.4598731 103.1233675  38.0682445  42.6915019
 103.5721205  37.3392412  43.9401224 108.3101777  37.4591883  53.4288046
 108.2990418  37.0644681  52.5568549 108.4722417  36.7257956  54.0221817
 101.2333242  39.6543699  46.2982952 102.0254534  39.3134524  45.8829251
 101.4729892  39.7638674  47.2185105 109.2668368  41.8263476  38.7713196
 108.6156348  42.4117556  38.3847210 110.0612731  42.3569670  38.8308234
 103.1923996  38.9152613  39.1700330 103.9654872  38.3681600  39.0313206
 103.5449395  39.7796862  39.3814792 105.0309038  40.2428995  52.3767230
 104.7398904  41.1474626  52.2613896 105.6666023  40.2845523  53.0911299
 105.9565245  37.6205843  48.9668589 106.5528817  37.3961866  48.2525552
 106.0140217  36.8790589  49.5694037 105.5290273  35.0745279  36.8018780
 105.7815794  34.5526800  36.0402243 104.5914833  34.9111424  36.9045464
 110.5733556  34.0781057  44.6093524 111.3596645  33.6600480  44.2583941
 110.8372261  34.9827149  44.7775172 110.7443634  39.5153907  39.3082180
 110.1089467  39.5888534  40.0203085 110.4141040  40.1047506  38.6301260
 115.9741983  34.0156290  45.5126502 116.7067155  33.4455507  45.7464332
 115.2181339  33.6277891  45.9533008 105.2486562  36.9773385  39.0043155
 105.1322820  36.3018288  39.6724240 105.3588822  36.4905759  38.1875308
 107.5918103  36.4383532  42.7089845 107.2276310  35.9114153  43.4202766
 108.4485219  36.0482001  42.5356330 113.4967404  27.7277864  49.9721111
 113.1650729  28.5973275  49.7482326 112.9013017  27.4114148  50.6515141
 107.2323590  31.4673432  37.7051193 107.3997992  32.3353668  38.0721664
 107.0420759  31.6300713  36.7812482 109.9898923  39.9290410  49.3717023
 109.6899646  40.8315449  49.2632831 109.6449983  39.6622594  50.2238176
 103.4411405  36.3804207  45.4053728 102.5161901  36.2480421  45.6131420
 103.6895818  37.1598427  45.9023670 113.3896067  32.4472951  47.0514461
 112.4812944  32.3788359  46.7573222 113.3383663  32.9244896  47.8796286
 107.2112811  33.9231089  38.6897860 107.0912436  34.3688140  39.5283340
 106.5165399  34.2716407  38.1311398 100.8020216  36.0237481  46.2397517
 100.9312597  36.2771960  47.1536929 100.1217667  36.6165189  45.9202172
 104.9719703  46.6934731  42.3387991 104.8943733  47.6442556  42.4176472
 104.3681347  46.3480603  42.9962917 107.4636933  33.8662596  54.9949358
 106.6870267  34.4256516  54.9852223 108.1027496  34.3519379  55.5164228
 115.2557713  30.6489389  48.8292335 114.6132094  30.9421922  48.1832129
 114.7512642  30.5342309  49.6345531 112.9097877  34.3952562  39.5178194
 113.8215733  34.6279949  39.3425891 112.4007524  34.9789606  38.9553273
 105.7183305  36.6748050  54.5567325 106.4597990  37.2133094  54.2802149
 105.0120291  37.3014338  54.7138877 111.1938645  38.8177190  53.1539487
 111.6022001  38.3759601  52.4094119 110.4715906  38.2429818  53.4073679
 107.5469715  33.7549797  50.5273043 108.3930910  34.1789210  50.6707692
 107.4868353  33.0983421  51.2211607 111.5167459  39.3778381  46.9091775
 110.8876322  39.5424095  46.2067843 111.1293122  39.7919990  47.6802739
 115.3956691  40.3132819  44.2636139 114.7107729  40.6931720  43.7133172
 115.4800541  40.9228145  44.9968087 110.6969160  31.4154165  52.1854217
 110.4530092  32.1696226  51.6488493 110.9729091  31.7939513  53.0201464
 112.6507623  37.9592778  50.8631483 112.8624518  38.6024537  50.1865864
 112.6037371  37.1255094  50.3953413 110.2533852  30.5710598  47.7668055
 109.3918331  30.8691852  48.0584792 110.2796287  30.7880997  46.8349087
 107.0695421  39.1152789  44.1741860 107.5333767  39.3940492  43.3846483
 106.8052219  38.2136233  43.9914951 103.9619502  38.6624270  47.1121624
 104.5320859  39.0911539  46.4739108 104.5527614  38.3806855  47.8105809
 106.0064307  35.2375941  40.9831426 106.7088351  35.6896985  41.4505352
 105.6744936  34.5959760  41.6111319 104.4544669  33.8287698  55.3582635
 103.8243329  34.5103979  55.5918032 104.3480757  33.7170779  54.4135773
  99.7489641  33.4959494  46.2848559  98.9588695  33.7517022  45.8088670
 100.2400889  34.3107832  46.3900600 113.7653451  40.8364733  49.0353840
 114.5870895  40.4344920  48.7536522 113.7615854  40.7332967  49.9869956
 101.7004387  33.8604073  43.2432036 100.9035550  33.9722767  43.7615532
 101.4729979  34.1990725  42.3772926 107.5310054  40.3848776  51.1914551
 107.5954487  40.8469184  52.0272722 106.8220978  39.7546141  51.3196860
  98.0327344  33.7489984  48.7163550  98.2835383  34.6336994  48.9821126
  98.5686893  33.5694586  47.9438642 107.2458072  42.0516884  41.0593531
 107.1103747  42.8968419  41.4878379 107.7867884  42.2536161  40.2959465
 103.7325412  28.1308464  57.7207886 103.3392357  27.5774662  58.3955530
 104.5491552  28.4419042  58.1114404 100.6987469  39.5692322  41.6321456
 101.2111990  40.3635572  41.7827021 101.3510182  38.8718612  41.5655057
 102.5082354  42.6858078  43.7144209 102.6848982  43.6076043  43.5265193
 103.3039188  42.3716497  44.1438589 106.6493373  29.5466343  55.3128143
 107.3903086  30.1473496  55.2332605 106.8811295  28.8043981  54.7546185
 101.7934711  34.7322710  53.5906372 101.6788226  33.8307967  53.8913471
 100.9379228  34.9786407  53.2391189 108.8726548  42.6740450  55.1893873
 108.4290403  41.8876829  54.8714777 109.5343762  42.8619601  54.5237764
 103.6313670  44.2036252  49.7154551 104.1821095  44.0753315  48.9431545
 102.7925145  44.5031141  49.3649444 110.9707786  42.9543250  53.2175274
 110.9526262  43.7752131  52.7255543 111.8927706  42.8297325  53.4425415
 107.4280841  40.4687380  54.0598783 107.9609177  39.7075668  53.8298091
 106.8994922  40.1761032  54.8022937 110.5950536  25.5747446  49.5892424
 110.2514805  26.4649087  49.5131535 110.9629498  25.3849103  48.7262009
  98.6636386  37.8980976  42.4081026  99.5011608  38.3077984  42.1914734
  98.8414654  36.9580418  42.3781220 110.5600818  35.5656057  38.0964859
 110.0447442  36.3360661  38.3353247 110.2878127  34.8921193  38.7197921
 108.1447929  30.4105758  43.1550098 107.2889526  30.0212608  42.9755736
 108.5574881  30.4897718  42.2949883 109.6747076  27.9452101  47.5541658
 109.1711872  27.9082236  46.7409463 109.9677683  28.8544844  47.6138314
 105.9189962  28.0290831  46.5607839 106.7842959  27.8333639  46.2013729
 105.9867471  27.8001182  47.4877196 115.5335092  38.3188411  40.0318033
 114.7564535  37.9799571  39.5873195 116.2126573  38.3241035  39.3572998
 110.3487121  33.4383149  39.9224641 110.0437257  33.7529298  40.7734784
 111.3017564  33.5164569  39.9651974 108.7933553  39.5973372  41.5717595
 108.2654915  38.8626132  41.2590832 108.2921056  40.3748049  41.3257563
 113.7726399  37.7922393  46.6884641 113.1150074  38.4821654  46.7764770
 114.5766799  38.1818825  47.0318627 103.5252281  30.2593038  43.9324206
 104.0996033  30.0368220  43.1997399 104.1123263  30.3281733  44.6852807
 112.5831858  36.1466765  44.7388583 113.0963740  36.7796757  45.2410292
 113.2333082  35.5467961  44.3731943 103.8521868  32.2897499  37.9520091
 103.0159180  32.6272186  38.2729366 103.7126638  32.1546479  37.0147228
 105.8274949  27.1334287  42.6599276 105.1739361  26.8183305  42.0355890
 105.7855423  26.5110028  43.3859098 106.9386153  37.4153582  34.5752568
 106.0313215  37.1842836  34.7743717 107.4357185  36.6191202  34.7626549
 109.8454232  46.1251090  37.4949254 109.1715931  46.4282786  38.1034212
 110.2320054  46.9280170  37.1454711 109.0612689  33.6216221  46.9846923
 108.1435250  33.8431168  46.8268611 109.4772833  33.6962531  46.1258630
 109.8447737  35.0207637  42.1149603 110.5919556  35.5329034  41.8056725
 110.1139326  34.6991689  42.9753997 108.1174387  37.5166177  39.0976558
 107.2085606  37.2325210  39.1949027 108.1469471  37.9365256  38.2379865
 113.3493654  41.1272767  42.8667725 112.8955981  40.2863677  42.9232916
 112.7187621  41.7634165  43.2042505 112.2926574  32.0564753  44.0968393
 111.5549331  31.5442139  44.4278635 112.5453347  31.6165134  43.2851670
 111.7926594  42.9649263  43.8017543 112.0849568  43.5254321  43.0829909
 112.3025214  43.2577824  44.5570703 112.3938201  24.8341005  44.6910162
 112.6997078  23.9738368  44.4036077 113.1190806  25.4258625  44.4909156
  98.6862557  35.2371691  43.0791760  98.4886957  34.6441052  42.3542826
  98.1309221  34.9323902  43.7967699 106.6659281  35.1294798  45.1986353
 106.7207891  34.1768634  45.1228830 105.8550483  35.2854237  45.6827651
 107.8150475  39.0574921  36.4364636 107.3769905  38.3410780  35.9770274
 108.5560916  39.2851036  35.8749728 104.6051641  33.7471858  42.9576732
 103.7919506  34.0466028  43.3641924 105.1010635  33.3527546  43.6751214
 106.7560219  43.7429615  44.8910997 106.7136398  43.9690461  43.9619529
 107.6722918  43.5092989  45.0396798 110.2025853  34.2113682  51.7891626
 110.5575240  34.4385155  52.6486092 110.8497984  34.5432059  51.1668881
 115.9323590  37.3332118  42.4940955 115.7941488  37.5233714  41.5662144
 115.5759808  38.0951501  42.9509006 104.0965716  31.3190213  48.5737967
 104.7365095  31.1778972  47.8760930 103.2643246  31.0324727  48.1976569
 115.9592969  39.4008645  47.5052226 116.3929476  39.3083934  48.3535280
 116.6724550  39.3766145  46.8672242 104.8726020  40.6192644  44.6872959
 105.6666618  40.1242964  44.4855534 104.1617712  40.0910507  44.3240665
 109.6920864  43.0010739  49.0385327 109.7457886  43.5701675  49.8063043
 108.8235645  43.1712624  48.6739364 101.1808783  34.7635725  40.7632712
 100.2506371  34.7020181  40.9802674 101.2766255  34.2411678  39.9669353
 101.0994332  31.2890538  43.3510954 101.3601149  32.2035871  43.2420114
 101.9211504  30.8214981  43.5007566 102.5719257  32.7028295  50.5209778
 103.2442311  32.4945657  49.8722427 101.7449044  32.5050381  50.0815010
 116.8208519  39.4432346  50.0385112 117.0144409  40.3478156  50.2844387
 116.7209137  38.9839765  50.8723697 108.4744829  29.3290236  52.5375439
 107.8272744  30.0280186  52.4439915 109.2445845  29.7626380  52.9051687
 111.8823627  39.5939088  55.6125992 111.7309134  39.3649640  54.6956076
 111.8728307  40.5509690  55.6257337 108.6508964  37.1671001  50.5972259
 109.5801024  37.3182161  50.4241226 108.2299994  37.2555022  49.7420905
 107.4497296  41.1921666  48.3670796 107.3108381  40.8240450  49.2396735
 106.6611892  41.7069305  48.1954754 108.0445448  46.2930762  39.7096333
 108.2197203  45.8218805  40.5241956 107.3578236  46.9196528  39.9377594
 109.0002511  40.5703268  45.7559634 108.6652343  40.5304038  46.6517284
 108.5006456  39.9047984  45.2830044 102.9746755  35.9770898  51.2812215
 102.8366553  35.2451137  51.8823754 103.8851678  35.8879798  50.9996403
 111.9361702  37.9159303  36.0296694 111.3190873  37.1906131  35.9329747
 111.4678191  38.6768663  35.6863768 105.6029055  35.6890858  50.7695895
 106.3128674  35.0484050  50.7282513 105.5598363  35.9403752  51.6922076
 113.5915834  42.6258211  53.6902474 113.5328380  41.9417431  53.0233057
 113.9935352  43.3677201  53.2383100 104.3157989  32.6756076  52.5891534
 103.7795346  32.2246814  53.2413131 103.7274698  32.8101984  51.8461999
 102.6106533  49.4420125  46.4836193 102.8503131  50.0738649  47.1615212
 101.7675729  49.0908165  46.7701552 103.7260248  32.1344727  35.1517998
 102.8489715  32.0133528  34.7880245 104.2018001  31.3430805  34.8996887
 113.5933241  40.5897795  51.9216454 112.7060020  40.2523717  52.0442853
 114.1631792  39.8580826  52.1585219  95.2462388  36.9221887  45.2459505
  95.9333428  36.6083617  44.6580521  95.0910517  37.8263251  44.9726757
 100.0497111  31.8112083  49.6744529  99.9655299  31.2037753  48.9394939
  99.2279817  32.3021102  49.6754025 107.1234395  45.2499247  48.8877697
 107.0504566  46.0554219  49.3997002 106.6811788  45.4491213  48.0625718
 106.9124174  44.4871017  42.3980519 106.1291696  45.0292697  42.4918743
 107.6116919  45.0044997  42.7974760 110.2220824  30.2965647  45.0414724
 110.7189524  29.5435609  44.7215794 109.4507806  30.3329963  44.4757933
 118.0750582  36.0006012  46.6833016 118.0640458  36.8830728  46.3126949
 117.2067961  35.6477563  46.4887553 109.5833078  45.1486081  51.0435856
 110.2961050  45.7833546  50.9711757 109.0923107  45.2449947  50.2275858
 111.3050605  39.0537334  42.6153147 110.3706884  39.1738796  42.4457852
 111.4827274  38.1509801  42.3513157 106.8055793  32.4383030  44.7686409
 106.4353581  31.8854070  45.4567314 107.3014886  31.8341163  44.2161409
 114.6923156  34.8954653  43.1503182 115.1583609  35.7282645  43.0763484
 115.1430657  34.4299635  43.8548440 104.6344992  42.8980525  51.8641427
 105.3354451  43.5317008  52.0170821 104.1640107  43.2395256  51.1037066
 112.7599388  41.2398475  40.1489334 113.0359231  41.1255069  41.0583208
 111.8903886  40.8415959  40.1101507 112.6639819  27.2635240  47.1894083
 111.7502899  27.4939467  47.3576290 113.0932921  27.3473684  48.0408115
 112.4346278  35.4525132  49.6893977 111.7817728  35.7001040  49.0346430
 112.8126658  34.6389270  49.3556454 109.3953452  45.4884825  43.7922147
 109.5775846  44.6706481  44.2549900 110.2186438  45.7052518  43.3547037
 109.7295617  44.4153011  41.0537196 110.2583383  43.9045465  40.4407358
 109.9923837  44.0995541  41.9182729 108.4833851  36.1944943  56.1760014
 107.8074488  36.0939073  56.8462389 109.3061485  36.0384157  56.6396011
 100.2312710  42.4316880  48.7972529 100.8166147  41.6860568  48.9300433
 100.0337548  42.7420837  49.6809193 103.0851365  45.4668127  43.8134972
 102.4161740  45.9514255  43.3299012 102.9464235  45.7137348  44.7278350
  94.8230365  35.0022480  47.5176972  94.8614464  34.4686071  48.3114091
  94.3170657  34.4757686  46.8987950 107.2256634  47.5011871  50.4117630
 107.7774942  47.6643492  51.1766715 107.5662827  48.0916309  49.7397655
 102.2021127  29.8487021  51.0139515 102.2662453  30.7101851  50.6016912
 102.1388247  29.2361022  50.2811873 101.6773399  31.9210153  54.6612549
 102.3045438  31.5387230  55.2750073 100.8201318  31.7024355  55.0268241
 112.0767508  42.3273128  56.2666284 112.6207412  42.9403086  55.7721239
 111.4954353  42.8852707  56.7833297  98.4538942  33.7286582  40.5930904
  98.7492383  32.8197261  40.5397957  97.5526978  33.7074322  40.2711906
 110.3625021  45.4493846  47.3981312 110.2376160  44.6483586  46.8892258
 111.0204112  45.9440040  46.9095282 101.9833189  31.8042579  46.5758452
 101.2619775  32.4178546  46.4365926 102.7726445  32.3400344  46.4975098
 112.4259929  43.2502866  49.0260862 111.4790265  43.1308218  48.9539189
 112.7742702  42.3625364  49.1087124 104.7859503  29.1397005  52.8499104
 105.3093904  29.3859302  53.6125413 104.5671836  29.9717040  52.4302241
 100.1826784  31.4100680  40.7170229  99.8539490  30.5298059  40.5345335
 100.5366154  31.3548349  41.6046618 109.4306363  43.0455583  45.2265214
 109.2831325  42.1172290  45.4072785 110.2559856  43.0675673  44.7422290
 103.2968607  31.6973650  41.0845707 103.6364679  32.2259571  40.3624315
 103.7440727  32.0354056  41.8604273 113.0340484  43.8684141  46.3130087
 113.9587032  43.6627003  46.1754538 112.8655788  43.6200542  47.2219429
 105.9912048  30.0810700  50.5348775 105.6508868  29.2818513  50.9369455
 105.2851054  30.3812411  49.9625608 106.6428519  27.1660013  48.9876098
 107.4654589  26.6920491  48.8654988 106.8866583  27.9450497  49.4874784
 105.2836754  30.1948271  39.2838999 106.0045116  30.5729524  38.7802716
 104.6602058  30.9137148  39.3873977 109.4267877  30.8993420  40.2197332
 109.6431491  31.7818058  39.9186160 108.9461944  30.5079634  39.4902974
 104.1667098  33.8579133  46.7968076 104.0211679  34.1719436  47.6892358
 103.6892302  34.4764034  46.2438975 106.0263481  30.8481681  46.8448966
 106.0125050  29.9522775  46.5081264 106.7435909  30.8552345  47.4787252
 107.8789612  31.2819022  48.8902093 107.6207390  32.2036092  48.8886424
 107.3474652  30.8849456  49.5802557 112.8235801  44.3869809  41.6692179
 112.9972678  43.8216231  40.9166031 113.3164692  45.1870704  41.4871669
  98.6412760  36.3984478  49.7355738  98.0966228  37.1744286  49.8676012
  99.5192110  36.7455282  49.5774859 105.4300377  29.7296062  42.1136536
 105.5516288  28.8012708  42.3127424 105.1402419  29.7434748  41.2014851
 108.2991567  27.4150972  45.2503256 108.3213264  27.4790305  44.2955235
 108.7159626  26.5755481  45.4443762 113.8110973  43.7036573  38.7689077
 114.5061878  44.3243266  38.9876392 114.1534123  42.8531924  39.0441455
  99.4278782  35.5254374  52.6285894  98.6860518  35.6737009  53.2150525
  99.1071527  35.7862640  51.7652644 115.7102396  41.1536279  40.2976408
 116.2353720  41.4923551  39.5725728 115.6224749  40.2183294  40.1139542
 107.3722445  45.0670352  52.4266284 107.6809571  44.8219499  53.2988984
 108.1697927  45.2716991  51.9385155 107.3943057  47.2208262  44.6571661
 106.9548047  46.7284641  45.3504518 108.1451174  46.6781230  44.4163736
  99.8735396  43.4119803  44.6596289 100.6993416  43.1123575  44.2794933
  99.5229448  42.6427425  45.1086078 104.8416929  42.7646271  46.7293963
 104.2196938  42.1016976  46.4296190 105.5121796  42.7907403  46.0467610
  98.0744001  41.3306129  45.6185223  97.2375909  40.9028304  45.4369224
  98.0467646  41.5238573  46.5556014 104.9141457  31.2428059  56.3226469
 104.9629612  32.1190182  55.9404238 105.4563971  30.7005452  55.7498112
 115.3996302  41.7869182  55.6027606 114.6091846  41.7693321  55.0632105
 115.1629657  42.3257476  56.3576642 115.5194177  38.6361649  52.9160334
 115.5692182  38.4711656  53.8575857 115.4108101  37.7688908  52.5258215
 104.4030436  41.3150194  40.2052423 104.5518556  41.9985659  39.5519096
 105.2096879  41.2955284  40.7201879 112.8097940  34.6192577  54.2319641
 113.7107802  34.4799042  53.9403639 112.8845914  34.7847032  55.1717818
 107.1440745  31.9959431  53.0772827 106.2744054  32.2892997  52.8055416
 107.3800225  32.5799876  53.7980091 117.0212374  41.0558590  53.1602356
 116.7297182  41.4188571  53.9965817 116.4084505  40.3425598  52.9815688
 115.2699562  36.1791205  51.6282414 115.7453684  36.3718851  50.8201265
 114.3465128  36.2350391  51.3825797 102.1583069  37.3415372  41.2113492
 101.9129111  36.4377702  41.4093702 102.3278984  37.3432522  40.2692970
 109.8479779  28.2139048  50.5938248 110.3661723  28.9500075  50.2684736
 109.4934912  28.5203042  51.4285007 101.4278717  33.0743730  38.7099654
 100.7347961  33.1488085  38.0539689 101.1830468  32.3104073  39.2321170
 110.0992373  24.6339331  46.1139144 110.3794127  23.9662520  46.7399571
 110.8842980  24.8268427  45.6013808 107.9025842  43.8098325  37.6764171
 107.3299809  44.4288512  37.2234642 108.4758635  44.3597686  38.2104093
 113.9701231  33.0556965  49.8610719 114.9218654  33.1555063  49.8822943
 113.8004682  32.2635233  50.3708804 111.9915611  30.1412548  50.0470120
 111.3965543  30.4217561  49.3516609 111.7065308  30.6306449  50.8186861
 111.1223101  44.0935475  38.8072753 112.0553774  44.0281037  39.0105628
 111.0346314  44.9291742  38.3487286 113.7511118  43.4101345  35.7676700
 113.6724750  43.0761209  36.6612458 114.5720785  43.9023113  35.7668173
 116.4489309  36.2763085  48.9753019 116.4165629  35.3379085  49.1612703
 117.0589933  36.3547121  48.2418844 108.2872640  35.1459138  35.0180223
 109.2331745  35.0165346  35.0868641 107.9086885  34.4073799  35.4949651
 116.5983798  33.0674128  49.0211302 116.0822846  32.2832585  48.8341231
 117.4823746  32.7392845  49.1857822 114.2594525  26.8115144  44.9807115
 114.0619346  26.5030232  45.8650447 114.8694230  27.5376782  45.1105045
 108.1711333  39.1976884  56.4780880 109.0914342  39.3755483  56.6720927
 108.1360916  38.2532929  56.3260579 106.4715557  33.0709114  34.9535108
 105.5647013  32.7742227  35.0297822 106.7491538  32.7738932  34.0869395
  97.3893498  34.3915477  45.4034155  97.0696282  33.5380786  45.1108529
  96.8426926  34.6064056  46.1592122 101.1673405  37.1077918  49.1203661
 101.3859415  38.0395026  49.1391695 101.5799179  36.7485893  49.9058465
 108.0877623  27.6146004  41.1079350 107.2778351  27.2693089  41.4834596
 108.7762040  27.3053547  41.6966961 110.0168171  26.6924050  42.7303646
 110.5699210  27.1119504  43.3893669 110.2538258  25.7659799  42.7726602
 106.0401270  32.6811124  58.5106410 105.9397997  33.6305481  58.4418501
 105.8222812  32.3529363  57.6382480 105.2414342  29.9296049  35.0947087
 106.1033506  30.2550947  35.3542905 105.4264686  29.1427545  34.5820153
  97.2581758  38.0118389  47.3727276  96.5645229  37.5972342  46.8597231
  98.0054749  38.0538925  46.7760695 113.3946978  28.8024576  42.2382310
 112.8145647  29.4609380  41.8560363 113.1282911  27.9801920  41.8269728
 111.8450545  28.2029633  44.4403631 112.3450323  28.3146168  43.6317950
 112.4886153  27.8990686  45.0804439 105.9032540  36.1108263  57.3271472
 105.4199622  36.9108623  57.5335361 105.9893480  36.1216208  56.3738916
  99.1718500  37.9436643  45.2493291  99.1489188  38.0424330  44.2975174
  99.4819137  38.7901793  45.5710457 101.8305878  40.0012798  49.3639906
 102.7849132  39.9696740  49.2969837 101.6318402  39.5403421  50.1790131
 102.4205260  38.5713914  51.9310703 103.2398149  39.0657992  51.9545541
 102.6942068  37.6545882  51.9028271 112.1771856  30.9624666  41.2938659
 111.2897711  31.2474317  41.0758853 112.5925845  30.8018429  40.4465936
 115.5286392  30.9871187  45.0092998 116.3046783  31.4767639  45.2817615
 114.8034527  31.4129241  45.4664867 100.1856107  45.5432417  46.3810103
 100.0510575  44.7832818  45.8148101  99.7688169  46.2673317  45.9138892
 111.3215070  40.7269341  35.3886679 112.0250920  40.9319343  36.0044334
 110.5977719  41.2946103  35.6535762 112.1512880  36.4779202  41.5088949
 112.0948081  36.9347753  40.6696581 112.7041223  35.7169887  41.3311792
 115.9617686  32.2668934  42.3339068 115.7054620  31.8665569  43.1647276
 115.3370554  32.9812728  42.2089208 103.3425233  46.4401734  46.5928546
 103.2257617  47.3847167  46.4907236 102.5217679  46.1375296  46.9814345
 113.2301767  41.1651870  37.4385139 114.0647371  40.7333068  37.2562614
 113.0686110  40.9933884  38.3662033 112.8847659  37.6683983  38.8041478
 112.8296463  37.5028255  37.8629922 112.2593715  38.3760016  38.9603668
  97.6740174  32.9052048  52.6302900  98.3199038  32.3951002  53.1190125
  97.4657325  33.6420729  53.2046326 110.1993567  39.9732895  58.1295041
 111.0684726  40.1473547  57.7681676 109.7200318  40.7927312  58.0070770
 106.1943785  27.1692092  38.3826796 106.1822455  28.1133932  38.5395067
 107.0867207  26.9862238  38.0886258 104.3679747  47.0929996  49.8084475
 105.2706993  47.1253606  50.1250969 104.1417117  46.1630447  49.8230810
 106.1233349  45.8460983  46.4694553 105.1728980  45.8462844  46.3558925
 106.4265835  45.0993717  45.9530588 110.0095904  23.7634869  42.6372733
 109.2428300  23.2093356  42.7829416 110.4206609  23.8356738  43.4986885
 102.0137665  30.0519665  56.7277915 102.8769127  29.6956469  56.9381239
 101.4403076  29.7133559  57.4153319 114.5262564  53.4884426  43.4598731
 113.9627429  53.3974362  42.6915019 114.4114959  52.6684330  43.9401224
 112.0726996  54.9835617  46.2982952 112.8648288  54.6426442  45.8829251
 112.3123646  55.0930592  47.2185105 114.0317750  54.2444530  39.1700330
 114.8048626  53.6973517  39.0313206 114.3843149  55.1088780  39.3814792
 115.8702793  55.5720913  52.3767230 115.5792659  56.4766543  52.2613896
 116.5059777  55.6137440  53.0911299 116.7959000  52.9497761  48.9668589
 117.3922572  52.7253784  48.2525552 116.8533971  52.2082507  49.5694037
 116.3684028  50.4037196  36.8018780 116.6209549  49.8818718  36.0402243
 115.4308587  50.2403342  36.9045464 116.0880317  52.3065302  39.0043155
 115.9716575  51.6310206  39.6724240 116.1982577  51.8197676  38.1875308
 118.0717345  46.7965349  37.7051193 118.2391747  47.6645586  38.0721664
 117.8814514  46.9592631  36.7812482 114.2805159  51.7096125  45.4053728
 113.3555656  51.5772339  45.6131420 114.5289572  52.4890344  45.9023670
 118.0506565  49.2523007  38.6897860 117.9306191  49.6980057  39.5283340
 117.3559154  49.6008324  38.1311398 111.6413970  51.3529399  46.2397517
 111.7706351  51.6063877  47.1536929 110.9611422  51.9457107  45.9202172
 115.8113458  62.0226648  42.3387991 115.7337487  62.9734474  42.4176472
 115.2075101  61.6772521  42.9962917 116.5577060  52.0039967  54.5567325
 117.2991744  52.5425011  54.2802149 115.8514045  52.6306256  54.7138877
 114.8013257  53.9916188  47.1121624 115.3714614  54.4203456  46.4739108
 115.3921369  53.7098773  47.8105809 116.8458062  50.5667859  40.9831426
 117.5482105  51.0188902  41.4505352 116.5138690  49.9251678  41.6111319
 115.2938423  49.1579615  55.3582635 114.6637084  49.8395896  55.5918032
 115.1874511  49.0462697  54.4135773 110.5883396  48.8251411  46.2848559
 109.7982450  49.0808940  45.8088670 111.0794643  49.6399749  46.3900600
 112.5398141  49.1895991  43.2432036 111.7429304  49.3014685  43.7615532
 112.3123733  49.5282643  42.3772926 108.8721099  49.0781902  48.7163550
 109.1229137  49.9628912  48.9821126 109.4080647  48.8986503  47.9438642
 114.5719166  43.4600381  57.7207886 114.1786112  42.9066580  58.3955530
 115.3885306  43.7710960  58.1114404 111.5381224  54.8984239  41.6321456
 112.0505744  55.6927490  41.7827021 112.1903937  54.2010530  41.5655057
 113.3476109  58.0149996  43.7144209 113.5242737  58.9367960  43.5265193
 114.1432942  57.7008415  44.1438589 117.4887127  44.8758260  55.3128143
 118.2296840  45.4765414  55.2332605 117.7205050  44.1335898  54.7546185
 112.6328465  50.0614628  53.5906372 112.5181980  49.1599885  53.8913471
 111.7772983  50.3078324  53.2391189 114.4707424  59.5328170  49.7154551
 115.0214849  59.4045233  48.9431545 113.6318900  59.8323059  49.3649444
 109.5030141  53.2272894  42.4081026 110.3405363  53.6369902  42.1914734
 109.6808408  52.2872336  42.3781220 116.7583716  43.3582748  46.5607839
 117.6236713  43.1625557  46.2013729 116.8261225  43.1293100  47.4877196
 114.3646035  45.5884956  43.9324206 114.9389787  45.3660138  43.1997399
 114.9517018  45.6573651  44.6852807 114.6915623  47.6189417  37.9520091
 113.8552935  47.9564104  38.2729366 114.5520392  47.4838397  37.0147228
 116.6668703  42.4626205  42.6599276 116.0133115  42.1475222  42.0355890
 116.6249177  41.8401945  43.3859098 109.5256312  50.5663609  43.0791760
 109.3280712  49.9732970  42.3542826 108.9702976  50.2615819  43.7967699
 117.5053035  50.4586716  45.1986353 117.5601645  49.5060552  45.1228830
 116.6944237  50.6146155  45.6827651 115.4445395  49.0763775  42.9576732
 114.6313261  49.3757946  43.3641924 115.9404390  48.6819464  43.6751214
 114.9359470  46.6482131  48.5737967 115.5758849  46.5070890  47.8760930
 114.1037001  46.3616644  48.1976569 115.7119774  55.9484561  44.6872959
 116.5060373  55.4534881  44.4855534 115.0011466  55.4202424  44.3240665
 112.0202537  50.0927643  40.7632712 111.0900126  50.0312098  40.9802674
 112.1160009  49.5703596  39.9669353 111.9388087  46.6182456  43.3510954
 112.1994904  47.5327789  43.2420114 112.7605259  46.1506898  43.5007566
 113.4113012  48.0320213  50.5209778 114.0836065  47.8237575  49.8722427
 112.5842798  47.8342299  50.0815010 113.8140509  51.3062816  51.2812215
 113.6760307  50.5743055  51.8823754 114.7245433  51.2171716  50.9996403
 116.4422810  51.0182775  50.7695895 117.1522428  50.3775967  50.7282513
 116.3992118  51.2695670  51.6922076 115.1551744  48.0047993  52.5891534
 114.6189101  47.5538732  53.2413131 114.5668452  48.1393902  51.8461999
 113.4500287  64.7712042  46.4836193 113.6896886  65.4030567  47.1615212
 112.6069484  64.4200083  46.7701552 114.5654003  47.4636645  35.1517998
 113.6883469  47.3425445  34.7880245 115.0411756  46.6722723  34.8996887
 106.0856143  52.2513804  45.2459505 106.7727183  51.9375534  44.6580521
 105.9304272  53.1555169  44.9726757 110.8890865  47.1404001  49.6744529
 110.8049054  46.5329670  48.9394939 110.0673571  47.6313019  49.6754025
 117.9628149  60.5791165  48.8877697 117.8898321  61.3846136  49.3997002
 117.5205542  60.7783131  48.0625718 117.6449548  47.7674947  44.7686409
 117.2747335  47.2145988  45.4567314 118.1408640  47.1633081  44.2161409
 115.4738746  58.2272442  51.8641427 116.1748206  58.8608925  52.0170821
 115.0033861  58.5687174  51.1037066 111.0706464  57.7608797  48.7972529
 111.6559901  57.0152485  48.9300433 110.8731303  58.0712754  49.6809193
 113.9245119  60.7960045  43.8134972 113.2555495  61.2806172  43.3299012
 113.7857989  61.0429265  44.7278350 105.6624119  50.3314398  47.5176972
 105.7008219  49.7977988  48.3114091 105.1564412  49.8049603  46.8987950
 113.0414881  45.1778938  51.0139515 113.1056208  46.0393769  50.6016912
 112.9782002  44.5652940  50.2811873 112.5167154  47.2502071  54.6612549
 113.1439193  46.8679148  55.2750073 111.6595073  47.0316273  55.0268241
 109.2932697  49.0578500  40.5930904 109.5886138  48.1489178  40.5397957
 108.3920732  49.0366239  40.2711906 112.8226944  47.1334496  46.5758452
 112.1013529  47.7470464  46.4365926 113.6120199  47.6692261  46.4975098
 115.6253257  44.4688923  52.8499104 116.1487659  44.7151219  53.6125413
 115.4065590  45.3008958  52.4302241 111.0220538  46.7392597  40.7170229
 110.6933244  45.8589976  40.5345335 111.3759909  46.6840266  41.6046618
 114.1362361  47.0265567  41.0845707 114.4758434  47.5551489  40.3624315
 114.5834482  47.3645973  41.8604273 116.8305802  45.4102618  50.5348775
 116.4902623  44.6110431  50.9369455 116.1244808  45.7104329  49.9625608
 116.1230508  45.5240189  39.2838999 116.8438871  45.9021442  38.7802716
 115.4995813  46.2429066  39.3873977 115.0060853  49.1871051  46.7968076
 114.8605433  49.5011354  47.6892358 114.5286056  49.8055951  46.2438975
 116.8657236  46.1773599  46.8448966 116.8518804  45.2814692  46.5081264
 117.5829664  46.1844263  47.4787252 109.4806515  51.7276395  49.7355738
 108.9359983  52.5036203  49.8676012 110.3585865  52.0747200  49.5774859
 116.2694132  45.0587979  42.1136536 116.3910043  44.1304626  42.3127424
 115.9796174  45.0726665  41.2014851 110.2672537  50.8546292  52.6285894
 109.5254273  51.0028927  53.2150525 109.9465281  51.1154557  51.7652644
 110.7129150  58.7411720  44.6596289 111.5387170  58.4415492  44.2794933
 110.3623202  57.9719343  45.1086078 115.6810684  58.0938189  46.7293963
 115.0590693  57.4308894  46.4296190 116.3515550  58.1199321  46.0467610
 108.9137755  56.6598047  45.6185223 108.0769664  56.2320221  45.4369224
 108.8861401  56.8530490  46.5556014 115.7535211  46.5719977  56.3226469
 115.8023367  47.4482100  55.9404238 116.2957725  46.0297370  55.7498112
 115.2424190  56.6442112  40.2052423 115.3912311  57.3277576  39.5519096
 116.0490634  56.6247202  40.7201879 117.9834500  47.3251349  53.0772827
 117.1137809  47.6184915  52.8055416 118.2193980  47.9091794  53.7980091
 112.9976823  52.6707290  41.2113492 112.7522865  51.7669620  41.4093702
 113.1672738  52.6724440  40.2692970 112.2672471  48.4035647  38.7099654
 111.5741716  48.4780002  38.0539689 112.0224223  47.6395991  39.2321170
 117.3109312  48.4001032  34.9535108 116.4040767  48.1034144  35.0297822
 117.5885293  48.1030850  34.0869395 108.2287252  49.7207395  45.4034155
 107.9090036  48.8672703  45.1108529 107.6820680  49.9355973  46.1592122
 112.0067160  52.4369836  49.1203661 112.2253169  53.3686944  49.1391695
 112.4192933  52.0777810  49.9058465 116.8795025  48.0103042  58.5106410
 116.7791752  48.9597399  58.4418501 116.6616567  47.6821281  57.6382480
 116.0808096  45.2587967  35.0947087 116.9427260  45.5842865  35.3542905
 116.2658440  44.4719463  34.5820153 108.0975512  53.3410307  47.3727276
 107.4038983  52.9264259  46.8597231 108.8448503  53.3830843  46.7760695
 116.7426295  51.4400181  57.3271472 116.2593377  52.2400541  57.5335361
 116.8287234  51.4508125  56.3738916 110.0112255  53.2728560  45.2493291
 109.9882943  53.3716248  44.2975174 110.3212891  54.1193711  45.5710457
 112.6699632  55.3304715  49.3639906 113.6242886  55.2988658  49.2969837
 112.4712156  54.8695339  50.1790131 113.2599015  53.9005831  51.9310703
 114.0791904  54.3949910  51.9545541 113.5335822  52.9837800  51.9028271
 111.0249861  60.8724335  46.3810103 110.8904329  60.1124736  45.8148101
 110.6081924  61.5965235  45.9138892 114.1818987  61.7693652  46.5928546
 114.0651371  62.7139084  46.4907236 113.3611433  61.4667213  46.9814345
 108.5133929  48.2343965  52.6302900 109.1592792  47.7242919  53.1190125
 108.3051080  48.9712647  53.2046326 117.0337539  42.4984010  38.3826796
 117.0216209  43.4425850  38.5395067 117.9260961  42.3154155  38.0886258
 115.2073501  62.4221914  49.8084475 116.1100748  62.4545524  50.1250969
 114.9810871  61.4922365  49.8230810 116.9627103  61.1752900  46.4694553
 116.0122734  61.1754762  46.3558925 117.2659589  60.4285635  45.9530588
 112.8531420  45.3811582  56.7277915 113.7162881  45.0248387  56.9381239
 112.2796830  45.0425477  57.4153319 116.9249897  67.5805722  45.2459505
 117.6120937  67.2667452  44.6580521 116.7698026  68.4847087  44.9726757
 116.5017873  65.6606315  47.5176972 116.5401973  65.1269906  48.3114091
 115.9958166  65.1341521  46.8987950  91.7712780  11.1190330  33.2081500
  92.0109378  11.7508854  33.8860518  90.9281976  10.7678370  33.4946859
 103.6868811  15.1654630  30.1844038 103.1233676  15.0744567  29.4160326
 103.5721206  14.3454535  30.6646530 101.2333243  16.6605822  33.0228258
 102.0254535  16.3196647  32.6074558 101.4729893  16.7700797  33.9430412
 103.1923997  15.9214735  25.8945637 103.9654873  15.3743722  25.7558513
 103.5449396  16.7858985  26.1060098 105.0309039  17.2491118  39.1012536
 104.7398905  18.1536748  38.9859203 105.6666024  17.2907645  39.8156606
 105.9565246  14.6267966  35.6913896 106.5528819  14.4023988  34.9770859
 106.0140218  13.8852712  36.2939344 109.9898925  16.9352533  36.0962330
 109.6899648  17.8377572  35.9878137 109.6449984  16.6684716  36.9483483
 103.4411406  13.3866330  32.1299034 102.5161902  13.2542544  32.3376726
 103.6895819  14.1660549  32.6268977 100.8020217  13.0299603  32.9642824
 100.9312598  13.2834082  33.8782235 100.1217668  13.6227311  32.6447479
 104.9719704  23.6996853  29.0633298 104.8943734  24.6504678  29.1421778
 104.3681348  23.3542726  29.7208224 105.7183306  13.6810172  41.2812632
 106.4597991  14.2195216  41.0047455 105.0120292  14.3076461  41.4384183
 111.5167461  16.3840503  33.6337082 110.8876323  16.5486217  32.9313150
 111.1293123  16.7982113  34.4048046 107.0695423  16.1214911  30.8987167
 107.5333768  16.4002614  30.1091790 106.8052221  15.2198356  30.7160258
 103.9619504  15.6686393  33.8366930 104.5320861  16.0973661  33.1984415
 104.5527615  15.3868978  34.5351116 113.7653452  17.8426856  35.7599147
 114.5870896  17.4407043  35.4781828 113.7615855  17.7395090  36.7115262
 107.5310056  17.3910899  37.9159857 107.5954488  17.8531306  38.7518029
 106.8220979  16.7608264  38.0442167 107.2458073  19.0579006  27.7838837
 107.1103748  19.9030542  28.2123685 107.7867886  19.2598284  27.0204771
 100.6987471  16.5754444  28.3566763 101.2111991  17.3697695  28.5072327
 101.3510183  15.8780735  28.2900364 102.5082355  19.6920201  30.4389516
 102.6848984  20.6138165  30.2510500 103.3039189  19.3778620  30.8683896
 108.8726550  19.6802573  41.9139180 108.4290404  18.8938951  41.5960084
 109.5343763  19.8681723  41.2483070 103.6313671  21.2098374  36.4399858
 104.1821096  21.0815438  35.6676852 102.7925147  21.5093263  36.0894751
 110.9707788  19.9605373  39.9420581 110.9526263  20.7814254  39.4500850
 111.8927708  19.8359448  40.1670722 107.4280842  17.4749502  40.7844089
 107.9609179  16.7137790  40.5543397 106.8994923  17.1823154  41.5268244
  98.6636387  14.9043099  29.1326333  99.5011609  15.3140107  28.9160041
  98.8414655  13.9642541  29.1026527 111.7926595  19.9711386  30.5262850
 112.0849569  20.5316443  29.8075216 112.3025215  20.2639947  31.2816009
  98.6862559  12.2433814  29.8037067  98.4886958  11.6503175  29.0788133
  98.1309223  11.9386024  30.5213005 106.7560220  20.7491737  31.6156303
 106.7136399  20.9752583  30.6864835 107.6722919  20.5155112  31.7642104
 104.8726021  17.6254766  31.4118266 105.6666619  17.1305086  31.2100841
 104.1617713  17.0972629  31.0485972 109.6920865  20.0072862  35.7630634
 109.7457888  20.5763798  36.5308349 108.8235647  20.1774747  35.3984671
 111.8823629  16.6001211  42.3371299 111.7309135  16.3711763  41.4201383
 111.8728308  17.5571812  42.3502644 107.4497297  18.1983788  35.0916103
 107.3108382  17.8302573  35.9642041 106.6611893  18.7131428  34.9200061
 108.0445449  23.2992885  26.4341640 108.2197204  22.8280928  27.2487262
 107.3578237  23.9258651  26.6622900 109.0002512  17.5765391  32.4804941
 108.6652345  17.5366161  33.3762591 108.5006458  16.9110107  32.0075351
 113.5915835  19.6320334  40.4147781 113.5328381  18.9479554  39.7478364
 113.9935354  20.3739324  39.9628407 102.6106534  26.4482247  33.2081500
 102.8503132  27.0800772  33.8860518 101.7675731  26.0970287  33.4946859
 113.5933243  17.5959918  38.6461761 112.7060021  17.2585839  38.7688159
 114.1631794  16.8642949  38.8830526  95.2462390  13.9284009  31.9704812
  95.9333429  13.6145739  31.3825827  95.0910518  14.8325374  31.6972063
 107.1234396  22.2561370  35.6123004 107.0504567  23.0616341  36.1242308
 106.6811789  22.4553336  34.7871025 106.9124176  21.4933140  29.1225825
 106.1291697  22.0354820  29.2164050 107.6116921  22.0107120  29.5220066
 109.5833079  22.1548204  37.7681162 110.2961052  22.7895669  37.6957064
 109.0923108  22.2512070  36.9521164 104.6344993  19.9042647  38.5886733
 105.3354452  20.5379130  38.7416127 104.1640108  20.2457379  37.8282372
 109.3953453  22.4946948  30.5167454 109.5775847  21.6768604  30.9795206
 110.2186439  22.7114640  30.0792344 109.7295618  21.4215133  27.7782502
 110.2583385  20.9107588  27.1652664 109.9923838  21.1057663  28.6428035
 100.2312711  19.4379002  35.5217836 100.8166148  18.6922690  35.6545740
 100.0337549  19.7482959  36.4054500 103.0851366  22.4730250  30.5380278
 102.4161742  22.9576377  30.0544318 102.9464236  22.7199470  31.4523657
  94.8230366  12.0084603  34.2422279  94.8614465  11.4748193  35.0359397
  94.3170659  11.4819808  33.6233256 107.2256635  24.5073993  37.1362937
 107.7774943  24.6705615  37.9012022 107.5662828  25.0978431  36.4642961
 112.0767509  19.3335251  42.9911591 112.6207413  19.9465209  42.4966546
 111.4954354  19.8914829  43.5078604 110.3625022  22.4555969  34.1226619
 110.2376162  21.6545709  33.6137564 111.0204113  22.9502162  33.6340589
 112.4259930  20.2564989  35.7506169 111.4790266  20.1370340  35.6784496
 112.7742704  19.3687487  35.8332430 109.4306364  20.0517705  31.9510521
 109.2831326  19.1234413  32.1318091 110.2559857  20.0737796  31.4667596
 113.0340486  20.8746264  33.0375394 113.9587033  20.6689125  32.8999845
 112.8655789  20.6262665  33.9464735  98.6412762  13.4046600  36.4601044
  98.0966230  14.1806408  36.5921318  99.5192112  13.7517405  36.3020166
  99.4278784  12.5316497  39.3531201  98.6860520  12.6799132  39.9395831
  99.1071528  12.7924762  38.4897950 107.3722446  22.0732475  39.1511591
 107.6809573  21.8281622  40.0234291 108.1697928  22.2779113  38.6630461
 107.3943058  24.2270385  31.3816968 106.9548049  23.7346763  32.0749824
 108.1451175  23.6843352  31.1409043  99.8735397  20.4181925  31.3841596
 100.6993417  20.1185697  31.0040239  99.5229449  19.6489548  31.8331384
 104.8416930  19.7708394  33.4539269 104.2196940  19.1079099  33.1541497
 105.5121797  19.7969526  32.7712917  98.0744002  18.3368252  32.3430529
  97.2375911  17.9090426  32.1614530  98.0467648  18.5300695  33.2801320
 115.3996304  18.7931305  42.3272912 114.6091847  18.7755444  41.7877412
 115.1629658  19.3319599  43.0821949 104.4030437  18.3212317  26.9297730
 104.5518558  19.0047781  26.2764403 105.2096881  18.3017407  27.4447186
 117.0212375  18.0620713  39.8847662 116.7297184  18.4250693  40.7211123
 116.4084507  17.3487721  39.7060994 102.1583070  14.3477495  27.9358799
 101.9129112  13.4439825  28.1339009 102.3278985  14.3494645  26.9938277
 108.1711334  16.2039006  43.2026187 109.0914343  16.3817605  43.3966233
 108.1360917  15.2595052  43.0505886  97.3893499  11.3977600  32.1279461
  97.0696283  10.5442908  31.8353835  96.8426927  11.6126178  32.8837429
 101.1673406  14.1140041  35.8448968 101.3859416  15.0457149  35.8637002
 101.5799180  13.7548015  36.6303772  97.2581759  15.0180511  34.0972583
  96.5645230  14.6034464  33.5842537  98.0054750  15.0601048  33.5006002
  99.1718501  14.9498765  31.9738598  99.1489189  15.0486452  31.0220481
  99.4819138  15.7963916  32.2955764 101.8305879  17.0074920  36.0885212
 102.7849133  16.9758863  36.0215144 101.6318403  16.5465544  36.9035438
 102.4205261  15.5776036  38.6556010 103.2398150  16.0720115  38.6790847
 102.6942069  14.6608004  38.6273577 100.1856108  22.5494540  33.1055410
 100.0510576  21.7894941  32.5393408  99.7688170  23.2735440  32.6384199
 103.3425234  23.4463857  33.3173853 103.2257618  24.3909289  33.2152543
 102.5217680  23.1437418  33.7059652 110.1993568  16.9795018  44.8540347
 111.0684727  17.1535670  44.4926982 109.7200319  17.7989434  44.7316077
 104.3679748  24.0992119  36.5329781 105.2706995  24.1315729  36.8496276
 104.1417118  23.1692570  36.5476117 106.1233350  22.8523105  33.1939860
 105.1728981  22.8524967  33.0804232 106.4265836  22.1055840  32.6775894
 114.5262565  30.4946548  30.1844038 113.9627431  30.4036485  29.4160326
 114.4114961  29.6746453  30.6646530 112.0726997  31.9897740  33.0228258
 112.8648289  31.6488564  32.6074558 112.3123648  32.0992715  33.9430412
 114.0317751  31.2506653  25.8945637 114.8048627  30.7035640  25.7558513
 114.3843150  32.1150902  26.1060098 115.8702794  32.5783035  39.1012536
 115.5792660  33.4828666  38.9859203 116.5059778  32.6199563  39.8156606
 116.7959001  29.9559884  35.6913896 117.3922573  29.7315906  34.9770859
 116.8533972  29.2144629  36.2939344 114.2805160  28.7158248  32.1299034
 113.3555657  28.5834462  32.3376726 114.5289574  29.4952467  32.6268977
 111.6413972  28.3591521  32.9642824 111.7706353  28.6126000  33.8782235
 110.9611423  28.9519229  32.6447479 115.8113459  39.0288771  29.0633298
 115.7337489  39.9796596  29.1421778 115.2075102  38.6834644  29.7208224
 116.5577061  29.0102090  41.2812632 117.2991745  29.5487134  41.0047455
 115.8514046  29.6368379  41.4384183 114.8013258  30.9978311  33.8366930
 115.3714615  31.4265579  33.1984415 115.3921370  30.7160895  34.5351116
 115.2938425  26.1641738  42.0827942 114.6637085  26.8458019  42.3163338
 115.1874513  26.0524820  41.1381080 110.5883397  25.8313534  33.0093866
 109.7982451  26.0871063  32.5333976 111.0794644  26.6461872  33.1145906
 112.5398142  26.1958113  29.9677343 111.7429306  26.3076808  30.4860838
 112.3123735  26.5344766  29.1018233 108.8721100  26.0844025  35.4408857
 109.1229138  26.9691034  35.7066433 109.4080648  25.9048626  34.6683948
 114.5719167  20.4662504  44.4453193 114.1786113  19.9128702  45.1200837
 115.3885308  20.7773082  44.8359710 111.5381225  31.9046362  28.3566763
 112.0505746  32.6989612  28.5072327 112.1903938  31.2072653  28.2900364
 113.3476110  35.0212118  30.4389516 113.5242738  35.9430083  30.2510500
 114.1432943  34.7070538  30.8683896 117.4887128  21.8820383  42.0373449
 118.2296842  22.4827536  41.9577912 117.7205051  21.1398021  41.4791492
 112.6328466  27.0676750  40.3151679 112.5181982  26.1662007  40.6158778
 111.7772984  27.3140447  39.9636495 114.4707425  36.5390292  36.4399858
 115.0214850  36.4107356  35.6676852 113.6318901  36.8385181  36.0894751
 109.5030142  30.2335016  29.1326333 110.3405364  30.6432025  28.9160041
 109.6808410  29.2934459  29.1026527 109.5256313  27.5725732  29.8037067
 109.3280713  26.9795092  29.0788133 108.9702977  27.2677942  30.5213005
 117.5053037  27.4648838  31.9231660 117.5601646  26.5122675  31.8474136
 116.6944239  27.6208277  32.4072958 115.4445397  26.0825898  29.6822039
 114.6313262  26.3820068  30.0887231 115.9404391  25.6881587  30.3996521
 114.9359471  23.6544253  35.2983274 115.5758851  23.5133013  34.6006237
 114.1037002  23.3678767  34.9221875 115.7119775  32.9546684  31.4118266
 116.5060374  32.4597004  31.2100841 115.0011468  32.4264547  31.0485972
 112.0202539  27.0989766  27.4878019 111.0900127  27.0374221  27.7047981
 112.1160011  26.5765718  26.6914660 111.9388088  23.6244578  30.0756260
 112.1994905  24.5389912  29.9665421 112.7605260  23.1569021  30.2252873
 113.4113013  25.0382336  37.2455085 114.0836067  24.8299698  36.5967734
 112.5842800  24.8404422  36.8060317 113.8140510  28.3124939  38.0057522
 113.6760308  27.5805177  38.6069061 114.7245434  28.2233839  37.7241710
 116.4422811  28.0244898  37.4941202 117.1522430  27.3838090  37.4527820
 116.3992119  28.2757793  38.4167382 115.1551745  25.0110116  39.3136841
 114.6189102  24.5600854  39.9658437 114.5668453  25.1456025  38.5707305
 113.4500289  41.7774165  33.2081500 113.6896887  42.4092689  33.8860518
 112.6069485  41.4262205  33.4946859 106.0856144  29.2575927  31.9704812
 106.7727184  28.9437657  31.3825827 105.9304273  30.1617292  31.6972063
 110.8890866  24.1466123  36.3989836 110.8049055  23.5391793  35.6640246
 110.0673573  24.6375142  36.3999332 117.9628150  37.5853288  35.6123004
 117.8898322  38.3908259  36.1242308 117.5205544  37.7845253  34.7871025
 115.4738747  35.2334565  38.5886733 116.1748207  35.8671048  38.7416127
 115.0033862  35.5749297  37.8282372 111.0706466  34.7670920  35.5217836
 111.6559902  34.0214608  35.6545740 110.8731304  35.0774877  36.4054500
 113.9245121  37.8022167  30.5380278 113.2555496  38.2868295  30.0544318
 113.7857990  38.0491388  31.4523657 105.6624120  27.3376520  34.2422279
 105.7008220  26.8040111  35.0359397 105.1564413  26.8111726  33.6233256
 113.0414883  22.1841061  37.7384821 113.1056209  23.0455892  37.3262219
 112.9782003  21.5715062  37.0057180 112.5167155  24.2564193  41.3857856
 113.1439194  23.8741271  41.9995380 111.6595074  24.0378395  41.7513548
 109.2932698  26.0640622  27.3176210 109.5886139  25.1551301  27.2643264
 108.3920734  26.0428362  26.9957213 112.8226945  24.1396619  33.3003759
 112.1013531  24.7532587  33.1611232 113.6120201  24.6754384  33.2220405
 115.6253258  21.4751046  39.5744411 116.1487660  21.7213342  40.3370720
 115.4065592  22.3071080  39.1547548 111.0220539  23.7454720  27.4415536
 110.6933246  22.8652099  27.2590642 111.3759910  23.6902389  28.3291925
 116.8305803  22.4164741  37.2594081 116.4902624  21.6172554  37.6614761
 116.1244810  22.7166451  36.6870915 115.0060854  26.1933174  33.5213383
 114.8605435  26.5073477  34.4137664 114.5286058  26.8118074  32.9684282
 116.8657237  23.1835722  33.5694273 116.8518806  22.2876815  33.2326570
 117.5829665  23.1906385  34.2032559 109.4806516  28.7338518  36.4601044
 108.9359984  29.5098326  36.5921318 110.3585866  29.0809323  36.3020166
 110.2672538  27.8608414  39.3531201 109.5254274  28.0091050  39.9395831
 109.9465282  28.1216680  38.4897950 110.7129152  35.7473843  31.3841596
 111.5387172  35.4477615  31.0040239 110.3623204  34.9781465  31.8331384
 115.6810685  35.1000311  33.4539269 115.0590694  34.4371016  33.1541497
 116.3515552  35.1261443  32.7712917 108.9137757  33.6660170  32.3430529
 108.0769665  33.2382344  32.1614530 108.8861402  33.8592613  33.2801320
 115.7535212  23.5782099  43.0471775 115.8023368  24.4544222  42.6649545
 116.2957727  23.0359492  42.4743418 115.2424192  33.6504235  26.9297730
 115.3912312  34.3339699  26.2764403 116.0490635  33.6309325  27.4447186
 117.9834501  24.3313472  39.8018134 117.1137810  24.6247038  39.5300722
 118.2193981  24.9153917  40.5225398 112.9976825  29.6769412  27.9358799
 112.7522867  28.7731742  28.1339009 113.1672739  29.6786563  26.9938277
 108.2287253  26.7269518  32.1279461 107.9090038  25.8734826  31.8353835
 107.6820682  26.9418096  32.8837429 112.0067161  29.4431959  35.8448968
 112.2253171  30.3749066  35.8637002 112.4192935  29.0839933  36.6303772
 116.8795026  25.0165164  45.2351717 116.7791753  25.9659521  45.1663808
 116.6616568  24.6883403  44.3627787 108.0975513  30.3472429  34.0972583
 107.4038985  29.9326382  33.5842537 108.8448504  30.3892966  33.5006002
 116.7426296  28.4462303  44.0516778 116.2593378  29.2462663  44.2580667
 116.8287235  28.4570248  43.0984222 110.0112256  30.2790683  31.9738598
 109.9882944  30.3778370  31.0220481 110.3212892  31.1255834  32.2955764
 112.6699634  32.3366838  36.0885212 113.6242887  32.3050780  36.0215144
 112.4712157  31.8757462  36.9035438 113.2599016  30.9067954  38.6556010
 114.0791905  31.4012033  38.6790847 113.5335824  29.9899922  38.6273577
 111.0249863  37.8786457  33.1055410 110.8904330  37.1186858  32.5393408
 110.6081925  38.6027357  32.6384199 114.1818988  38.7755774  33.3173853
 114.0651373  39.7201207  33.2152543 113.3611435  38.4729336  33.7059652
 108.5133930  25.2406088  39.3548207 109.1592794  24.7305042  39.8435432
 108.3051081  25.9774769  39.9291632 115.2073503  39.4284036  36.5329781
 116.1100749  39.4607647  36.8496276 114.9810873  38.4984487  36.5476117
 116.9627105  38.1815023  33.1939860 116.0122736  38.1816884  33.0804232
 117.2659591  37.4347757  32.6775894 112.8531421  22.3873705  43.4523221
 113.7162883  22.0310510  43.6626546 112.2796832  22.0487600  44.1398625
 116.9249899  44.5867845  31.9704812 117.6120938  44.2729575  31.3825827
 116.7698027  45.4909209  31.6972063 116.5017875  42.6668438  34.2422279
 116.5401974  42.1332029  35.0359397 115.9958168  42.1403643  33.6233256
   1.4516681  53.7897053 103.8722717   0.7778380  54.0928750 104.4807675
   1.8382503  54.5926133 103.5228175   5.3573567  51.0747309 102.1450164
   5.2787198  50.7407172 103.0385922   6.1783234  51.5669076 102.1441636
   2.9277519  48.3915304 101.7660142   3.6313369  48.5965306 102.3817798
   2.2040167  48.9592066 102.0309226   6.1325013  61.1530389 109.8372195
   5.5689878  61.0620326 109.0688483   6.0177408  60.3330293 110.3174687
  11.7124572  64.8201356 105.1486660  11.0612552  65.4055437 104.7620674
  12.5068935  65.3507551 105.2081697   5.6380199  61.9090494 105.5473794
   6.4111075  61.3619481 105.4086670   5.9905598  62.7734743 105.7588256
   7.9746477  58.0683160 103.1792244   8.2271997  57.5464681 102.4175707
   7.0371036  57.9049305 103.2818928  13.0189760  57.0718938 110.9866987
  13.8052849  56.6538361 110.6357404  13.2828464  57.9765030 111.1548636
  13.1899837  62.5091788 105.6855644  12.5545670  62.5826415 106.3976549
  12.8597243  63.0985387 105.0074723  18.4198187  57.0094171 111.8899966
  19.1523359  56.4393388 112.1237795  17.6637542  56.6215772 112.3306471
   7.6942765  59.9711266 105.3816619   7.5779024  59.2956169 106.0497703
   7.8045025  59.4843640 104.5648772  10.0374306  59.4321413 109.0863308
   9.6732514  58.9052034 109.7976230  10.8941422  59.0419882 108.9129794
   9.6779793  54.4611313 104.0824657   9.8454196  55.3291549 104.4495128
   9.4876962  54.6238594 103.1585946   9.6569014  56.9168970 105.0671324
   9.5368639  57.3626021 105.9056804   8.9621603  57.2654288 104.5084862
  15.3554080  57.3890443 105.8951658  16.2671937  57.6217830 105.7199355
  14.8463728  57.9727487 105.3326736  13.9623663  62.3716262 113.2865239
  13.3332525  62.5361976 112.5841307  13.5749325  62.7857871 114.0576203
  17.8412895  63.3070700 110.6409603  17.1563933  63.6869601 110.0906636
  17.9256744  63.9166026 111.3741551   9.5151625  62.1090670 110.5515324
   9.9789970  62.3878373 109.7619947   9.2508423  61.2074114 110.3688415
   8.4520511  58.2313822 107.3604889   9.1544554  58.6834866 107.8278816
   8.1201139  57.5897641 107.9884782  16.2109654  63.8302614 115.4127304
  17.0327098  63.4282801 115.1309985  16.2072057  63.7270848 116.3643420
  24.3015647  60.1741362 111.7612275  23.5479356  59.6048760 111.6056280
  24.4363188  60.1404027 112.7082910   9.6914275  65.0454765 107.4366995
   9.5559950  65.8906300 107.8651842  10.2324088  65.2474042 106.6732928
  13.0057022  58.5593938 104.4738323  12.4903645  59.3298542 104.7126711
  12.7334330  57.8859074 105.0971385  17.9791296  61.3126292 106.4091497
  17.2020738  60.9737452 105.9646659  18.6582777  61.3178916 105.7346462
  12.7943325  56.4321030 106.2998104  12.4893460  56.7467179 107.1508248
  13.7473767  56.5102450 106.3425437  11.2389757  62.5911253 107.9491058
  10.7111118  61.8564013 107.6364296  10.7377259  63.3685929 107.7031027
  16.2182603  60.7860274 113.0658105  15.5606277  61.4759535 113.1538233
  17.0223002  61.1756706 113.4092091  15.0288061  59.1404646 111.1162046
  15.5419943  59.7734638 111.6183756  15.6789285  58.5405842 110.7505406
   6.2978071  55.2835380 104.3293555   5.4615384  55.6210067 104.6502830
   6.1582841  55.1484360 103.3920692   9.3842357  60.4091463 100.9526031
   8.4769419  60.1780717 101.1517180   9.8813389  59.6129083 101.1400013
  12.2910436  69.1188971 103.8722717  11.6172134  69.4220667 104.4807675
  12.6776258  69.9218051 103.5228175  12.2903940  58.0145518 108.4923067
  13.0375759  58.5266915 108.1830189  12.5595530  57.6929570 109.3527461
  10.5630590  60.5104058 105.4750021   9.6541809  60.2263091 105.5722491
  10.5925674  60.9303137 104.6153328  15.7949858  64.1210648 109.2441189
  15.3412185  63.2801558 109.3006379  15.1643824  64.7572046 109.5815969
  14.2382797  65.9587144 110.1791007  14.5305771  66.5192202 109.4603373
  14.7481417  66.2515705 110.9344166  10.2606678  62.0512802 102.8138100
   9.8226108  61.3348661 102.3543737  11.0017119  62.2788917 102.2523191
  18.3779793  60.3269999 108.8714419  18.2397691  60.5171595 107.9435608
  18.0216012  61.0889382 109.3282470  18.4049172  62.3946526 113.8825690
  18.8385679  62.3021815 114.7308744  19.1180753  62.3704026 113.2445706
   3.6264986  57.7573606 107.1406176   2.6962574  57.6958062 107.3576138
   3.7222458  57.2349559 106.3442817  10.4901651  69.2868643 106.0869797
  10.6653407  68.8156686 106.9015419   9.8034439  69.9134409 106.3151057
  11.4458714  63.5641149 112.1333098  11.1108547  63.5241919 113.0290748
  10.9462660  62.8985865 111.6603508  14.3817906  60.9097184 102.4070158
  13.7647076  60.1844012 102.3103210  13.9134394  61.6706544 102.0637232
   6.1716452  55.1282608 101.5291462   5.2945918  55.0071409 101.1653709
   6.6474205  54.3368686 101.2770351   9.3580378  67.4808898 108.7753982
   8.5747899  68.0230578 108.8692207  10.0573123  67.9982878 109.1748224
  20.5206785  58.9943893 113.0606479  20.5096661  59.8768609 112.6900412
  19.6524165  58.6415444 112.8661016  13.7506808  62.0475215 108.9926611
  12.8163087  62.1676677 108.8231315  13.9283477  61.1447682 108.7286621
  17.1379360  57.8892534 109.5276645  17.6039812  58.7220526 109.4536948
  17.5886860  57.4237516 110.2321904  15.2055591  64.2336355 106.5262797
  15.4815435  64.1192950 107.4356671  14.3360090  63.8353840 106.4874970
  11.8409655  68.4822706 110.1695611  12.0232049  67.6644362 110.6323363
  12.6642641  68.6990399 109.7320501  12.1751820  67.4090891 107.4310659
  12.7039587  66.8983346 106.8180822  12.4380040  67.0933422 108.2956192
  11.8762566  66.0393463 111.6038678  11.7287528  65.1110171 111.7846248
  12.7016059  66.0613554 111.1195753  15.4796688  66.8622022 112.6903551
  16.4043235  66.6564884 112.5528002  15.3111991  66.6138423 113.5992892
   7.7292957  53.1886152 105.6612463   8.4501320  53.5667405 105.1576180
   7.1058261  53.9075029 105.7647441  11.8724080  53.8931301 106.5970795
  12.0887695  54.7755939 106.2959624  11.3918147  53.5017515 105.8676437
  15.2692004  67.3807690 108.0465642  15.4428881  66.8154112 107.2939495
  15.7620895  68.1808585 107.8645132  21.1231395  60.1444113 109.6655942
  21.5662541  59.3951438 109.2675065  20.2457905  60.1354249 109.2829674
  16.2567176  66.6974454 105.1462541  16.9518081  67.3181147 105.3649855
  16.5990327  65.8469805 105.4214919  18.1558600  64.1474160 106.6749871
  18.6809924  64.4861432 105.9499191  18.0680952  63.2121175 106.4913006
   6.8486639  64.3088075 106.5825887   6.9974760  64.9923540 105.9292560
   7.6553083  64.2893165 107.0975343  20.6664260  61.6149351 112.0578390
  21.5011151  62.0539155 112.2215950  20.8023389  61.1388004 111.2386636
   4.6039272  60.3353253 107.5886956   4.3585314  59.4315583 107.7867166
   4.7735187  60.3370403 106.6466434   3.8734920  56.0681611 105.0873117
   3.1804165  56.1425966 104.4313153   3.6286672  55.3041954 105.6094634
  10.3482045  66.8036206 104.0537634   9.7756012  67.4226393 103.6008106
  10.9214839  67.3535567 104.5877556  13.5679305  67.0873356 105.1846217
  14.5009978  67.0218918 105.3879092  13.4802517  67.9229623 104.7260749
  16.1967321  66.4039226 102.1450164  16.1180953  66.0699090 103.0385922
  17.0176988  66.8960994 102.1441636  10.7328843  58.1397019 101.3953687
  11.6787948  58.0103227 101.4642105  10.3543088  57.4011680 101.8723115
  24.7122062  60.3316972 114.4932520  25.4425451  60.0702261 115.0540223
  24.1029008  59.5945694 114.5334588  22.7937359  58.4724835 115.0906971
  22.0670523  58.3380800 114.4823462  22.3784646  58.7801664 115.8963689
   8.9171760  56.0646995 101.3308572   8.0103216  55.7680108 101.4071286
   9.1947742  55.7676813 100.4642858   7.6870545  52.9233930 101.4720551
   8.5489709  53.2488828 101.7316369   7.8720889  52.1365426 100.9593617
  15.8403182  51.7962457 108.6155774  15.2601851  52.4547261 108.2333827
  15.5739114  50.9739801 108.2043192  14.6228060  53.9562547 107.6712122
  13.7353915  54.2412198 107.4532317  15.0382049  53.7956310 106.8239399
  13.7671273  63.7207222 101.7660142  14.4707123  63.9257224 102.3817798
  13.0433922  64.2883984 102.0309226  14.5969083  59.4717083 107.8862413
  14.5404285  59.9285634 107.0470045  15.1497426  58.7107768 107.7085255
  18.4073889  55.2606815 108.7112532  18.1510824  54.8603450 109.5420740
  17.7826757  55.9750609 108.5862671  22.7186227  58.0002888 111.2183824
  22.1585785  58.0696077 111.9915386  22.1129730  57.8243873 110.4983320
  15.6757970  64.1589751 103.8158603  16.5103574  63.7270949 103.6336077
  15.5142313  63.9871765 104.7435497  15.3303863  60.6621864 105.1814942
  15.2752666  60.4966136 104.2403386  14.7049918  61.3697897 105.3377132
   8.6399988  50.1629973 104.7600260   8.6278658  51.1071813 104.9168531
   9.5323410  49.9800119 104.4659721  24.3042246  74.6759402 113.9113779
  24.9420656  74.5566149 113.2077119  24.1863088  75.6240246 113.9701731
  21.1131952  74.6286830 113.8475304  20.7750463  74.5127895 112.9595839
  21.9821720  74.2277995 113.8276310  16.9718768  76.4822306 109.8372195
  16.4083633  76.3912243 109.0688483  16.8571163  75.6622211 110.3174687
  22.5518326  80.1493274 105.1486660  21.9006306  80.7347355 104.7620674
  23.3462689  80.6799469 105.2081697  16.4773953  77.2382411 105.5473794
  17.2504829  76.6911398 105.4086670  16.8299352  78.1026661 105.7588256
  18.8140231  73.3975077 103.1792244  19.0665752  72.8756599 102.4175707
  17.8764790  73.2341223 103.2818928  23.8583514  72.4010856 110.9866987
  24.6446603  71.9830279 110.6357404  24.1222218  73.3056948 111.1548636
  24.0293591  77.8383706 105.6855644  23.3939424  77.9118333 106.3976549
  23.6990998  78.4277305 105.0074723  29.2591941  72.3386089 111.8899966
  29.9917113  71.7685306 112.1237795  28.5031297  71.9507689 112.3306471
  18.5336520  75.3003183 105.3816619  18.4172778  74.6248087 106.0497703
  18.6438780  74.8135557 104.5648772  20.8768061  74.7613330 109.0863308
  20.5126268  74.2343951 109.7976230  21.7335177  74.3711800 108.9129794
  26.7817362  66.0507663 116.3494574  26.4500686  66.9203074 116.1255789
  26.1862975  65.7343947 117.0288605  20.5173548  69.7903230 104.0824657
  20.6847950  70.6583467 104.4495128  20.3270717  69.9530512 103.1585946
  26.6746025  70.7702749 113.4287924  25.7662902  70.7018158 113.1346685
  26.6233621  71.2474694 114.2569750  20.4962769  72.2460888 105.0671324
  20.3762394  72.6917938 105.9056804  19.8015357  72.5946205 104.5084862
  28.5407671  68.9719188 115.2065798  27.8982052  69.2651721 114.5605593
  28.0362600  68.8572108 116.0118995  26.1947835  72.7182361 105.8951658
  27.1065691  72.9509748 105.7199355  25.6857482  73.3019405 105.3326736
  24.8017417  77.7008179 113.2865239  24.1726280  77.8653893 112.5841307
  24.4143079  78.1149789 114.0576203  28.6806649  78.6362617 110.6409603
  27.9957687  79.0161519 110.0906636  28.7650498  79.2457944 111.3741551
  23.9819118  69.7383964 118.5627681  23.7380050  70.4926024 118.0261957
  24.2579048  70.1169311 119.3974928  25.9357581  76.2822576 117.2404946
  26.1474476  76.9254336 116.5639327  25.8887329  75.4484893 116.7726876
  23.5383810  68.8940397 114.1441519  22.6768289  69.1921650 114.4358256
  23.5646244  69.1110796 113.2122551  20.3545379  77.4382587 110.5515324
  20.8183725  77.7170290 109.7619947  20.0902177  76.5366032 110.3688415
  19.2914265  73.5605740 107.3604889  19.9938309  74.0126783 107.8278816
  18.9594894  72.9189559 107.9884782  27.0503409  79.1594532 115.4127304
  27.8720852  78.7574719 115.1309985  27.0465812  79.0562766 116.3643420
  14.9854345  72.1833872 109.6205500  14.1885508  72.2952566 110.1388995
  14.7579937  72.5220524 108.7546390  35.1409402  75.5033280 111.7612275
  34.3873110  74.9340678 111.6056280  35.2756943  75.4695945 112.7082910
  20.5308030  80.3746682 107.4366995  20.3953705  81.2198218 107.8651842
  21.0717842  80.5765960 106.6732928  23.8800493  63.8977244 115.9665888
  23.5364763  64.7878886 115.8904999  24.2479456  63.7078902 115.1035473
  23.8450776  73.8885855 104.4738323  23.3297400  74.6590460 104.7126711
  23.5728085  73.2150992 105.0971385  21.4297887  68.7335556 109.5323562
  20.5739483  68.3442407 109.3529200  21.8424839  68.8127517 108.6723347
  22.9597034  66.2681899 113.9315121  22.4561829  66.2312035 113.1182927
  23.2527641  67.1774642 113.9911778  19.2039920  66.3520629 112.9381303
  20.0692916  66.1563438 112.5787192  19.2717429  66.1230981 113.8650660
  28.8185050  76.6418210 106.4091497  28.0414493  76.3029370 105.9646659
  29.4976531  76.6470833 105.7346462  23.6337079  71.7612947 106.2998104
  23.3287215  72.0759097 107.1508248  24.5867521  71.8394367 106.3425437
  22.0783511  77.9203171 107.9491058  21.5504873  77.1855930 107.6364296
  21.5771014  78.6977847 107.7031027  27.0576357  76.1152191 113.0658105
  26.4000032  76.8051453 113.1538233  27.8616756  76.5048623 113.4092091
  16.8102239  68.5822837 110.3097670  17.3845991  68.3598019 109.5770863
  17.3973221  68.6511532 111.0626271  25.8681816  74.4696564 111.1162046
  26.3813698  75.1026556 111.6183756  26.5183040  73.8697759 110.7505406
  17.1371826  70.6127298 104.3293555  16.3009138  70.9501985 104.6502830
  16.9976595  70.4776278 103.3920692  19.1124906  65.4564086 109.0372739
  18.4589319  65.1413103 108.4129354  19.0705381  64.8339826 109.7632562
  20.2236111  75.7383381 100.9526031  19.3163173  75.5072635 101.1517180
  20.7207143  74.9421000 101.1400013  23.1304190  84.4480888 103.8722717
  22.4565889  84.7512585 104.4807675  23.5170012  85.2509969 103.5228175
  22.3462647  71.9446020 113.3620387  21.4285208  72.1660967 113.2042075
  22.7622790  72.0192330 112.5032094  23.1297695  73.3437435 108.4923067
  23.8769513  73.8558832 108.1830189  23.3989284  73.0221488 109.3527461
  21.4024345  75.8395976 105.4750021  20.4935564  75.5555009 105.5722491
  21.4319429  76.2595054 104.6153328  26.6343612  79.4502565 109.2441189
  26.1805939  78.6093475 109.3006379  26.0037579  80.0863964 109.5815969
  25.5776532  70.3794551 110.4741856  24.8399288  69.8671938 110.8052099
  25.8303305  69.9394933 109.6625133  25.0776551  81.2879062 110.1791007
  25.3699526  81.8484119 109.4603373  25.5875172  81.5807623 110.9344166
  25.6788159  63.1570803 111.0683626  25.9847036  62.2968167 110.7809541
  26.4040764  63.7488424 110.8682620  19.9509239  73.4524597 111.5759817
  20.0057849  72.4998433 111.5002293  19.1400441  73.6084036 112.0601115
  21.1000433  77.3804720 102.8138100  20.6619862  76.6640579 102.3543737
  21.8410873  77.6080834 102.2523191  17.8901599  72.0701656 109.3350196
  17.0769464  72.3695827 109.7415388  18.3860593  71.6757345 110.0524678
  23.4875810  72.5343481 118.1665090  23.8425198  72.7614954 119.0259555
  24.1347942  72.8661858 117.5442345  29.2173547  75.6561917 108.8714419
  29.0791446  75.8463513 107.9435608  28.8609766  76.4181299 109.3282470
  17.3815673  69.6420012 114.9511431  18.0215053  69.5008771 114.2534394
  16.5493204  69.3554525 114.5750033  29.2442927  77.7238444 113.8825690
  29.6779434  77.6313733 114.7308744  29.9574508  77.6995944 113.2445706
  14.4658741  73.0865524 107.1406176  13.5356329  73.0249979 107.3576138
  14.5616213  72.5641477 106.3442817  14.3844290  69.6120337 109.7284417
  14.6451107  70.5265670 109.6193578  15.2061462  69.1444779 109.8781030
  30.1058476  77.7662144 116.4158575  30.2994367  78.6707955 116.6617850
  30.0059095  77.3069563 117.2497161  21.7594787  67.6520035 118.9148903
  21.1122702  68.3509985 118.8213379  22.5295803  68.0856179 119.2825151
  21.3295405  84.6160561 106.0869797  21.5047161  84.1448604 106.9015419
  20.6428193  85.2426327 106.3151057  22.2852468  78.8933067 112.1333098
  21.9502301  78.8533837 113.0290748  21.7856414  78.2277783 111.6603508
  25.2211660  76.2389101 102.4070158  24.6040831  75.5135929 102.3103210
  24.7528149  76.9998462 102.0637232  17.0110206  70.4574526 101.5291462
  16.1339672  70.3363326 101.1653709  17.4867959  69.6660604 101.2770351
  20.1974132  82.8100816 108.7753982  19.4141654  83.3522496 108.8692207
  20.8966877  83.3274796 109.1748224  23.5070782  68.6195445 111.4188188
  24.0039482  67.8665408 111.0989258  22.7357764  68.6559762 110.8531397
  31.3600540  74.3235811 113.0606479  31.3490416  75.2060526 112.6900412
  30.4917919  73.9707362 112.8661016  24.5900563  77.3767133 108.9926611
  23.6556842  77.4968595 108.8231315  24.7677231  76.4739599 108.7286621
  20.0905751  70.7612828 111.1459872  19.7203538  70.2083869 111.8340778
  20.5864843  70.1570962 110.5934872  27.9773114  73.2184452 109.5276645
  28.4433566  74.0512443 109.4536948  28.4280615  72.7529433 110.2321904
  26.0449345  79.5628273 106.5262797  26.3209189  79.4484868 107.4356671
  25.1753844  79.1645758 106.4874970  25.9489777  65.5865039 113.5667547
  25.0352857  65.8169266 113.7349754  26.3782878  65.6703483 114.4181579
  25.7196235  73.7754931 116.0667441  25.0667686  74.0230838 115.4119893
  26.0976615  72.9619069 115.7329918  22.6803409  83.8114624 110.1695611
  22.8625804  82.9936280 110.6323363  23.5036395  84.0282316 109.7320501
  23.0145575  82.7382809 107.4310659  23.5433341  82.2275264 106.8180822
  23.2773794  82.4225339 108.2956192  11.7388900  72.0516381 106.9704368
  12.0342341  71.1427059 106.9171421  10.8376936  72.0304120 106.6485370
  13.4676741  69.7330478 107.0943693  13.1389448  68.8527857 106.9118799
  13.8216112  69.6778147 107.9820082  22.7156320  81.3685381 111.6038678
  22.5681283  80.4402089 111.7846248  23.5409814  81.3905472 111.1195753
  16.5818565  70.0203448 107.4619170  16.9214637  70.5489370 106.7397779
  17.0290685  70.3583854 108.2377737  26.3190442  82.1913940 112.6903551
  27.2436990  81.9856801 112.5528002  26.1505746  81.9430341 113.5992892
  19.2762005  68.4040499 116.9122238  18.9358826  67.6048312 117.3142918
  18.5701012  68.7042210 116.3399072  19.9278477  65.4889811 115.3649561
  20.7504547  65.0150290 115.2428452  20.1716541  66.2680295 115.8648248
  18.5686712  68.5178070 105.6612463  19.2895074  68.8959323 105.1576180
  17.9452016  69.2366947 105.7647441  22.7117835  69.2223219 106.5970795
  22.9281449  70.1047857 106.2959624  22.2311902  68.8309432 105.8676437
  19.3113439  69.1711480 113.2222430  19.2975008  68.2752573 112.8854728
  20.0285867  69.1782144 113.8560716  21.1639570  69.6048820 115.2675557
  20.9057347  70.5265891 115.2659887  20.6324610  69.2079255 115.9576021
  26.1085758  82.7099607 108.0465642  26.2822636  82.1446030 107.2939495
  26.6014650  83.5100502 107.8645132  18.7150335  68.0525860 108.4910000
  18.8366246  67.1242506 108.6900887  18.4252377  68.0664546 107.5788315
  21.5841525  65.7380771 111.6276720  21.6063222  65.8020104 110.6728699
  22.0009584  64.8985279 111.8217226  31.9625150  75.4736030 109.6655942
  32.4056296  74.7243355 109.2675065  31.0851660  75.4646167 109.2829674
  27.0960931  82.0266372 105.1462541  27.7911836  82.6473064 105.3649855
  27.4384081  81.1761723 105.4214919  28.9952354  79.4766077 106.6749871
  29.5203678  79.8153350 105.9499191  28.9074707  78.5413093 106.4913006
  28.8044135  76.9591447 119.2933798  28.8542140  76.7941455 120.2349321
  28.6958058  76.0918706 118.9031679  17.6880394  79.6379993 106.5825887
  17.8368514  80.3215457 105.9292560  18.4946837  79.6185083 107.0975343
  31.5058014  76.9441269 112.0578390  32.3404906  77.3831073 112.2215950
  31.6417143  76.4679922 111.2386636  28.5549520  74.5021003 118.0055877
  29.0303642  74.6948650 117.1974729  27.6315086  74.5580189 117.7599261
  15.4433027  75.6645171 107.5886956  15.1979069  74.7607501 107.7867166
  15.6128941  75.6662321 106.6466434  23.1329737  66.5368847 116.9711711
  23.6511681  67.2729874 116.6458200  22.7784869  66.8432840 117.8058471
  14.7128674  71.3973528 105.0873117  14.0197919  71.4717883 104.4313153
  14.4680426  70.6333872 105.6094634  23.3842331  62.9569130 112.4912608
  23.6644085  62.2892319 113.1173035  24.1692938  63.1498225 111.9787272
  21.1875799  82.1328123 104.0537634  20.6149766  82.7518311 103.6008106
  21.7608593  82.6827485 104.5877556  27.2551189  71.3786764 116.2384183
  28.2068612  71.4784861 116.2596407  27.0854640  70.5865032 116.7482267
  25.2765569  68.4642347 116.4243584  24.6815501  68.7447359 115.7290073
  24.9915265  68.9536248 117.1960325  24.4073059  82.4165274 105.1846217
  25.3403732  82.3510835 105.3879092  24.3196272  83.2521540 104.7260749
  27.0361076  81.7331144 102.1450164  26.9574707  81.3991008 103.0385922
  27.8570743  82.2252912 102.1441636  29.7339267  74.5992883 115.3526483
  29.7015587  73.6608884 115.5386167  30.3439891  74.6776920 114.6192308
  21.5722598  73.4688936 101.3953687  22.5181703  73.3395144 101.4642105
  21.1936843  72.7303598 101.8723115  29.8833755  71.3903927 115.3984766
  29.3672804  70.6062383 115.2114695  30.7673704  71.0622643 115.5631285
  27.5444482  65.1344942 111.3580579  27.3469304  64.8260030 112.2423911
  28.1544188  65.8606581 111.4878508  35.5515817  75.6608890 114.4932520
  36.2819205  75.3994178 115.0540223  34.9422762  74.9237612 114.5334588
  33.6331114  73.8016753 115.0906971  32.9064278  73.6672718 114.4823462
  33.2178401  74.1093581 115.8963689  19.7565515  71.3938913 101.3308572
  18.8496970  71.0972025 101.4071286  20.0341496  71.0968731 100.4642858
  21.3727581  65.9375802 107.4852813  20.5628309  65.5922887 107.8608059
  22.0611998  65.6283346 108.0740425  23.3018129  65.0153849 109.1077110
  23.8549168  65.4349303 109.7667133  23.5388215  64.0889597 109.1500066
  18.5264300  68.2525848 101.4720551  19.3883464  68.5780746 101.7316369
  18.7114644  67.4657344 100.9593617  26.6796936  67.1254374 108.6155774
  26.0995605  67.7839178 108.2333827  26.4132869  66.3031719 108.2043192
  25.1300502  66.5259432 110.8177095  25.6300281  66.6375966 110.0091413
  25.7736110  66.2220485 111.4577903  25.4621814  69.2854465 107.6712122
  24.5747669  69.5704115 107.4532317  25.8775803  69.1248228 106.8239399
  28.8136350  69.3100986 111.3866462  29.5896740  69.7997438 111.6591079
  28.0884484  69.7359040 111.8438331  31.2508909  70.0228605 112.4440402
  31.8453400  69.7824341 111.7333711  31.3235493  69.3035735 113.0713939
  24.6065028  79.0499139 101.7660142  25.3100878  79.2549142 102.3817798
  23.8827676  79.6175901 102.0309226  25.4362838  74.8009001 107.8862413
  25.3798039  75.2577552 107.0470045  25.9891180  74.0399685 107.7085255
  29.2467644  70.5898732 108.7112532  28.9904578  70.1895368 109.5420740
  28.6220512  71.3042526 108.5862671  33.5579982  73.3294806 111.2183824
  32.9979540  73.3987995 111.9915386  32.9523485  73.1535790 110.4983320
  26.5151725  79.4881669 103.8158603  27.3497329  79.0562867 103.6336077
  26.3536068  79.3163682 104.7435497  26.1697617  75.9913782 105.1814942
  26.1146421  75.8258053 104.2403386  25.5443672  76.6989815 105.3377132
  19.4793743  65.4921891 104.7600260  19.4672412  66.4363731 104.9168531
  20.3717164  65.3092036 104.4659721  23.2945862  62.0864667 109.0146197
  22.5278258  61.5323154 109.1602879  23.7056567  62.1586536 109.8760349
  35.1436000  90.0051320 113.9113779  35.7814410  89.8858067 113.2077119
  35.0256843  90.9532164 113.9701731  31.9525706  89.9578748 113.8475304
  31.6144218  89.8419812 112.9595839  32.8215475  89.5569913 113.8276310
  27.8112522  91.8114224 109.8372195  27.2477387  91.7204161 109.0688483
  27.6964917  90.9914129 110.3174687  33.3912081  95.4785192 105.1486660
  32.7400061  96.0639272 104.7620674  34.1856444  96.0091387 105.2081697
  27.3167708  92.5674329 105.5473794  28.0898584  92.0203316 105.4086670
  27.6693107  93.4318578 105.7588256  29.6533986  88.7266995 103.1792244
  29.9059506  88.2048516 102.4175707  28.7158545  88.5633141 103.2818928
  34.6977269  87.7302773 110.9866987  35.4840358  87.3122197 110.6357404
  34.9615973  88.6348866 111.1548636  34.8687346  93.1675624 105.6855644
  34.2333179  93.2410250 106.3976549  34.5384752  93.7569223 105.0074723
  40.0985696  87.6678007 111.8899966  40.8310868  87.0977223 112.1237795
  39.3425051  87.2799607 112.3306471  29.3730274  90.6295101 105.3816619
  29.2566533  89.9540004 106.0497703  29.4832534  90.1427475 104.5648772
  31.7161815  90.0905248 109.0863308  31.3520023  89.5635869 109.7976230
  32.5728931  89.7003717 108.9129794  37.6211116  81.3799581 116.3494574
  37.2894441  82.2494992 116.1255789  37.0256729  81.0635865 117.0288605
  31.3567302  85.1195148 104.0824657  31.5241705  85.9875384 104.4495128
  31.1664471  85.2822430 103.1585946  37.5139779  86.0994667 113.4287924
  36.6056657  86.0310075 113.1346685  37.4627375  86.5766612 114.2569750
  31.3356523  87.5752805 105.0671324  31.2156148  88.0209856 105.9056804
  30.6409112  87.9238123 104.5084862  39.3801426  84.3011105 115.2065798
  38.7375806  84.5943639 114.5605593  38.8756354  84.1864026 116.0118995
  37.0341589  88.0474279 105.8951658  37.9459446  88.2801665 105.7199355
  36.5251236  88.6311323 105.3326736  35.6411172  93.0300097 113.2865239
  35.0120034  93.1945811 112.5841307  35.2536834  93.4441707 114.0576203
  39.5200404  93.9654535 110.6409603  38.8351442  94.3453436 110.0906636
  39.6044253  94.5749862 111.3741551  34.8212872  85.0675882 118.5627681
  34.5773804  85.8217942 118.0261957  35.0972803  85.4461229 119.3974928
  36.7751335  91.6114494 117.2404946  36.9868230  92.2546254 116.5639327
  36.7281083  90.7776810 116.7726876  34.3777564  84.2232315 114.1441519
  33.5162043  84.5213568 114.4358256  34.4039999  84.4402713 113.2122551
  31.1939134  92.7674505 110.5515324  31.6577479  93.0462208 109.7619947
  30.9295932  91.8657950 110.3688415  30.1308020  88.8897657 107.3604889
  30.8332063  89.3418701 107.8278816  29.7988648  88.2481476 107.9884782
  37.8897163  94.4886449 115.4127304  38.7114607  94.0866637 115.1309985
  37.8859566  94.3854683 116.3643420  25.8248099  87.5125789 109.6205500
  25.0279262  87.6244484 110.1388995  25.5973691  87.8512442 108.7546390
  45.9803156  90.8325198 111.7612275  45.2266865  90.2632596 111.6056280
  46.1150697  90.7987862 112.7082910  31.3701784  95.7038600 107.4366995
  31.2347459  96.5490136 107.8651842  31.9111597  95.9057878 106.6732928
  34.7194248  79.2269162 115.9665888  34.3758517  80.1170804 115.8904999
  35.0873210  79.0370820 115.1035473  34.6844531  89.2177773 104.4738323
  34.1691154  89.9882378 104.7126711  34.4121839  88.5442909 105.0971385
  32.2691642  84.0627474 109.5323562  31.4133238  83.6734324 109.3529200
  32.6818593  84.1419435 108.6723347  33.7990788  81.5973817 113.9315121
  33.2955584  81.5603952 113.1182927  34.0921395  82.5066560 113.9911778
  30.0433674  81.6812547 112.9381303  30.9086671  81.4855356 112.5787192
  30.1111183  81.4522899 113.8650660  39.6578805  91.9710128 106.4091497
  38.8808247  91.6321287 105.9646659  40.3370286  91.9762751 105.7346462
  34.4730834  87.0904865 106.2998104  34.1680969  87.4051014 107.1508248
  35.4261276  87.1686285 106.3425437  32.9177266  93.2495088 107.9491058
  32.3898627  92.5147848 107.6364296  32.4164768  94.0269765 107.7031027
  37.8970112  91.4444109 113.0658105  37.2393786  92.1343370 113.1538233
  38.7010511  91.8340541 113.4092091  27.6495993  83.9114755 110.3097670
  28.2239745  83.6889936 109.5770863  28.2366976  83.9803449 111.0626271
  36.7075570  89.7988482 111.1162046  37.2207452  90.4318473 111.6183756
  37.3576794  89.1989677 110.7505406  27.9765580  85.9419216 104.3293555
  27.1402893  86.2793902 104.6502830  27.8370350  85.8068196 103.3920692
  29.9518661  80.7856004 109.0372739  29.2983073  80.4705021 108.4129354
  29.9099135  80.1631744 109.7632562  31.0629866  91.0675299 100.9526031
  30.1556928  90.8364552 101.1517180  31.5600898  90.2712918 101.1400013
  33.9697945  99.7772806 103.8722717  33.2959643 100.0804503 104.4807675
  34.3563767 100.5801886 103.5228175  33.1856401  87.2737937 113.3620387
  32.2678963  87.4952884 113.2042075  33.6016545  87.3484248 112.5032094
  33.9691449  88.6729353 108.4923067  34.7163268  89.1850750 108.1830189
  34.2383039  88.3513406 109.3527461  32.2418099  91.1687894 105.4750021
  31.3329318  90.8846926 105.5722491  32.2713183  91.5886972 104.6153328
  37.4737367  94.7794483 109.2441189  37.0199694  93.9385393 109.3006379
  36.8431333  95.4155881 109.5815969  36.4170286  85.7086469 110.4741856
  35.6793043  85.1963855 110.8052099  36.6697060  85.2686851 109.6625133
  35.9170306  96.6170980 110.1791007  36.2093280  97.1776037 109.4603373
  36.4268926  96.9099541 110.9344166  36.5181913  78.4862721 111.0683626
  36.8240790  77.6260085 110.7809541  37.2434518  79.0780341 110.8682620
  30.7902993  88.7816514 111.5759817  30.8451603  87.8290351 111.5002293
  29.9794195  88.9375953 112.0601115  31.9394187  92.7096637 102.8138100
  31.5013617  91.9932496 102.3543737  32.6804628  92.9372752 102.2523191
  28.7295353  87.3993574 109.3350196  27.9163219  87.6987745 109.7415388
  29.2254347  87.0049263 110.0524678  34.3269565  87.8635398 118.1665090
  34.6818953  88.0906872 119.0259555  34.9741696  88.1953775 117.5442345
  40.0567302  90.9853834 108.8714419  39.9185200  91.1755430 107.9435608
  39.7003521  91.7473217 109.3282470  28.2209428  84.9711929 114.9511431
  28.8608807  84.8300689 114.2534394  27.3886958  84.6846443 114.5750033
  40.0836681  93.0530361 113.8825690  40.5173188  92.9605650 114.7308744
  40.7968262  93.0287862 113.2445706  25.3052495  88.4157442 107.1406176
  24.3750083  88.3541897 107.3576138  25.4009967  87.8933394 106.3442817
  25.2238044  84.9412254 109.7284417  25.4844862  85.8557588 109.6193578
  26.0455217  84.4736697 109.8781030  40.9452231  93.0954062 116.4158575
  41.1388121  93.9999872 116.6617850  40.8452849  92.6361481 117.2497161
  32.5988542  82.9811953 118.9148903  31.9516457  83.6801902 118.8213379
  33.3689557  83.4148096 119.2825151  32.1689160  99.9452478 106.0869797
  32.3440915  99.4740522 106.9015419  31.4821948 100.5718245 106.3151057
  33.1246223  94.2224985 112.1333098  32.7896056  94.1825755 113.0290748
  32.6250169  93.5569701 111.6603508  36.0605415  91.5681019 102.4070158
  35.4434585  90.8427847 102.3103210  35.5921903  92.3290379 102.0637232
  27.8503961  85.7866443 101.5291462  26.9733427  85.6655244 101.1653709
  28.3261714  84.9952522 101.2770351  31.0367887  98.1392734 108.7753982
  30.2535408  98.6814414 108.8692207  31.7360632  98.6566713 109.1748224
  34.3464537  83.9487363 111.4188188  34.8433236  83.1957325 111.0989258
  33.5751518  83.9851680 110.8531397  42.1994294  89.6527729 113.0606479
  42.1884170  90.5352444 112.6900412  41.3311674  89.2999279 112.8661016
  35.4294317  92.7059050 108.9926611  34.4950596  92.8260513 108.8231315
  35.6070986  91.8031517 108.7286621  30.9299505  86.0904746 111.1459872
  30.5597293  85.5375786 111.8340778  31.4258598  85.4862880 110.5934872
  38.8166869  88.5476370 109.5276645  39.2827321  89.3804361 109.4536948
  39.2674369  88.0821351 110.2321904  36.8843100  94.8920191 106.5262797
  37.1602944  94.7776785 107.4356671  36.0147599  94.4937676 106.4874970
  36.7883531  80.9156957 113.5667547  35.8746611  81.1461183 113.7349754
  37.2176633  80.9995401 114.4181579  36.5589990  89.1046849 116.0667441
  35.9061440  89.3522756 115.4119893  36.9370370  88.2910987 115.7329918
  33.5197164  99.1406542 110.1695611  33.7019558  98.3228198 110.6323363
  34.3430150  99.3574234 109.7320501  33.8539329  98.0674727 107.4310659
  34.3827096  97.5567181 106.8180822  34.1167549  97.7517257 108.2956192
  22.5782654  87.3808298 106.9704368  22.8736095  86.4718977 106.9171421
  21.6770690  87.3596038 106.6485370  24.3070496  85.0622396 107.0943693
  23.9783202  84.1819775 106.9118799  24.6609867  85.0070065 107.9820082
  33.5550075  96.6977299 111.6038678  33.4075037  95.7694006 111.7846248
  34.3803568  96.7197390 111.1195753  27.4212319  85.3495366 107.4619170
  27.7608392  85.8781287 106.7397779  27.8684440  85.6875772 108.2377737
  37.1584197  97.5205858 112.6903551  38.0830744  97.3148719 112.5528002
  36.9899500  97.2722259 113.5992892  30.1155760  83.7332417 116.9122238
  29.7752580  82.9340230 117.3142918  29.4094766  84.0334127 116.3399072
  30.7672232  80.8181729 115.3649561  31.5898301  80.3442207 115.2428452
  31.0110295  81.5972213 115.8648248  29.4080466  83.8469988 105.6612463
  30.1288829  84.2251240 105.1576180  28.7845770  84.5658864 105.7647441
  33.5511589  84.5515136 106.5970795  33.7675204  85.4339774 106.2959624
  33.0705656  84.1601350 105.8676437  30.1507193  84.5003398 113.2222430
  30.1368762  83.6044491 112.8854728  30.8679622  84.5074061 113.8560716
  32.0033324  84.9340738 115.2675557  31.7451102  85.8557809 115.2659887
  31.4718364  84.5371172 115.9576021  36.9479513  98.0391525 108.0465642
  37.1216390  97.4737948 107.2939495  37.4408404  98.8392420 107.8645132
  29.5544089  83.3817778 108.4910000  29.6760001  82.4534424 108.6900887
  29.2646132  83.3956464 107.5788315  32.4235280  81.0672688 111.6276720
  32.4456977  81.1312022 110.6728699  32.8403339  80.2277197 111.8217226
  42.8018904  90.8027948 109.6655942  43.2450050  90.0535273 109.2675065
  41.9245414  90.7938084 109.2829674  37.9354685  97.3558289 105.1462541
  38.6305590  97.9764982 105.3649855  38.2777836  96.5053641 105.4214919
  39.8346108  94.8057995 106.6749871  40.3597433  95.1445268 105.9499191
  39.7468461  93.8705010 106.4913006  39.6437890  92.2883365 119.2933798
  39.6935895  92.1233372 120.2349321  39.5351813  91.4210624 118.9031679
  28.5274148  94.9671911 106.5825887  28.6762269  95.6507375 105.9292560
  29.3340592  94.9477001 107.0975343  42.3451769  92.2733186 112.0578390
  43.1798660  92.7122990 112.2215950  42.4810898  91.7971839 111.2386636
  39.3943275  89.8312921 118.0055877  39.8697396  90.0240567 117.1974729
  38.4708840  89.8872107 117.7599261  26.2826781  90.9937088 107.5886956
  26.0372823  90.0899418 107.7867166  26.4522696  90.9954239 106.6466434
  33.9723491  81.8660765 116.9711711  34.4905435  82.6021792 116.6458200
  33.6178624  82.1724758 117.8058471  25.5522429  86.7265446 105.0873117
  24.8591674  86.8009801 104.4313153  25.3074181  85.9625790 105.6094634
  34.2236085  78.2861047 112.4912608  34.5037839  77.6184236 113.1173035
  35.0086692  78.4790143 111.9787272  32.0269554  97.4620041 104.0537634
  31.4543521  98.0810228 103.6008106  32.6002347  98.0119403 104.5877556
  38.0944944  86.7078681 116.2384183  39.0462367  86.8076779 116.2596407
  37.9248394  85.9156950 116.7482267  36.1159323  83.7934264 116.4243584
  35.5209255  84.0739277 115.7290073  35.8309020  84.2828165 117.1960325
  35.2466814  97.7457191 105.1846217  36.1797487  97.6802753 105.3879092
  35.1590026  98.5813458 104.7260749  37.8754830  97.0623062 102.1450164
  37.7968462  96.7282925 103.0385922  38.6964497  97.5544830 102.1441636
  40.5733021  89.9284801 115.3526483  40.5409342  88.9900802 115.5386167
  41.1833645  90.0068838 114.6192308  32.4116352  88.7980854 101.3953687
  33.3575457  88.6687062 101.4642105  32.0330597  88.0595516 101.8723115
  40.7227510  86.7195844 115.3984766  40.2066559  85.9354301 115.2114695
  41.6067458  86.3914561 115.5631285  38.3838237  80.4636860 111.3580579
  38.1863058  80.1551948 112.2423911  38.9937942  81.1898499 111.4878508
  46.3909571  90.9900808 114.4932520  47.1212960  90.7286096 115.0540223
  45.7816517  90.2529530 114.5334588  44.4724868  89.1308670 115.0906971
  43.7458032  88.9964635 114.4823462  44.0572155  89.4385499 115.8963689
  30.5959269  86.7230830 101.3308572  29.6890725  86.4263943 101.4071286
  30.8735250  86.4260648 100.4642858  32.2121335  81.2667720 107.4852813
  31.4022064  80.9214805 107.8608059  32.9005752  80.9575264 108.0740425
  34.1411883  80.3445767 109.1077110  34.6942922  80.7641220 109.7667133
  34.3781970  79.4181515 109.1500066  29.3658054  83.5817765 101.4720551
  30.2277218  83.9072664 101.7316369  29.5508398  82.7949261 100.9593617
  37.5190691  82.4546292 108.6155774  36.9389360  83.1131096 108.2333827
  37.2526623  81.6323637 108.2043192  35.9694257  81.8551350 110.8177095
  36.4694035  81.9667884 110.0091413  36.6129865  81.5512402 111.4577903
  36.3015569  84.6146382 107.6712122  35.4141424  84.8996033 107.4532317
  36.7169558  84.4540146 106.8239399  39.6530105  84.6392903 111.3866462
  40.4290495  85.1289356 111.6591079  38.9278239  85.0650957 111.8438331
  42.0902663  85.3520523 112.4440402  42.6847154  85.1116258 111.7333711
  42.1629247  84.6327653 113.0713939  35.4458782  94.3791057 101.7660142
  36.1494632  94.5841059 102.3817798  34.7221431  94.9467819 102.0309226
  36.2756592  90.1300918 107.8862413  36.2191794  90.5869470 107.0470045
  36.8284935  89.3691603 107.7085255  40.0861398  85.9190650 108.7112532
  39.8298332  85.5187286 109.5420740  39.4614266  86.6334444 108.5862671
  44.3973736  88.6586723 111.2183824  43.8373294  88.7279913 111.9915386
  43.7917239  88.4827708 110.4983320  37.3545479  94.8173586 103.8158603
  38.1891083  94.3854785 103.6336077  37.1929822  94.6455600 104.7435497
  37.0091372  91.3205700 105.1814942  36.9540175  91.1549971 104.2403386
  36.3837427  92.0281732 105.3377132  30.3187497  80.8213809 104.7600260
  30.3066167  81.7655648 104.9168531  31.2110919  80.6383954 104.4659721
  34.1339617  77.4156585 109.0146197  33.3672012  76.8615072 109.1602879
  34.5450322  77.4878454 109.8760349  38.6506277 107.1406142 109.8372195
  38.0871142 107.0496079 109.0688483  38.5358672 106.3206046 110.3174687
  44.2305835 110.8077110 105.1486660  43.5793815 111.3931190 104.7620674
  45.0250198 111.3383304 105.2081697  38.1561462 107.8966247 105.5473794
  38.9292338 107.3495234 105.4086670  38.5086861 108.7610496 105.7588256
  40.4927740 104.0558913 103.1792244  40.7453261 103.5340434 102.4175707
  39.5552299 103.8925058 103.2818928  45.5371023 103.0594691 110.9866987
  46.3234112 102.6414114 110.6357404  45.8009727 103.9640783 111.1548636
  45.7081100 108.4967541 105.6855644  45.0726933 108.5702168 106.3976549
  45.3778507 109.0861140 105.0074723  40.2124029 105.9587019 105.3816619
  40.0960287 105.2831922 106.0497703  40.3226289 105.4719393 104.5648772
  42.5555570 105.4197166 109.0863308  42.1913777 104.8927787 109.7976230
  43.4122686 105.0295635 108.9129794  42.1961057 100.4487066 104.0824657
  42.3635459 101.3167302 104.4495128  42.0058226 100.6114347 103.1585946
  42.1750278 102.9044723 105.0671324  42.0549903 103.3501774 105.9056804
  41.4802866 103.2530041 104.5084862  47.8735344 103.3766196 105.8951658
  48.7853200 103.6093583 105.7199355  47.3644991 103.9603240 105.3326736
  45.2171319  99.5524232 114.1441519  44.3555798  99.8505486 114.4358256
  45.2433753  99.7694631 113.2122551  42.0332888 108.0966423 110.5515324
  42.4971234 108.3754126 109.7619947  41.7689686 107.1949867 110.3688415
  40.9701774 104.2189575 107.3604889  41.6725817 104.6710619 107.8278816
  40.6382403 103.5773394 107.9884782  36.6641853 102.8417707 109.6205500
  35.8673017 102.9536401 110.1388995  36.4367446 103.1804359 108.7546390
  42.2095539 111.0330518 107.4366995  42.0741214 111.8782053 107.8651842
  42.7505351 111.2349795 106.6732928  45.5588002  94.5561080 115.9665888
  45.2152272  95.4462721 115.8904999  45.9266965  94.3662737 115.1035473
  45.5238285 104.5469691 104.4738323  45.0084908 105.3174295 104.7126711
  45.2515594 103.8734827 105.0971385  43.1085396  99.3919392 109.5323562
  42.2526992  99.0026242 109.3529200  43.5212348  99.4711352 108.6723347
  44.6384543  96.9265735 113.9315121  44.1349338  96.8895870 113.1182927
  44.9315150  97.8358478 113.9911778  40.8827429  97.0104465 112.9381303
  41.7480425  96.8147273 112.5787192  40.9504938  96.7814816 113.8650660
  50.4972559 107.3002045 106.4091497  49.7202002 106.9613205 105.9646659
  51.1764040 107.3054669 105.7346462  45.3124588 102.4196783 106.2998104
  45.0074724 102.7342932 107.1508248  46.2655030 102.4978203 106.3425437
  43.7571020 108.5787006 107.9491058  43.2292382 107.8439766 107.6364296
  43.2558523 109.3561683 107.7031027  38.4889748  99.2406672 110.3097670
  39.0633500  99.0181854 109.5770863  39.0760730  99.3095367 111.0626271
  38.8159335 101.2711133 104.3293555  37.9796647 101.6085820 104.6502830
  38.6764104 101.1360113 103.3920692  40.7912415  96.1147921 109.0372739
  40.1376828  95.7996939 108.4129354  40.7492890  95.4923662 109.7632562
  41.9023620 106.3967216 100.9526031  40.9950682 106.1656470 101.1517180
  42.3994652 105.6004836 101.1400013  44.8091699 115.1064724 103.8722717
  44.1353398 115.4096420 104.4807675  45.1957521 115.9093804 103.5228175
  44.8085204 104.0021271 108.4923067  45.5557022 104.5142668 108.1830189
  45.0776793 103.6805323 109.3527461  43.0811854 106.4979811 105.4750021
  42.1723073 106.2138844 105.5722491  43.1106937 106.9178890 104.6153328
  47.2564041 101.0378387 110.4741856  46.5186797 100.5255773 110.8052099
  47.5090814 100.5978768 109.6625133  47.3575668  93.8154639 111.0683626
  47.6634545  92.9552002 110.7809541  48.0828273  94.4072259 110.8682620
  41.6296748 104.1108432 111.5759817  41.6845358 103.1582268 111.5002293
  40.8187950 104.2667871 112.0601115  42.7787941 108.0388555 102.8138100
  42.3407371 107.3224414 102.3543737  43.5198382 108.2664670 102.2523191
  39.5689108 102.7285492 109.3350196  38.7556973 103.0279662 109.7415388
  40.0648102 102.3341180 110.0524678  39.0603182 100.3003847 114.9511431
  39.7002562 100.1592606 114.2534394  38.2280713 100.0138361 114.5750033
  36.1446250 103.7449359 107.1406176  35.2143838 103.6833815 107.3576138
  36.2403722 103.2225312 106.3442817  36.0631799 100.2704172 109.7284417
  36.3238616 101.1849505 109.6193578  36.8848971  99.8028615 109.8781030
  46.8999169 106.8972937 102.4070158  46.2828340 106.1719765 102.3103210
  46.4315658 107.6582297 102.0637232  38.6897715 101.1158361 101.5291462
  37.8127181 100.9947162 101.1653709  39.1655468 100.3244439 101.2770351
  45.1858291  99.2779281 111.4188188  45.6826991  98.5249243 111.0989258
  44.4145273  99.3143597 110.8531397  41.7693260 101.4196664 111.1459872
  41.3991047 100.8667704 111.8340778  42.2652352 100.8154797 110.5934872
  47.6277286  96.2448874 113.5667547  46.7140366  96.4753101 113.7349754
  48.0570387  96.3287318 114.4181579  33.4176409 102.7100216 106.9704368
  33.7129850 101.8010895 106.9171421  32.5164445 102.6887956 106.6485370
  35.1464250 100.3914314 107.0943693  34.8176957  99.5111693 106.9118799
  35.5003621 100.3361983 107.9820082  38.2606074 100.6787284 107.4619170
  38.6002146 101.2073205 106.7397779  38.7078194 101.0167690 108.2377737
  41.6065986  96.1473647 115.3649561  42.4292056  95.6734125 115.2428452
  41.8504050  96.9264131 115.8648248  40.2474221  99.1761905 105.6612463
  40.9682583  99.5543158 105.1576180  39.6239525  99.8950782 105.7647441
  44.3905344  99.8807054 106.5970795  44.6068958 100.7631692 106.2959624
  43.9099411  99.4893268 105.8676437  40.9900948  99.8295315 113.2222430
  40.9762517  98.9336409 112.8854728  41.7073376  99.8365979 113.8560716
  40.3937844  98.7109696 108.4910000  40.5153755  97.7826342 108.6900887
  40.1039886  98.7248382 107.5788315  43.2629034  96.3964606 111.6276720
  43.2850731  96.4603939 110.6728699  43.6797093  95.5569115 111.8217226
  39.3667903 110.2963828 106.5825887  39.5156023 110.9799293 105.9292560
  40.1734346 110.2768918 107.0975343  37.1220536 106.3229006 107.5886956
  36.8766578 105.4191336 107.7867166  37.2916450 106.3246156 106.6466434
  36.3916183 102.0557364 105.0873117  35.6985428 102.1301719 104.4313153
  36.1467935 101.2917707 105.6094634  45.0629840  93.6152965 112.4912608
  45.3431594  92.9476154 113.1173035  45.8480447  93.8082061 111.9787272
  42.8663308 112.7911959 104.0537634  42.2937275 113.4102146 103.6008106
  43.4396102 113.3411320 104.5877556  46.0860568 113.0749109 105.1846217
  47.0191241 113.0094671 105.3879092  45.9983781 113.9105376 104.7260749
  48.7148585 112.3914979 102.1450164  48.6362216 112.0574843 103.0385922
  49.5358252 112.8836747 102.1441636  43.2510107 104.1272772 101.3953687
  44.1969212 103.9978980 101.4642105  42.8724352 103.3887433 101.8723115
  49.2231991  95.7928778 111.3580579  49.0256812  95.4843866 112.2423911
  49.8331697  96.5190416 111.4878508  41.4353024 102.0522748 101.3308572
  40.5284479 101.7555861 101.4071286  41.7129005 101.7552566 100.4642858
  43.0515090  96.5959638 107.4852813  42.2415818  96.2506723 107.8608059
  43.7399507  96.2867181 108.0740425  44.9805638  95.6737684 109.1077110
  45.5336677  96.0933138 109.7667133  45.2175724  94.7473433 109.1500066
  40.2051809  98.9109683 101.4720551  41.0670973  99.2364581 101.7316369
  40.3902153  98.1241179 100.9593617  48.3584445  97.7838210 108.6155774
  47.7783114  98.4423014 108.2333827  48.0920378  96.9615554 108.2043192
  46.8088011  97.1843267 110.8177095  47.3087790  97.2959802 110.0091413
  47.4523619  96.8804320 111.4577903  47.1409323  99.9438300 107.6712122
  46.2535178 100.2287951 107.4532317  47.5563312  99.7832063 106.8239399
  46.2852537 109.7082975 101.7660142  46.9888387 109.9132977 102.3817798
  45.5615185 110.2759737 102.0309226  47.1150347 105.4592836 107.8862413
  47.0585548 105.9161387 107.0470045  47.6678689 104.6983521 107.7085255
  50.9255153 101.2482568 108.7112532  50.6692087 100.8479203 109.5420740
  50.3008021 101.9626362 108.5862671  48.1939234 110.1465504 103.8158603
  49.0284838 109.7146702 103.6336077  48.0323577 109.9747518 104.7435497
  47.8485126 106.6497617 105.1814942  47.7933930 106.4841889 104.2403386
  47.2231181 107.3573650 105.3377132  41.1581252  96.1505726 104.7600260
  41.1459921  97.0947566 104.9168531  42.0504673  95.9675872 104.4659721
  44.9733371  92.7448503 109.0146197  44.2065767  92.1906990 109.1602879
  45.3844076  92.8170372 109.8760349  49.5291470 116.4450279 101.5291462
  48.6520936 116.3239079 101.1653709  50.0049223 115.6536357 101.2770351
  51.0445563 114.2401601 101.4720551  51.9064727 114.5656499 101.7316369
  51.2295907 113.4533097 100.9593617   1.4516682  30.7959176  90.5968024
   0.7778381  31.0990872  91.2052982   1.8382504  31.5988256  90.2473481
   5.3573568  28.0809431  88.8695471   5.2787200  27.7469295  89.7631229
   6.1783235  28.5731199  88.8686943   2.9277520  25.3977427  88.4905449
   3.6313370  25.6027429  89.1063105   2.2040169  25.9654188  88.7554533
   6.1325014  38.1592511  96.5617502   5.5689879  38.0682448  95.7933789
   6.0177409  37.3392416  97.0419994  11.7124573  41.8263479  91.8731966
  11.0612553  42.4117560  91.4865980  12.5068936  42.3569674  91.9327004
   5.6380200  38.9152616  92.2719101   6.4111076  38.3681603  92.1331977
   5.9905599  39.7796866  92.4833562   7.9746478  35.0745282  89.9037551
   8.2271999  34.5526804  89.1421014   7.0371037  34.9111428  90.0064234
  13.0189761  34.0781061  97.7112294  13.8052850  33.6600484  97.3602711
  13.2828465  34.9827153  97.8793942  13.1899838  39.5153911  92.4100951
  12.5545671  39.5888538  93.1221855  12.8597245  40.1047510  91.7320030
  18.4198188  34.0156294  98.6145272  19.1523360  33.4455511  98.8483102
  17.6637544  33.6277894  99.0551778   7.6942767  36.9773388  92.1061926
   7.5779025  36.3018292  92.7743010   7.8045027  36.4905762  91.2894079
  10.0374308  36.4383535  95.8108615   9.6732515  35.9114156  96.5221536
  10.8941424  36.0482004  95.6375100   9.6779795  31.4673435  90.8069963
   9.8454197  32.3353672  91.1740434   9.4876964  31.6300717  89.8831253
   9.6569016  33.9231093  91.7916630   9.5368641  34.3688143  92.6302111
   8.9621604  34.2716410  91.2330168   7.4175908  46.6934734  95.4406761
   7.3399937  47.6442559  95.5195242   6.8137551  46.3480607  96.0981688
  15.3554082  34.3952566  92.6196964  16.2671938  34.6279953  92.4444662
  14.8463729  34.9789610  92.0572043  13.9623664  39.3778384 100.0110546
  13.3332526  39.5424098  99.3086614  13.5749326  39.7919994 100.7821510
  17.8412896  40.3132822  97.3654910  17.1563934  40.6931723  96.8151943
  17.9256745  40.9228149  98.0986857   9.5151626  39.1152792  97.2760631
   9.9789971  39.3940495  96.4865253   9.2508424  38.2136237  97.0933722
   8.4520512  35.2375945  94.0850196   9.1544555  35.6896988  94.5524122
   8.1201140  34.5959764  94.7130089  16.2109655  40.8364737 102.1372610
  17.0327099  40.4344924 101.8555292  16.2072058  40.7332971 103.0888726
  24.3015649  37.1803485  98.4857582  23.5479357  36.6110883  98.3301586
  24.4363190  37.1466150  99.4328217   9.6914277  42.0516887  94.1612301
   9.5559951  42.8968423  94.5897149  10.2324089  42.2536165  93.3978235
   3.1443674  39.5692325  94.7340226   3.6568195  40.3635576  94.8845791
   3.7966387  38.8718616  94.6673828   4.9538559  42.6858082  96.8162979
   5.1305187  43.6076046  96.6283963   5.7495392  42.3716501  97.2457359
  13.0057023  35.5656060  91.1983630  12.4903646  36.3360665  91.4372017
  12.7334331  34.8921196  91.8216691  17.9791297  38.3188415  93.1336803
  17.2020740  37.9799574  92.6891965  18.6582778  38.3241038  92.4591768
  12.7943326  33.4383152  93.0243411  12.4893462  33.7529302  93.8753554
  13.7473768  33.5164572  93.0670744  11.2389758  39.5973376  94.6736365
  10.7111119  38.8626135  94.3609602  10.7377261  40.3748052  94.4276333
  16.2182604  37.7922396  99.7903411  15.5606278  38.4821658  99.8783540
  17.0223003  38.1818828 100.1337398  15.0288063  36.1466769  97.8407353
  15.5419944  36.7796761  98.3429063  15.6789287  35.5467964  97.4750713
   6.2978073  32.2897503  91.0538862   5.4615385  32.6272190  91.3748136
   6.1582842  32.1546483  90.1165999   9.3842358  37.4153586  87.6771338
   8.4769420  37.1842839  87.8762487   9.8813390  36.6191205  87.8645320
  12.2910437  46.1251093  90.5968024  11.6172136  46.4282790  91.2052982
  12.6776259  46.9280174  90.2473481  12.2903941  35.0207640  95.2168374
  13.0375760  35.5329037  94.9075496  12.5595531  34.6991693  96.0772767
  10.5630591  37.5166181  92.1995328   9.6541811  37.2325214  92.2967798
  10.5925675  37.9365259  91.3398635  15.7949859  41.1272770  95.9686496
  15.3412186  40.2863680  96.0251686  15.1643826  41.7634169  96.3061276
  14.2382798  42.9649267  96.9036314  14.5305773  43.5254324  96.1848679
  14.7481419  43.2577828  97.6589473  10.2606679  39.0574925  89.5383407
   9.8226109  38.3410783  89.0789044  11.0017120  39.2851039  88.9768498
   9.2016423  43.7429618  97.9929767   9.1592602  43.9690464  97.0638299
  10.1179122  43.5092993  98.1415568  18.3779794  37.3332122  95.5959725
  18.2397693  37.5233718  94.6680914  18.0216013  38.0951504  96.0527776
  18.4049174  39.4008649 100.6070997  18.8385680  39.3083938 101.4554051
  19.1180754  39.3766149  99.9691013   7.3182224  40.6192647  97.7891730
   8.1122823  40.1242967  97.5874305   6.6073916  40.0910510  97.4259435
  12.1377069  43.0010743 102.1404097  12.1914091  43.5701679 102.9081813
  11.2691850  43.1712628 101.7758134   3.6264988  34.7635729  93.8651482
   2.6962576  34.7020184  94.0821445   3.7222460  34.2411682  93.0688124
  10.4901652  46.2930766  92.8115103  10.6653408  45.8218809  93.6260726
   9.8034440  46.9196532  93.0396364  11.4458715  40.5703272  98.8578405
  11.1108548  40.5304042  99.7536054  10.9462661  39.9047988  98.3848815
  14.3817907  37.9159306  89.1315464  13.7647078  37.1906134  89.0348517
  13.9134395  38.6768666  88.7882538   5.0562737  49.4420128  99.5854963
   5.2959336  50.0738653 100.2633982   4.2131934  49.0908168  99.8720323
   6.1716453  32.1344730  88.2536769   5.2945919  32.0133531  87.8899015
   6.6474206  31.3430809  88.0015657   9.5690599  45.2499251 101.9896467
   9.4960771  46.0554222 102.5015772   9.1267992  45.4491217 101.1644489
   9.3580379  44.4871021  95.4999289   8.5747901  45.0292701  95.5937514
  10.0573124  45.0045000  95.8993530  20.5206786  36.0006016  99.7851786
  20.5096663  36.8830731  99.4145719  19.6524166  35.6477567  99.5906323
  13.7506810  39.0537338  95.7171918  12.8163088  39.1738800  95.5476622
  13.9283478  38.1509804  95.4531928  17.1379361  34.8954657  96.2521952
  17.6039813  35.7282648  96.1782255  17.5886861  34.4299638  96.9567210
  15.2055592  41.2398478  93.2508104  15.4815436  41.1255073  94.1601978
  14.3360091  40.8415963  93.2120277  11.8409656  45.4884829  96.8940918
  12.0232051  44.6706485  97.3568670  12.6642642  45.7052521  96.4565808
  12.1751822  44.4153014  94.1555966  12.7039588  43.9045469  93.5426128
  12.4380041  44.0995544  95.0201499   5.5307570  45.4668131  96.9153742
   4.8617945  45.9514258  96.4317782   5.3920439  45.7137351  97.8297121
   9.6712838  47.5011874 103.5136400  10.2231146  47.6643496 104.2785486
  10.0119032  48.0916312 102.8416425  12.8081225  45.4493850 100.5000083
  12.6832365  44.6483590  99.9911028  13.4660317  45.9440043 100.0114053
  14.8716134  43.2502870 102.1279633  13.9246469  43.1308221 102.0557959
  15.2198907  42.3625368 102.2105894  11.8762567  43.0455586  98.3283985
  11.7287530  42.1172294  98.5091555  12.7016061  43.0675677  97.8441060
  15.4796689  43.8684145  99.4148858  16.4043236  43.6627006  99.2773309
  15.3111992  43.6200546 100.3238199   7.7292959  30.1948275  92.3857770
   8.4501321  30.5729528  91.8821487   7.1058263  30.9137152  92.4892748
  11.8724081  30.8993424  93.3216102  12.0887696  31.7818062  93.0204930
  11.3918149  30.5079637  92.5921744  15.2692005  44.3869812  94.7710949
  15.4428883  43.8216235  94.0184802  15.7620896  45.1870707  94.5890439
  21.1231396  37.1506235  96.3901249  21.5662542  36.4013560  95.9920372
  20.2457907  37.1416372  96.0074981  16.2567178  43.7036577  91.8707847
  16.9518082  44.3243269  92.0895162  16.5990328  42.8531928  92.1460225
  18.1558601  41.1536282  93.3995178  18.6809925  41.4923555  92.6744498
  18.0680953  40.2183298  93.2158313   9.8399262  47.2208265  97.7590431
   9.4004252  46.7284644  98.4523288  10.5907378  46.6781233  97.5182507
   2.3191600  43.4119806  97.7615059   3.1449620  43.1123578  97.3813703
   1.9685652  42.6427429  98.2104848   7.2873134  42.7646275  99.8312733
   6.6653143  42.1016980  99.5314961   7.9578001  42.7907406  99.1486381
   6.8486641  41.3150198  93.3071194   6.9974761  41.9985662  92.6537866
   7.6553084  41.2955288  93.8220649  20.6664261  38.6211474  98.7823696
  21.5011152  39.0601278  98.9461257  20.8023390  38.1450127  97.9631942
   4.6039274  37.3415376  94.3132262   4.3585315  36.4377706  94.5112473
   4.7735188  37.3432526  93.3711740   3.8734921  33.0743733  91.8118424
   3.1804166  33.1488088  91.1558460   3.6286673  32.3104077  92.3339941
  10.3482046  43.8098328  90.7782941   9.7756013  44.4288515  90.3253413
  10.9214840  44.3597690  91.3122863  13.5679306  44.0935478  91.9091523
  14.5009979  44.0281040  92.1124399  13.4802519  44.9291745  91.4506056
  16.1967323  43.4101349  88.8695471  16.1180954  43.0761212  89.7631229
  17.0176989  43.9023117  88.8686943  10.7328845  35.1459141  88.1198993
  11.6787949  35.0165349  88.1887411  10.3543090  34.4073803  88.5968422
  24.7122064  37.3379095 101.2177826  25.4425452  37.0764383 101.7785530
  24.1029009  36.6007817 101.2579894  22.7937361  35.4786958 101.8152277
  22.0670524  35.3442923 101.2068769  22.3784648  35.7863786 102.6208995
   8.9171762  33.0709118  88.0553879   8.0103217  32.7742230  88.1316592
   9.1947743  32.7738936  87.1888165   7.6870546  29.9296053  88.1965858
   8.5489710  30.2550951  88.4561675   7.8720891  29.1427549  87.6838924
  15.8403183  28.8024579  95.3401081  15.2601852  29.4609383  94.9579133
  15.5739116  27.9801924  94.9288498  14.6228061  30.9624670  94.3957429
  13.7353916  31.2474320  94.1777624  15.0382050  30.8018433  93.5484706
   2.6312311  45.5432421  99.4828874   2.4966779  44.7832822  98.9166872
   2.2144374  46.2673321  99.0157663  13.7671274  40.7269344  88.4905449
  14.4707124  40.9319347  89.1063105  13.0433923  41.2946106  88.7554533
  14.5969085  36.4779205  94.6107719  14.5404286  36.9347757  93.7715352
  15.1497427  35.7169890  94.4330562  18.4073891  32.2668937  95.4357839
  18.1510825  31.8665573  96.2666046  17.7826759  32.9812731  95.3107978
  22.7186228  35.0065011  97.9429130  22.1585786  35.0758200  98.7160692
  22.1129732  34.8305995  97.2228626   5.7881437  46.4401738  99.6947316
   5.6713821  47.3847170  99.5926007   4.9673883  46.1375299 100.0833116
  15.6757972  41.1651873  90.5403909  16.5103576  40.7333072  90.3581384
  15.5142315  40.9933887  91.4680804  15.3303864  37.6683987  91.9060248
  15.2752668  37.5028258  90.9648693  14.7049919  38.3760020  92.0622438
   8.6399989  27.1692096  91.4845567   8.6278659  28.1133936  91.6413838
   9.5323411  26.9862241  91.1905028   8.5689553  45.8460986  99.5713324
   7.6185184  45.8462848  99.4577696   8.8722039  45.0993721  99.0549358
  24.3042247  51.6821525 100.6359086  24.9420657  51.5628272  99.9322426
  24.1863090  52.6302369 100.6947038  21.1131953  51.6348953 100.5720611
  20.7750465  51.5190017  99.6841145  21.9821721  51.2340118 100.5521617
  16.9718769  53.4884429  96.5617502  16.4083634  53.3974366  95.7933789
  16.8571164  52.6684334  97.0419994  21.5951736  52.7883804 106.5306816
  21.5840377  52.3936603 105.6587320  21.7572376  52.0549877 107.1240588
  14.5183201  54.9835621  99.4001722  15.3104493  54.6426445  98.9848021
  14.7579851  55.0930596 100.3203875  22.5518328  57.1555397  91.8731966
  21.9006307  57.7409477  91.4865980  23.3462690  57.6861592  91.9327004
  16.4773955  54.2444534  92.2719101  17.2504831  53.6973521  92.1331977
  16.8299354  55.1088783  92.4833562  18.3158997  55.5720916 105.4786000
  18.0248863  56.4766547 105.3632666  18.9515982  55.6137444 106.1930070
  19.2415204  52.9497765 102.0687360  19.8378776  52.7253787 101.3544323
  19.2990176  52.2082510 102.6712808  18.8140233  50.4037200  89.9037551
  19.0665753  49.8818721  89.1421014  17.8764792  50.2403345  90.0064234
  23.8583515  49.4072978  97.7112294  24.6446605  48.9892402  97.3602711
  24.1222220  50.3119071  97.8793942  24.0293593  54.8445829  92.4100951
  23.3939426  54.9180455  93.1221855  23.6990999  55.4339428  91.7320030
  29.2591942  49.3448212  98.6145272  29.9917114  48.7747428  98.8483102
  28.5031298  48.9569812  99.0551778  18.5336521  52.3065306  92.1061926
  18.4172779  51.6310209  92.7743010  18.6438781  51.8197680  91.2894079
  20.8768062  51.7675453  95.8108615  20.5126269  51.2406074  96.5221536
  21.7335178  51.3773922  95.6375100  26.7817363  43.0569786 103.0739881
  26.4500688  43.9265197 102.8501096  26.1862976  42.7406070 103.7533911
  20.5173549  46.7965353  90.8069963  20.6847952  47.6645589  91.1740434
  20.3270718  46.9592634  89.8831253  23.2748882  55.2582332 102.4735794
  22.9749605  56.1607371 102.3651601  22.9299942  54.9914515 103.3256947
  16.7261364  51.7096129  98.5072498  15.8011860  51.5772343  98.7150190
  16.9745777  52.4890348  99.0042441  26.6746026  47.7764872 100.1533231
  25.7662903  47.7080280  99.8591992  26.6233622  48.2536817 100.9815057
  20.4962770  49.2523010  91.7916630  20.3762395  49.6980061  92.6302111
  19.8015358  49.6008328  91.2330168  14.0870175  51.3529402  99.3416287
  14.2162556  51.6063881 100.2555699  13.4067626  51.9457110  99.0220942
  18.2569662  62.0226652  95.4406761  18.1793692  62.9734477  95.5195242
  17.6531306  61.6772525  96.0981688  20.7486892  49.1954517 108.0968128
  19.9720226  49.7548438 108.0870993  21.3877455  49.6811300 108.6182998
  28.5407673  45.9781310 101.9311105  27.8982053  46.2713843 101.2850900
  28.0362601  45.8634231 102.7364302  26.1947836  49.7244483  92.6196964
  27.1065692  49.9571870  92.4444662  25.6857483  50.3081528  92.0572043
  19.0033264  52.0039971 107.6586095  19.7447949  52.5425015 107.3820919
  18.2970250  52.6306260 107.8157647  24.4788604  54.1469111 106.2558257
  24.8871960  53.7051522 105.5112889  23.7565865  53.5721739 106.5092450
  20.8319674  49.0841718 103.6291814  21.6780869  49.5081132 103.7726463
  20.7718312  48.4275342 104.3230377  24.8017418  54.7070302 100.0110546
  24.1726281  54.8716016  99.3086614  24.4143081  55.1211911 100.7821510
  28.6806650  55.6424740  97.3654910  27.9957689  56.0223641  96.8151943
  28.7650500  56.2520066  98.0986857  23.9819119  46.7446086 105.2872987
  23.7380051  47.4988147 104.7507263  24.2579050  47.1231434 106.1220235
  25.9357582  53.2884699 103.9650253  26.1474477  53.9316459 103.2884634
  25.8887330  52.4547015 103.4972183  23.5383811  45.9002519 100.8686825
  22.6768290  46.1983773 101.1603563  23.5646246  46.1172918  99.9367858
  20.3545380  54.4444710  97.2760631  20.8183726  54.7232413  96.4865253
  20.0902178  53.5428155  97.0933722  17.2469461  53.9916192 100.2140394
  17.8170818  54.4203460  99.5757879  17.8377573  53.7098776 100.9124580
  19.2914266  50.5667862  94.0850196  19.9938310  51.0188906  94.5524122
  18.9594895  49.9251681  94.7130089  17.7394628  49.1579619 108.4601405
  17.1093289  49.8395900 108.6936802  17.6330716  49.0462701 107.5154544
  13.0339600  48.8251415  99.3867330  12.2438654  49.0808944  98.9107440
  13.5250848  49.6399753  99.4919370  27.0503410  56.1656654 102.1372610
  27.8720854  55.7636841 101.8555292  27.0465813  56.0624888 103.0888726
  14.9854346  49.1895994  96.3450806  14.1885509  49.3014689  96.8634302
  14.7579938  49.5282647  95.4791697  20.8160013  55.7140698 104.2933321
  20.8804446  56.1761105 105.1291493  20.1070937  55.0838062 104.4215631
  11.3177303  49.0781905 101.8182320  11.5685342  49.9628915 102.0839896
  11.8536852  48.8986507 101.0457412  35.1409403  52.5095403  98.4857582
  34.3873111  51.9402801  98.3301586  35.2756944  52.4758067  99.4328217
  20.5308031  57.3808805  94.1612301  20.3953706  58.2260341  94.5897149
  21.0717844  57.5828083  93.3978235  13.9837428  54.8984243  94.7340226
  14.4961949  55.6927493  94.8845791  14.6360141  54.2010533  94.6673828
  15.7932313  58.0149999  96.8162979  15.9698941  58.9367964  96.6283963
  16.5889147  57.7008419  97.2457359  15.0784670  50.0614631 106.6925143
  14.9638185  49.1599888 106.9932242  14.2229187  50.3078328 106.3409959
  22.1576507  58.0032372 108.2912643  21.7140362  57.2168750 107.9733548
  22.8193721  58.1911522 107.6256534  16.9163629  59.5328173 102.8173322
  17.4671054  59.4045236 102.0450316  16.0775105  59.8323062 102.4668215
  24.2557745  58.2835171 106.3194045  24.2376221  59.1044052 105.8274314
  25.1777666  58.1589247 106.5444186  20.7130800  55.7979301 107.1617553
  21.2459136  55.0367589 106.9316861  20.1844881  55.5052953 107.9041707
  23.8800495  40.9039367 102.6911195  23.5364764  41.7941009 102.6150305
  24.2479457  40.7141025 101.8280780  11.9486345  53.2272897  95.5099797
  12.7861567  53.6369906  95.2933505  12.1264613  52.2872340  95.4799991
  23.8450777  50.8947978  91.1983630  23.3297401  51.6652583  91.4372017
  23.5728086  50.2213114  91.8216691  21.4297888  45.7397679  96.2568868
  20.5739485  45.3504529  96.0774507  21.8424840  45.8189640  95.3968654
  22.9597035  43.2744022 100.6560428  22.4561831  43.2374157  99.8428233
  23.2527642  44.1836765 100.7157085  19.2039921  43.3582752  99.6626610
  20.0692918  43.1625560  99.3032499  19.2717430  43.1293104 100.5895966
  28.8185051  53.6480333  93.1336803  28.0414494  53.3091492  92.6891965
  29.4976532  53.6532956  92.4591768  23.6337081  48.7675070  93.0243411
  23.3287216  49.0821219  93.8753554  24.5867523  48.8456490  93.0670744
  22.0783512  54.9265293  94.6736365  21.5504874  54.1918053  94.3609602
  21.5771015  55.7039970  94.4276333  27.0576358  53.1214314  99.7903411
  26.4000033  53.8113575  99.8783540  27.8616758  53.5110746 100.1337398
  16.8102240  45.5884960  97.0342976  17.3845992  45.3660141  96.3016169
  17.3973222  45.6573654  97.7871578  25.8681817  51.4758687  97.8407353
  26.3813699  52.1088678  98.3429063  26.5183041  50.8759882  97.4750713
  17.1371827  47.6189421  91.0538862  16.3009139  47.9564107  91.3748136
  16.9976597  47.4838401  90.1165999  19.1124908  42.4626209  95.7618046
  18.4589320  42.1475226  95.1374661  19.0705382  41.8401949  96.4877869
  20.2236113  52.7445504  87.6771338  19.3163174  52.5134757  87.8762487
  20.7207145  51.9483123  87.8645320  23.1304191  61.4543011  90.5968024
  22.4565890  61.7574708  91.2052982  23.5170013  62.2572091  90.2473481
  22.3462648  48.9508142 100.0865694  21.4285209  49.1723089  99.9287382
  22.7622792  49.0254453  99.2277401  23.1297696  50.3499558  95.2168374
  23.8769515  50.8620955  94.9075496  23.3989285  50.0283611  96.0772767
  21.4024346  52.8458099  92.1995328  20.4935565  52.5617131  92.2967798
  21.4319430  53.2657177  91.3398635  26.6343613  56.4564688  95.9686496
  26.1805940  55.6155598  96.0251686  26.0037580  57.0926086  96.3061276
  25.5776533  47.3856674  97.1987163  24.8399290  46.8734060  97.5297406
  25.8303306  46.9457056  96.3870440  25.0776553  58.2941185  96.9036314
  25.3699527  58.8546242  96.1848679  25.5875173  58.5869746  97.6589473
  25.6788160  40.1632926  97.7928932  25.9847037  39.3030289  97.5054847
  26.4040765  40.7550546  97.5927926  11.9712516  50.5663613  96.1810530
  11.7736916  49.9732973  95.4561597  11.4159180  50.2615823  96.8986469
  19.9509240  50.4586719  98.3005123  20.0057850  49.5060556  98.2247600
  19.1400442  50.6146158  98.7846422  21.1000434  54.3866842  89.5383407
  20.6619864  53.6702701  89.0789044  21.8410875  54.6142957  88.9768498
  17.8901600  49.0763779  96.0595502  17.0769465  49.3757949  96.4660694
  18.3860594  48.6819468  96.7769985  20.0410178  59.0721536  97.9929767
  19.9986357  59.2982382  97.0638299  20.9572877  58.8384910  98.1415568
  23.4875812  49.5405603 104.8910396  23.8425199  49.7677076 105.7504862
  24.1347943  49.8723980 104.2687651  29.2173549  52.6624039  95.5959725
  29.0791447  52.8525635  94.6680914  28.8609767  53.4243422  96.0527776
  17.3815675  46.6482134 101.6756737  18.0215054  46.5070894 100.9779701
  16.5493205  46.3616648 101.2995339  29.2442928  54.7300566 100.6070997
  29.6779435  54.6375855 101.4554051  29.9574509  54.7058067  99.9691013
  18.1575979  55.9484565  97.7891730  18.9516577  55.4534885  97.5874305
  17.4467671  55.4202428  97.4259435  22.9770823  58.3302660 102.1404097
  23.0307845  58.8993597 102.9081813  22.1085604  58.5004545 101.7758134
  14.4658742  50.0927647  93.8651482  13.5356330  50.0312102  94.0821445
  14.5616214  49.5703599  93.0688124  14.3844291  46.6182459  96.4529724
  14.6451108  47.5327793  96.3438885  15.2061463  46.1506902  96.6026337
  15.8569216  48.0320217 103.6228549  16.5292270  47.8237579 102.9741197
  15.0299003  47.8342303 103.1833781  30.1058478  54.7724267 103.1403882
  30.2994368  55.6770077 103.3863157  30.0059096  54.3131686 103.9742467
  21.7594788  44.6582157 105.6394209  21.1122703  45.3572107 105.5458686
  22.5295804  45.0918301 106.0070458  25.1673586  54.9231010 108.7144763
  25.0159093  54.6941561 107.7974846  25.1578266  55.8801611 108.7276108
  21.9358923  52.4962922 103.6991029  22.8650983  52.6474082 103.5259996
  21.5149953  52.5846943 102.8439676  20.7347255  56.5213587 101.4689567
  20.5958340  56.1532371 102.3415505  19.9461851  57.0361226 101.2973525
  21.3295407  61.6222683  92.8115103  21.5047162  61.1510726  93.6260726
  20.6428195  62.2488449  93.0396364  22.2852470  55.8995190  98.8578405
  21.9502302  55.8595959  99.7536054  21.7856415  55.2339905  98.3848815
  16.2596714  51.3062820 104.3830986  16.1216512  50.5743058 104.9842525
  17.1701637  51.2171720 104.1015173  25.2211661  53.2451224  89.1315464
  24.6040832  52.5198052  89.0348517  24.7528150  54.0060584  88.7882538
  18.8879014  51.0182779 103.8714665  19.5978633  50.3775971 103.8301284
  18.8448323  51.2695674 104.7940846  26.8765793  57.9550132 106.7921245
  26.8178339  57.2709352 106.1251828  27.2785311  58.6969122 106.3401871
  17.6007948  48.0047997 105.6910305  17.0645305  47.5538735 106.3431901
  17.0124657  48.1393906 104.9480769  15.8956492  64.7712046  99.5854963
  16.1353090  65.4030570 100.2633982  15.0525688  64.4200086  99.8720323
  17.0110207  47.4636648  88.2536769  16.1339674  47.3425449  87.8899015
  17.4867960  46.6722726  88.0015657  26.8783200  55.9189716 105.0235224
  25.9909979  55.5815638 105.1461623  27.4481751  55.1872747 105.2603990
   8.5312347  52.2513808  98.3478276   9.2183387  51.9375538  97.7599291
   8.3760476  53.1555173  98.0745527  13.3347070  47.1404004 102.7763299
  13.2505258  46.5329674 102.0413709  12.5129776  47.6313023 102.7772796
  20.4084354  60.5791168 101.9896467  20.3354525  61.3846140 102.5015772
  19.9661747  60.7783134 101.1644489  20.1974133  59.8162939  95.4999289
  19.4141655  60.3584619  95.5937514  20.8966879  60.3336918  95.8993530
  23.5070783  45.6257568  98.1433494  24.0039483  44.8727530  97.8234565
  22.7357765  45.6621885  97.5776704  31.3600541  51.3297934  99.7851786
  31.3490417  52.2122649  99.4145719  30.4917920  50.9769484  99.5906323
  22.8683037  60.4778003 104.1454626  23.5811009  61.1125467 104.0730528
  22.3773066  60.5741869 103.3294628  24.5900564  54.3829255  95.7171918
  23.6556843  54.5030718  95.5476622  24.7677233  53.4801722  95.4531928
  20.0905752  47.7674951  97.8705179  19.7203540  47.2145991  98.5586085
  20.5864845  47.1633084  97.3180179  27.9773115  50.2246574  96.2521952
  28.4433568  51.0574566  96.1782255  28.4280616  49.7591556  96.9567210
  17.9194951  58.2272446 104.9660197  18.6204410  58.8608929 105.1189591
  17.4490066  58.5687178 104.2055836  26.0449347  56.5690396  93.2508104
  26.3209190  56.4546990  94.1601978  25.1753845  56.1707881  93.2120277
  25.9489778  42.5927161 100.2912853  25.0352858  42.8231388 100.4595060
  26.3782880  42.6765606 101.1426886  25.7196237  50.7817053 102.7912747
  25.0667687  51.0292961 102.1365200  26.0976617  49.9681192 102.4575225
  22.6803411  60.8176747  96.8940918  22.8625805  59.9998403  97.3568670
  23.5036397  61.0344439  96.4565808  23.0145576  59.7444932  94.1555966
  23.5433343  59.2337386  93.5426128  23.2773796  59.4287462  95.0201499
  21.7683810  51.5236864 109.2778784  21.0924447  51.4230994 109.9481160
  22.5911444  51.3676078 109.7414782  13.5162669  57.7608801 101.8991300
  14.1016106  57.0152489 102.0319204  13.3187507  58.0712758 102.7827964
  16.3701324  60.7960048  96.9153742  15.7011699  61.2806176  96.4317782
  16.2314194  61.0429269  97.8297121   8.1080324  50.3314401 100.6195743
   8.1464423  49.7977992 101.4132861   7.6020616  49.8049607 100.0006720
  20.5106593  62.8303792 103.5136400  21.0624901  62.9935413 104.2785486
  20.8512786  63.4208230 102.8416425  15.4871086  45.1778942 104.1158285
  15.5512412  46.0393773 103.7035683  15.4238206  44.5652943 103.3830644
  25.3617467  57.6565049 109.3685055  25.9057371  58.2695008 108.8740010
  24.7804312  58.2144628 109.8852068  11.7388901  49.0578503  93.6949674
  12.0342342  48.1489182  93.6416728  10.8376937  49.0366243  93.3730677
  23.6474980  60.7785767 100.5000083  23.5226119  59.9775507  99.9911028
  24.3054071  61.2731961 100.0114053  15.2683148  47.1334500  99.6777223
  14.5469734  47.7470468  99.5384696  16.0576404  47.6692265  99.5993869
  25.7109888  58.5794788 102.1279633  24.7640224  58.4600139 102.0557959
  26.0592661  57.6917286 102.2105894  13.4676743  46.7392601  93.8188999
  13.1389449  45.8589980  93.6364105  13.8216113  46.6840270  94.7065389
  22.7156322  58.3747504  98.3283985  22.5681284  57.4464211  98.5091555
  23.5409815  58.3967594  97.8441060  16.5818566  47.0265571  94.1864477
  16.9214638  47.5551492  93.4643085  17.0290686  47.3645977  94.9623044
  26.3190443  59.1976062  99.4148858  27.2436991  58.9918924  99.2773309
  26.1505747  58.9492464 100.3238199  19.2762007  45.4102622 103.6367545
  18.9358827  44.6110435 104.0388225  18.5701013  45.7104332 103.0644378
  19.9278479  42.4951934 102.0894868  20.7504548  42.0212412 101.9673758
  20.1716542  43.2742418 102.5893554  18.5686713  45.5240192  92.3857770
  19.2895076  45.9021445  91.8821487  17.9452017  46.2429069  92.4892748
  22.7117836  46.2285341  93.3216102  22.9281450  47.1109979  93.0204930
  22.2311903  45.8371555  92.5921744  17.4517057  49.1871055  99.8986847
  17.3061638  49.5011358 100.7911128  16.9742261  49.8055955  99.3457745
  19.3113440  46.1773603  99.9467736  19.2975009  45.2814696  99.6100034
  20.0285868  46.1844266 100.5806022  21.1639571  46.6110943 101.9920864
  20.9057349  47.5328013 101.9905194  20.6324611  46.2141377 102.6821328
  26.1085760  59.7161730  94.7710949  26.2822637  59.1508152  94.0184802
  26.6014651  60.5162625  94.5890439  11.9262719  51.7276399 102.8374508
  11.3816188  52.5036207 102.9694782  12.8042069  52.0747204 102.6793629
  18.7150336  45.0587983  95.2155306  18.8366247  44.1304629  95.4146194
  18.4252378  45.0726669  94.3033622  21.5841526  42.7442893  98.3522026
  21.6063223  42.8082226  97.3974006  22.0009585  41.9047402  98.5462532
  31.9625151  52.4798153  96.3901249  32.4056297  51.7305478  95.9920372
  31.0851661  52.4708289  96.0074981  27.0960932  59.0328494  91.8707847
  27.7911837  59.6535187  92.0895162  27.4384082  58.1823846  92.1460225
  12.7128741  50.8546295 105.7304665  11.9710477  51.0028931 106.3169295
  12.3921486  51.1154561 104.8671414  28.9952355  56.4828200  93.3995178
  29.5203679  56.8215473  92.6744498  28.9074708  55.5475215  93.2158313
  20.6572404  60.3962274 105.5285055  20.9659530  60.1511420 106.4007754
  21.4547886  60.6008912 105.0403925  20.6793016  62.5500183  97.7590431
  20.2398006  62.0576562  98.4523288  21.4301133  62.0073151  97.5182507
  13.1585355  58.7411724  97.7615059  13.9843375  58.4415496  97.3813703
  12.8079407  57.9719346  98.2104848  18.1266888  58.0938192  99.8312733
  17.5046897  57.4308897  99.5314961  18.7971755  58.1199324  99.1486381
  11.3593960  56.6598050  98.7203993  10.5225868  56.2320225  98.5387994
  11.3317605  56.8530494  99.6574784  28.6846261  57.1161104 108.7046376
  27.8941805  57.0985242 108.1650875  28.4479616  57.6549397 109.4595413
  28.8044136  53.9653570 106.0179105  28.8542141  53.8003577 106.9594627
  28.6958060  53.0980829 105.6276985  17.6880395  56.6442116  93.3071194
  17.8368515  57.3277580  92.6537866  18.4946839  56.6247206  93.8220649
  26.0947899  49.9484498 107.3338411  26.9957762  49.8090963 107.0422409
  26.1695873  50.1138953 108.2736589  20.4290704  47.3251353 106.1791598
  19.5594013  47.6184919 105.9074186  20.6650184  47.9091798 106.8998861
  30.3062333  56.3850511 106.2621126  30.0147142  56.7480492 107.0984587
  29.6934464  55.6717520 106.0834458  31.5058016  53.9503391  98.7823696
  32.3404907  54.3893195  98.9461257  31.6417144  53.4742044  97.9631942
  28.5549521  51.5083126 104.7301184  29.0303643  51.7010772 103.9220036
  27.6315087  51.5642312 104.4844568  15.4433028  52.6707293  94.3132262
  15.1979070  51.7669623  94.5112473  15.6128943  52.6724444  93.3711740
  23.1329738  43.5430970 103.6957018  23.6511682  44.2791997 103.3703507
  22.7784871  43.8494963 104.5303777  14.7128676  48.4035651  91.8118424
  14.0197921  48.4780006  91.1558460  14.4680427  47.6395994  92.3339941
  23.3842332  39.9631252  99.2157915  23.6644086  39.2954441  99.8418341
  24.1692939  40.1560348  98.7032578  21.1875801  59.1390246  90.7782941
  20.6149768  59.7580433  90.3253413  21.7608594  59.6889608  91.3122863
  27.2551190  48.3848886 102.9629490  28.2068613  48.4846984 102.9841714
  27.0854641  47.5927155 103.4727574  25.2765570  45.4704469 103.1488891
  24.6815502  45.7509482 102.4535379  24.9915267  45.9598370 103.9205632
  24.4073060  59.4227396  91.9091523  25.3403734  59.3572958  92.1124399
  24.3196273  60.2583663  91.4506056  27.0361077  58.7393267  88.8695471
  26.9574709  58.4053130  89.7631229  27.8570744  59.2315034  88.8686943
  29.7339268  51.6055006 102.0771789  29.7015588  50.6671007 102.2631473
  30.3439892  51.6839043 101.3437614  21.5722599  50.4751059  88.1198993
  22.5181704  50.3457267  88.1887411  21.1936844  49.7365721  88.5968422
  29.8833757  48.3966049 102.1230073  29.3672805  47.6124506 101.9360001
  30.7673705  48.0684766 102.2876592  27.5444484  42.1407065  98.0825885
  27.3469305  41.8322153  98.9669217  28.1544189  42.8668704  98.2123815
  35.5515818  52.6671013 101.2177826  36.2819207  52.4056301 101.7785530
  34.9422764  51.9299735 101.2579894  33.6331115  50.8078875 101.8152277
  32.9064279  50.6734840 101.2068769  33.2178402  51.1155704 102.6208995
  21.4561292  54.5268805 109.5799650  22.3764301  54.7047404 109.7739697
  21.4210875  53.5824850 109.4279350  19.7565516  48.4001035  88.0553879
  18.8496972  48.1034148  88.1316592  20.0341497  48.1030853  87.1888165
  10.6743457  49.7207399  98.5052925  10.3546241  48.8672707  98.2127299
  10.1276885  49.9355977  99.2610892  14.4523364  52.4369840 102.2222432
  14.6709374  53.3686947 102.2410465  14.8649138  52.0777814 103.0077235
  21.3727582  42.9437925  94.2098120  20.5628310  42.5985010  94.5853366
  22.0611999  42.6345469  94.7985732  23.3018130  42.0215972  95.8322417
  23.8549169  42.4411425  96.4912440  23.5388217  41.0951720  95.8745373
  18.5264301  45.2587970  88.1965858  19.3883465  45.5842869  88.4561675
  18.7114645  44.4719466  87.6838924  10.5431717  53.3410310 100.4746047
   9.8495188  52.9264263  99.9616001  11.2904708  53.3830847  99.8779466
  26.6796937  44.1316497  95.3401081  26.0995606  44.7901301  94.9579133
  26.4132870  43.3093841  94.9288498  25.1300504  43.5321555  97.5422401
  25.6300282  43.6438089  96.7336720  25.7736112  43.2282607  98.1823210
  19.1882500  51.4400184 110.4290242  18.7049581  52.2400544 110.6354131
  19.2743439  51.4508129 109.4757686  12.4568459  53.2728564  98.3512062
  12.4339147  53.3716251  97.3993945  12.7669096  54.1193715  98.6729228
  15.1155837  55.3304719 102.4658676  16.0699091  55.2988661 102.3988608
  14.9168361  54.8695343 103.2808902  15.7055219  53.9005835 105.0329474
  16.5248108  54.3949914 105.0564311  15.9792027  52.9837803 105.0047041
  25.4621815  46.2916587  94.3957429  24.5747670  46.5766238  94.1777624
  25.8775804  46.1310351  93.5484706  28.8136352  46.3163108  98.1111768
  29.5896742  46.8059561  98.3836385  28.0884486  46.7421162  98.5683638
  31.2508910  47.0290727  99.1685709  31.8453401  46.7886463  98.4579017
  31.3235494  46.3097858  99.7959245  13.4706066  60.8724338  99.4828874
  13.3360534  60.1124739  98.9166872  13.0538128  61.5965238  99.0157663
  24.6065029  56.0561262  88.4905449  25.3100879  56.2611264  89.1063105
  23.8827678  56.6238024  88.7554533  25.4362839  51.8071123  94.6107719
  25.3798041  52.2639675  93.7715352  25.9891182  51.0461808  94.4330562
  29.2467645  47.5960855  95.4357839  28.9904579  47.1957491  96.2666046
  28.6220513  48.3104649  95.3107978  33.5579983  50.3356928  97.9429130
  32.9979541  50.4050118  98.7160692  32.9523486  50.1597913  97.2228626
  16.6275192  61.7693655  99.6947316  16.5107576  62.7139088  99.5926007
  15.8067638  61.4667217 100.0833116  26.5151726  56.4943791  90.5403909
  27.3497330  56.0624990  90.3581384  26.3536069  56.3225805  91.4680804
  26.1697618  52.9975904  91.9060248  26.1146422  52.8320176  90.9648693
  25.5443674  53.7051937  92.0622438  23.4843526  55.3024816 111.2313811
  24.3534685  55.4765469 110.8700446  23.0050277  56.1219233 111.1089541
  19.4793744  42.4984013  91.4845567  19.4672414  43.4425853  91.6413838
  20.3717166  42.3154159  91.1905028  17.6529706  62.4221917 102.9103245
  18.5556953  62.4545528 103.2269740  17.4267076  61.4922368 102.9249581
  19.4083308  61.1752904  99.5713324  18.4578939  61.1754765  99.4577696
  19.7115794  60.4285638  99.0549358  23.2945863  39.0926790  95.7391504
  22.5278259  38.5385277  95.8848186  23.7056568  39.1648659  96.6005655
  35.1436001  67.0113442 100.6359086  35.7814411  66.8920190  99.9322426
  35.0256844  67.9594286 100.6947038  31.9525708  66.9640870 100.5720611
  31.6144219  66.8481935  99.6841145  32.8215476  66.5632035 100.5521617
  27.8112523  68.8176347  96.5617502  27.2477388  68.7266284  95.7933789
  27.6964918  67.9976251  97.0419994  32.4345491  68.1175722 106.5306816
  32.4234131  67.7228520 105.6587320  32.5966130  67.3841795 107.1240588
  25.3576955  70.3127538  99.4001722  26.1498247  69.9718363  98.9848021
  25.5973605  70.4222513 100.3203875  33.3912082  72.4847314  91.8731966
  32.7400062  73.0701395  91.4865980  34.1856445  73.0153509  91.9327004
  27.3167709  69.5736452  92.2719101  28.0898585  69.0265439  92.1331977
  27.6693108  70.4380701  92.4833562  29.1552752  70.9012834 105.4786000
  28.8642618  71.8058465 105.3632666  29.7909736  70.9429361 106.1930070
  30.0808959  68.2789682 102.0687360  30.6772531  68.0545705 101.3544323
  30.1383930  67.5374428 102.6712808  29.6533987  65.7329118  89.9037551
  29.9059508  65.2110639  89.1421014  28.7158546  65.5695263  90.0064234
  34.6977270  64.7364896  97.7112294  35.4840359  64.3184319  97.3602711
  34.9615974  65.6410988  97.8793942  34.8687347  70.1737746  92.4100951
  34.2333180  70.2472373  93.1221855  34.5384754  70.7631345  91.7320030
  40.0985697  64.6740129  98.6145272  40.8310869  64.1039346  98.8483102
  39.3425053  64.2861730  99.0551778  29.3730276  67.6357224  92.1061926
  29.2566534  66.9602127  92.7743010  29.4832536  67.1489598  91.2894079
  31.7161817  67.0967371  95.8108615  31.3520024  66.5697992  96.5221536
  32.5728933  66.7065840  95.6375100  37.6211117  58.3861703 103.0739881
  37.2894442  59.2557114 102.8501096  37.0256731  58.0697987 103.7533911
  31.3567304  62.1257270  90.8069963  31.5241706  62.9937507  91.1740434
  31.1664473  62.2884552  89.8831253  34.1142637  70.5874249 102.4735794
  33.8143360  71.4899288 102.3651601  33.7693696  70.3206433 103.3256947
  27.5655118  67.0388046  98.5072498  26.6405615  66.9064260  98.7150190
  27.8139532  67.8182265  99.0042441  37.5139781  63.1056790 100.1533231
  36.6056658  63.0372198  99.8591992  37.4627376  63.5828734 100.9815057
  31.3356525  64.5814928  91.7916630  31.2156150  65.0271979  92.6302111
  30.6409113  64.9300246  91.2330168  24.9263929  66.6821320  99.3416287
  25.0556311  66.9355799 100.2555699  24.2461381  67.2749028  99.0220942
  29.0963417  77.3518570  95.4406761  29.0187446  78.3026395  95.5195242
  28.4925060  77.0064442  96.0981688  31.5880646  64.5246435 108.0968128
  30.8113980  65.0840355 108.0870993  32.2271209  65.0103218 108.6182998
  39.3801427  61.3073228 101.9311105  38.7375807  61.6005761 101.2850900
  38.8756356  61.1926148 102.7364302  37.0341591  65.0536401  92.6196964
  37.9459447  65.2863788  92.4444662  36.5251238  65.6373445  92.0572043
  29.8427019  67.3331889 107.6586095  30.5841703  67.8716932 107.3820919
  29.1364004  67.9598177 107.8157647  35.3182358  69.4761029 106.2558257
  35.7265714  69.0343439 105.5112889  34.5959620  68.9013656 106.5092450
  31.6713428  64.4133636 103.6291814  32.5174624  64.8373049 103.7726463
  31.6112066  63.7567260 104.3230377  35.6411173  70.0362220 100.0110546
  35.0120035  70.2007934  99.3086614  35.2536835  70.4503829 100.7821510
  39.5200405  70.9716657  97.3654910  38.8351443  71.3515559  96.8151943
  39.6044254  71.5811984  98.0986857  34.8212874  62.0738004 105.2872987
  34.5773806  62.8280065 104.7507263  35.0972804  62.4523352 106.1220235
  36.7751336  68.6176616 103.9650253  36.9868232  69.2608376 103.2884634
  36.7281085  67.7838933 103.4972183  34.3777565  61.2294437 100.8686825
  33.5162044  61.5275691 101.1603563  34.4040000  61.4464836  99.9367858
  31.1939135  69.7736628  97.2760631  31.6577480  70.0524331  96.4865253
  30.9295933  68.8720072  97.0933722  28.0863216  69.3208109 100.2140394
  28.6564573  69.7495378  99.5757879  28.6771328  69.0390694 100.9124580
  30.1308021  65.8959780  94.0850196  30.8332064  66.3480824  94.5524122
  29.7988649  65.2543599  94.7130089  28.5788382  64.4871537 108.4601405
  27.9487043  65.1687818 108.6936802  28.4724470  64.3754618 107.5154544
  23.8733355  64.1543333  99.3867330  23.0832409  64.4100861  98.9107440
  24.3644602  64.9691671  99.4919370  37.8897164  71.4948572 102.1372610
  38.7114608  71.0928759 101.8555292  37.8859567  71.3916806 103.0888726
  25.8248100  64.5187912  96.3450806  25.0279264  64.6306606  96.8634302
  25.5973692  64.8574564  95.4791697  31.6553768  71.0432615 104.2933321
  31.7198200  71.5053022 105.1291493  30.9464692  70.4129980 104.4215631
  22.1571058  64.4073823 101.8182320  22.4079096  65.2920833 102.0839896
  22.6930606  64.2278425 101.0457412  45.9803157  67.8387320  98.4857582
  45.2266866  67.2694718  98.3301586  46.1150699  67.8049985  99.4328217
  31.3701786  72.7100723  94.1612301  31.2347460  73.5552258  94.5897149
  31.9111598  72.9120000  93.3978235  27.8569125  58.7892303 110.8226656
  27.4636071  58.2358501 111.4974301  28.6735265  59.1002881 111.2133174
  24.8231183  70.2276161  94.7340226  25.3355703  71.0219411  94.8845791
  25.4753896  69.5302451  94.6673828  26.6326068  73.3441917  96.8162979
  26.8092696  74.2659882  96.6283963  27.4282901  73.0300336  97.2457359
  30.7737086  60.2050182 108.4146913  31.5146800  60.8057335 108.3351375
  31.0055009  59.4627819 107.8564956  25.9178424  65.3906549 106.6925143
  25.8031939  64.4891806 106.9932242  25.0622942  65.6370246 106.3409959
  32.9970262  73.3324289 108.2912643  32.5534116  72.5460668 107.9733548
  33.6587475  73.5203440 107.6256534  27.7557383  74.8620091 102.8173322
  28.3064808  74.7337154 102.0450316  26.9168859  75.1614980 102.4668215
  35.0951500  73.6127089 106.3194045  35.0769975  74.4335970 105.8274314
  36.0171420  73.4881164 106.5444186  31.5524554  71.1271219 107.1617553
  32.0852891  70.3659507 106.9316861  31.0238635  70.8344870 107.9041707
  34.7194249  56.2331285 102.6911195  34.3758518  57.1232926 102.6150305
  35.0873212  56.0432942 101.8280780  22.7880100  68.5564815  95.5099797
  23.6255322  68.9661823  95.2933505  22.9658367  67.6164257  95.4799991
  34.6844532  66.2239896  91.1983630  34.1691155  66.9944500  91.4372017
  34.4121840  65.5505032  91.8216691  32.2691643  61.0689596  96.2568868
  31.4133239  60.6796447  96.0774507  32.6818595  61.1481557  95.3968654
  33.7990789  58.6035940 100.6560428  33.2955585  58.5666075  99.8428233
  34.0921396  59.5128682 100.7157085  30.0433675  58.6874669  99.6626610
  30.9086672  58.4917478  99.3032499  30.1111184  58.4585021 100.5895966
  39.6578806  68.9772250  93.1336803  38.8808249  68.6383410  92.6891965
  40.3370287  68.9824873  92.4591768  34.4730835  64.0966988  93.0243411
  34.1680971  64.4113137  93.8753554  35.4261277  64.1748408  93.0670744
  32.9177267  70.2557211  94.6736365  32.3898628  69.5209971  94.3609602
  32.4164770  71.0331887  94.4276333  37.8970113  68.4506232  99.7903411
  37.2393787  69.1405493  99.8783540  38.7010512  68.8402664 100.1337398
  27.6495994  60.9176877  97.0342976  28.2239746  60.6952059  96.3016169
  28.2366977  60.9865572  97.7871578  36.7075572  66.8050604  97.8407353
  37.2207453  67.4380596  98.3429063  37.3576796  66.2051800  97.4750713
  27.9765582  62.9481338  91.0538862  27.1402894  63.2856025  91.3748136
  27.8370351  62.8130318  90.1165999  29.9518662  57.7918126  95.7618046
  29.2983075  57.4767143  95.1374661  29.9099136  57.1693867  96.4877869
  31.0629867  68.0737421  87.6771338  30.1556929  67.8426675  87.8762487
  31.5600899  67.2775041  87.8645320  33.9697946  76.7834929  90.5968024
  33.2959645  77.0866625  91.2052982  34.3563768  77.5864009  90.2473481
  33.1856403  64.2800060 100.0865694  32.2678964  64.5015007  99.9287382
  33.6016546  64.3546370  99.2277401  33.9691450  65.6791475  95.2168374
  34.7163269  66.1912873  94.9075496  34.2383040  65.3575528  96.0772767
  32.2418100  68.1750016  92.1995328  31.3329320  67.8909049  92.2967798
  32.2713184  68.5949095  91.3398635  37.4737368  71.7856606  95.9686496
  37.0199695  70.9447516  96.0251686  36.8431335  72.4218004  96.3061276
  36.4170287  62.7148592  97.1987163  35.6793044  62.2025978  97.5297406
  36.6697061  62.2748973  96.3870440  35.9170307  73.6233102  96.9036314
  36.2093281  74.1838160  96.1848679  36.4268928  73.9161663  97.6589473
  36.5181915  55.4924844  97.7928932  36.8240792  54.6322207  97.5054847
  37.2434520  56.0842464  97.5927926  22.8106271  65.8955530  96.1810530
  22.6130671  65.3024891  95.4561597  22.2552935  65.5907741  96.8986469
  30.7902994  65.7878637  98.3005123  30.8451604  64.8352473  98.2247600
  29.9794197  65.9438076  98.7846422  31.9394188  69.7158760  89.5383407
  31.5013618  68.9994619  89.0789044  32.6804629  69.9434875  88.9768498
  28.7295354  64.4055697  96.0595502  27.9163220  64.7049867  96.4660694
  29.2254349  64.0111385  96.7769985  30.8803932  74.4013453  97.9929767
  30.8380111  74.6274300  97.0638299  31.7966631  74.1676828  98.1415568
  34.3269566  64.8697521 104.8910396  34.6818954  65.0968994 105.7504862
  34.9741697  65.2015898 104.2687651  40.0567303  67.9915957  95.5959725
  39.9185202  68.1817553  94.6680914  39.7003522  68.7535340  96.0527776
  28.2209429  61.9774052 101.6756737  28.8608809  61.8362811 100.9779701
  27.3886960  61.6908565 101.2995339  40.0836683  70.0592484 100.6070997
  40.5173189  69.9667773 101.4554051  40.7968263  70.0349984  99.9691013
  28.9969733  71.2776482  97.7891730  29.7910332  70.7826803  97.5874305
  28.2861425  70.7494346  97.4259435  33.8164578  73.6594578 102.1404097
  33.8701600  74.2285514 102.9081813  32.9479359  73.8296463 101.7758134
  25.3052497  65.4219564  93.8651482  24.3750085  65.3604020  94.0821445
  25.4009969  64.8995517  93.0688124  25.2238046  61.9474377  96.4529724
  25.4844863  62.8619710  96.3438885  26.0455218  61.4798820  96.6026337
  26.6962971  63.3612134 103.6228549  27.3686024  63.1529496 102.9741197
  25.8692757  63.1634220 103.1833781  40.9452232  70.1016185 103.1403882
  41.1388122  71.0061995 103.3863157  40.8452850  69.6423604 103.9742467
  32.5988543  59.9874075 105.6394209  31.9516458  60.6864025 105.5458686
  33.3689558  60.4210219 106.0070458  36.0067341  70.2522927 108.7144763
  35.8552847  70.0233479 107.7974846  35.9972020  71.2093529 108.7276108
  32.7752677  67.8254840 103.6991029  33.7044737  67.9766000 103.5259996
  32.3543707  67.9138861 102.8439676  31.5741009  71.8505504 101.4689567
  31.4352095  71.4824289 102.3415505  30.7855605  72.3653144 101.2973525
  32.1689161  76.9514601  92.8115103  32.3440917  76.4802644  93.6260726
  31.4821949  77.5780367  93.0396364  33.1246224  71.2287107  98.8578405
  32.7896057  71.1887877  99.7536054  32.6250170  70.5631823  98.3848815
  27.0990468  66.6354737 104.3830986  26.9610266  65.9034976 104.9842525
  28.0095392  66.5463637 104.1015173  36.0605416  68.5743142  89.1315464
  35.4434587  67.8489970  89.0348517  35.5921904  69.3352502  88.7882538
  29.7272769  66.3474697 103.8714665  30.4372387  65.7067889 103.8301284
  29.6842077  66.5987591 104.7940846  37.7159548  73.2842050 106.7921245
  37.6572094  72.6001270 106.1251828  38.1179066  74.0261040 106.3401871
  28.4401703  63.3339914 105.6910305  27.9039060  62.8830653 106.3431901
  27.8518411  63.4685823 104.9480769  26.7350246  80.1003964  99.5854963
  26.9746845  80.7322488 100.2633982  25.8919443  79.7492004  99.8720323
  27.8503962  62.7928566  88.2536769  26.9733428  62.6717367  87.8899015
  28.3261715  62.0014644  88.0015657  37.7176955  71.2481634 105.0235224
  36.8303734  70.9107556 105.1461623  38.2875506  70.5164665 105.2603990
  19.3706102  67.5805726  98.3478276  20.0577142  67.2667456  97.7599291
  19.2154231  68.4847090  98.0745527  24.1740824  62.4695922 102.7763299
  24.0899013  61.8621592 102.0413709  23.3523530  62.9604940 102.7772796
  31.2478108  75.9083086 101.9896467  31.1748280  76.7138058 102.5015772
  30.8055501  76.1075052 101.1644489  31.0367888  75.1454856  95.4999289
  30.2535410  75.6876536  95.5937514  31.7360633  75.6628836  95.8993530
  34.3464538  60.9549486  98.1433494  34.8433237  60.2019448  97.8234565
  33.5751519  60.9913802  97.5776704  42.1994295  66.6589851  99.7851786
  42.1884172  67.5414567  99.4145719  41.3311675  66.3061402  99.5906323
  33.7076792  75.8069920 104.1454626  34.4204764  76.4417385 104.0730528
  33.2166820  75.9033786 103.3294628  35.4294319  69.7121173  95.7171918
  34.4950597  69.8322635  95.5476622  35.6070987  68.8093640  95.4531928
  30.9299507  63.0966869  97.8705179  30.5597294  62.5437909  98.5586085
  31.4258599  62.4925002  97.3180179  38.8166870  65.5538492  96.2521952
  39.2827322  66.3866484  96.1782255  39.2674370  65.0883474  96.9567210
  28.7588705  73.5564364 104.9660197  29.4598165  74.1900847 105.1189591
  28.2883820  73.8979095 104.2055836  36.8843101  71.8982313  93.2508104
  37.1602945  71.7838908  94.1601978  36.0147600  71.4999798  93.2120277
  36.7883533  57.9219079 100.2912853  35.8746613  58.1523306 100.4595060
  37.2176634  58.0057523 101.1426886  36.5589991  66.1108971 102.7912747
  35.9061441  66.3584879 102.1365200  36.9370371  65.2973109 102.4575225
  33.5197165  76.1468664  96.8940918  33.7019560  75.3290320  97.3568670
  34.3430151  76.3636357  96.4565808  33.8539331  75.0736849  94.1555966
  34.3827097  74.5629304  93.5426128  34.1167550  74.7579380  95.0201499
  32.6077564  66.8528782 109.2778784  31.9318201  66.7522911 109.9481160
  33.4305198  66.6967996 109.7414782  24.3556423  73.0900719 101.8991300
  24.9409860  72.3444407 102.0319204  24.1581262  73.4004675 102.7827964
  27.2095079  76.1251966  96.9153742  26.5405454  76.6098094  96.4317782
  27.0707948  76.3721187  97.8297121  18.9474078  65.6606319 100.6195743
  18.9858178  65.1269910 101.4132861  18.4414371  65.1341524 100.0006720
  31.3500347  78.1595710 103.5136400  31.9018655  78.3227331 104.2785486
  31.6906541  78.7500147 102.8416425  26.3264840  60.5070859 104.1158285
  26.3906167  61.3685690 103.7035683  26.2631961  59.8944861 103.3830644
  25.8017113  62.5793992 107.7631319  26.4289152  62.1971069 108.3768844
  24.9445032  62.3608194 108.1287012  36.2011221  72.9856967 109.3685055
  36.7451125  73.5986925 108.8740010  35.6198066  73.5436546 109.8852068
  22.5782656  64.3870421  93.6949674  22.8736097  63.4781099  93.6416728
  21.6770691  64.3658161  93.3730677  34.4868734  76.1077685 100.5000083
  34.3619874  75.3067425  99.9911028  35.1447826  76.6023879 100.0114053
  26.1076903  62.4626418  99.6777223  25.3863488  63.0762385  99.5384696
  26.8970158  62.9984182  99.5993869  36.5503643  73.9086705 102.1279633
  35.6033978  73.7892056 102.0557959  36.8986416  73.0209203 102.2105894
  28.9103216  59.7980844 105.9517875  29.4337618  60.0443141 106.7144184
  28.6915549  60.6300879 105.5321012  24.3070497  62.0684519  93.8188999
  23.9783203  61.1881898  93.6364105  24.6609868  62.0132187  94.7065389
  33.5550076  73.7039421  98.3283985  33.4075039  72.7756129  98.5091555
  34.3803570  73.7259512  97.8441060  27.4212320  62.3557489  94.1864477
  27.7608393  62.8843410  93.4643085  27.8684441  62.6937895  94.9623044
  37.1584198  74.5267980  99.4148858  38.0830745  74.3210842  99.2773309
  36.9899501  74.2784381 100.3238199  30.1155761  60.7394539 103.6367545
  29.7752582  59.9402352 104.0388225  29.4094767  61.0396250 103.0644378
  30.7672233  57.8243852 102.0894868  31.5898302  57.3504330 101.9673758
  31.0110297  58.6034335 102.5893554  29.4080468  60.8532110  92.3857770
  30.1288830  61.2313363  91.8821487  28.7845772  61.5720987  92.4892748
  33.5511590  61.5577259  93.3216102  33.7675205  62.4401897  93.0204930
  33.0705658  61.1663472  92.5921744  28.2910812  64.5162972  99.8986847
  28.1455392  64.8303275 100.7911128  27.8136015  65.1347873  99.3457745
  30.1507195  61.5065520  99.9467736  30.1368763  60.6106614  99.6100034
  30.8679623  61.5136184 100.5806022  32.0033325  61.9402861 101.9920864
  31.7451103  62.8619931 101.9905194  31.4718366  61.5433295 102.6821328
  36.9479514  75.0453648  94.7710949  37.1216392  74.4800070  94.0184802
  37.4408405  75.8454543  94.5890439  22.7656474  67.0568317 102.8374508
  22.2209942  67.8328125 102.9694782  23.6435824  67.4039121 102.6793629
  29.5544091  60.3879901  95.2155306  29.6760002  59.4596547  95.4146194
  29.2646133  60.4018587  94.3033622  32.4235281  58.0734811  98.3522026
  32.4456978  58.1374144  97.3974006  32.8403340  57.2339320  98.5462532
  42.8018905  67.8090071  96.3901249  43.2450051  67.0597396  95.9920372
  41.9245416  67.8000207  96.0074981  37.9354687  74.3620412  91.8707847
  38.6305591  74.9827105  92.0895162  38.2777837  73.5115763  92.1460225
  23.5522496  66.1838213 105.7304665  22.8104232  66.3320848 106.3169295
  23.2315240  66.4446479 104.8671414  39.8346110  71.8120118  93.3995178
  40.3597434  72.1507390  92.6744498  39.7468462  70.8767133  93.2158313
  31.4966158  75.7254191 105.5285055  31.8053285  75.4803338 106.4007754
  32.2941640  75.9300830 105.0403925  31.5186770  77.8792101  97.7590431
  31.0791761  77.3868480  98.4523288  32.2694887  77.3365069  97.5182507
  23.9979109  74.0703642  97.7615059  24.8237129  73.7707414  97.3813703
  23.6473161  73.3011264  98.2104848  28.9660643  73.4230110  99.8312733
  28.3440652  72.7600815  99.5314961  29.6365510  73.4491242  99.1486381
  22.1987715  71.9889968  98.7203993  21.3619623  71.5612143  98.5387994
  22.1711360  72.1822411  99.6574784  29.0385170  61.9011898 109.4245239
  29.0873326  62.7774021 109.0423009  29.5807684  61.3589291 108.8516882
  39.5240016  72.4453021 108.7046376  38.7335560  72.4277160 108.1650875
  39.2873370  72.9841315 109.4595413  39.6437891  69.2945488 106.0179105
  39.6935896  69.1295495 106.9594627  39.5351814  68.4272747 105.6276985
  28.5274150  71.9734033  93.3071194  28.6762270  72.6569498  92.6537866
  29.3340593  71.9539123  93.8220649  36.9341653  65.2776416 107.3338411
  37.8351516  65.1382880 107.0422409  37.0089628  65.4430870 108.2736589
  31.2684459  62.6543270 106.1791598  30.3987768  62.9476836 105.9074186
  31.5043939  63.2383715 106.8998861  41.1456088  71.7142429 106.2621126
  40.8540896  72.0772410 107.0984587  40.5328219  71.0009437 106.0834458
  42.3451770  69.2795309  98.7823696  43.1798661  69.7185113  98.9461257
  42.4810899  68.8033962  97.9631942  39.3943276  66.8375044 104.7301184
  39.8697398  67.0302690 103.9220036  38.4708841  66.8934230 104.4844568
  26.2826783  67.9999211  94.3132262  26.0372824  67.0961541  94.5112473
  26.4522697  68.0016361  93.3711740  33.9723492  58.8722887 103.6957018
  34.4905436  59.6083914 103.3703507  33.6178625  59.1786881 104.5303777
  25.5522430  63.7327568  91.8118424  24.8591675  63.8071923  91.1558460
  25.3074182  62.9687912  92.3339941  34.2236087  55.2923170  99.2157915
  34.5037840  54.6246359  99.8418341  35.0086694  55.4852265  98.7032578
  32.0269555  74.4682164  90.7782941  31.4543522  75.0872351  90.3253413
  32.6002349  75.0181525  91.3122863  38.0944945  63.7140804 102.9629490
  39.0462368  63.8138901 102.9841714  37.9248395  62.9219072 103.4727574
  36.1159324  60.7996387 103.1488891  35.5209257  61.0801400 102.4535379
  35.8309021  61.2890288 103.9205632  35.2466815  74.7519314  91.9091523
  36.1797488  74.6864876  92.1124399  35.1590028  75.5875581  91.4506056
  37.8754832  74.0685184  88.8695471  37.7968463  73.7345048  89.7631229
  38.6964498  74.5606952  88.8686943  40.5733023  66.9346924 102.0771789
  40.5409343  65.9962924 102.2631473  41.1833646  67.0130960 101.3437614
  32.4116354  65.8042976  88.1198993  33.3575458  65.6749185  88.1887411
  32.0330599  65.0657638  88.5968422  40.7227511  63.7257967 102.1230073
  40.2066560  62.9416424 101.9360001  41.6067460  63.3976684 102.2876592
  38.3838238  57.4698982  98.0825885  38.1863059  57.1614071  98.9669217
  38.9937944  58.1960621  98.2123815  46.3909573  67.9962930 101.2177826
  47.1212961  67.7348218 101.7785530  45.7816518  67.2591652 101.2579894
  44.4724870  66.1370793 101.8152277  43.7458033  66.0026758 101.2068769
  44.0572157  66.4447622 102.6208995  32.2955046  69.8560723 109.5799650
  33.2158056  70.0339322 109.7739697  32.2604629  68.9116768 109.4279350
  30.5959271  63.7292953  88.0553879  29.6890726  63.4326066  88.1316592
  30.8735252  63.4322771  87.1888165  21.5137211  65.0499316  98.5052925
  21.1939995  64.1964624  98.2127299  20.9670639  65.2647894  99.2610892
  25.2917119  67.7661757 102.2222432  25.5103128  68.6978865 102.2410465
  25.7042892  67.4069732 103.0077235  32.2121336  58.2729843  94.2098120
  31.4022065  57.9276928  94.5853366  32.9005753  57.9637386  94.7985732
  34.1411885  57.3507889  95.8322417  34.6942923  57.7703343  96.4912440
  34.3781971  56.4243637  95.8745373  30.1644984  63.3394963 111.6125181
  30.0641711  64.2889320 111.5437272  29.9466526  63.0113202 110.7401251
  29.3658055  60.5879888  88.1965858  30.2277219  60.9134786  88.4561675
  29.5508400  59.8011384  87.6838924  21.3825471  68.6702228 100.4746047
  20.6888943  68.2556181  99.9616001  22.1298462  68.7122764  99.8779466
  37.5190692  59.4608415  95.3401081  36.9389361  60.1193219  94.9579133
  37.2526625  58.6385759  94.9288498  35.9694258  58.8613472  97.5422401
  36.4694037  58.9730007  96.7336720  36.6129866  58.5574525  98.1823210
  30.0276254  66.7692102 110.4290242  29.5443336  67.5692462 110.6354131
  30.1137193  66.7800047 109.4757686  23.2962214  68.6020482  98.3512062
  23.2732902  68.7008169  97.3993945  23.6062850  69.4485632  98.6729228
  25.9549592  70.6596637 102.4658676  26.9092845  70.6280579 102.3988608
  25.7562115  70.1987260 103.2808902  26.5448974  69.2297753 105.0329474
  27.3641863  69.7241831 105.0564311  26.8185781  68.3129721 105.0047041
  36.3015570  61.6208505  94.3957429  35.4141425  61.9058156  94.1777624
  36.7169559  61.4602268  93.5484706  39.6530106  61.6455026  98.1111768
  40.4290496  62.1351478  98.3836385  38.9278240  62.0713080  98.5683638
  42.0902665  62.3582645  99.1685709  42.6847155  62.1178381  98.4579017
  42.1629248  61.6389776  99.7959245  24.3099820  76.2016256  99.4828874
  24.1754288  75.4416657  98.9166872  23.8931883  76.9257156  99.0157663
  35.4458783  71.3853180  88.4905449  36.1494633  71.5903182  89.1063105
  34.7221432  71.9529941  88.7554533  36.2756594  67.1363041  94.6107719
  36.2191795  67.5931592  93.7715352  36.8284936  66.3753725  94.4330562
  40.0861400  62.9252773  95.4357839  39.8298334  62.5249408  96.2666046
  39.4614268  63.6396567  95.3107978  44.3973737  65.6648846  97.9429130
  43.8373295  65.7342035  98.7160692  43.7917241  65.4889831  97.2228626
  27.4668946  77.0985573  99.6947316  27.3501330  78.0431006  99.5926007
  26.6461392  76.7959135 100.0833116  37.3545481  71.8235709  90.5403909
  38.1891085  71.3916907  90.3581384  37.1929824  71.6517722  91.4680804
  37.0091373  68.3267822  91.9060248  36.9540177  68.1612094  90.9648693
  36.3837428  69.0343855  92.0622438  21.7983888  63.5635886 105.7321671
  22.4442751  63.0534840 106.2208896  21.5901039  64.3004568 106.3065096
  34.3237280  70.6316734 111.2313811  35.1928440  70.8057386 110.8700446
  33.8444032  71.4511151 111.1089541  30.3187498  57.8275931  91.4845567
  30.3066168  58.7717771  91.6413838  31.2110920  57.6446077  91.1905028
  28.4923460  77.7513835 102.9103245  29.3950707  77.7837445 103.2269740
  28.2660830  76.8214286 102.9249581  30.2477062  76.5044822  99.5713324
  29.2972693  76.5046683  99.4577696  30.5509548  75.7577556  99.0549358
  34.1339618  54.4218708  95.7391504  33.3672014  53.8677194  95.8848186
  34.5450323  54.4940577  96.6005655  26.1381379  60.7103504 109.8296685
  27.0012840  60.3540308 110.0400009  25.5646790  60.3717398 110.5172089
  45.9829756  82.3405360 100.6359086  46.6208166  82.2212107  99.9322426
  45.8650599  83.2886204 100.6947038  42.7919462  82.2932788 100.5720611
  42.4537974  82.1773853  99.6841145  43.6609230  81.8923953 100.5521617
  38.6506278  84.1468264  96.5617502  38.0871143  84.0558201  95.7933789
  38.5358673  83.3268169  97.0419994  43.2739245  83.4467640 106.5306816
  43.2627886  83.0520438 105.6587320  43.4359885  82.7133712 107.1240588
  36.1970710  85.6419456  99.4001722  36.9892002  85.3010281  98.9848021
  36.4367360  85.7514431 100.3203875  44.2305837  87.8139232  91.8731966
  43.5793816  88.3993313  91.4865980  45.0250199  88.3445427  91.9327004
  38.1561464  84.9028369  92.2719101  38.9292340  84.3557356  92.1331977
  38.5086863  85.7672619  92.4833562  39.9946506  86.2304752 105.4786000
  39.7036372  87.1350382 105.3632666  40.6303491  86.2721279 106.1930070
  40.9202713  83.6081600 102.0687360  41.5166285  83.3837622 101.3544323
  40.9777685  82.8666346 102.6712808  40.4927741  81.0621035  89.9037551
  40.7453262  80.5402557  89.1421014  39.5552301  80.8987181  90.0064234
  45.5371024  80.0656814  97.7112294  46.3234114  79.6476237  97.3602711
  45.8009729  80.9702906  97.8793942  45.7081102  85.5029664  92.4100951
  45.0726935  85.5764291  93.1221855  45.3778508  86.0923263  91.7320030
  50.9379451  80.0032047  98.6145272  51.6704623  79.4331264  98.8483102
  50.1818807  79.6153647  99.0551778  40.2124030  82.9649141  92.1061926
  40.0960288  82.2894045  92.7743010  40.3226290  82.4781515  91.2894079
  42.5555571  82.4259288  95.8108615  42.1913778  81.8989909  96.5221536
  43.4122687  82.0357758  95.6375100  48.4604872  73.7153621 103.0739881
  48.1288197  74.5849032 102.8501096  47.8650485  73.3989905 103.7533911
  42.1961058  77.4549188  90.8069963  42.3635460  78.3229425  91.1740434
  42.0058227  77.6176470  89.8831253  44.9536391  85.9166167 102.4735794
  44.6537114  86.8191206 102.3651601  44.6087451  85.6498350 103.3256947
  38.4048873  82.3679964  98.5072498  37.4799369  82.2356178  98.7150190
  38.6533286  83.1474183  99.0042441  48.3533535  78.4348707 100.1533231
  47.4450412  78.3664116  99.8591992  48.3021131  78.9120652 100.9815057
  42.1750279  79.9106846  91.7916630  42.0549904  80.3563896  92.6302111
  41.4802867  80.2592163  91.2330168  35.7657684  82.0113237  99.3416287
  35.8950065  82.2647716 100.2555699  35.0855135  82.6040945  99.0220942
  39.9357171  92.6810487  95.4406761  39.8581201  93.6318312  95.5195242
  39.3318815  92.3356360  96.0981688  42.4274401  79.8538353 108.0968128
  41.6507735  80.4132273 108.0870993  43.0664964  80.3395136 108.6182998
  50.2195182  76.6365146 101.9311105  49.5769562  76.9297679 101.2850900
  49.7150110  76.5218066 102.7364302  47.8735345  80.3828319  92.6196964
  48.7853201  80.6155706  92.4444662  47.3644992  80.9665363  92.0572043
  40.6820773  82.6623806 107.6586095  41.4235458  83.2008850 107.3820919
  39.9757759  83.2890095 107.8157647  46.1576113  84.8052947 106.2558257
  46.5659469  84.3635357 105.5112889  45.4353374  84.2305574 106.5092450
  42.5107183  79.7425553 103.6291814  43.3568378  80.1664967 103.7726463
  42.4505821  79.0859178 104.3230377  46.4804927  85.3654137 100.0110546
  45.8513790  85.5299851  99.3086614  46.0930590  85.7795747 100.7821510
  50.3594159  86.3008575  97.3654910  49.6745198  86.6807476  96.8151943
  50.4438009  86.9103902  98.0986857  45.6606628  77.4029922 105.2872987
  45.4167560  78.1571982 104.7507263  45.9366559  77.7815269 106.1220235
  47.6145091  83.9468534 103.9650253  47.8261986  84.5900294 103.2884634
  47.5674839  83.1130851 103.4972183  45.2171320  76.5586355 100.8686825
  44.3555799  76.8567608 101.1603563  45.2433755  76.7756754  99.9367858
  42.0332889  85.1028545  97.2760631  42.4971235  85.3816248  96.4865253
  41.7689687  84.2011990  97.0933722  38.9256970  84.6500027 100.2140394
  39.4958327  85.0787295  99.5757879  39.5165082  84.3682612 100.9124580
  40.9701775  81.2251698  94.0850196  41.6725819  81.6772741  94.5524122
  40.6382404  80.5835517  94.7130089  39.4182137  79.8163454 108.4601405
  38.7880798  80.4979735 108.6936802  39.3118225  79.7046536 107.5154544
  34.7127109  79.4835250  99.3867330  33.9226163  79.7392779  98.9107440
  35.2038357  80.2983588  99.4919370  48.7290919  86.8240490 102.1372610
  49.5508363  86.4220677 101.8555292  48.7253322  86.7208724 103.0888726
  36.6641855  79.8479830  96.3450806  35.8673018  79.9598524  96.8634302
  36.4367447  80.1866482  95.4791697  42.4947522  86.3724533 104.2933321
  42.5591955  86.8344940 105.1291493  41.7858446  85.7421898 104.4215631
  32.9964812  79.7365741 101.8182320  33.2472851  80.6212751 102.0839896
  33.5324361  79.5570342 101.0457412  56.8196912  83.1679238  98.4857582
  56.0660620  82.5986636  98.3301586  56.9544453  83.1341903  99.4328217
  42.2095540  88.0392640  94.1612301  42.0741215  88.8844176  94.5897149
  42.7505353  88.2411918  93.3978235  38.6962880  74.1184220 110.8226656
  38.3029825  73.5650419 111.4974301  39.5129020  74.4294799 111.2133174
  35.6624937  85.5568078  94.7340226  36.1749458  86.3511329  94.8845791
  36.3147650  84.8594369  94.6673828  37.4719822  88.6733835  96.8162979
  37.6486450  89.5951799  96.6283963  38.2676656  88.3592254  97.2457359
  41.6130841  75.5342099 108.4146913  42.3540554  76.1349252 108.3351375
  41.8448763  74.7919737 107.8564956  36.7572179  80.7198467 106.6925143
  36.6425694  79.8183724 106.9932242  35.9016696  80.9662163 106.3409959
  43.8364016  88.6616207 108.2912643  43.3927871  87.8752585 107.9733548
  44.4981230  88.8495357 107.6256534  38.5951138  90.1912008 102.8173322
  39.1458563  90.0629072 102.0450316  37.7562613  90.4906897 102.4668215
  45.9345254  88.9419007 106.3194045  45.9163730  89.7627888 105.8274314
  46.8565175  88.8173082 106.5444186  42.3918309  86.4563136 107.1617553
  42.9246645  85.6951424 106.9316861  41.8632390  86.1636788 107.9041707
  45.5588004  71.5623202 102.6911195  45.2152273  72.4524844 102.6150305
  45.9266966  71.3724860 101.8280780  33.6273854  83.8856733  95.5099797
  34.4649076  84.2953741  95.2933505  33.8052122  82.9456175  95.4799991
  45.5238286  81.5531813  91.1983630  45.0084910  82.3236418  91.4372017
  45.2515595  80.8796949  91.8216691  43.1085397  76.3981514  96.2568868
  42.2526994  76.0088365  96.0774507  43.5212349  76.4773475  95.3968654
  44.6384544  73.9327857 100.6560428  44.1349340  73.8957993  99.8428233
  44.9315151  74.8420600 100.7157085  40.8827430  74.0166587  99.6626610
  41.7480427  73.8209396  99.3032499  40.9504939  73.7876939 100.5895966
  50.4972560  84.3064168  93.1336803  49.7202003  83.9675327  92.6891965
  51.1764041  84.3116791  92.4591768  45.3124589  79.4258905  93.0243411
  45.0074725  79.7405055  93.8753554  46.2655032  79.5040325  93.0670744
  43.7571021  85.5849129  94.6736365  43.2292383  84.8501888  94.3609602
  43.2558524  86.3623805  94.4276333  48.7363867  83.7798149  99.7903411
  48.0787542  84.4697411  99.8783540  49.5404267  84.1694581 100.1337398
  38.4889749  76.2468795  97.0342976  39.0633501  76.0243977  96.3016169
  39.0760731  76.3157490  97.7871578  47.5469326  82.1342522  97.8407353
  48.0601208  82.7672514  98.3429063  48.1970550  81.5343717  97.4750713
  38.8159336  78.2773256  91.0538862  37.9796648  78.6147943  91.3748136
  38.6764106  78.1422236  90.1165999  40.7912417  73.1210044  95.7618046
  40.1376829  72.8059061  95.1374661  40.7492891  72.4985784  96.4877869
  41.9023622  83.4029339  87.6771338  40.9950683  83.1718592  87.8762487
  42.3994653  82.6066958  87.8645320  44.8091700  92.1126846  90.5968024
  44.1353399  92.4158543  91.2052982  45.1957522  92.9155927  90.2473481
  44.0250157  79.6091977 100.0865694  43.1072718  79.8306924  99.9287382
  44.4410301  79.6838288  99.2277401  44.8085205  81.0083393  95.2168374
  45.5557024  81.5204790  94.9075496  45.0776794  80.6867446  96.0772767
  43.0811855  83.5041934  92.1995328  42.1723074  83.2200967  92.2967798
  43.1106939  83.9241012  91.3398635  48.3131122  87.1148523  95.9686496
  47.8593449  86.2739433  96.0251686  47.6825089  87.7509922  96.3061276
  47.2564042  78.0440509  97.1987163  46.5186799  77.5317896  97.5297406
  47.5090815  77.6040891  96.3870440  46.7564062  88.9525020  96.9036314
  47.0487036  89.5130077  96.1848679  47.2662682  89.2453581  97.6589473
  47.3575669  70.8216761  97.7928932  47.6634546  69.9614125  97.5054847
  48.0828274  71.4134382  97.5927926  33.6500025  81.2247448  96.1810530
  33.4524425  80.6316809  95.4561597  33.0946689  80.9199658  96.8986469
  41.6296749  81.1170554  98.3005123  41.6845359  80.1644391  98.2247600
  40.8187951  81.2729994  98.7846422  42.7787943  85.0450678  89.5383407
  42.3407373  84.3286536  89.0789044  43.5198384  85.2726792  88.9768498
  39.5689109  79.7347614  96.0595502  38.7556974  80.0341785  96.4660694
  40.0648103  79.3403303  96.7769985  41.7197687  89.7305371  97.9929767
  41.6773866  89.9566217  97.0638299  42.6360386  89.4968746  98.1415568
  45.1663321  80.1989439 104.8910396  45.5212708  80.4260912 105.7504862
  45.8135452  80.5307815 104.2687651  50.8961058  83.3207875  95.5959725
  50.7578956  83.5109471  94.6680914  50.5397276  84.0827257  96.0527776
  39.0603184  77.3065970 101.6756737  39.7002563  77.1654729 100.9779701
  38.2280714  77.0200483 101.2995339  50.9230437  85.3884402 100.6070997
  51.3566944  85.2959691 101.4554051  51.6362018  85.3641902  99.9691013
  39.8363488  86.6068400  97.7891730  40.6304086  86.1118720  97.5874305
  39.1255180  86.0786263  97.4259435  44.6558332  88.9886496 102.1404097
  44.7095354  89.5577432 102.9081813  43.7873113  89.1588381 101.7758134
  36.1446251  80.7511482  93.8651482  35.2143839  80.6895937  94.0821445
  36.2403723  80.2287435  93.0688124  36.0631800  77.2766295  96.4529724
  36.3238617  78.1911628  96.3438885  36.8848972  76.8090737  96.6026337
  37.5356725  78.6904052 103.6228549  38.2079779  78.4821414 102.9741197
  36.7086512  78.4926138 103.1833781  51.7845987  85.4308102 103.1403882
  51.9781877  86.3353913 103.3863157  51.6846605  84.9715521 103.9742467
  43.4382297  75.3165993 105.6394209  42.7910212  76.0155942 105.5458686
  44.2083313  75.7502137 106.0070458  46.8461095  85.5814845 108.7144763
  46.6946602  85.3525397 107.7974846  46.8365775  86.5385446 108.7276108
  43.6146432  83.1546758 103.6991029  44.5438492  83.3057917 103.5259996
  43.1937462  83.2430779 102.8439676  42.4134764  87.1797422 101.4689567
  42.2745849  86.8116207 102.3415505  41.6249360  87.6945062 101.2973525
  43.0082916  92.2806519  92.8115103  43.1834671  91.8094562  93.6260726
  42.3215704  92.9072285  93.0396364  43.9639979  86.5579025  98.8578405
  43.6289811  86.5179795  99.7536054  43.4643924  85.8923741  98.3848815
  37.9384223  81.9646655 104.3830986  37.8004021  81.2326894 104.9842525
  38.8489146  81.8755555 104.1015173  46.8999170  83.9035059  89.1315464
  46.2828341  83.1781887  89.0348517  46.4315659  84.6644419  88.7882538
  40.5666523  81.6766614 103.8714665  41.2766142  81.0359806 103.8301284
  40.5235832  81.9279509 104.7940846  48.5553302  88.6133968 106.7921245
  48.4965848  87.9293188 106.1251828  48.9572820  89.3552958 106.3401871
  39.2795457  78.6631832 105.6910305  38.7432814  78.2122571 106.3431901
  38.6912166  78.7977741 104.9480769  37.5744001  95.4295881  99.5854963
  37.8140599  96.0614406 100.2633982  36.7313197  95.0783921  99.8720323
  38.6897716  78.1220484  88.2536769  37.8127183  78.0009284  87.8899015
  39.1655469  77.3306562  88.0015657  48.5570709  86.5773551 105.0235224
  47.6697488  86.2399473 105.1461623  49.1269260  85.8456583 105.2603990
  30.2099856  82.9097643  98.3478276  30.8970896  82.5959373  97.7599291
  30.0547985  83.8139008  98.0745527  35.0134579  77.7987840 102.7763299
  34.9292767  77.1913509 102.0413709  34.1917285  78.2896858 102.7772796
  42.0871863  91.2375004 101.9896467  42.0142034  92.0429975 102.5015772
  41.6449256  91.4366970 101.1644489  41.8761642  90.4746774  95.4999289
  41.0929164  91.0168454  95.5937514  42.5754387  90.9920754  95.8993530
  45.1858292  76.2841403  98.1433494  45.6826992  75.5311366  97.8234565
  44.4145274  76.3205720  97.5776704  53.0388050  81.9881769  99.7851786
  53.0277926  82.8706484  99.4145719  52.1705429  81.6353320  99.5906323
  44.5470546  91.1361838 104.1454626  45.2598518  91.7709303 104.0730528
  44.0560575  91.2325704 103.3294628  46.2688073  85.0413091  95.7171918
  45.3344352  85.1614553  95.5476622  46.4464742  84.1385557  95.4531928
  41.7693261  78.4258786  97.8705179  41.3991049  77.8729827  98.5586085
  42.2652354  77.8216920  97.3180179  49.6560624  80.8830410  96.2521952
  50.1221077  81.7158401  96.1782255  50.1068125  80.4175391  96.9567210
  39.5982460  88.8856281 104.9660197  40.2991919  89.5192764 105.1189591
  39.1277575  89.2271013 104.2055836  47.7236856  87.2274231  93.2508104
  47.9996699  87.1130826  94.1601978  46.8541354  86.8291716  93.2120277
  47.6277287  73.2510997 100.2912853  46.7140367  73.4815224 100.4595060
  48.0570389  73.3349441 101.1426886  47.3983746  81.4400889 102.7912747
  46.7455196  81.6876796 102.1365200  47.7764126  80.6265027 102.4575225
  44.3590920  91.4760582  96.8940918  44.5413314  90.6582238  97.3568670
  45.1823906  91.6928274  96.4565808  44.6933085  90.4028767  94.1555966
  45.2220852  89.8921222  93.5426128  44.9561305  90.0871297  95.0201499
  43.4471319  82.1820700 109.2778784  42.7711956  82.0814829 109.9481160
  44.2698953  82.0259914 109.7414782  35.1950178  88.4192636 101.8991300
  35.7803615  87.6736324 102.0319204  34.9975016  88.7296593 102.7827964
  38.0488833  91.4543884  96.9153742  37.3799208  91.9390011  96.4317782
  37.9101703  91.7013104  97.8297121  29.7867833  80.9898237 100.6195743
  29.8251932  80.4561827 101.4132861  29.2808125  80.4633442 100.0006720
  42.1894102  93.4887627 103.5136400  42.7412410  93.6519249 104.2785486
  42.5300295  94.0792065 102.8416425  37.1658595  75.8362777 104.1158285
  37.2299921  76.6977608 103.7035683  37.1025715  75.2236779 103.3830644
  36.6410867  77.9085910 107.7631319  37.2682906  77.5262987 108.3768844
  35.7838786  77.6900112 108.1287012  47.0404976  88.3148885 109.3685055
  47.5844880  88.9278843 108.8740010  46.4591821  88.8728463 109.8852068
  33.4176410  79.7162339  93.6949674  33.7129851  78.8073017  93.6416728
  32.5164446  79.6950078  93.3730677  45.3262489  91.4369603 100.5000083
  45.2013628  90.6359343  99.9911028  45.9841580  91.9315796 100.0114053
  36.9470657  77.7918335  99.6777223  36.2257243  78.4054303  99.5384696
  37.7363913  78.3276100  99.5993869  47.3897397  89.2378623 102.1279633
  46.4427733  89.1183974 102.0557959  47.7380170  88.3501121 102.2105894
  39.7496971  75.1272762 105.9517875  40.2731372  75.3735058 106.7144184
  39.5309304  75.9592797 105.5321012  35.1464252  77.3976436  93.8188999
  34.8176958  76.5173815  93.6364105  35.5003622  77.3424105  94.7065389
  44.3943831  89.0331339  98.3283985  44.2468793  88.1048047  98.5091555
  45.2197324  89.0551430  97.8441060  38.2606075  77.6849406  94.1864477
  38.6002147  78.2135327  93.4643085  38.7078195  78.0229812  94.9623044
  47.9977952  89.8559898  99.4148858  48.9224500  89.6502759  99.2773309
  47.8293256  89.6076299 100.3238199  40.9549516  76.0686457 103.6367545
  40.6146336  75.2694270 104.0388225  40.2488522  76.3688168 103.0644378
  41.6065988  73.1535769 102.0894868  42.4292057  72.6796248 101.9673758
  41.8504051  73.9326253 102.5893554  40.2474222  76.1824028  92.3857770
  40.9682584  76.5605281  91.8821487  39.6239526  76.9012905  92.4892748
  44.3905345  76.8869177  93.3216102  44.6068959  77.7693815  93.0204930
  43.9099412  76.4955390  92.5921744  39.1304566  79.8454890  99.8986847
  38.9849147  80.1595193 100.7911128  38.6529770  80.4639790  99.3457745
  40.9900949  76.8357438  99.9467736  40.9762518  75.9398531  99.6100034
  41.7073377  76.8428102 100.5806022  42.8427080  77.2694778 101.9920864
  42.5844858  78.1911849 101.9905194  42.3112120  76.8725213 102.6821328
  47.7873269  90.3745565  94.7710949  47.9610146  89.8091988  94.0184802
  48.2802160  91.1746460  94.5890439  33.6050228  82.3860234 102.8374508
  33.0603697  83.1620042 102.9694782  34.4829578  82.7331039 102.6793629
  40.3937845  75.7171818  95.2155306  40.5153756  74.7888464  95.4146194
  40.1039887  75.7310504  94.3033622  43.2629035  73.4026729  98.3522026
  43.2850732  73.4666062  97.3974006  43.6797094  72.5631237  98.5462532
  53.6412660  83.1381988  96.3901249  54.0843806  82.3889313  95.9920372
  52.7639170  83.1292125  96.0074981  48.7748441  89.6912330  91.8707847
  49.4699346  90.3119022  92.0895162  49.1171591  88.8407681  92.1460225
  34.3916250  81.5130131 105.7304665  33.6497986  81.6612766 106.3169295
  34.0708995  81.7738396 104.8671414  50.6739864  87.1412035  93.3995178
  51.1991188  87.4799308  92.6744498  50.5862217  86.2059051  93.2158313
  42.3359913  91.0546109 105.5285055  42.6447039  90.8095256 106.4007754
  43.1335395  91.2592747 105.0403925  42.3580525  93.2084019  97.7590431
  41.9185515  92.7160397  98.4523288  43.1088642  92.6656986  97.5182507
  34.8372864  89.3995559  97.7615059  35.6630884  89.0999331  97.3813703
  34.4866916  88.6303182  98.2104848  39.8054397  88.7522028  99.8312733
  39.1834406  88.0892733  99.5314961  40.4759264  88.7783159  99.1486381
  33.0381469  87.3181886  98.7203993  32.2013377  86.8904060  98.5387994
  33.0105114  87.5114329  99.6574784  39.8778925  77.2303816 109.4245239
  39.9267080  78.1065938 109.0423009  40.4201439  76.6881209 108.8516882
  50.3633770  87.7744939 108.7046376  49.5729314  87.7569078 108.1650875
  50.1267125  88.3133233 109.4595413  50.4831645  84.6237405 106.0179105
  50.5329650  84.4587413 106.9594627  50.3745569  83.7564664 105.6276985
  39.3667904  87.3025951  93.3071194  39.5156024  87.9861415  92.6537866
  40.1734347  87.2831041  93.8220649  47.7735408  80.6068333 107.3338411
  48.6745270  80.4674798 107.0422409  47.8483382  80.7722788 108.2736589
  42.1078213  77.9835188 106.1791598  41.2381522  78.2768754 105.9074186
  42.3437693  78.5675633 106.8998861  51.9849842  87.0434347 106.2621126
  51.6934650  87.4064327 107.0984587  51.3721973  86.3301355 106.0834458
  53.1845524  84.6087227  98.7823696  54.0192416  85.0477031  98.9461257
  53.3204653  84.1325880  97.9631942  50.2337030  82.1666961 104.7301184
  50.7091152  82.3594608 103.9220036  49.3102596  82.2226147 104.4844568
  37.1220537  83.3291129  94.3132262  36.8766579  82.4253459  94.5112473
  37.2916452  83.3308279  93.3711740  44.8117247  74.2014805 103.6957018
  45.3299191  74.9375832 103.3703507  44.4572380  74.5078798 104.5303777
  36.3916185  79.0619486  91.8118424  35.6985429  79.1363841  91.1558460
  36.1467936  78.2979830  92.3339941  45.0629841  70.6215087  99.2157915
  45.3431595  69.9538277  99.8418341  45.8480448  70.8144183  98.7032578
  42.8663310  89.7974081  90.7782941  42.2937277  90.4164269  90.3253413
  43.4396103  90.3473443  91.3122863  48.9338699  79.0432721 102.9629490
  49.8856122  79.1430819 102.9841714  48.7642150  78.2510990 103.4727574
  46.9553079  76.1288305 103.1488891  46.3603011  76.4093317 102.4535379
  46.6702776  76.6182206 103.9205632  46.0860569  90.0811232  91.9091523
  47.0191243  90.0156793  92.1124399  45.9983782  90.9167498  91.4506056
  48.7148586  89.3977102  88.8695471  48.6362218  89.0636965  89.7631229
  49.5358253  89.8898870  88.8686943  51.4126777  82.2638841 102.0771789
  51.3803097  81.3254842 102.2631473  52.0227401  82.3422878 101.3437614
  43.2510108  81.1334894  88.1198993  44.1969213  81.0041102  88.1887411
  42.8724353  80.3949556  88.5968422  51.5621266  79.0549885 102.1230073
  51.0460314  78.2708341 101.9360001  52.4461214  78.7268601 102.2876592
  49.2231993  72.7990900  98.0825885  49.0256814  72.4905988  98.9669217
  49.8331698  73.5252539  98.2123815  57.2303327  83.3254848 101.2177826
  57.9606716  83.0640136 101.7785530  56.6210273  82.5883570 101.2579894
  55.3118624  81.4662711 101.8152277  54.5851788  81.3318676 101.2068769
  54.8965911  81.7739539 102.6208995  43.1348801  85.1852640 109.5799650
  44.0551810  85.3631239 109.7739697  43.0998384  84.2408686 109.4279350
  41.4353025  79.0584871  88.0553879  40.5284481  78.7617983  88.1316592
  41.7129006  78.7614689  87.1888165  32.3530966  80.3791234  98.5052925
  32.0333750  79.5256542  98.2127299  31.8064394  80.5939812  99.2610892
  36.1310873  83.0953675 102.2222432  36.3496883  84.0270783 102.2410465
  36.5436647  82.7361649 103.0077235  43.0515091  73.6021760  94.2098120
  42.2415819  73.2568845  94.5853366  43.7399508  73.2929304  94.7985732
  44.9805639  72.6799807  95.8322417  45.5336678  73.0995260  96.4912440
  45.2175726  71.7535555  95.8745373  41.0038738  78.6686881 111.6125181
  40.9035465  79.6181238 111.5437272  40.7860281  78.3405120 110.7401251
  40.2051810  75.9171806  88.1965858  41.0670974  76.2426704  88.4561675
  40.3902154  75.1303302  87.6838924  32.2219226  83.9994145 100.4746047
  31.5282697  83.5848098  99.9616001  32.9692217  84.0414682  99.8779466
  48.3584446  74.7900332  95.3401081  47.7783115  75.4485136  94.9579133
  48.0920379  73.9677677  94.9288498  46.8088013  74.1905390  97.5422401
  47.3087791  74.3021924  96.7336720  47.4523621  73.8866443  98.1823210
  40.8670009  82.0984020 110.4290242  40.3837090  82.8984380 110.6354131
  40.9530948  82.1091964 109.4757686  34.1355968  83.9312399  98.3512062
  34.1126656  84.0300086  97.3993945  34.4456605  84.7777550  98.6729228
  36.7943346  85.9888554 102.4658676  37.7486600  85.9572497 102.3988608
  36.5955870  85.5279178 103.2808902  37.3842728  84.5589670 105.0329474
  38.2035617  85.0533749 105.0564311  37.6579536  83.6421638 105.0047041
  47.1409324  76.9500423  94.3957429  46.2535179  77.2350073  94.1777624
  47.5563313  76.7894186  93.5484706  50.4923860  76.9746944  98.1111768
  51.2684251  77.4643396  98.3836385  49.7671995  77.4004998  98.5683638
  52.9296419  77.6874563  99.1685709  53.5240910  77.4470299  98.4579017
  53.0023003  76.9681693  99.7959245  35.1493575  91.5308174  99.4828874
  35.0148043  90.7708575  98.9166872  34.7325637  92.2549074  99.0157663
  46.2852538  86.7145097  88.4905449  46.9888388  86.9195100  89.1063105
  45.5615187  87.2821859  88.7554533  47.1150348  82.4654959  94.6107719
  47.0585549  82.9223510  93.7715352  47.6678691  81.7045643  94.4330562
  50.9255154  78.2544690  95.4357839  50.6692088  77.8541326  96.2666046
  50.3008022  78.9688484  95.3107978  55.2367492  80.9940764  97.9429130
  54.6767050  81.0633953  98.7160692  54.6310995  80.8181748  97.2228626
  38.3062701  92.4277491  99.6947316  38.1895085  93.3722923  99.5926007
  37.4855147  92.1251052 100.0833116  48.1939235  87.1527626  90.5403909
  49.0284839  86.7208825  90.3581384  48.0323578  86.9809640  91.4680804
  47.8485127  83.6559740  91.9060248  47.7933931  83.4904011  90.9648693
  47.2231183  84.3635773  92.0622438  32.6377642  78.8927804 105.7321671
  33.2836506  78.3826758 106.2208896  32.4294793  79.6296486 106.3065096
  45.1631035  85.9608652 111.2313811  46.0322194  86.1349304 110.8700446
  44.6837786  86.7803068 111.1089541  41.1581253  73.1567849  91.4845567
  41.1459923  74.1009689  91.6413838  42.0504675  72.9737994  91.1905028
  39.3317215  93.0805753 102.9103245  40.2344462  93.1129363 103.2269740
  39.1054585  92.1506204 102.9249581  41.0870817  91.8336739  99.5713324
  40.1366448  91.8338601  99.4577696  41.3903303  91.0869474  99.0549358
  44.9733372  69.7510625  95.7391504  44.2065768  69.1969112  95.8848186
  45.3844077  69.8232494  96.6005655  36.9775133  76.0395421 109.8296685
  37.8406595  75.6832226 110.0400009  36.4040544  75.7009316 110.5172089
  56.8223510  97.6697278 100.6359086  57.4601920  97.5504025  99.9322426
  56.7044353  98.6178122 100.6947038  53.6313217  97.6224706 100.5720611
  53.2931728  97.5065770  99.6841145  54.5002985  97.2215871 100.5521617
  49.4900032  99.4760182  96.5617502  48.9264897  99.3850119  95.7933789
  49.3752427  98.6560087  97.0419994  54.1133000  98.7759557 106.5306816
  54.1021640  98.3812356 105.6587320  54.2753639  98.0425630 107.1240588
  47.0364464 100.9711374  99.4001722  47.8285756 100.6302198  98.9848021
  47.2761114 101.0806349 100.3203875  55.0699591 103.1431150  91.8731966
  54.4187571 103.7285230  91.4865980  55.8643954 103.6737345  91.9327004
  48.9955218 100.2320287  92.2719101  49.7686094  99.6849274  92.1331977
  49.3480617 101.0964536  92.4833562  50.8340261 101.5596669 105.4786000
  50.5430127 102.4642300 105.3632666  51.4697245 101.6013197 106.1930070
  51.7596468  98.9373518 102.0687360  52.3560040  98.7129540 101.3544323
  51.8171439  98.1958263 102.6712808  51.3321496  96.3912953  89.9037551
  51.5847017  95.8694474  89.1421014  50.3946055  96.2279099  90.0064234
  56.3764779  95.3948731  97.7112294  57.1627868  94.9768155  97.3602711
  56.6403483  96.2994824  97.8793942  56.5474856 100.8321582  92.4100951
  55.9120689 100.9056208  93.1221855  56.2172263 101.4215181  91.7320030
  61.7773206  95.3323965  98.6145272  62.5098378  94.7623181  98.8483102
  61.0212562  94.9445565  99.0551778  51.0517785  98.2941059  92.1061926
  50.9354043  97.6185962  92.7743010  51.1620045  97.8073433  91.2894079
  53.3949326  97.7551206  95.8108615  53.0307533  97.2281827  96.5221536
  54.2516442  97.3649675  95.6375100  59.2998626  89.0445539 103.0739881
  58.9681951  89.9140950 102.8501096  58.7044240  88.7281823 103.7533911
  53.0354813  92.7841106  90.8069963  53.2029215  93.6521342  91.1740434
  52.8451982  92.9468388  89.8831253  55.7930146 101.2458085 102.4735794
  55.4930869 102.1483124 102.3651601  55.4481205 100.9790268 103.3256947
  49.2442627  97.6971882  98.5072498  48.3193124  97.5648096  98.7150190
  49.4927040  98.4766101  99.0042441  59.1927290  93.7640625 100.1533231
  58.2844167  93.6956033  99.8591992  59.1414885  94.2412570 100.9815057
  53.0144033  95.2398763  91.7916630  52.8943659  95.6855814  92.6302111
  52.3196622  95.5884081  91.2330168  46.6051438  97.3405155  99.3416287
  46.7343819  97.5939634 100.2555699  45.9248890  97.9332863  99.0220942
  50.7750926 108.0102405  95.4406761  50.6974955 108.9610230  95.5195242
  50.1712569 107.6648278  96.0981688  53.2668155  95.1830271 108.0968128
  52.4901489  95.7424191 108.0870993  53.9058718  95.6687053 108.6182998
  61.0588936  91.9657063 101.9311105  60.4163316  92.2589596 101.2850900
  60.5543865  91.8509984 102.7364302  58.7129100  95.7120237  92.6196964
  59.6246956  95.9447623  92.4444662  58.2038747  96.2957281  92.0572043
  51.5214528  97.9915724 107.6586095  52.2629212  98.5300768 107.3820919
  50.8151513  98.6182013 107.8157647  56.9969867 100.1344864 106.2558257
  57.4053223  99.6927275 105.5112889  56.2747129  99.5597492 106.5092450
  53.3500937  95.0717471 103.6291814  54.1962133  95.4956885 103.7726463
  53.2899575  94.4151095 104.3230377  57.3198682 100.6946055 100.0110546
  56.6907544 100.8591769  99.3086614  56.9324344 101.1087665 100.7821510
  61.1987914 101.6300493  97.3654910  60.5138952 102.0099394  96.8151943
  61.2831763 102.2395819  98.0986857  56.5000383  92.7321839 105.2872987
  56.2561315  93.4863900 104.7507263  56.7760313  93.1107187 106.1220235
  58.4538845  99.2760452 103.9650253  58.6655741  99.9192212 103.2884634
  58.4068594  98.4422768 103.4972183  56.0565074  91.8878272 100.8686825
  55.1949553  92.1859526 101.1603563  56.0827509  92.1048671  99.9367858
  52.8726644 100.4320463  97.2760631  53.3364989 100.7108166  96.4865253
  52.6083442  99.5303908  97.0933722  49.7650725  99.9791945 100.2140394
  50.3352082 100.4079213  99.5757879  50.3558837  99.6974529 100.9124580
  51.8095530  96.5543615  94.0850196  52.5119573  97.0064659  94.5524122
  51.4776158  95.9127434  94.7130089  50.2575891  95.1455372 108.4601405
  49.6274552  95.8271653 108.6936802  50.1511979  95.0338454 107.5154544
  45.5520864  94.8127168  99.3867330  44.7619918  95.0684697  98.9107440
  46.0432111  95.6275506  99.4919370  59.5684673 102.1532407 102.1372610
  60.3902117 101.7512595 101.8555292  59.5647076 102.0500641 103.0888726
  47.5035609  95.1771747  96.3450806  46.7066773  95.2890442  96.8634302
  47.2761201  95.5158400  95.4791697  53.3341277 101.7016451 104.2933321
  53.3985709 102.1636858 105.1291493  52.6252201 101.0713815 104.4215631
  43.8358567  95.0657659 101.8182320  44.0866605  95.9504668 102.0839896
  44.3718115  94.8862260 101.0457412  67.6590666  98.4971156  98.4857582
  66.9054375  97.9278554  98.3301586  67.7938208  98.4633820  99.4328217
  53.0489295 103.3684558  94.1612301  52.9134969 104.2136094  94.5897149
  53.5899107 103.5703836  93.3978235  49.5356634  89.4476138 110.8226656
  49.1423580  88.8942336 111.4974301  50.3522774  89.7586716 111.2133174
  46.5018692 100.8859996  94.7340226  47.0143212 101.6803246  94.8845791
  47.1541405 100.1886287  94.6673828  48.3113577 104.0025752  96.8162979
  48.4880205 104.9243717  96.6283963  49.1070410 103.6884172  97.2457359
  52.4524595  90.8634017 108.4146913  53.1934309  91.4641170 108.3351375
  52.6842518  90.1211655 107.8564956  47.5965933  96.0490384 106.6925143
  47.4819448  95.1475641 106.9932242  46.7410451  96.2954081 106.3409959
  49.4344892 105.5203926 102.8173322  49.9852317 105.3920989 102.0450316
  48.5956368 105.8198815 102.4668215  56.7739009 104.2710924 106.3194045
  56.7557484 105.0919806 105.8274314  57.6958929 104.1465000 106.5444186
  53.2312063 101.7855054 107.1617553  53.7640400 101.0243342 106.9316861
  52.7026144 101.4928706 107.9041707  56.3981758  86.8915120 102.6911195
  56.0546027  87.7816762 102.6150305  56.7660721  86.7016778 101.8280780
  44.4667609  99.2148650  95.5099797  45.3042831  99.6245659  95.2933505
  44.6445876  98.2748093  95.4799991  56.3632041  96.8823731  91.1983630
  55.8478664  97.6528336  91.4372017  56.0909349  96.2088867  91.8216691
  53.9479152  91.7273432  96.2568868  53.0920748  91.3380282  96.0774507
  54.3606104  91.8065393  95.3968654  55.4778298  89.2619775 100.6560428
  54.9743094  89.2249910  99.8428233  55.7708905  90.1712518 100.7157085
  51.7221184  89.3458505  99.6626610  52.5874181  89.1501313  99.3032499
  51.7898693  89.1168857 100.5895966  61.3366315  99.6356086  93.1336803
  60.5595758  99.2967245  92.6891965  62.0157796  99.6408709  92.4591768
  56.1518344  94.7550823  93.0243411  55.8468480  95.0696972  93.8753554
  57.1048786  94.8332243  93.0670744  54.5964776 100.9141046  94.6736365
  54.0686137 100.1793806  94.3609602  54.0952279 101.6915723  94.4276333
  59.5757622  99.1090067  99.7903411  58.9181296  99.7989328  99.8783540
  60.3798021  99.4986499 100.1337398  49.3283503  91.5760713  97.0342976
  49.9027255  91.3535894  96.3016169  49.9154486  91.6449407  97.7871578
  58.3863081  97.4634440  97.8407353  58.8994962  98.0964431  98.3429063
  59.0364305  96.8635635  97.4750713  49.6553091  93.6065174  91.0538862
  48.8190403  93.9439860  91.3748136  49.5157860  93.4714154  90.1165999
  51.6306171  88.4501962  95.7618046  50.9770583  88.1350979  95.1374661
  51.5886645  87.8277702  96.4877869  52.7417376  98.7321257  87.6771338
  51.8344438  98.5010510  87.8762487  53.2388408  97.9358876  87.8645320
  55.6485455 107.4418764  90.5968024  54.9747154 107.7450461  91.2052982
  56.0351277 108.2447844  90.2473481  54.8643912  94.9383895 100.0865694
  53.9466473  95.1598842  99.9287382  55.2804055  95.0130206  99.2277401
  55.6478959  96.3375311  95.2168374  56.3950778  96.8496708  94.9075496
  55.9170549  96.0159364  96.0772767  53.9205609  98.8333852  92.1995328
  53.0116829  98.5492884  92.2967798  53.9500693  99.2532930  91.3398635
  59.1524877 102.4440441  95.9686496  58.6987204 101.6031351  96.0251686
  58.5218844 103.0801839  96.3061276  58.0957796  93.3732427  97.1987163
  57.3580553  92.8609813  97.5297406  58.3484570  92.9332809  96.3870440
  57.5957816 104.2816938  96.9036314  57.8880790 104.8421995  96.1848679
  58.1056437 104.5745499  97.6589473  58.1969424  86.1508679  97.7928932
  58.5028301  85.2906043  97.5054847  58.9222029  86.7426299  97.5927926
  44.4893780  96.5539366  96.1810530  44.2918180  95.9608726  95.4561597
  43.9340444  96.2491576  96.8986469  52.4690503  96.4462472  98.3005123
  52.5239113  95.4936309  98.2247600  51.6581706  96.6021911  98.7846422
  53.6181697 100.3742595  89.5383407  53.1801127  99.6578454  89.0789044
  54.3592138 100.6018710  88.9768498  50.4082863  95.0639532  96.0595502
  49.5950729  95.3633702  96.4660694  50.9041858  94.6695221  96.7769985
  52.5591441 105.0597289  97.9929767  52.5167620 105.2858135  97.0638299
  53.4754140 104.8260663  98.1415568  56.0057075  95.5281356 104.8910396
  56.3606463  95.7552830 105.7504862  56.6529206  95.8599733 104.2687651
  61.7354812  98.6499792  95.5959725  61.5972711  98.8401388  94.6680914
  61.3791031  99.4119175  96.0527776  49.8996938  92.6357887 101.6756737
  50.5396317  92.4946647 100.9779701  49.0674469  92.3492401 101.2995339
  61.7624192 100.7176319 100.6070997  62.1960698 100.6251608 101.4554051
  62.4755772 100.6933820  99.9691013  50.6757242 101.9360318  97.7891730
  51.4697841 101.4410638  97.5874305  49.9648934 101.4078181  97.4259435
  55.4952087 104.3178413 102.1404097  55.5489109 104.8869350 102.9081813
  54.6266868 104.4880298 101.7758134  46.9840006  96.0803400  93.8651482
  46.0537594  96.0187855  94.0821445  47.0797478  95.5579352  93.0688124
  46.9025555  92.6058212  96.4529724  47.1632372  93.5203546  96.3438885
  47.7242727  92.1382655  96.6026337  48.3750480  94.0195970 103.6228549
  49.0473533  93.8113332 102.9741197  47.5480266  93.8218056 103.1833781
  62.6239741 100.7600020 103.1403882  62.8175631 101.6645830 103.3863157
  62.5240359 100.3007439 103.9742467  54.2776052  90.6457911 105.6394209
  53.6303967  91.3447860 105.5458686  55.0477067  91.0794054 106.0070458
  54.4540186  98.4838675 103.6991029  55.3832246  98.6349835 103.5259996
  54.0331216  98.5722696 102.8439676  53.2528518 102.5089340 101.4689567
  53.1139604 102.1408124 102.3415505  52.4643114 103.0236979 101.2973525
  53.8476670 107.6098436  92.8115103  54.0228426 107.1386479  93.6260726
  53.1609458 108.2364203  93.0396364  54.8033733 101.8870943  98.8578405
  54.4683566 101.8471713  99.7536054  54.3037679 101.2215658  98.3848815
  48.7777977  97.2938573 104.3830986  48.6397775  96.5618811 104.9842525
  49.6882901  97.2047473 104.1015173  57.7392925  99.2326977  89.1315464
  57.1222095  98.5073805  89.0348517  57.2709413  99.9936337  88.7882538
  51.4060278  97.0058532 103.8714665  52.1159896  96.3651724 103.8301284
  51.3629586  97.2571427 104.7940846  50.1189212  93.9923750 105.6910305
  49.5826569  93.5414488 106.3431901  49.5305920  94.1269659 104.9480769
  48.4137755 110.7587799  99.5854963  48.6534354 111.3906323 100.2633982
  47.5706952 110.4075839  99.8720323  49.5291471  93.4512401  88.2536769
  48.6520937  93.3301202  87.8899015  50.0049224  92.6598479  88.0015657
  59.3964464 101.9065469 105.0235224  58.5091243 101.5691391 105.1461623
  59.9663015 101.1748500 105.2603990  41.0493611  98.2389561  98.3478276
  41.7364651  97.9251291  97.7599291  40.8941740  99.1430926  98.0745527
  45.8528333  93.1279757 102.7763299  45.7686522  92.5205427 102.0413709
  45.0311039  93.6188776 102.7772796  52.9265617 106.5666922 101.9896467
  52.8535789 107.3721893 102.5015772  52.4843010 106.7658887 101.1644489
  52.7155397 105.8038692  95.4999289  51.9322919 106.3460372  95.5937514
  53.4148142 106.3212671  95.8993530  56.0252047  91.6133321  98.1433494
  56.5220746  90.8603283  97.8234565  55.2539028  91.6497638  97.5776704
  63.8781804  97.3173687  99.7851786  63.8671681  98.1998402  99.4145719
  63.0099184  96.9645237  99.5906323  55.3864301 106.4653756 104.1454626
  56.0992273 107.1001220 104.0730528  54.8954329 106.5617622 103.3294628
  57.1081828 100.3705008  95.7171918  56.1738106 100.4906471  95.5476622
  57.2858496  99.4677475  95.4531928  52.6087016  93.7550704  97.8705179
  52.2384803  93.2021744  98.5586085  53.1046108  93.1508837  97.3180179
  60.4954379  96.2122328  96.2521952  60.9614831  97.0450319  96.1782255
  60.9461879  95.7467309  96.9567210  50.4376214 104.2148199 104.9660197
  51.1385674 104.8484682 105.1189591  49.9671329 104.5562931 104.2055836
  58.5630610 102.5566149  93.2508104  58.8390454 102.4422743  94.1601978
  57.6935109 102.1583634  93.2120277  58.4671042  88.5802914 100.2912853
  57.5534121  88.8107141 100.4595060  58.8964143  88.6641359 101.1426886
  58.2377500  96.7692806 102.7912747  57.5848950  97.0168714 102.1365200
  58.6157880  95.9556945 102.4575225  55.1984674 106.8052500  96.8940918
  55.3807069 105.9874156  97.3568670  56.0217660 107.0220192  96.4565808
  55.5326840 105.7320685  94.1555966  56.0614606 105.2213139  93.5426128
  55.7955059 105.4163215  95.0201499  54.2865073  97.5112618 109.2778784
  53.6105710  97.4106747 109.9481160  55.1092707  97.3551831 109.7414782
  46.0343932 103.7484554 101.8991300  46.6197369 103.0028242 102.0319204
  45.8368771 104.0588511 102.7827964  48.8882588 106.7835801  96.9153742
  48.2192963 107.2681929  96.4317782  48.7495457 107.0305022  97.8297121
  40.6261587  96.3190154 100.6195743  40.6645687  95.7853745 101.4132861
  40.1201880  95.7925360 100.0006720  53.0287856 108.8179545 103.5136400
  53.5806164 108.9811166 104.2785486  53.3694050 109.4083983 102.8416425
  48.0052349  91.1654695 104.1158285  48.0693676  92.0269526 103.7035683
  47.9419470  90.5528696 103.3830644  47.4804622  93.2377827 107.7631319
  48.1076661  92.8554905 108.3768844  46.6232541  93.0192029 108.1287012
  44.2570165  95.0454256  93.6949674  44.5523606  94.1364935  93.6416728
  43.3558200  95.0241996  93.3730677  56.1656243 106.7661520 100.5000083
  56.0407383 105.9651260  99.9911028  56.8235334 107.2607714 100.0114053
  47.7864412  93.1210253  99.6777223  47.0650997  93.7346221  99.5384696
  48.5757667  93.6568018  99.5993869  58.2291152 104.5670541 102.1279633
  57.2821487 104.4475892 102.0557959  58.5773925 103.6793039 102.2105894
  50.5890725  90.4564679 105.9517875  51.1125127  90.7026976 106.7144184
  50.3703058  91.2884714 105.5321012  45.9858006  92.7268354  93.8188999
  45.6570712  91.8465733  93.6364105  46.3397377  92.6716023  94.7065389
  55.2337585 104.3623257  98.3283985  55.0862547 103.4339964  98.5091555
  56.0591079 104.3843348  97.8441060  49.0999829  93.0141324  94.1864477
  49.4395902  93.5427245  93.4643085  49.5471950  93.3521730  94.9623044
  58.8371707 105.1851816  99.4148858  59.7618254 104.9794677  99.2773309
  58.6687010 104.9368217 100.3238199  51.7943270  91.3978375 103.6367545
  51.4540091  90.5986188 104.0388225  51.0882276  91.6980085 103.0644378
  52.4459742  88.4827687 102.0894868  53.2685811  88.0088165 101.9673758
  52.6897806  89.2618171 102.5893554  51.0867976  91.5115945  92.3857770
  51.8076339  91.8897198  91.8821487  50.4633281  92.2304822  92.4892748
  55.2299099  92.2161094  93.3216102  55.4462714  93.0985732  93.0204930
  54.7493167  91.8247308  92.5921744  49.9698321  95.1746808  99.8986847
  49.8242901  95.4887111 100.7911128  49.4923524  95.7931708  99.3457745
  51.8294704  92.1649356  99.9467736  51.8156272  91.2690449  99.6100034
  52.5467132  92.1720019 100.5806022  53.6820834  92.5986696 101.9920864
  53.4238612  93.5203767 101.9905194  53.1505875  92.2017130 102.6821328
  58.6267023 105.7037483  94.7710949  58.8003901 105.1383905  94.0184802
  59.1195914 106.5038378  94.5890439  44.4443983  97.7152152 102.8374508
  43.8997451  98.4911960 102.9694782  45.3223333  98.0622957 102.6793629
  51.2331600  91.0463736  95.2155306  51.3547511  90.1180382  95.4146194
  50.9433642  91.0602422  94.3033622  54.1022790  88.7318646  98.3522026
  54.1244487  88.7957979  97.3974006  54.5190849  87.8923155  98.5462532
  64.4806414  98.4673906  96.3901249  64.9237560  97.7181231  95.9920372
  63.6032925  98.4584042  96.0074981  59.6142196 105.0204247  91.8707847
  60.3093100 105.6410940  92.0895162  59.9565346 104.1699599  92.1460225
  45.2310005  96.8422048 105.7304665  44.4891741  96.9904684 106.3169295
  44.9102749  97.1030314 104.8671414  61.5133619 102.4703953  93.3995178
  62.0384943 102.8091226  92.6744498  61.4255971 101.5350968  93.2158313
  53.1753667 106.3838027 105.5285055  53.4840794 106.1387173 106.4007754
  53.9729149 106.5884665 105.0403925  53.1974279 108.5375936  97.7590431
  52.7579270 108.0452315  98.4523288  53.9482396 107.9948904  97.5182507
  45.6766618 104.7287477  97.7615059  46.5024638 104.4291249  97.3813703
  45.3260670 103.9595099  98.2104848  50.6448152 104.0813945  99.8312733
  50.0228161 103.4184650  99.5314961  51.3153019 104.1075077  99.1486381
  43.8775224 102.6473804  98.7203993  43.0407132 102.2195978  98.5387994
  43.8498869 102.8406247  99.6574784  50.7172679  92.5595733 109.4245239
  50.7660835  93.4357856 109.0423009  51.2595193  92.0173126 108.8516882
  61.3225400  99.9529323 106.0179105  61.3723405  99.7879330 106.9594627
  61.2139323  99.0856582 105.6276985  50.2061659 102.6317869  93.3071194
  50.3549779 103.3153333  92.6537866  51.0128102 102.6122959  93.8220649
  58.6129162  95.9360251 107.3338411  59.5139025  95.7966716 107.0422409
  58.6877137  96.1014706 108.2736589  52.9471968  93.3127106 106.1791598
  52.0775277  93.6060672 105.9074186  53.1831448  93.8967551 106.8998861
  64.0239279  99.9379144  98.7823696  64.8586170 100.3768948  98.9461257
  64.1598408  99.4617797  97.9631942  61.0730785  97.4958879 104.7301184
  61.5484907  97.6886525 103.9220036  60.1496350  97.5518065 104.4844568
  47.9614292  98.6583046  94.3132262  47.7160333  97.7545376  94.5112473
  48.1310206  98.6600197  93.3711740  55.6511001  89.5306723 103.6957018
  56.1692945  90.2667750 103.3703507  55.2966134  89.8370716 104.5303777
  47.2309939  94.3911404  91.8118424  46.5379184  94.4655759  91.1558460
  46.9861691  93.6271747  92.3339941  55.9023596  85.9507005  99.2157915
  56.1825349  85.2830194  99.8418341  56.6874202  86.1436101  98.7032578
  53.7057064 105.1265999  90.7782941  53.1331031 105.7456186  90.3253413
  54.2789858 105.6765361  91.3122863  59.7732454  94.3724639 102.9629490
  60.7249877  94.4722737 102.9841714  59.6035904  93.5802908 103.4727574
  57.7946833  91.4580222 103.1488891  57.1996765  91.7385235 102.4535379
  57.5096530  91.9474123 103.9205632  56.9254324 105.4103149  91.9091523
  57.8584997 105.3448711  92.1124399  56.8377537 106.2459416  91.4506056
  59.5542341 104.7269020  88.8695471  59.4755972 104.3928883  89.7631229
  60.3752007 105.2190787  88.8686943  62.2520532  97.5930759 102.0771789
  62.2196852  96.6546760 102.2631473  62.8621155  97.6714796 101.3437614
  54.0903863  96.4626812  88.1198993  55.0362967  96.3333020  88.1887411
  53.7118108  95.7241474  88.5968422  62.4015020  94.3841802 102.1230073
  61.8854069  93.6000259 101.9360001  63.2854969  94.0560519 102.2876592
  60.0625747  88.1282818  98.0825885  59.8650568  87.8197906  98.9669217
  60.6725453  88.8544457  98.2123815  68.0697082  98.6546766 101.2177826
  68.8000470  98.3932054 101.7785530  67.4604027  97.9175488 101.2579894
  66.1512379  96.7954628 101.8152277  65.4245542  96.6610593 101.2068769
  65.7359666  97.1031457 102.6208995  52.2746780  94.3876788  88.0553879
  51.3678235  94.0909901  88.1316592  52.5522761  94.0906606  87.1888165
  43.1924720  95.7083152  98.5052925  42.8727504  94.8548460  98.2127299
  42.6458148  95.9231730  99.2610892  46.9704628  98.4245593 102.2222432
  47.1890637  99.3562700 102.2410465  47.3830401  98.0653567 103.0077235
  53.8908845  88.9313678  94.2098120  53.0809574  88.5860763  94.5853366
  54.5793262  88.6221222  94.7985732  55.8199394  88.0091725  95.8322417
  56.3730432  88.4287178  96.4912440  56.0569480  87.0827473  95.8745373
  51.8432493  93.9978798 111.6125181  51.7429220  94.9473155 111.5437272
  51.6254035  93.6697037 110.7401251  51.0445564  91.2463723  88.1965858
  51.9064728  91.5718622  88.4561675  51.2295908  90.4595219  87.6838924
  43.0612980  99.3286063 100.4746047  42.3676452  98.9140016  99.9616001
  43.8085971  99.3706600  99.8779466  59.1978201  90.1192250  95.3401081
  58.6176870  90.7777054  94.9579133  58.9314133  89.2969594  94.9288498
  57.6481767  89.5197308  97.5422401  58.1481546  89.6313842  96.7336720
  58.2917375  89.2158360  98.1823210  51.7063763  97.4275937 110.4290242
  51.2230845  98.2276297 110.6354131  51.7924702  97.4383882 109.4757686
  44.9749723  99.2604317  98.3512062  44.9520411  99.3592004  97.3993945
  45.2850359 100.1069468  98.6729228  47.6337100 101.3180472 102.4658676
  48.5880354 101.2864414 102.3988608  47.4349624 100.8571096 103.2808902
  48.2236483  99.8881588 105.0329474  49.0429372 100.3825667 105.0564311
  48.4973290  98.9713556 105.0047041  57.9803079  92.2792340  94.3957429
  57.0928934  92.5641991  94.1777624  58.3957068  92.1186104  93.5484706
  61.3317615  92.3038861  98.1111768  62.1078005  92.7935314  98.3836385
  60.6065749  92.7296915  98.5683638  63.7690174  93.0166480  99.1685709
  64.3634664  92.7762216  98.4579017  63.8416757  92.2973611  99.7959245
  45.9887329 106.8600091  99.4828874  45.8541797 106.1000492  98.9166872
  45.5719392 107.5840991  99.0157663  57.1246292 102.0437015  88.4905449
  57.8282142 102.2487017  89.1063105  56.4008941 102.6113777  88.7554533
  57.9544103  97.7946876  94.6107719  57.8979304  98.2515428  93.7715352
  58.5072445  97.0337561  94.4330562  61.7648908  93.5836608  95.4357839
  61.5085843  93.1833244  96.2666046  61.1401777  94.2980402  95.3107978
  66.0761246  96.3232681  97.9429130  65.5160804  96.3925871  98.7160692
  65.4704750  96.1473666  97.2228626  49.1456455 107.7569408  99.6947316
  49.0288839 108.7014841  99.5926007  48.3248901 107.4542970 100.0833116
  59.0332990 102.4819544  90.5403909  59.8678594 102.0500743  90.3581384
  58.8717333 102.3101558  91.4680804  58.6878882  98.9851657  91.9060248
  58.6327686  98.8195929  90.9648693  58.0624937  99.6927690  92.0622438
  43.4771397  94.2219722 105.7321671  44.1230260  93.7118676 106.2208896
  43.2688548  94.9588403 106.3065096  51.9975007  88.4859766  91.4845567
  51.9853677  89.4301606  91.6413838  52.8898429  88.3029912  91.1905028
  50.1710969 108.4097670 102.9103245  51.0738216 108.4421281 103.2269740
  49.9448339 107.4798121 102.9249581  51.9264571 107.1628657  99.5713324
  50.9760202 107.1630518  99.4577696  52.2297057 106.4161391  99.0549358
  55.8127127  85.0802543  95.7391504  55.0459523  84.5261030  95.8848186
  56.2237832  85.1524412  96.6005655  47.8168888  91.3687339 109.8296685
  48.6800349  91.0124144 110.0400009  47.2434299  91.0301234 110.5172089
  60.3293787 114.8052100  96.5617502  59.7658652 114.7142037  95.7933789
  60.2146182 113.9852004  97.0419994  65.9093345 118.4723067  91.8731966
  65.2581325 119.0577148  91.4865980  66.7037708 119.0029262  91.9327004
  59.8348973 115.5612205  92.2719101  60.6079849 115.0141192  92.1331977
  60.1874372 116.4256454  92.4833562  62.1715250 111.7204871  89.9037551
  62.4240771 111.1986392  89.1421014  61.2339810 111.5571016  90.0064234
  67.2158533 110.7240649  97.7112294  68.0021623 110.3060072  97.3602711
  67.4797238 111.6286741  97.8793942  67.3868611 116.1613499  92.4100951
  66.7514444 116.2348126  93.1221855  67.0566017 116.7507098  91.7320030
  61.8911539 113.6232977  92.1061926  61.7747797 112.9477880  92.7743010
  62.0013799 113.1365351  91.2894079  64.2343080 113.0843124  95.8108615
  63.8701287 112.5573745  96.5221536  65.0910196 112.6941593  95.6375100
  63.8748567 108.1133023  90.8069963  64.0422969 108.9813260  91.1740434
  63.6845736 108.2760305  89.8831253  60.0836382 113.0263799  98.5072498
  59.1586878 112.8940013  98.7150190  60.3320795 113.8058018  99.0042441
  63.8537788 110.5690681  91.7916630  63.7337413 111.0147732  92.6302111
  63.1590376 110.9175999  91.2330168  57.4445193 112.6697073  99.3416287
  57.5737574 112.9231552 100.2555699  56.7642644 113.2624781  99.0220942
  69.5522854 111.0412154  92.6196964  70.4640710 111.2739541  92.4444662
  69.0432501 111.6249198  92.0572043  66.8958829 107.2170190 100.8686825
  66.0343308 107.5151444 101.1603563  66.9221264 107.4340589  99.9367858
  63.7120398 115.7612381  97.2760631  64.1758744 116.0400084  96.4865253
  63.4477196 114.8595825  97.0933722  62.6489284 111.8835533  94.0850196
  63.3513328 112.3356577  94.5524122  62.3169913 111.2419352  94.7130089
  56.3914618 110.1419086  99.3867330  55.6013672 110.3976614  98.9107440
  56.8825866 110.9567424  99.4919370  58.3429364 110.5063665  96.3450806
  57.5460527 110.6182359  96.8634302  58.1154956 110.8450317  95.4791697
  54.6752321 110.3949576 101.8182320  54.9260360 111.2796586 102.0839896
  55.2111870 110.2154178 101.0457412  63.8883049 118.6976476  94.1612301
  63.7528724 119.5428011  94.5897149  64.4292862 118.8995753  93.3978235
  57.3412446 116.2151914  94.7340226  57.8536967 117.0095164  94.8845791
  57.9935159 115.5178204  94.6673828  67.2375513 102.2207038 102.6911195
  66.8939782 103.1108679 102.6150305  67.6054475 102.0308695 101.8280780
  55.3061363 114.5440568  95.5099797  56.1436585 114.9537576  95.2933505
  55.4839631 113.6040010  95.4799991  67.2025795 112.2115649  91.1983630
  66.6872419 112.9820253  91.4372017  66.9303104 111.5380785  91.8216691
  64.7872906 107.0565349  96.2568868  63.9314503 106.6672200  96.0774507
  65.1999858 107.1357310  95.3968654  66.3172053 104.5911693 100.6560428
  65.8136849 104.5541828  99.8428233  66.6102660 105.5004435 100.7157085
  62.5614939 104.6750422  99.6626610  63.4267936 104.4793231  99.3032499
  62.6292448 104.4460774 100.5895966  72.1760069 114.9648003  93.1336803
  71.3989512 114.6259163  92.6891965  72.8551550 114.9700627  92.4591768
  66.9912098 110.0842741  93.0243411  66.6862234 110.3988890  93.8753554
  67.9442541 110.1624161  93.0670744  65.4358530 116.2432964  94.6736365
  64.9079892 115.5085724  94.3609602  64.9346033 117.0207640  94.4276333
  60.1677258 106.9052630  97.0342976  60.7421010 106.6827812  96.3016169
  60.7548240 106.9741325  97.7871578  60.4946845 108.9357091  91.0538862
  59.6584157 109.2731778  91.3748136  60.3551615 108.8006071  90.1165999
  62.4699926 103.7793879  95.7618046  61.8164338 103.4642896  95.1374661
  62.4280400 103.1569620  96.4877869  63.5811130 114.0613174  87.6771338
  62.6738192 113.8302428  87.8762487  64.0782162 113.2650794  87.8645320
  66.4879209 122.7710682  90.5968024  65.8140908 123.0742378  91.2052982
  66.8745031 123.5739762  90.2473481  66.4872714 111.6667229  95.2168374
  67.2344533 112.1788626  94.9075496  66.7564303 111.3451281  96.0772767
  64.7599364 114.1625769  92.1995328  63.8510583 113.8784802  92.2967798
  64.7894448 114.5824848  91.3398635  68.9351551 108.7024345  97.1987163
  68.1974308 108.1901731  97.5297406  69.1878324 108.2624726  96.3870440
  69.0363178 101.4800597  97.7928932  69.3422055 100.6197960  97.5054847
  69.7615783 102.0718217  97.5927926  55.3287534 111.8831283  96.1810530
  55.1311934 111.2900644  95.4561597  54.7734198 111.5783494  96.8986469
  63.3084258 111.7754390  98.3005123  63.3632868 110.8228226  98.2247600
  62.4975460 111.9313829  98.7846422  64.4575452 115.7034513  89.5383407
  64.0194882 114.9870372  89.0789044  65.1985893 115.9310628  88.9768498
  61.2476618 110.3931450  96.0595502  60.4344483 110.6925620  96.4660694
  61.7435612 109.9987138  96.7769985  60.7390693 107.9649805 101.6756737
  61.3790072 107.8238564 100.9779701  59.9068223 107.6784318 101.2995339
  57.8233760 111.4095317  93.8651482  56.8931348 111.3479773  94.0821445
  57.9191232 110.8871270  93.0688124  57.7419309 107.9350130  96.4529724
  58.0026126 108.8495463  96.3438885  58.5636481 107.4674573  96.6026337
  68.5786679 114.5618895  89.1315464  67.9615850 113.8365723  89.0348517
  68.1103168 115.3228255  88.7882538  60.3685225 108.7804319  88.2536769
  59.4914692 108.6593120  87.8899015  60.8442978 107.9890397  88.0015657
  51.8887365 113.5681479  98.3478276  52.5758405 113.2543209  97.7599291
  51.7335494 114.4722843  98.0745527  56.6922088 108.4571675 102.7763299
  56.6080276 107.8497345 102.0413709  55.8704794 108.9480693 102.7772796
  66.8645801 106.9425239  98.1433494  67.3614501 106.1895201  97.8234565
  66.0932783 106.9789555  97.5776704  63.4480770 109.0842622  97.8705179
  63.0778558 108.5313662  98.5586085  63.9439863 108.4800755  97.3180179
  69.3064796 103.9094832 100.2912853  68.3927876 104.1399059 100.4595060
  69.7357898 103.9933276 101.1426886  51.4655342 111.6482072 100.6195743
  51.5039441 111.1145663 101.4132861  50.9595634 111.1217277 100.0006720
  58.8446104 106.4946612 104.1158285  58.9087430 107.3561443 103.7035683
  58.7813224 105.8820614 103.3830644  55.0963919 110.3746174  93.6949674
  55.3917360 109.4656853  93.6416728  54.1951955 110.3533914  93.3730677
  58.6258166 108.4502171  99.6777223  57.9044752 109.0638138  99.5384696
  59.4151422 108.9859935  99.5993869  56.8251761 108.0560272  93.8188999
  56.4964467 107.1757651  93.6364105  57.1791131 108.0007940  94.7065389
  59.9393584 108.3433242  94.1864477  60.2789656 108.8719163  93.4643085
  60.3865704 108.6813648  94.9623044  63.2853496 103.8119605 102.0894868
  64.1079566 103.3380083 101.9673758  63.5291560 104.5910088 102.5893554
  61.9261731 106.8407863  92.3857770  62.6470093 107.2189116  91.8821487
  61.3027035 107.5596740  92.4892748  66.0692854 107.5453012  93.3216102
  66.2856468 108.4277650  93.0204930  65.5886921 107.1539226  92.5921744
  60.8092075 110.5038725  99.8986847  60.6636656 110.8179028 100.7911128
  60.3317279 111.1223626  99.3457745  62.6688458 107.4941273  99.9467736
  62.6550027 106.5982367  99.6100034  63.3860886 107.5011937 100.5806022
  62.0725354 106.3755654  95.2155306  62.1941265 105.4472300  95.4146194
  61.7827396 106.3894340  94.3033622  64.9416544 104.0610564  98.3522026
  64.9638241 104.1249897  97.3974006  65.3584603 103.2215073  98.5462532
  56.5160373 120.0579395  97.7615059  57.3418393 119.7583167  97.3813703
  56.1654425 119.2887017  98.2104848  54.7168978 117.9765721  98.7203993
  53.8800886 117.5487896  98.5387994  54.6892623 118.1698165  99.6574784
  61.0455413 117.9609786  93.3071194  61.1943533 118.6445251  92.6537866
  61.8521856 117.9414876  93.8220649  58.8008046 113.9874964  94.3132262
  58.5554088 113.0837294  94.5112473  58.9703961 113.9892114  93.3711740
  58.0703694 109.7203322  91.8118424  57.3772938 109.7947676  91.1558460
  57.8255445 108.9563665  92.3339941  66.7417350 101.2798923  99.2157915
  67.0219104 100.6122112  99.8418341  67.5267957 101.4728018  98.7032578
  64.5450819 120.4557917  90.7782941  63.9724786 121.0748104  90.3253413
  65.1183612 121.0057278  91.3122863  67.7648078 120.7395067  91.9091523
  68.6978751 120.6740629  92.1124399  67.6771291 121.5751334  91.4506056
  70.3936095 120.0560937  88.8695471  70.3149727 119.7220801  89.7631229
  71.2145762 120.5482705  88.8686943  64.9297617 111.7918730  88.1198993
  65.8756722 111.6624938  88.1887411  64.5511862 111.0533391  88.5968422
  70.9019502 103.4574736  98.0825885  70.7044323 103.1489824  98.9669217
  71.5119207 104.1836374  98.2123815  63.1140534 109.7168706  88.0553879
  62.2071990 109.4201819  88.1316592  63.3916515 109.4198524  87.1888165
  54.0318475 111.0375069  98.5052925  53.7121259 110.1840377  98.2127299
  53.4851903 111.2523647  99.2610892  64.7302600 104.2605596  94.2098120
  63.9203328 103.9152681  94.5853366  65.4187017 103.9513139  94.7985732
  66.6593148 103.3383642  95.8322417  67.2124187 103.7579096  96.4912440
  66.8963235 102.4119391  95.8745373  61.8839319 106.5755641  88.1965858
  62.7458483 106.9010539  88.4561675  62.0689663 105.7887137  87.6838924
  53.9006735 114.6577981 100.4746047  53.2070206 114.2431934  99.9616001
  54.6479726 114.6998517  99.8779466  70.0371955 105.4484168  95.3401081
  69.4570624 106.1068972  94.9579133  69.7707888 104.6261512  94.9288498
  68.4875522 104.8489225  97.5422401  68.9875300 104.9605760  96.7336720
  69.1311130 104.5450278  98.1823210  55.8143477 114.5896235  98.3512062
  55.7914165 114.6883922  97.3993945  56.1244114 115.4361385  98.6729228
  68.8196833 107.6084258  94.3957429  67.9322688 107.8933909  94.1777624
  69.2350822 107.4478021  93.5484706  67.9640047 117.3728933  88.4905449
  68.6675897 117.5778935  89.1063105  67.2402696 117.9405695  88.7554533
  68.7937857 113.1238794  94.6107719  68.7373058 113.5807345  93.7715352
  69.3466200 112.3629478  94.4330562  72.6042663 108.9128526  95.4357839
  72.3479597 108.5125161  96.2666046  71.9795531 109.6272320  95.3107978
  69.8726744 117.8111462  90.5403909  70.7072348 117.3792660  90.3581384
  69.7111087 117.6393476  91.4680804  69.5272636 114.3143575  91.9060248
  69.4721440 114.1487847  90.9648693  68.9018692 115.0219608  92.0622438
  62.8368762 103.8151684  91.4845567  62.8247432 104.7593524  91.6413838
  63.7292184 103.6321830  91.1905028  66.6520881 100.4094461  95.7391504
  65.8853277  99.8552947  95.8848186  67.0631586 100.4816330  96.6005655
  71.2078980 124.1096237  88.2536769  70.3308446 123.9885037  87.8899015
  71.6836733 123.3182315  88.0015657  72.7233073 121.9047559  88.1965858
  73.5852237 122.2302457  88.4561675  72.9083417 121.1179055  87.6838924
   6.1325016  15.1654634  83.2862808   5.5689881  15.0744571  82.5179096
   6.0177411  14.3454538  83.7665301  11.7124574  18.8325602  78.5977273
  11.0612554  19.4179682  78.2111287  12.5068937  19.3631797  78.6572311
   5.6380201  15.9214739  78.9964407   6.4111077  15.3743726  78.8577283
   5.9905600  16.7858988  79.2078869  13.0189762  11.0843183  84.4357601
  13.8052851  10.6662606  84.0848018  13.2828466  11.9889276  84.6039249
  13.1899839  16.5216034  79.1346257  12.5545672  16.5950660  79.8467162
  12.8597246  17.1109632  78.4565337  18.4198189  11.0218417  85.3390579
  19.1523361  10.4517633  85.5728409  17.6637545  10.6340017  85.7797085
   7.6942768  13.9835511  78.8307232   7.5779026  13.3080414  79.4988317
   7.8045028  13.4967885  78.0139385  10.0374309  13.4445658  82.5353922
   9.6732516  12.9176279  83.2466843  10.8941425  13.0544127  82.3620407
   7.4175909  23.6996857  82.1652068   7.3399939  24.6504682  82.2440549
   6.8137552  23.3542729  82.8226994  15.3554083  11.4014688  79.3442271
  16.2671939  11.6342075  79.1689968  14.8463730  11.9851733  78.7817350
  13.9623665  16.3840507  86.7355852  13.3332528  16.5486221  86.0331920
  13.5749327  16.7982116  87.5066816  17.8412897  17.3194945  84.0900216
  17.1563935  17.6993846  83.5397249  17.9256746  17.9290271  84.8232164
   9.5151627  16.1214915  84.0005937   9.9789973  16.4002618  83.2110560
   9.2508425  15.2198360  83.8179028  16.2109657  17.8426859  88.8617917
  17.0327100  17.4407046  88.5800599  16.2072060  17.7395093  89.8134033
  24.3015650  14.1865608  85.2102888  23.5479358  13.6173006  85.0546893
  24.4363191  14.1528272  86.1573523   9.6914278  19.0579010  80.8857608
   9.5559953  19.9030546  81.3142456  10.2324090  19.2598288  80.1223542
   3.1443675  16.5754448  81.4585533   3.6568196  17.3697698  81.6091098
   3.7966388  15.8780738  81.3919134   4.9538560  19.6920204  83.5408286
   5.1305188  20.6138169  83.3529270   5.7495393  19.3778623  83.9702666
  13.0057024  12.5718183  77.9228936  12.4903648  13.3422788  78.1617324
  12.7334333  11.8983319  78.5461998  17.9791298  15.3250538  79.8582110
  17.2020741  14.9861697  79.4137272  18.6582779  15.3303161  79.1837075
  12.7943327  10.4445275  79.7488718  12.4893463  10.7591424  80.5998861
  13.7473769  10.5226695  79.7916051  11.2389759  16.6035498  81.3981672
  10.7111121  15.8688258  81.0854909  10.7377262  17.3810175  81.1521640
  16.2182605  14.7984519  86.5148718  15.5606280  15.4883780  86.6028847
  17.0223004  15.1880951  86.8582704  15.0288064  13.1528891  84.5652660
  15.5419946  13.7858883  85.0674369  15.6789288  12.5530087  84.1996020
   9.3842359  14.4215709  74.4016645   8.4769421  14.1904962  74.6007794
   9.8813391  13.6253328  74.5890626  12.2910438  23.1313216  77.3213331
  11.6172137  23.4344913  77.9298289  12.6776260  23.9342296  76.9718788
  12.2903943  12.0269763  81.9413680  13.0375762  12.5391160  81.6320802
  12.5595532  11.7053815  82.8018074  10.5630593  14.5228303  78.9240635
   9.6541812  14.2387336  79.0213104  10.5925677  14.9427382  78.0643942
  15.7949860  18.1334893  82.6931802  15.3412187  17.2925803  82.7496993
  15.1643827  18.7696291  83.0306582  14.2382799  19.9711390  83.6281620
  14.5305774  20.5316447  82.9093986  14.7481420  20.2639951  84.3834780
  10.2606681  16.0637047  76.2628713   9.8226110  15.3472906  75.8034351
  11.0017121  16.2913162  75.7013805   9.2016425  20.7491741  84.7175074
   9.1592603  20.9752587  83.7883606  10.1179123  20.5155115  84.8660875
  18.3779795  14.3394244  82.3205032  18.2397694  14.5295840  81.3926221
  18.0216014  15.1013627  82.7773083  18.4049175  16.4070771  87.3316303
  18.8385682  16.3146060  88.1799357  19.1180756  16.3828272  86.6936319
   7.3182225  17.6254770  84.5137036   8.1122824  17.1305090  84.3119611
   6.6073918  17.0972633  84.1504742  12.1377070  20.0072865  88.8649404
  12.1914092  20.5763802  89.6327120  11.2691851  20.1774750  88.5003441
  10.4901653  23.2992888  79.5360410  10.6653409  22.8280931  80.3506033
   9.8034441  23.9258654  79.7641671  11.4458717  17.5765394  85.5823711
  11.1108549  17.5366164  86.4781361  10.9462662  16.9110110  85.1094121
  14.3817908  14.9221429  75.8560771  13.7647079  14.1968257  75.7593824
  13.9134397  15.6830789  75.5127845   5.0562739  26.4482251  86.3100270
   5.2959337  27.0800775  86.9879289   4.2131935  26.0970291  86.5965629
   9.5690600  22.2561373  88.7141774   9.4960772  23.0616345  89.2261079
   9.1267994  22.4553339  87.8889796   9.3580380  21.4933143  82.2244596
   8.5747902  22.0354824  82.3182820  10.0573125  22.0107123  82.6238837
  20.5206788  13.0068138  86.5097093  20.5096664  13.8892854  86.1391026
  19.6524167  12.6539689  86.3151630  13.7506811  16.0599460  82.4417224
  12.8163090  16.1800923  82.2721929  13.9283479  15.1571927  82.1777234
  17.1379362  11.9016779  82.9767259  17.6039814  12.7344771  82.9027561
  17.5886863  11.4361761  83.6812517  15.2055593  18.2460601  79.9753411
  15.4815437  18.1317195  80.8847285  14.3360092  17.8478086  79.9365584
  11.8409657  22.4946952  83.6186224  12.0232052  21.6768607  84.0813977
  12.6642643  22.7114644  83.1811114  12.1751823  21.4215137  80.8801273
  12.7039589  20.9107591  80.2671435  12.4380042  21.1057667  81.7446806
   5.5307571  22.4730253  83.6399049   4.8617946  22.9576381  83.1563089
   5.3920441  22.7199474  84.5542427   9.6712839  24.5073997  90.2381707
  10.2231147  24.6705618  91.0030792  10.0119033  25.0978435  89.5661732
  12.8081227  22.4555972  87.2245389  12.6832366  21.6545712  86.7156335
  13.4660318  22.9502166  86.7359359  14.8716135  20.2564992  88.8524939
  13.9246471  20.1370344  88.7803266  15.2198908  19.3687491  88.9351201
  11.8762568  20.0517709  85.0529291  11.7287531  19.1234416  85.2336862
  12.7016062  20.0737799  84.5686367  15.4796690  20.8746267  86.1394164
  16.4043238  20.6689129  86.0018615  15.3111994  20.6262669  87.0483506
  15.2692006  21.3931935  81.4956256  15.4428884  20.8278357  80.7430108
  15.7620898  22.1932830  81.3135746  21.1231398  14.1568358  83.1146555
  21.5662544  13.4075683  82.7165679  20.2457908  14.1478494  82.7320287
  16.2567179  20.7098699  78.5953154  16.9518084  21.3305392  78.8140469
  16.5990329  19.8594050  78.8705532  18.1558602  18.1598405  80.1240485
  18.6809926  18.4985678  79.3989805  18.0680955  17.2245420  79.9403619
   9.8399263  24.2270388  84.4835738   9.4004253  23.7346767  85.1768595
  10.5907380  23.6843356  84.2427813   2.3191602  20.4181929  84.4860366
   3.1449622  20.1185701  84.1059010   1.9685654  19.6489551  84.9350155
   7.2873135  19.7708397  86.5558040   6.6653144  19.1079102  86.2560267
   7.9578002  19.7969529  85.8731687   6.8486642  18.3212321  80.0316500
   6.9974762  19.0047785  79.3783173   7.6553085  18.3017411  80.5465956
  20.6664262  15.6273596  85.5069003  21.5011154  16.0663400  85.6706563
  20.8023391  15.1512249  84.6877249  10.3482047  20.8160451  77.5028248
   9.7756014  21.4350638  77.0498719  10.9214841  21.3659813  78.0368170
  13.5679307  21.0997601  78.6336830  14.5009980  21.0343163  78.8369705
  13.4802520  21.9353868  78.1751363  16.1967324  20.4163471  75.5940777
  16.1180955  20.0823335  76.4876535  17.0176991  20.9085239  75.5932250
  10.7328846  12.1521264  74.8444300  11.6787951  12.0227472  74.9132718
  10.3543091  11.4135926  75.3213728  24.7122065  14.3441218  87.9423133
  25.4425453  14.0826506  88.5030836  24.1029010  13.6069940  87.9825201
  22.7937362  12.4849080  88.5397584  22.0670526  12.3505045  87.9314076
  22.3784649  12.7925909  89.3454302   2.6312313  22.5494543  86.2074180
   2.4966781  21.7894944  85.6412178   2.2144375  23.2735443  85.7402969
  13.7671276  17.7331467  75.2150756  14.4707126  17.9381469  75.8308411
  13.0433924  18.3008229  75.4799839  14.5969086  13.4841328  81.3353026
  14.5404287  13.9409880  80.4960658  15.1497428  12.7232013  81.1575869
  18.4073892   9.2731060  82.1603145  18.1510826   8.8727696  82.9911353
  17.7826760   9.9874854  82.0353285  22.7186230  12.0127133  84.6674437
  22.1585788  12.0820323  85.4405999  22.1129733  11.8368118  83.9473933
   5.7881438  23.4463860  86.4192623   5.6713823  24.3909293  86.3171313
   4.9673885  23.1437422  86.8078422  15.6757973  18.1713996  77.2649216
  16.5103577  17.7395195  77.0826691  15.5142316  17.9996010  78.1926110
  15.3303865  14.6746109  78.6305555  15.2752669  14.5090381  77.6893999
  14.7049920  15.3822142  78.7867745   8.5689555  22.8523109  86.2958630
   7.6185186  22.8524970  86.1823002   8.8722041  22.1055843  85.7794665
  24.3042248  28.6883647  87.3604393  24.9420658  28.5690395  86.6567733
  24.1863091  29.6364491  87.4192345  21.1131954  28.6411075  87.2965917
  20.7750466  28.5252140  86.4086452  21.9821723  28.2402240  87.2766923
  16.9718770  30.4946552  83.2862808  16.4083635  30.4036489  82.5179096
  16.8571165  29.6746456  83.7665301  21.5951737  29.7945927  93.2552123
  21.5840378  29.3998725  92.3832626  21.7572377  29.0612000  93.8485894
  14.5183202  31.9897743  86.1247029  15.3104494  31.6488568  85.7093328
  14.7579852  32.0992718  87.0449182  22.5518329  34.1617519  78.5977273
  21.9006309  34.7471600  78.2111287  23.3462692  34.6923714  78.6572311
  16.4773956  31.2506657  78.9964407  17.2504832  30.7035644  78.8577283
  16.8299355  32.1150906  79.2078869  18.3158999  32.5783039  92.2031307
  18.0248864  33.4828670  92.0877973  18.9515983  32.6199566  92.9175376
  19.2415205  29.9559887  88.7932666  19.8378778  29.7315910  88.0789629
  19.2990177  29.2144633  89.3958114  18.8140234  27.4099323  76.6282857
  19.0665754  26.8880844  75.8666320  17.8764793  27.2465468  76.7309541
  23.8583517  26.4135101  84.4357601  24.6446606  25.9954524  84.0848018
  24.1222221  27.3181193  84.6039249  24.0293594  31.8507951  79.1346257
  23.3939427  31.9242578  79.8467162  23.6991000  32.4401550  78.4565337
  29.2591944  26.3510334  85.3390579  29.9917116  25.7809551  85.5728409
  28.5031299  25.9631935  85.7797085  18.5336523  29.3127429  78.8307232
  18.4172781  28.6372332  79.4988317  18.6438782  28.8259803  78.0139385
  20.8768063  28.7737576  82.5353922  20.5126271  28.2468197  83.2466843
  21.7335179  28.3836045  82.3620407  26.7817364  20.0631908  89.7985188
  26.4500689  20.9327319  89.5746403  26.1862977  19.7468192  90.4779218
  20.5173550  23.8027475  77.5315270  20.6847953  24.6707712  77.8985741
  20.3270719  23.9654757  76.6076559  23.2748884  32.2644454  89.1981100
  22.9749607  33.1669493  89.0896908  22.9299943  31.9976638  90.0502253
  16.7261365  28.7158251  85.2317805  15.8011862  28.5834465  85.4395497
  16.9745778  29.4952470  85.7287747  26.6746027  24.7826994  86.8778538
  25.7662905  24.7142403  86.5837299  26.6233623  25.2598939  87.7060363
  20.4962771  26.2585133  78.5161937  20.3762396  26.7042184  79.3547417
  19.8015360  26.6070451  77.9575475  14.0870176  28.3591525  86.0661594
  14.2162557  28.6126004  86.9801006  13.4067627  28.9519233  85.7466249
  18.2569663  39.0288775  82.1652068  18.1793693  39.9796600  82.2440549
  17.6531307  38.6834647  82.8226994  20.7486893  26.2016640  94.8213435
  19.9720227  26.7610560  94.8116300  21.3877456  26.6873423  95.3428305
  28.5407674  22.9843433  88.6556412  27.8982054  23.2775966  88.0096206
  28.0362602  22.8696353  89.4609608  26.1947837  26.7306606  79.3442271
  27.1065694  26.9633993  79.1689968  25.6857485  27.3143650  78.7817350
  19.0033265  29.0102093  94.3831402  19.7447950  29.5487137  94.1066226
  18.2970251  29.6368382  94.5402954  24.4788605  31.1531234  92.9803564
  24.8871961  30.7113644  92.2358196  23.7565867  30.5783861  93.2337756
  20.8319675  26.0903841  90.3537120  21.6780870  26.5143254  90.4971769
  20.7718313  25.4337465  91.0475684  24.8017420  31.7132425  86.7355852
  24.1726282  31.8778139  86.0331920  24.4143082  32.1274034  87.5066816
  28.6806652  32.6486862  84.0900216  27.9957690  33.0285764  83.5397249
  28.7650501  33.2582189  84.8232164  23.9819120  23.7508209  92.0118294
  23.7380052  24.5050270  91.4752570  24.2579051  24.1293557  92.8465541
  25.9357583  30.2946821  90.6895560  26.1474478  30.9378581  90.0129941
  25.8887332  29.4609138  90.2217490  23.5383812  22.9064642  87.5932132
  22.6768291  23.2045896  87.8848869  23.5646247  23.1235041  86.6613164
  20.3545382  31.4506833  84.0005937  20.8183727  31.7294536  83.2110560
  20.0902180  30.5490277  83.8179028  17.2469463  30.9978314  86.9385701
  17.8170820  31.4265583  86.3003185  17.8377575  30.7160899  87.6369886
  19.2914268  27.5729985  80.8095503  19.9938311  28.0251029  81.2769429
  18.9594896  26.9313804  81.4375396  17.7394629  26.1641742  95.1846712
  17.1093290  26.8458022  95.4182109  17.6330717  26.0524823  94.2399850
  13.0339602  25.8313538  86.1112636  12.2438656  26.0871066  85.6352747
  13.5250849  26.6461875  86.2164677  27.0503411  33.1718777  88.8617917
  27.8720855  32.7698964  88.5800599  27.0465814  33.0687011  89.8134033
  14.9854347  26.1958117  83.0696113  14.1885510  26.3076811  83.5879609
  14.7579939  26.5344769  82.2037003  20.8160015  32.7202820  91.0178628
  20.8804447  33.1823227  91.8536799  20.1070939  32.0900185  91.1460937
  11.3177305  26.0844028  88.5427627  11.5685343  26.9691038  88.8085203
  11.8536853  25.9048630  87.7702719  35.1409404  29.5157525  85.2102888
  34.3873113  28.9464923  85.0546893  35.2756945  29.4820190  86.1573523
  20.5308032  34.3870928  80.8857608  20.3953707  35.2322463  81.3142456
  21.0717845  34.5890205  80.1223542  13.9837430  31.9046366  81.4585533
  14.4961950  32.6989616  81.6091098  14.6360143  31.2072656  81.3919134
  15.7932314  35.0212122  83.5408286  15.9698943  35.9430087  83.3529270
  16.5889148  34.7070541  83.9702666  15.0784671  27.0676754  93.4170449
  14.9638186  26.1662011  93.7177548  14.2229189  27.3140451  93.0655266
  22.1576509  35.0094494  95.0157950  21.7140363  34.2230873  94.6978854
  22.8193722  35.1973645  94.3501841  16.9163630  36.5390296  89.5418628
  17.4671055  36.4107359  88.7695622  16.0775106  36.8385185  89.1913521
  24.2557747  35.2897294  93.0439351  24.2376222  36.1106175  92.5519620
  25.1777667  35.1651369  93.2689492  20.7130801  32.8041424  93.8862860
  21.2459138  32.0429712  93.6562168  20.1844882  32.5115075  94.6287014
  23.8800496  17.9101489  89.4156501  23.5364765  18.8003131  89.3395612
  24.2479458  17.7203147  88.5526086  11.9486346  30.2335020  82.2345103
  12.7861568  30.6432028  82.0178811  12.1264614  29.2934462  82.2045297
  23.8450779  27.9010101  77.9228936  23.3297402  28.6714705  78.1617324
  23.5728087  27.2275237  78.5461998  21.4297890  22.7459801  82.9814175
  20.5739486  22.3566652  82.8019814  21.8424841  22.8251762  82.1213960
  22.9597036  20.2806145  87.3805735  22.4561832  20.2436280  86.5673540
  23.2527643  21.1898887  87.4402391  19.2039922  20.3644874  86.3871916
  20.0692919  20.1687683  86.0277806  19.2717431  20.1355226  87.3141273
  28.8185053  30.6542455  79.8582110  28.0414495  30.3153615  79.4137272
  29.4976534  30.6595078  79.1837075  23.6337082  25.7737193  79.7488718
  23.3287217  26.0883342  80.5998861  24.5867524  25.8518613  79.7916051
  22.0783514  31.9327416  81.3981672  21.5504875  31.1980176  81.0854909
  21.5771016  32.7102092  81.1521640  27.0576360  30.1276436  86.5148718
  26.4000034  30.8175698  86.6028847  27.8616759  30.5172868  86.8582704
  16.8102241  22.5947082  83.7588283  17.3845993  22.3722264  83.0261476
  17.3973224  22.6635777  84.5116884  25.8681818  28.4820809  84.5652660
  26.3813700  29.1150801  85.0674369  26.5183042  27.8822005  84.1996020
  17.1371828  24.6251543  77.7784168  16.3009141  24.9626230  78.0993443
  16.9976598  24.4900523  76.8411305  19.1124909  19.4688331  82.4863353
  18.4589321  19.1537348  81.8619967  19.0705383  18.8464072  83.2123175
  20.2236114  29.7507626  74.4016645  19.3163176  29.5196880  74.6007794
  20.7207146  28.9545246  74.5890626  23.1304193  38.4605133  77.3213331
  22.4565891  38.7636830  77.9298289  23.5170015  39.2634214  76.9718788
  22.3462649  25.9570265  86.8111000  21.4285211  26.1785212  86.6532688
  22.7622793  26.0316575  85.9522708  23.1297697  27.3561680  81.9413680
  23.8769516  27.8683078  81.6320802  23.3989287  27.0345733  82.8018074
  21.4024347  29.8520221  78.9240635  20.4935566  29.5679254  79.0213104
  21.4319431  30.2719300  78.0643942  26.6343615  33.4626811  82.6931802
  26.1805942  32.6217721  82.7496993  26.0037581  34.0988209  83.0306582
  25.5776534  24.3918797  83.9232470  24.8399291  23.8796183  84.2542712
  25.8303308  23.9519178  83.1115747  25.0776554  35.3003307  83.6281620
  25.3699528  35.8608364  82.9093986  25.5875174  35.5931868  84.3834780
  25.6788162  17.1695049  84.5174239  25.9847038  16.3092412  84.2300154
  26.4040766  17.7612669  84.3173233  11.9712518  27.5725735  82.9055837
  11.7736917  26.9795096  82.1806903  11.4159182  27.2677945  83.6231776
  19.9509241  27.4648842  85.0250430  20.0057851  26.5122678  84.9492907
  19.1400443  27.6208281  85.5091728  21.1000435  31.3928965  76.2628713
  20.6619865  30.6764824  75.8034351  21.8410876  31.6205080  75.7013805
  17.8901601  26.0825901  82.7840809  17.0769467  26.3820072  83.1906001
  18.3860595  25.6881590  83.5015291  20.0410179  36.0783658  84.7175074
  19.9986358  36.3044505  83.7883606  20.9572878  35.8447033  84.8660875
  23.4875813  26.5467726  91.6155703  23.8425201  26.7739199  92.4750169
  24.1347944  26.8786103  90.9932958  29.2173550  29.6686162  82.3205032
  29.0791448  29.8587758  81.3926221  28.8609769  30.4305545  82.7773083
  17.3815676  23.6544257  88.4002044  18.0215055  23.5133016  87.7025007
  16.5493206  23.3678770  88.0240646  29.2442929  31.7362689  87.3316303
  29.6779436  31.6437978  88.1799357  29.9574510  31.7120189  86.6936319
  18.1575980  32.9546687  84.5137036  18.9516578  32.4597008  84.3119611
  17.4467672  32.4264551  84.1504742  22.9770824  35.3364783  88.8649404
  23.0307847  35.9055719  89.6327120  22.1085606  35.5066668  88.5003441
  14.4658743  27.0989769  80.5896789  13.5356331  27.0374225  80.8066751
  14.5616215  26.5765722  79.7933430  14.3844292  23.6244582  83.1775031
  14.6451110  24.5389915  83.0684191  15.2061465  23.1569025  83.3271643
  15.8569218  25.0382339  90.3473855  16.5292271  24.8299701  89.6986504
  15.0299004  24.8404425  89.9079088  30.1058479  31.7786389  89.8649189
  30.2994369  32.6832200  90.1108464  30.0059097  31.3193809  90.6987774
  21.7594790  21.6644280  92.3639516  21.1122705  22.3634230  92.2703992
  22.5295805  22.0980424  92.7315764  25.1673588  31.9293132  95.4390069
  25.0159094  31.7003684  94.5220153  25.1578267  32.8863734  95.4521414
  21.9358924  29.5025045  90.4236336  22.8650984  29.6536205  90.2505303
  21.5149954  29.5909066  89.5684982  20.7347256  33.5275709  88.1934873
  20.5958342  33.1594494  89.0660812  19.9461852  34.0423349  88.0218831
  21.3295408  38.6284806  79.5360410  21.5047164  38.1572849  80.3506033
  20.6428196  39.2550572  79.7641671  22.2852471  32.9057312  85.5823711
  21.9502304  32.8658082  86.4781361  21.7856417  32.2402028  85.1094121
  16.2596715  28.3124942  91.1076292  16.1216513  27.5805181  91.7087831
  17.1701638  28.2233842  90.8260480  25.2211663  30.2513346  75.8560771
  24.6040833  29.5260175  75.7593824  24.7528151  31.0122707  75.5127845
  18.8879016  28.0244901  90.5959972  19.5978634  27.3838094  90.5546590
  18.8448324  28.2757796  91.5186153  26.8765794  34.9612255  93.5166551
  26.8178340  34.2771475  92.8497134  27.2785313  35.7031245  93.0647177
  17.6007950  25.0110119  92.4155611  17.0645307  24.5600858  93.0677208
  17.0124658  25.1456028  91.6726076  15.8956493  41.7774169  86.3100270
  16.1353091  42.4092693  86.9879289  15.0525690  41.4262209  86.5965629
  17.0110209  24.4698771  74.9782075  16.1339675  24.3487572  74.6144322
  17.4867962  23.6784849  74.7260964  26.8783202  32.9251839  91.7480531
  25.9909980  32.5877761  91.8706930  27.4481753  32.1934870  91.9849296
   8.5312349  29.2575930  85.0723582   9.2183389  28.9437661  84.4844598
   8.3760477  30.1617295  84.7990834  13.3347071  24.1466127  89.5008606
  13.2505260  23.5391797  88.7659016  12.5129777  24.6375145  89.5018102
  20.4084355  37.5853291  88.7141774  20.3354526  38.3908263  89.2261079
  19.9661748  37.7845257  87.8889796  20.1974135  36.8225061  82.2244596
  19.4141656  37.3646741  82.3182820  20.8966880  37.3399041  82.6238837
  23.5070785  22.6319691  84.8678801  24.0039484  21.8789653  84.5479871
  22.7357766  22.6684007  84.3022010  31.3600542  28.3360056  86.5097093
  31.3490418  29.2184772  86.1391026  30.4917922  27.9831607  86.3151630
  22.8683038  37.4840125  90.8699933  23.5811011  38.1187590  90.7975834
  22.3773067  37.5803991  90.0539935  24.5900565  31.3891378  82.4417224
  23.6556844  31.5092840  82.2721929  24.7677234  30.4863845  82.1777234
  20.0905753  24.7737074  84.5950486  19.7203541  24.2208114  85.2831391
  20.5864846  24.1695207  84.0425486  27.9773117  27.2308697  82.9767259
  28.4433569  28.0636689  82.9027561  28.4280617  26.7653679  83.6812517
  17.9194952  35.2334569  91.6905504  18.6204412  35.8671052  91.8434898
  17.4490067  35.5749300  90.9301143  26.0449348  33.5752518  79.9753411
  26.3209192  33.4609113  80.8847285  25.1753847  33.1770003  79.9365584
  25.9489779  19.5989284  87.0158160  25.0352859  19.8293511  87.1840367
  26.3782881  19.6827728  87.8672192  25.7196238  27.7879176  89.5158054
  25.0667688  28.0355083  88.8610507  26.0976618  26.9743314  89.1820531
  22.6803412  37.8238869  83.6186224  22.8625806  37.0060525  84.0813977
  23.5036398  38.0406561  83.1811114  23.0145577  36.7507054  80.8801273
  23.5433344  36.2399509  80.2671435  23.2773797  36.4349585  81.7446806
  21.7683811  28.5298987  96.0024091  21.0924448  28.4293116  96.6726466
  22.5911445  28.3738201  96.4660088  13.5162670  34.7670924  88.6236606
  14.1016107  34.0214612  88.7564510  13.3187509  35.0774880  89.5073270
  16.3701325  37.8022171  83.6399049  15.7011701  38.2868299  83.1563089
  16.2314195  38.0491391  84.5542427   8.1080325  27.3376524  87.3441049
   8.1464424  26.8040115  88.1378168   7.6020618  26.8111729  86.7252027
  20.5106594  39.8365915  90.2381707  21.0624902  39.9997536  91.0030792
  20.8512787  40.4270352  89.5661732  15.4871087  22.1841064  90.8403592
  15.5512414  23.0455895  90.4280989  15.4238207  21.5715066  90.1075950
  25.3617468  34.6627172  96.0930361  25.9057372  35.2757130  95.5985316
  24.7804313  35.2206750  96.6097374  11.7388902  26.0640626  80.4194981
  12.0342343  25.1551304  80.3662035  10.8376938  26.0428365  80.0975983
  23.6474981  37.7847890  87.2245389  23.5226121  36.9837630  86.7156335
  24.3054072  38.2794083  86.7359359  15.2683149  24.1396623  86.4022529
  14.5469735  24.7532590  86.2630003  16.0576405  24.6754387  86.3239175
  25.7109890  35.5856910  88.8524939  24.7640225  35.4662261  88.7803266
  26.0592663  34.6979408  88.9351201  13.4676744  23.7454724  80.5434306
  13.1389450  22.8652103  80.3609412  13.8216115  23.6902392  81.4310695
  22.7156323  35.3809626  85.0529291  22.5681285  34.4526334  85.2336862
  23.5409816  35.4029717  84.5686367  16.5818567  24.0327693  80.9109784
  16.9214640  24.5613615  80.1888392  17.0290688  24.3708100  81.6868350
  26.3190445  36.2038185  86.1394164  27.2436992  35.9981046  86.0018615
  26.1505748  35.9554586  87.0483506  19.2762008  22.4164744  90.3612852
  18.9358828  21.6172557  90.7633532  18.5701014  22.7166455  89.7889685
  19.9278480  19.5014057  88.8140175  20.7504549  19.0274535  88.6919065
  20.1716543  20.2804540  89.3138861  18.5686714  22.5302315  79.1103076
  19.2895077  22.9083568  78.6066793  17.9452018  23.2491192  79.2138054
  22.7117837  23.2347464  80.0461409  22.9281452  24.1172102  79.7450237
  22.2311904  22.8433677  79.3167051  17.4517059  26.1933177  86.6232153
  17.3061639  26.5073480  87.5156435  16.9742262  26.8118078  86.0703052
  19.3113441  23.1835725  86.6713043  19.2975010  22.2876819  86.3345341
  20.0285870  23.1906389  87.3051329  21.1639572  23.6173065  88.7166170
  20.9057350  24.5390136  88.7150501  20.6324613  23.2203500  89.4066634
  26.1085761  36.7223853  81.4956256  26.2822638  36.1570275  80.7430108
  26.6014652  37.5224747  81.3135746  11.9262721  28.7338522  89.5619815
  11.3816189  29.5098330  89.6940089  12.8042071  29.0809326  89.4038936
  18.7150337  22.0650106  81.9400613  18.8366249  21.1366752  82.1391501
  18.4252380  22.0788791  81.0278928  21.5841528  19.7505016  85.0767333
  21.6063225  19.8144349  84.1219312  22.0009587  18.9109525  85.2707839
  31.9625152  29.4860275  83.1146555  32.4056298  28.7367601  82.7165679
  31.0851662  29.4770412  82.7320287  27.0960933  36.0390617  78.5953154
  27.7911838  36.6597310  78.8140469  27.4384084  35.1885968  78.8705532
  12.7128743  27.8608418  92.4549971  11.9710479  28.0091053  93.0414602
  12.3921487  28.1216684  91.5916721  28.9952357  33.4890322  80.1240485
  29.5203681  33.8277595  79.3989805  28.9074709  32.5537338  79.9403619
  20.6572405  37.4024396  92.2530361  20.9659532  37.1573543  93.1253061
  21.4547887  37.6071035  91.7649232  20.6793017  39.5562306  84.4835738
  20.2398008  39.0638684  85.1768595  21.4301134  39.0135273  84.2427813
  13.1585356  35.7473847  84.4860366  13.9843376  35.4477618  84.1059010
  12.8079408  34.9781469  84.9350155  18.1266889  35.1000315  86.5558040
  17.5046899  34.4371020  86.2560267  18.7971756  35.1261447  85.8731687
  11.3593961  33.6660173  85.4449300  10.5225870  33.2382347  85.2633301
  11.3317607  33.8592616  86.3820091  28.6846263  34.1223226  95.4291683
  27.8941806  34.1047365  94.8896182  28.4479617  34.6611520  96.1840719
  28.8044138  30.9715692  92.7424411  28.8542143  30.8065700  93.6839934
  28.6958061  30.1042952  92.3522292  17.6880396  33.6504238  80.0316500
  17.8368517  34.3339703  79.3783173  18.4946840  33.6309328  80.5465956
  26.0947900  26.9546621  94.0583718  26.9957763  26.8153085  93.7667716
  26.1695875  27.1201075  94.9981895  20.4290705  24.3313475  92.9036904
  19.5594015  24.6247041  92.6319493  20.6650186  24.9153920  93.6244168
  30.3062334  33.3912634  92.9866433  30.0147143  33.7542615  93.8229894
  29.6934466  32.6779642  92.8079765  31.5058017  30.9565514  85.5069003
  32.3404908  31.3955318  85.6706563  31.6417146  30.4804167  84.6877249
  28.5549523  28.5145249  91.4546491  29.0303644  28.7072895  90.6465342
  27.6315088  28.5704434  91.2089874  15.4433029  29.6769416  81.0377569
  15.1979071  28.7731746  81.2357779  15.6128944  29.6786566  80.0957047
  23.1329739  20.5493092  90.4202325  23.6511683  21.2854119  90.0948813
  22.7784872  20.8557085  91.2549084  14.7128677  25.4097773  78.5363731
  14.0197922  25.4842128  77.8803766  14.4680429  24.6458117  79.0585247
  23.3842333  16.9693375  85.9403221  23.6644087  16.3016564  86.5663648
  24.1692940  17.1622470  85.4277885  21.1875802  36.1452369  77.5028248
  20.6149769  36.7642556  77.0498719  21.7608596  36.6951730  78.0368170
  27.2551192  25.3911009  89.6874796  28.2068615  25.4909106  89.7087020
  27.0854642  24.5989277  90.1972881  25.2765571  22.4766592  89.8734197
  24.6815503  22.7571605  89.1780686  24.9915268  22.9660493  90.6450938
  24.4073062  36.4289519  78.6336830  25.3403735  36.3635080  78.8369705
  24.3196274  37.2645786  78.1751363  27.0361078  35.7455389  75.5940777
  26.9574710  35.4115253  76.4876535  27.8570745  36.2377157  75.5932250
  29.7339269  28.6117128  88.8017096  29.7015590  27.6733129  88.9876780
  30.3439893  28.6901165  88.0682921  21.5722600  27.4813181  74.8444300
  22.5181705  27.3519389  74.9132718  21.1936845  26.7427843  75.3213728
  29.8833758  25.4028172  88.8475379  29.3672807  24.6186628  88.6605308
  30.7673706  25.0746888  89.0121899  27.5444485  19.1469187  84.8071192
  27.3469306  18.8384276  85.6914524  28.1544190  19.8730826  84.9369122
  35.5515819  29.6733135  87.9423133  36.2819208  29.4118423  88.5030836
  34.9422765  28.9361857  87.9825201  33.6331116  27.8140998  88.5397584
  32.9064280  27.6796963  87.9314076  33.2178403  28.1217826  89.3454302
  21.4561293  31.5330928  96.3044957  22.3764302  31.7109527  96.4985004
  21.4210876  30.5886973  96.1524656  19.7565518  25.4063158  74.7799185
  18.8496973  25.1096270  74.8561899  20.0341499  25.1092976  73.9133472
  10.6743458  26.7269521  85.2298232  10.3546242  25.8734829  84.9372606
  10.1276886  26.9418099  85.9856199  14.4523365  29.4431962  88.9467738
  14.6709375  30.3749070  88.9655772  14.8649139  29.0839937  89.7322542
  21.3727583  19.9500047  80.9343427  20.5628312  19.6047132  81.3098673
  22.0612000  19.6407591  81.5231038  23.3018132  19.0278094  82.5567723
  23.8549170  19.4473548  83.2157746  23.5388218  18.1013842  82.5990679
  18.5264302  22.2650093  74.9211164  19.3883466  22.5904991  75.1806982
  18.7114646  21.4781589  74.4084230  10.5431718  30.3472433  87.1991353
   9.8495189  29.9326385  86.6861308  11.2904709  30.3892969  86.6024772
  26.6796939  21.1378619  82.0646387  26.0995608  21.7963423  81.6824440
  26.4132871  20.3155964  81.6533805  25.1300505  20.5383677  84.2667708
  25.6300283  20.6500212  83.4582027  25.7736113  20.2344730  84.9068516
  19.1882501  28.4462307  97.1535549  18.7049583  29.2462667  97.3599438
  19.2743440  28.4570252  96.2002993  12.4568460  30.2790686  85.0757368
  12.4339149  30.3778374  84.1239251  12.7669097  31.1255837  85.3974534
  15.1155838  32.3366841  89.1903983  16.0699092  32.3050784  89.1233914
  14.9168362  31.8757465  90.0054208  15.7055220  30.9067958  91.7574780
  16.5248109  31.4012036  91.7809618  15.9792028  29.9899926  91.7292348
  25.4621817  23.2978710  81.1202736  24.5747672  23.5828360  80.9022931
  25.8775806  23.1372473  80.2730013  28.8136353  23.3225231  84.8357075
  29.5896743  23.8121683  85.1081692  28.0884487  23.7483285  85.2928944
  31.2508911  24.0352850  85.8931016  31.8453402  23.7948586  85.1824324
  31.3235495  23.3159981  86.5204552  13.4706067  37.8786461  86.2074180
  13.3360535  37.1186862  85.6412178  13.0538129  38.6027361  85.7402969
  24.6065030  33.0623385  75.2150756  25.3100880  33.2673387  75.8308411
  23.8827679  33.6300146  75.4799839  25.4362840  28.8133246  81.3353026
  25.3798042  29.2701797  80.4960658  25.9891183  28.0523930  81.1575869
  29.2467646  24.6022978  82.1603145  28.9904581  24.2019613  82.9911353
  28.6220514  25.3166772  82.0353285  33.5579984  27.3419051  84.6674437
  32.9979542  27.4112240  85.4405999  32.9523487  27.1660036  83.9473933
  16.6275193  38.7755778  86.4192623  16.5107577  39.7201210  86.3171313
  15.8067639  38.4729340  86.8078422  26.5151727  33.5005914  77.2649216
  27.3497331  33.0687112  77.0826691  26.3536070  33.3287927  78.1926110
  26.1697620  30.0038027  78.6305555  26.1146423  29.8382298  77.6893999
  25.5443675  30.7114060  78.7867745  23.4843527  32.3086939  97.9559118
  24.3534686  32.4827591  97.5945753  23.0050278  33.1281356  97.8334847
  19.4793745  19.5046136  78.2090873  19.4672415  20.4487976  78.3659144
  20.3717167  19.3216281  77.9150335  17.6529707  39.4284040  89.6348552
  18.5556954  39.4607650  89.9515046  17.4267077  38.4984491  89.6494887
  19.4083309  38.1815026  86.2958630  18.4578940  38.1816888  86.1823002
  19.7115795  37.4347761  85.7794665  23.2945865  16.0988913  82.4636810
  22.5278260  15.5447399  82.6093493  23.7056570  16.1710781  83.3250962
  35.1436003  44.0175565  87.3604393  35.7814413  43.8982312  86.6567733
  35.0256845  44.9656409  87.4192345  31.9525709  43.9702993  87.2965917
  31.6144220  43.8544058  86.4086452  32.8215477  43.5694158  87.2766923
  27.8112525  45.8238469  83.2862808  27.2477390  45.7328406  82.5179096
  27.6964920  45.0038374  83.7665301  32.4345492  45.1237845  93.2552123
  32.4234133  44.7290643  92.3832626  32.5966131  44.3903917  93.8485894
  25.3576956  47.3189661  86.1247029  26.1498248  46.9780486  85.7093328
  25.5973607  47.4284636  87.0449182  33.3912083  49.4909437  78.5977273
  32.7400063  50.0763517  78.2111287  34.1856446  50.0215632  78.6572311
  27.3167710  46.5798574  78.9964407  28.0898586  46.0327561  78.8577283
  27.6693109  47.4442824  79.2078869  29.1552753  47.9074956  92.2031307
  28.8642619  48.8120587  92.0877973  29.7909737  47.9491484  92.9175376
  30.0808960  45.2851805  88.7932666  30.6772532  45.0607827  88.0789629
  30.1383931  44.5436550  89.3958114  29.6533988  42.7391240  76.6282857
  29.9059509  42.2172762  75.8666320  28.7158547  42.5757386  76.7309541
  34.6977271  41.7427019  84.4357601  35.4840360  41.3246442  84.0848018
  34.9615975  42.6473111  84.6039249  34.8687348  47.1799869  79.1346257
  34.2333181  47.2534495  79.8467162  34.5384755  47.7693468  78.4565337
  40.0985698  41.6802252  85.3390579  40.8310870  41.1101469  85.5728409
  39.3425054  41.2923852  85.7797085  29.3730277  44.6419346  78.8307232
  29.2566535  43.9664250  79.4988317  29.4832537  44.1551720  78.0139385
  31.7161818  44.1029493  82.5353922  31.3520025  43.5760114  83.2466843
  32.5728934  43.7127962  82.3620407  37.6211119  35.3923826  89.7985188
  37.2894443  36.2619237  89.5746403  37.0256732  35.0760110  90.4779218
  31.3567305  39.1319393  77.5315270  31.5241707  39.9999629  77.8985741
  31.1664474  39.2946675  76.6076559  34.1142638  47.5936372  89.1981100
  33.8143361  48.4961411  89.0896908  33.7693698  47.3268555  90.0502253
  27.5655120  44.0450169  85.2317805  26.6405616  43.9126383  85.4395497
  27.8139533  44.8244388  85.7287747  37.5139782  40.1118912  86.8778538
  36.6056659  40.0434321  86.5837299  37.4627378  40.5890857  87.7060363
  31.3356526  41.5877051  78.5161937  31.2156151  42.0334101  79.3547417
  30.6409114  41.9362368  77.9575475  24.9263931  43.6883442  86.0661594
  25.0556312  43.9417921  86.9801006  24.2461382  44.2811150  85.7466249
  29.0963418  54.3580692  82.1652068  29.0187448  55.3088517  82.2440549
  28.4925061  54.0126565  82.8226994  31.5880648  41.5308558  94.8213435
  30.8113982  42.0902478  94.8116300  32.2271211  42.0165341  95.3428305
  39.3801428  38.3135351  88.6556412  38.7375809  38.6067884  88.0096206
  38.8756357  38.1988271  89.4609608  37.0341592  42.0598524  79.3442271
  37.9459448  42.2925910  79.1689968  36.5251239  42.6435568  78.7817350
  29.8427020  44.3394011  94.3831402  30.5841704  44.8779055  94.1066226
  29.1364005  44.9660300  94.5402954  35.3182360  46.4823152  92.9803564
  35.7265716  46.0405562  92.2358196  34.5959621  45.9075779  93.2337756
  31.6713430  41.4195758  90.3537120  32.5174625  41.8435172  90.4971769
  31.6112067  40.7629383  91.0475684  35.6411174  47.0424342  86.7355852
  35.0120037  47.2070056  86.0331920  35.2536836  47.4565952  87.5066816
  39.5200406  47.9778780  84.0900216  38.8351444  48.3577681  83.5397249
  39.6044255  48.5874107  84.8232164  34.8212875  39.0800127  92.0118294
  34.5773807  39.8342187  91.4752570  35.0972805  39.4585474  92.8465541
  36.7751338  45.6238739  90.6895560  36.9868233  46.2670499  90.0129941
  36.7281086  44.7901056  90.2217490  34.3777567  38.2356560  87.5932132
  33.5162046  38.5337813  87.8848869  34.4040001  38.4526959  86.6613164
  31.1939136  46.7798750  84.0005937  31.6577482  47.0586453  83.2110560
  30.9295934  45.8782195  83.8179028  28.0863217  46.3270232  86.9385701
  28.6564574  46.7557500  86.3003185  28.6771329  46.0452817  87.6369886
  30.1308022  42.9021903  80.8095503  30.8332066  43.3542946  81.2769429
  29.7988651  42.2605722  81.4375396  28.5788384  41.4933659  95.1846712
  27.9487044  42.1749940  95.4182109  28.4724472  41.3816741  94.2399850
  23.8733356  41.1605455  86.1112636  23.0832410  41.4162984  85.6352747
  24.3644604  41.9753793  86.2164677  37.8897166  48.5010694  88.8617917
  38.7114609  48.0990882  88.5800599  37.8859569  48.3978929  89.8134033
  25.8248102  41.5250035  83.0696113  25.0279265  41.6368729  83.5879609
  25.5973694  41.8636687  82.2037003  31.6553769  48.0494738  91.0178628
  31.7198202  48.5115145  91.8536799  30.9464693  47.4192103  91.1460937
  22.1571059  41.4135946  88.5427627  22.4079098  42.2982956  88.8085203
  22.6930608  41.2340547  87.7702719  45.9803159  44.8449443  85.2102888
  45.2266867  44.2756841  85.0546893  46.1150700  44.8112107  86.1573523
  31.3701787  49.7162845  80.8857608  31.2347462  50.5614381  81.3142456
  31.9111599  49.9182123  80.1223542  27.8569126  35.7954425  97.5471963
  27.4636072  35.2420624  98.2219607  28.6735267  36.1065004  97.9378481
  24.8231184  47.2338283  81.4585533  25.3355705  48.0281534  81.6091098
  25.4753897  46.5364574  81.3919134  26.6326069  50.3504040  83.5408286
  26.8092697  51.2722004  83.3529270  27.4282902  50.0362459  83.9702666
  30.7737087  37.2112304  95.1392220  31.5146801  37.8119457  95.0596682
  31.0055010  36.4689942  94.5810262  25.9178425  42.3968671  93.4170449
  25.8031941  41.4953929  93.7177548  25.0622943  42.6432368  93.0655266
  32.9970263  50.3386412  95.0157950  32.5534117  49.5522790  94.6978854
  33.6587477  50.5265562  94.3501841  27.7557384  51.8682213  89.5418628
  28.3064809  51.7399277  88.7695622  26.9168860  52.1677102  89.1913521
  35.0951501  50.6189212  93.0439351  35.0769977  51.4398093  92.5519620
  36.0171421  50.4943287  93.2689492  31.5524555  48.1333341  93.8862860
  32.0852892  47.3721629  93.6562168  31.0238636  47.8406993  94.6287014
  34.7194250  33.2393407  89.4156501  34.3758520  34.1295049  89.3395612
  35.0873213  33.0495065  88.5526086  22.7880101  45.5626938  82.2345103
  23.6255323  45.9723946  82.0178811  22.9658369  44.6226380  82.2045297
  34.6844533  43.2302018  77.9228936  34.1691157  44.0006623  78.1617324
  34.4121842  42.5567154  78.5461998  32.2691644  38.0751719  82.9814175
  31.4133240  37.6858569  82.8019814  32.6818596  38.1543680  82.1213960
  33.7990791  35.6098062  87.3805735  33.2955586  35.5728197  86.5673540
  34.0921398  36.5190805  87.4402391  30.0433677  35.6936792  86.3871916
  30.9086673  35.4979601  86.0277806  30.1111186  35.4647144  87.3141273
  39.6578807  45.9834373  79.8582110  38.8808250  45.6445532  79.4137272
  40.3370288  45.9886996  79.1837075  34.4730836  41.1029110  79.7488718
  34.1680972  41.4175260  80.5998861  35.4261278  41.1810530  79.7916051
  32.9177268  47.2619334  81.3981672  32.3898630  46.5272093  81.0854909
  32.4164771  48.0394010  81.1521640  37.8970114  45.4568354  86.5148718
  37.2393789  46.1467616  86.6028847  38.7010513  45.8464786  86.8582704
  27.6495996  37.9239000  83.7588283  28.2239748  37.7014181  83.0261476
  28.2366978  37.9927694  84.5116884  36.7075573  43.8112727  84.5652660
  37.2207455  44.4442719  85.0674369  37.3576797  43.2113922  84.1996020
  27.9765583  39.9543461  77.7784168  27.1402895  40.2918148  78.0993443
  27.8370352  39.8192441  76.8411305  29.9518663  34.7980249  82.4863353
  29.2983076  34.4829266  81.8619967  29.9099138  34.1755989  83.2123175
  31.0629868  45.0799544  74.4016645  30.1556930  44.8488797  74.6007794
  31.5600900  44.2837163  74.5890626  33.9697947  53.7897051  77.3213331
  33.2959646  54.0928748  77.9298289  34.3563769  54.5926131  76.9718788
  33.1856404  41.2862182  86.8111000  32.2678965  41.5077129  86.6532688
  33.6016547  41.3608493  85.9522708  33.9691452  42.6853598  81.9413680
  34.7163270  43.1974995  81.6320802  34.2383041  42.3637651  82.8018074
  32.2418102  45.1812139  78.9240635  31.3329321  44.8971172  79.0213104
  32.2713186  45.6011217  78.0643942  37.4737369  48.7918728  82.6931802
  37.0199696  47.9509638  82.7496993  36.8431336  49.4280127  83.0306582
  36.4170289  39.7210714  83.9232470  35.6793045  39.2088101  84.2542712
  36.6697062  39.2811096  83.1115747  35.9170308  50.6295225  83.6281620
  36.2093283  51.1900282  82.9093986  36.4268929  50.9223786  84.3834780
  36.5181916  32.4986966  84.5174239  36.8240793  31.6384330  84.2300154
  37.2434521  33.0904587  84.3173233  22.8106272  42.9017653  82.9055837
  22.6130672  42.3087014  82.1806903  22.2552936  42.5969863  83.6231776
  30.7902996  42.7940759  85.0250430  30.8451606  41.8414596  84.9492907
  29.9794198  42.9500199  85.5091728  31.9394190  46.7220882  76.2628713
  31.5013619  46.0056741  75.8034351  32.6804630  46.9496997  75.7013805
  28.7295356  41.4117819  82.7840809  27.9163221  41.7111990  83.1906001
  29.2254350  41.0173508  83.5015291  30.8803934  51.4075576  84.7175074
  30.8380112  51.6336422  83.7883606  31.7966632  51.1738951  84.8660875
  34.3269567  41.8759644  91.6155703  34.6818955  42.1031117  92.4750169
  34.9741699  42.2078020  90.9932958  40.0567304  44.9978080  82.3205032
  39.9185203  45.1879675  81.3926221  39.7003523  45.7597462  82.7773083
  28.2209430  38.9836175  88.4002044  28.8608810  38.8424934  87.7025007
  27.3886961  38.6970688  88.0240646  40.0836684  47.0654607  87.3316303
  40.5173191  46.9729896  88.1799357  40.7968265  47.0412107  86.6936319
  28.9969734  48.2838605  84.5137036  29.7910333  47.7888925  84.3119611
  28.2861427  47.7556468  84.1504742  33.8164579  50.6656701  88.8649404
  33.8701601  51.2347637  89.6327120  32.9479360  50.8358586  88.5003441
  25.3052498  42.4281687  80.5896789  24.3750086  42.3666142  80.8066751
  25.4009970  41.9057640  79.7933430  25.2238047  38.9536500  83.1775031
  25.4844864  39.8681833  83.0684191  26.0455219  38.4860942  83.3271643
  26.6962972  40.3674257  90.3473855  27.3686026  40.1591619  89.6986504
  25.8692759  40.1696343  89.9079088  40.9452233  47.1078307  89.8649189
  41.1388124  48.0124118  90.1108464  40.8452852  46.6485726  90.6987774
  32.5988544  36.9936198  92.3639516  31.9516459  37.6926147  92.2703992
  33.3689560  37.4272342  92.7315764  36.0067342  47.2585050  95.4390069
  35.8552849  47.0295602  94.5220153  35.9972022  48.2155651  95.4521414
  32.7752679  44.8316963  90.4236336  33.7044739  44.9828122  90.2505303
  32.3543709  44.9200983  89.5684982  31.5741010  48.8567627  88.1934873
  31.4352096  48.4886411  89.0660812  30.7855607  49.3715267  88.0218831
  32.1689162  53.9576724  79.5360410  32.3440918  53.4864767  80.3506033
  31.4821950  54.5842490  79.7641671  33.1246225  48.2349230  85.5823711
  32.7896058  48.1950000  86.4781361  32.6250171  47.5693946  85.1094121
  27.0990469  43.6416860  91.1076292  26.9610267  42.9097099  91.7087831
  28.0095393  43.5525760  90.8260480  36.0605417  45.5805264  75.8560771
  35.4434588  44.8552092  75.7593824  35.5921906  46.3414624  75.5127845
  29.7272770  43.3536819  90.5959972  30.4372389  42.7130011  90.5546590
  29.6842078  43.6049714  91.5186153  37.7159549  50.2904172  93.5166551
  37.6572095  49.6063393  92.8497134  38.1179067  51.0323162  93.0647177
  28.4401704  40.3402037  92.4155611  27.9039061  39.8892775  93.0677208
  27.8518413  40.4747946  91.6726076  26.7350248  57.1066086  86.3100270
  26.9746846  57.7384610  86.9879289  25.8919444  56.7554126  86.5965629
  27.8503963  39.7990688  74.9782075  26.9733429  39.6779489  74.6144322
  28.3261716  39.0076767  74.7260964  37.7176956  48.2543756  91.7480531
  36.8303735  47.9169678  91.8706930  38.2875507  47.5226788  91.9849296
  19.3706103  44.5867848  85.0723582  20.0577143  44.2729578  84.4844598
  19.2154232  45.4909213  84.7990834  24.1740825  39.4758045  89.5008606
  24.0899014  38.8683714  88.7659016  23.3523532  39.9667063  89.5018102
  31.2478109  52.9145209  88.7141774  31.1748281  53.7200180  89.2261079
  30.8055503  53.1137175  87.8889796  31.0367889  52.1516979  82.2244596
  30.2535411  52.6938659  82.3182820  31.7360634  52.6690958  82.6238837
  34.3464539  37.9611608  84.8678801  34.8433239  37.2081571  84.5479871
  33.5751521  37.9975925  84.3022010  42.1994297  43.6651974  86.5097093
  42.1884173  44.5476689  86.1391026  41.3311676  43.3123525  86.3151630
  33.7076793  52.8132043  90.8699933  34.4204765  53.4479508  90.7975834
  33.2166822  52.9095909  90.0539935  35.4294320  46.7183295  82.4417224
  34.4950599  46.8384758  82.2721929  35.6070988  45.8155762  82.1777234
  30.9299508  40.1028991  84.5950486  30.5597295  39.5500032  85.2831391
  31.4258600  39.4987125  84.0425486  38.8166871  42.5600615  82.9767259
  39.2827323  43.3928606  82.9027561  39.2674372  42.0945596  83.6812517
  28.7588707  50.5626486  91.6905504  29.4598166  51.1962969  91.8434898
  28.2883822  50.9041218  90.9301143  36.8843102  48.9044436  79.9753411
  37.1602946  48.7901031  80.8847285  36.0147601  48.5061921  79.9365584
  36.7883534  34.9281202  87.0158160  35.8746614  35.1585429  87.1840367
  37.2176635  35.0119646  87.8672192  36.5589992  43.1171094  89.5158054
  35.9061443  43.3647001  88.8610507  36.9370372  42.3035232  89.1820531
  33.5197166  53.1530787  83.6186224  33.7019561  52.3352443  84.0813977
  34.3430152  53.3698479  83.1811114  33.8539332  52.0798972  80.8801273
  34.3827098  51.5691427  80.2671435  34.1167551  51.7641502  81.7446806
  32.6077565  43.8590905  96.0024091  31.9318203  43.7585034  96.6726466
  33.4305199  43.7030119  96.4660088  24.3556425  50.0962841  88.6236606
  24.9409861  49.3506529  88.7564510  24.1581263  50.4066798  89.5073270
  27.2095080  53.1314089  83.6399049  26.5405455  53.6160216  83.1563089
  27.0707949  53.3783309  84.5542427  18.9474079  42.6668442  87.3441049
  18.9858179  42.1332032  88.1378168  18.4414372  42.1403647  86.7252027
  31.3500348  55.1657832  90.2381707  31.9018656  55.3289454  91.0030792
  31.6906542  55.7562270  89.5661732  26.3264842  37.5132982  90.8403592
  26.3906168  38.3747813  90.4280989  26.2631962  36.9006984  90.1075950
  25.8017114  39.5856115  94.4876626  26.4289153  39.2033192  95.1014150
  24.9445033  39.3670316  94.8532318  36.2011223  49.9919090  96.0930361
  36.7451127  50.6049048  95.5985316  35.6198068  50.5498668  96.6097374
  22.5782657  41.3932544  80.4194981  22.8736098  40.4843222  80.3662035
  21.6770693  41.3720283  80.0975983  34.4868736  53.1139808  87.2245389
  34.3619875  52.3129548  86.7156335  35.1447827  53.6086001  86.7359359
  26.1076904  39.4688540  86.4022529  25.3863490  40.0824508  86.2630003
  26.8970160  40.0046305  86.3239175  36.5503644  50.9148828  88.8524939
  35.6033980  50.7954179  88.7803266  36.8986417  50.0271326  88.9351201
  28.9103217  36.8042967  92.6763181  29.4337619  37.0505263  93.4389490
  28.6915551  37.6363002  92.2566319  24.3070498  39.0746641  80.5434306
  23.9783205  38.1944020  80.3609412  24.6609869  39.0194310  81.4310695
  33.5550077  50.7101544  85.0529291  33.4075040  49.7818251  85.2336862
  34.3803571  50.7321635  84.5686367  27.4212322  39.3619611  80.9109784
  27.7608394  39.8905532  80.1888392  27.8684442  39.7000017  81.6868350
  37.1584199  51.5330103  86.1394164  38.0830747  51.3272964  86.0018615
  36.9899503  51.2846504  87.0483506  30.1155762  37.7456662  90.3612852
  29.7752583  36.9464475  90.7633532  29.4094769  38.0458373  89.7889685
  30.7672234  34.8305974  88.8140175  31.5898304  34.3566452  88.6919065
  31.0110298  35.6096458  89.3138861  29.4080469  37.8594233  79.1103076
  30.1288831  38.2375486  78.6066793  28.7845773  38.5783110  79.2138054
  33.5511592  38.5639382  80.0461409  33.7675206  39.4464020  79.7450237
  33.0705659  38.1725595  79.3167051  28.2910813  41.5225095  86.6232153
  28.1455394  41.8365398  87.5156435  27.8136017  42.1409995  86.0703052
  30.1507196  38.5127643  86.6713043  30.1368765  37.6168736  86.3345341
  30.8679624  38.5198307  87.3051329  32.0033327  38.9464983  88.7166170
  31.7451104  39.8682054  88.7150501  31.4718367  38.5495418  89.4066634
  36.9479515  52.0515770  81.4956256  37.1216393  51.4862193  80.7430108
  37.4408407  52.8516665  81.3135746  22.7656475  44.0630439  89.5619815
  22.2209943  44.8390247  89.6940089  23.6435825  44.4101244  89.4038936
  29.5544092  37.3942023  81.9400613  29.6760003  36.4658669  82.1391501
  29.2646134  37.4080709  81.0278928  32.4235282  35.0796934  85.0767333
  32.4456979  35.1436267  84.1219312  32.8403341  34.2401442  85.2707839
  42.8018907  44.8152193  83.1146555  43.2450053  44.0659518  82.7165679
  41.9245417  44.8062330  82.7320287  37.9354688  51.3682535  78.5953154
  38.6305593  51.9889227  78.8140469  38.2777838  50.5177886  78.8705532
  23.5522497  43.1900336  92.4549971  22.8104233  43.3382971  93.0414602
  23.2315241  43.4508601  91.5916721  39.8346111  48.8182240  80.1240485
  40.3597435  49.1569513  79.3989805  39.7468464  47.8829255  79.9403619
  31.4966160  52.7316314  92.2530361  31.8053286  52.4865461  93.1253061
  32.2941642  52.9362952  91.7649232  31.5186772  54.8854223  84.4835738
  31.0791762  54.3930602  85.1768595  32.2694889  54.3427191  84.2427813
  23.9979111  51.0765764  84.4860366  24.8237131  50.7769536  84.1059010
  23.6473163  50.3073387  84.9350155  28.9660644  50.4292233  86.5558040
  28.3440653  49.7662938  86.2560267  29.6365511  50.4553364  85.8731687
  22.1987716  48.9952091  85.4449300  21.3619624  48.5674265  85.2633301
  22.1711361  49.1884534  86.3820091  29.0385171  38.9074021  96.1490546
  29.0873327  39.7836143  95.7668315  29.5807686  38.3651414  95.5762189
  39.5240017  49.4515144  95.4291683  38.7335561  49.4339283  94.8896182
  39.2873372  49.9903437  96.1840719  39.6437892  46.3007610  92.7424411
  39.6935897  46.1357618  93.6839934  39.5351815  45.4334869  92.3522292
  28.5274151  48.9796156  80.0316500  28.6762271  49.6631620  79.3783173
  29.3340594  48.9601246  80.5465956  36.9341655  42.2838538  94.0583718
  37.8351517  42.1445003  93.7667716  37.0089629  42.4492993  94.9981895
  31.2684460  39.6605393  92.9036904  30.3987769  39.9538959  92.6319493
  31.5043940  40.2445838  93.6244168  41.1456089  48.7204552  92.9866433
  40.8540897  49.0834532  93.8229894  40.5328220  48.0071560  92.8079765
  42.3451771  46.2857431  85.5069003  43.1798663  46.7247236  85.6706563
  42.4810900  45.8096085  84.6877249  39.3943277  43.8437166  91.4546491
  39.8697399  44.0364813  90.6465342  38.4708843  43.8996352  91.2089874
  26.2826784  45.0061333  81.0377569  26.0372826  44.1023663  81.2357779
  26.4522698  45.0078484  80.0957047  33.9723494  35.8785010  90.4202325
  34.4905438  36.6146037  90.0948813  33.6178626  36.1849003  91.2549084
  25.5522431  40.7389691  78.5363731  24.8591676  40.8134046  77.8803766
  25.3074183  39.9750035  79.0585247  34.2236088  32.2985292  85.9403221
  34.5037842  31.6308481  86.5663648  35.0086695  32.4914388  85.4277885
  32.0269556  51.4744286  77.5028248  31.4543523  52.0934473  77.0498719
  32.6002350  52.0243648  78.0368170  38.0944946  40.7202926  89.6874796
  39.0462369  40.8201024  89.7087020  37.9248397  39.9281195  90.1972881
  36.1159326  37.8058510  89.8734197  35.5209258  38.0863522  89.1780686
  35.8309022  38.2952411  90.6450938  35.2466816  51.7581436  78.6336830
  36.1797489  51.6926998  78.8369705  35.1590029  52.5937703  78.1751363
  37.8754833  51.0747307  75.5940777  37.7968464  50.7407170  76.4876535
  38.6964500  51.5669075  75.5932250  40.5733024  43.9409046  88.8017096
  40.5409344  43.0025047  88.9876780  41.1833648  44.0193083  88.0682921
  32.4116355  42.8105099  74.8444300  33.3575460  42.6811307  74.9132718
  32.0330600  42.0719761  75.3213728  40.7227512  40.7320090  88.8475379
  40.2066561  39.9478546  88.6605308  41.6067461  40.4038806  89.0121899
  38.3838239  34.4761105  84.8071192  38.1863061  34.1676193  85.6914524
  38.9937945  35.2022744  84.9369122  46.3909574  45.0025053  87.9423133
  47.1212962  44.7410341  88.5030836  45.7816519  44.2653775  87.9825201
  44.4724871  43.1432916  88.5397584  43.7458035  43.0088880  87.9314076
  44.0572158  43.4509744  89.3454302  32.2955047  46.8622845  96.3044957
  33.2158057  47.0401444  96.4985004  32.2604630  45.9178891  96.1524656
  30.5959272  40.7355075  74.7799185  29.6890727  40.4388188  74.8561899
  30.8735253  40.4384894  73.9133472  21.5137212  42.0561439  85.2298232
  21.1939997  41.2026747  84.9372606  20.9670641  42.2710017  85.9856199
  25.2917120  44.7723880  88.9467738  25.5103130  45.7040988  88.9655772
  25.7042894  44.4131854  89.7322542  32.2121338  35.2791965  80.9343427
  31.4022066  34.9339050  81.3098673  32.9005755  34.9699509  81.5231038
  34.1411886  34.3570012  82.5567723  34.6942925  34.7765465  83.2157746
  34.3781972  33.4305760  82.5990679  30.1644985  40.3457086  98.3370487
  30.0641712  41.2951443  98.2682578  29.9466527  40.0175325  97.4646557
  29.3658057  37.5942011  74.9211164  30.2277221  37.9196909  75.1806982
  29.5508401  36.8073507  74.4084230  21.3825472  45.6764350  87.1991353
  20.6888944  45.2618303  86.6861308  22.1298463  45.7184887  86.6024772
  37.5190693  36.4670537  82.0646387  36.9389362  37.1255341  81.6824440
  37.2526626  35.6447882  81.6533805  35.9694259  35.8675595  84.2667708
  36.4694038  35.9792129  83.4582027  36.6129867  35.5636648  84.9068516
  30.0276255  43.7754224  97.1535549  29.5443337  44.5754585  97.3599438
  30.1137194  43.7862169  96.2002993  23.2962215  45.6082604  85.0757368
  23.2732903  45.7070291  84.1239251  23.6062851  46.4547755  85.3974534
  25.9549593  47.6658759  89.1903983  26.9092846  47.6342701  89.1233914
  25.7562116  47.2049383  90.0054208  26.5448975  46.2359875  91.7574780
  27.3641864  46.7303954  91.7809618  26.8185783  45.3191843  91.7292348
  36.3015571  38.6270628  81.1202736  35.4141426  38.9120278  80.9022931
  36.7169560  38.4664391  80.2730013  39.6530107  38.6517148  84.8357075
  40.4290497  39.1413601  85.1081692  38.9278241  39.0775203  85.2928944
  42.0902666  39.3644768  85.8931016  42.6847157  39.1240504  85.1824324
  42.1629250  38.6451898  86.5204552  24.3099822  53.2078379  86.2074180
  24.1754289  52.4478780  85.6412178  23.8931884  53.9319279  85.7402969
  35.4458785  48.3915302  75.2150756  36.1494635  48.5965305  75.8308411
  34.7221433  48.9592064  75.4799839  36.2756595  44.1425163  81.3353026
  36.2191796  44.5993715  80.4960658  36.8284937  43.3815848  81.1575869
  40.0861401  39.9314895  82.1603145  39.8298335  39.5311531  82.9911353
  39.4614269  40.6458689  82.0353285  44.3973739  42.6710969  84.6674437
  43.8373297  42.7404158  85.4405999  43.7917242  42.4951953  83.9473933
  27.4668947  54.1047696  86.4192623  27.3501332  55.0493128  86.3171313
  26.6461394  53.8021257  86.8078422  37.3545482  48.8297831  77.2649216
  38.1891086  48.3979030  77.0826691  37.1929825  48.6579845  78.1926110
  37.0091374  45.3329945  78.6305555  36.9540178  45.1674216  77.6893999
  36.3837429  46.0405978  78.7867745  21.7983889  40.5698009  92.4566977
  22.4442753  40.0596963  92.9454202  21.5901040  41.3066691  93.0310403
  34.3237281  47.6378857  97.9559118  35.1928441  47.8119509  97.5945753
  33.8444033  48.4573273  97.8334847  30.3187500  34.8338054  78.2090873
  30.3066169  35.7779894  78.3659144  31.2110921  34.6508199  77.9150335
  28.4923462  54.7575958  89.6348552  29.3950708  54.7899568  89.9515046
  28.2660832  53.8276409  89.6494887  30.2477064  53.5106944  86.2958630
  29.2972695  53.5108806  86.1823002  30.5509550  52.7639679  85.7794665
  34.1339619  31.4280830  82.4636810  33.3672015  30.8739317  82.6093493
  34.5450324  31.5002699  83.3250962  26.1381380  37.7165626  96.5541992
  27.0012842  37.3602431  96.7645316  25.5646791  37.3779521  97.2417396
  45.9829757  59.3467483  87.3604393  46.6208167  59.2274230  86.6567733
  45.8650600  60.2948326  87.4192345  42.7919463  59.2994911  87.2965917
  42.4537975  59.1835975  86.4086452  43.6609232  58.8986076  87.2766923
  38.6506279  61.1530387  83.2862808  38.0871144  61.0620324  82.5179096
  38.5358674  60.3330291  83.7665301  43.2739246  60.4529762  93.2552123
  43.2627887  60.0582561  92.3832626  43.4359886  59.7195835  93.8485894
  36.1970711  62.6481579  86.1247029  36.9892003  62.3072403  85.7093328
  36.4367361  62.7576554  87.0449182  44.2305838  64.8201355  78.5977273
  43.5793818  65.4055435  78.2111287  45.0250201  65.3507550  78.6572311
  38.1561465  61.9090492  78.9964407  38.9292341  61.3619479  78.8577283
  38.5086864  62.7734741  79.2078869  39.9946507  63.2366874  92.2031307
  39.7036373  64.1412505  92.0877973  40.6303492  63.2783402  92.9175376
  40.9202714  60.6143723  88.7932666  41.5166287  60.3899745  88.0789629
  40.9777686  59.8728468  89.3958114  40.4927743  58.0683158  76.6282857
  40.7453263  57.5464679  75.8666320  39.5552302  57.9049303  76.7309541
  45.5371026  57.0718936  84.4357601  46.3234115  56.6538360  84.0848018
  45.8009730  57.9765029  84.6039249  45.7081103  62.5091787  79.1346257
  45.0726936  62.5826413  79.8467162  45.3778509  63.0985385  78.4565337
  50.9379453  57.0094170  85.3390579  51.6704625  56.4393386  85.5728409
  50.1818808  56.6215770  85.7797085  40.2124031  59.9711264  78.8307232
  40.0960290  59.2956167  79.4988317  40.3226291  59.4843638  78.0139385
  42.5555572  59.4321411  82.5353922  42.1913780  58.9052032  83.2466843
  43.4122688  59.0419880  82.3620407  48.4604873  50.7215744  89.7985188
  48.1288198  51.5911155  89.5746403  47.8650486  50.4052028  90.4779218
  42.1961059  54.4611311  77.5315270  42.3635462  55.3291547  77.8985741
  42.0058228  54.6238592  76.6076559  44.9536393  62.9228290  89.1981100
  44.6537116  63.8253328  89.0896908  44.6087452  62.6560473  90.0502253
  38.4048874  59.3742086  85.2317805  37.4799371  59.2418301  85.4395497
  38.6533287  60.1536306  85.7287747  48.3533536  55.4410830  86.8778538
  47.4450414  55.3726238  86.5837299  48.3021132  55.9182775  87.7060363
  42.1750280  56.9168968  78.5161937  42.0549905  57.3626019  79.3547417
  41.4802869  57.2654286  77.9575475  35.7657685  59.0175360  86.0661594
  35.8950066  59.2709839  86.9801006  35.0855136  59.6103068  85.7466249
  39.9357172  69.6872610  82.1652068  39.8581202  70.6380435  82.2440549
  39.3318816  69.3418482  82.8226994  42.4274402  56.8600475  94.8213435
  41.6507736  57.4194396  94.8116300  43.0664965  57.3457258  95.3428305
  50.2195183  53.6427268  88.6556412  49.5769563  53.9359801  88.0096206
  49.7150111  53.5280189  89.4609608  47.8735346  57.3890441  79.3442271
  48.7853203  57.6217828  79.1689968  47.3644993  57.9727486  78.7817350
  40.6820774  59.6685929  94.3831402  41.4235459  60.2070973  94.1066226
  39.9757760  60.2952218  94.5402954  46.1576114  61.8115069  92.9803564
  46.5659470  61.3697480  92.2358196  45.4353376  61.2367697  93.2337756
  42.5107184  56.7487676  90.3537120  43.3568379  57.1727090  90.4971769
  42.4505822  56.0921300  91.0475684  46.4804929  62.3716260  86.7355852
  45.8513791  62.5361974  86.0331920  46.0930591  62.7857869  87.5066816
  50.3594161  63.3070698  84.0900216  49.6745199  63.6869599  83.5397249
  50.4438010  63.9166024  84.8232164  45.6606629  54.4092044  92.0118294
  45.4167561  55.1634105  91.4752570  45.9366560  54.7877392  92.8465541
  47.6145092  60.9530657  90.6895560  47.8261987  61.5962417  90.0129941
  47.5674840  60.1192973  90.2217490  45.2171321  53.5648477  87.5932132
  44.3555800  53.8629731  87.8848869  45.2433756  53.7818876  86.6613164
  42.0332891  62.1090668  84.0005937  42.4971236  62.3878371  83.2110560
  41.7689689  61.2074113  83.8179028  38.9256972  61.6562150  86.9385701
  39.4958329  62.0849418  86.3003185  39.5165084  61.3744734  87.6369886
  40.9701777  58.2313820  80.8095503  41.6725820  58.6834864  81.2769429
  40.6382405  57.5897639  81.4375396  39.4182138  56.8225577  95.1846712
  38.7880799  57.5041858  95.4182109  39.3118226  56.7108659  94.2399850
  34.7127111  56.4897373  86.1112636  33.9226165  56.7454902  85.6352747
  35.2038358  57.3045711  86.2164677  48.7290920  63.8302612  88.8617917
  49.5508364  63.4282799  88.5800599  48.7253323  63.7270846  89.8134033
  36.6641856  56.8541952  83.0696113  35.8673019  56.9660646  83.5879609
  36.4367448  57.1928604  82.2037003  42.4947524  63.3786655  91.0178628
  42.5591956  63.8407063  91.8536799  41.7858448  62.7484020  91.1460937
  32.9964814  56.7427863  88.5427627  33.2472852  57.6274873  88.8085203
  33.5324362  56.5632465  87.7702719  56.8196913  60.1741361  85.2102888
  56.0660622  59.6048759  85.0546893  56.9544454  60.1404025  86.1573523
  42.2095541  65.0454763  80.8857608  42.0741216  65.8906299  81.3142456
  42.7505354  65.2474041  80.1223542  38.6962881  51.1246343  97.5471963
  38.3029826  50.5712541  98.2219607  39.5129021  51.4356921  97.9378481
  35.6624939  62.5630201  81.4585533  36.1749459  63.3573451  81.6091098
  36.3147652  61.8656491  81.3919134  37.4719823  65.6795957  83.5408286
  37.6486452  66.6013922  83.3529270  38.2676657  65.3654376  83.9702666
  41.6130842  52.5404222  95.1392220  42.3540555  53.1411375  95.0596682
  41.8448765  51.7981860  94.5810262  36.7572180  57.7260589  93.4170449
  36.6425695  56.8245846  93.7177548  35.9016698  57.9724286  93.0655266
  43.8364018  65.6678329  95.0157950  43.3927872  64.8814708  94.6978854
  44.4981231  65.8557480  94.3501841  38.5951139  67.1974131  89.5418628
  39.1458564  67.0691194  88.7695622  37.7562615  67.4969020  89.1913521
  45.9345256  65.9481129  93.0439351  45.9163731  66.7690010  92.5519620
  46.8565176  65.8235205  93.2689492  42.3918310  63.4625259  93.8862860
  42.9246647  62.7013547  93.6562168  41.8632391  63.1698911  94.6287014
  45.5588005  48.5685325  89.4156501  45.2152274  49.4586967  89.3395612
  45.9266967  48.3786982  88.5526086  33.6273855  60.8918855  82.2345103
  34.4649077  61.3015864  82.0178811  33.8052123  59.9518297  82.2045297
  45.5238288  58.5593936  77.9228936  45.0084911  59.3298541  78.1617324
  45.2515596  57.8859072  78.5461998  43.1085399  53.4043637  82.9814175
  42.2526995  53.0150487  82.8019814  43.5212350  53.4835598  82.1213960
  44.6384545  50.9389980  87.3805735  44.1349341  50.9020115  86.5673540
  44.9315152  51.8482723  87.4402391  40.8827431  51.0228710  86.3871916
  41.7480428  50.8271518  86.0277806  40.9504940  50.7939061  87.3141273
  50.4972562  61.3126291  79.8582110  49.7202004  60.9737450  79.4137272
  51.1764043  61.3178914  79.1837075  45.3124591  56.4321028  79.7488718
  45.0074726  56.7467177  80.5998861  46.2655033  56.5102448  79.7916051
  43.7571023  62.5911251  81.3981672  43.2292384  61.8564011  81.0854909
  43.2558525  63.3685928  81.1521640  48.7363869  60.7860272  86.5148718
  48.0787543  61.4759533  86.6028847  49.5404268  61.1756704  86.8582704
  38.4889750  53.2530918  83.7588283  39.0633502  53.0306099  83.0261476
  39.0760733  53.3219612  84.5116884  47.5469327  59.1404645  84.5652660
  48.0601209  59.7734636  85.0674369  48.1970551  58.5405840  84.1996020
  38.8159337  55.2835379  77.7784168  37.9796650  55.6210065  78.0993443
  38.6764107  55.1484358  76.8411305  40.7912418  50.1272167  82.4863353
  40.1376830  49.8121184  81.8619967  40.7492892  49.5047907  83.2123175
  41.9023623  60.4091462  74.4016645  40.9950685  60.1780715  74.6007794
  42.3994655  59.6129081  74.5890626  44.8091702  69.1188969  77.3213331
  44.1353400  69.4220666  77.9298289  45.1957524  69.9218049  76.9718788
  44.0250158  56.6154100  86.8111000  43.1072720  56.8369047  86.6532688
  44.4410302  56.6900411  85.9522708  44.8085206  58.0145516  81.9413680
  45.5557025  58.5266913  81.6320802  45.0776796  57.6929568  82.8018074
  43.0811856  60.5104056  78.9240635  42.1723075  60.2263089  79.0213104
  43.1106940  60.9303135  78.0643942  48.3131124  64.1210646  82.6931802
  47.8593451  63.2801556  82.7496993  47.6825090  64.7572044  83.0306582
  47.2564043  55.0502632  83.9232470  46.5186800  54.5380018  84.2542712
  47.5090817  54.6103014  83.1115747  46.7564063  65.9587143  83.6281620
  47.0487037  66.5192200  82.9093986  47.2662683  66.2515704  84.3834780
  47.3575671  47.8278884  84.5174239  47.6634547  46.9676247  84.2300154
  48.0828275  48.4196504  84.3173233  33.6500027  58.2309571  82.9055837
  33.4524426  57.6378931  82.1806903  33.0946691  57.9261781  83.6231776
  41.6296750  58.1232677  85.0250430  41.6845360  57.1706513  84.9492907
  40.8187952  58.2792116  85.5091728  42.7787944  62.0512800  76.2628713
  42.3407374  61.3348659  75.8034351  43.5198385  62.2788915  75.7013805
  39.5689110  56.7409737  82.7840809  38.7556976  57.0403907  83.1906001
  40.0648104  56.3465426  83.5015291  41.7197688  66.7367494  84.7175074
  41.6773867  66.9628340  83.7883606  42.6360387  66.5030868  84.8660875
  45.1663322  57.2051561  91.6155703  45.5212710  57.4323034  92.4750169
  45.8135453  57.5369938  90.9932958  50.8961059  60.3269997  82.3205032
  50.7578957  60.5171593  81.3926221  50.5397278  61.0889380  82.7773083
  39.0603185  54.3128092  88.4002044  39.7002564  54.1716851  87.7025007
  38.2280715  54.0262606  88.0240646  50.9230438  62.3946524  87.3316303
  51.3566945  62.3021813  88.1799357  51.6362019  62.3704025  86.6936319
  39.8363489  63.6130523  84.5137036  40.6304087  63.1180843  84.3119611
  39.1255181  63.0848386  84.1504742  44.6558333  65.9948618  88.8649404
  44.7095356  66.5639555  89.6327120  43.7873115  66.1650503  88.5003441
  36.1446252  57.7573605  80.5896789  35.2143840  57.6958060  80.8066751
  36.2403724  57.2349557  79.7933430  36.0631801  54.2828417  83.1775031
  36.3238619  55.1973751  83.0684191  36.8848974  53.8152860  83.3271643
  37.5356727  55.6966175  90.3473855  38.2079780  55.4883537  89.6986504
  36.7086513  55.4988261  89.9079088  51.7845988  62.4370225  89.8649189
  51.9781878  63.3416035  90.1108464  51.6846606  61.9777644  90.6987774
  43.4382299  52.3228115  92.3639516  42.7910214  53.0218065  92.2703992
  44.2083314  52.7564259  92.7315764  46.8461097  62.5876968  95.4390069
  46.6946603  62.3587519  94.5220153  46.8365776  63.5447569  95.4521414
  43.6146433  60.1608880  90.4236336  44.5438493  60.3120040  90.2505303
  43.1937463  60.2492901  89.5684982  42.4134765  64.1859545  88.1934873
  42.2745851  63.8178329  89.0660812  41.6249361  64.7007184  88.0218831
  43.0082917  69.2868641  79.5360410  43.1834672  68.8156684  80.3506033
  42.3215705  69.9134407  79.7641671  43.9639980  63.5641147  85.5823711
  43.6289813  63.5241917  86.4781361  43.4643926  62.8985863  85.1094121
  37.9384224  58.9708777  91.1076292  37.8004022  58.2389016  91.7087831
  38.8489147  58.8817678  90.8260480  46.8999172  60.9097182  75.8560771
  46.2828342  60.1844010  75.7593824  46.4315660  61.6706542  75.5127845
  40.5666525  58.6828737  90.5959972  41.2766143  58.0421929  90.5546590
  40.5235833  58.9341632  91.5186153  48.5553303  65.6196090  93.5166551
  48.4965849  64.9355310  92.8497134  48.9572822  66.3615080  93.0647177
  39.2795459  55.6693955  92.4155611  38.7432816  55.2184693  93.0677208
  38.6912167  55.8039864  91.6726076  37.5744002  72.4358004  86.3100270
  37.8140600  73.0676528  86.9879289  36.7313199  72.0846044  86.5965629
  38.6897718  55.1282606  74.9782075  37.8127184  55.0071407  74.6144322
  39.1655471  54.3368684  74.7260964  48.5570711  63.5835674  91.7480531
  47.6697489  63.2461596  91.8706930  49.1269262  62.8518705  91.9849296
  30.2099858  59.9159766  85.0723582  30.8970898  59.6021496  84.4844598
  30.0547986  60.8201130  84.7990834  35.0134580  54.8049962  89.5008606
  34.9292769  54.1975632  88.7659016  34.1917286  55.2958981  89.5018102
  42.0871864  68.2437126  88.7141774  42.0142035  69.0492098  89.2261079
  41.6449257  68.4429092  87.8889796  41.8761644  67.4808896  82.2244596
  41.0929165  68.0230577  82.3182820  42.5754389  67.9982876  82.6238837
  45.1858294  53.2903526  84.8678801  45.6826993  52.5373488  84.5479871
  44.4145275  53.3267843  84.3022010  53.0388051  58.9943891  86.5097093
  53.0277927  59.8768607  86.1391026  52.1705431  58.6415442  86.3151630
  44.5470547  68.1423960  90.8699933  45.2598520  68.7771425  90.7975834
  44.0560576  68.2387826  90.0539935  46.2688074  62.0475213  82.4417224
  45.3344353  62.1676676  82.2721929  46.4464743  61.1447680  82.1777234
  41.7693262  55.4320909  84.5950486  41.3991050  54.8791949  85.2831391
  42.2652355  54.8279042  84.0425486  49.6560626  57.8892532  82.9767259
  50.1221078  58.7220524  82.9027561  50.1068126  57.4237514  83.6812517
  39.5982461  65.8918404  91.6905504  40.2991920  66.5254887  91.8434898
  39.1277576  66.2333135  90.9301143  47.7236857  64.2336354  79.9753411
  47.9996701  64.1192948  80.8847285  46.8541356  63.8353839  79.9365584
  47.6277288  50.2573119  87.0158160  46.7140368  50.4877346  87.1840367
  48.0570390  50.3411563  87.8672192  47.3983747  58.4463011  89.5158054
  46.7455197  58.6938919  88.8610507  47.7764127  57.6327150  89.1820531
  44.3590921  68.4822705  83.6186224  44.5413315  67.6644360  84.0813977
  45.1823907  68.6990397  83.1811114  44.6933086  67.4090890  80.8801273
  45.2220853  66.8983344  80.2671435  44.9561306  67.0933420  81.7446806
  43.4471320  59.1882822  96.0024091  42.7711957  59.0876952  96.6726466
  44.2698954  59.0322036  96.4660088  35.1950179  65.4254759  88.6236606
  35.7803616  64.6798447  88.7564510  34.9975018  65.7358716  89.5073270
  38.0488834  68.4606006  83.6399049  37.3799210  68.9452134  83.1563089
  37.9101704  68.7075227  84.5542427  29.7867834  57.9960359  87.3441049
  29.8251933  57.4623950  88.1378168  29.2808127  57.4695565  86.7252027
  42.1894103  70.4949750  90.2381707  42.7412411  70.6581371  91.0030792
  42.5300296  71.0854188  89.5661732  37.1658596  52.8424900  90.8403592
  37.2299923  53.7039731  90.4280989  37.1025716  52.2298901  90.1075950
  36.6410869  54.9148032  94.4876626  37.2682907  54.5325110  95.1014150
  35.7838787  54.6962234  94.8532318  47.0404977  65.3211007  96.0930361
  47.5844881  65.9340966  95.5985316  46.4591822  65.8790586  96.6097374
  33.4176411  56.7224461  80.4194981  33.7129852  55.8135140  80.3662035
  32.5164447  56.7012201  80.0975983  45.3262490  68.4431725  87.2245389
  45.2013630  67.6421465  86.7156335  45.9841581  68.9377919  86.7359359
  36.9470658  54.7980458  86.4022529  36.2257244  55.4116426  86.2630003
  37.7363914  55.3338223  86.3239175  47.3897399  66.2440746  88.8524939
  46.4427734  66.1246097  88.7803266  47.7380172  65.3563244  88.9351201
  39.7496972  52.1334884  92.6763181  40.2731374  52.3797181  93.4389490
  39.5309305  52.9654919  92.2566319  35.1464253  54.4038559  80.5434306
  34.8176959  53.5235938  80.3609412  35.5003624  54.3486228  81.4310695
  44.3943832  66.0393462  85.0529291  44.2468794  65.1110169  85.2336862
  45.2197325  66.0613552  84.5686367  38.2606076  54.6911529  80.9109784
  38.6002149  55.2197450  80.1888392  38.7078197  55.0291935  81.6868350
  47.9977954  66.8622020  86.1394164  48.9224501  66.6564882  86.0018615
  47.8293257  66.6138422  87.0483506  40.9549517  53.0748580  90.3612852
  40.6146337  52.2756393  90.7633532  40.2488523  53.3750290  89.7889685
  41.6065989  50.1597892  88.8140175  42.4292058  49.6858370  88.6919065
  41.8504052  50.9388376  89.3138861  40.2474223  53.1886150  79.1103076
  40.9682586  53.5667403  78.6066793  39.6239527  53.9075027  79.2138054
  44.3905346  53.8931299  80.0461409  44.6068961  54.7755937  79.7450237
  43.9099413  53.5017513  79.3167051  39.1304568  56.8517013  86.6232153
  38.9849148  57.1657316  87.5156435  38.6529771  57.4701913  86.0703052
  40.9900950  53.8419561  86.6713043  40.9762519  52.9460654  86.3345341
  41.7073379  53.8490224  87.3051329  42.8427081  54.2756901  88.7166170
  42.5844859  55.1973971  88.7150501  42.3112121  53.8787335  89.4066634
  47.7873270  67.3807688  81.4956256  47.9610147  66.8154110  80.7430108
  48.2802161  68.1808583  81.3135746  33.6050230  59.3922357  89.5619815
  33.0603698  60.1682165  89.6940089  34.4829580  59.7393161  89.4038936
  40.3937846  52.7233941  81.9400613  40.5153758  51.7950587  82.1391501
  40.1039889  52.7372627  81.0278928  43.2629037  50.4088851  85.0767333
  43.2850734  50.4728184  84.1219312  43.6797096  49.5693360  85.2707839
  53.6412661  60.1444111  83.1146555  54.0843807  59.3951436  82.7165679
  52.7639171  60.1354247  82.7320287  48.7748442  66.6974452  78.5953154
  49.4699347  67.3181145  78.8140469  49.1171593  65.8469804  78.8705532
  34.3916252  58.5192253  92.4549971  33.6497988  58.6674889  93.0414602
  34.0708996  58.7800519  91.5916721  50.6739865  64.1474158  80.1240485
  51.1991190  64.4861431  79.3989805  50.5862218  63.2121173  79.9403619
  42.3359914  68.0608231  92.2530361  42.6447041  67.8157378  93.1253061
  43.1335396  68.2654870  91.7649232  42.3580526  70.2146141  84.4835738
  41.9185517  69.7222520  85.1768595  43.1088643  69.6719109  84.2427813
  34.8372865  66.4057682  84.4860366  35.6630885  66.1061454  84.1059010
  34.4866917  65.6365304  84.9350155  39.8054398  65.7584150  86.5558040
  39.1834408  65.0954855  86.2560267  40.4759265  65.7845282  85.8731687
  33.0381470  64.3244008  85.4449300  32.2013379  63.8966183  85.2633301
  33.0105116  64.5176452  86.3820091  39.8778926  54.2365938  96.1490546
  39.9267081  55.1128061  95.7668315  40.4201440  53.6943331  95.5762189
  50.3633772  64.7807061  95.4291683  49.5729315  64.7631200  94.8896182
  50.1267126  65.3195355  96.1840719  50.4831647  61.6299528  92.7424411
  50.5329652  61.4649535  93.6839934  50.3745570  60.7626787  92.3522292
  39.3667905  64.3088074  80.0316500  39.5156026  64.9923538  79.3783173
  40.1734349  64.2893164  80.5465956  47.7735409  57.6130456  94.0583718
  48.6745272  57.4736921  93.7667716  47.8483384  57.7784911  94.9981895
  42.1078214  54.9897311  92.9036904  41.2381524  55.2830877  92.6319493
  42.3437695  55.5737756  93.6244168  51.9849843  64.0496469  92.9866433
  51.6934652  64.4126450  93.8229894  51.3721975  63.3363478  92.8079765
  53.1845526  61.6149349  85.5069003  54.0192417  62.0539153  85.6706563
  53.3204655  61.1388002  84.6877249  50.2337032  59.1729084  91.4546491
  50.7091153  59.3656730  90.6465342  49.3102597  59.2288270  91.2089874
  37.1220538  60.3353251  81.0377569  36.8766580  59.4315581  81.2357779
  37.2916453  60.3370402  80.0957047  44.8117248  51.2076928  90.4202325
  45.3299192  51.9437954  90.0948813  44.4572381  51.5140921  91.2549084
  36.3916186  56.0681609  78.5363731  35.6985431  56.1425964  77.8803766
  36.1467938  55.3041952  79.0585247  45.0629842  47.6277210  85.9403221
  45.3431596  46.9600399  86.5663648  45.8480449  47.8206306  85.4277885
  42.8663311  66.8036204  77.5028248  42.2937278  67.4226391  77.0498719
  43.4396104  67.3535566  78.0368170  48.9338701  56.0494844  89.6874796
  49.8856124  56.1492942  89.7087020  48.7642151  55.2573113  90.1972881
  46.9553080  53.1350427  89.8734197  46.3603012  53.4155440  89.1780686
  46.6702777  53.6244328  90.6450938  46.0860571  67.0873354  78.6336830
  47.0191244  67.0218916  78.8369705  45.9983783  67.9229621  78.1751363
  48.7148587  66.4039224  75.5940777  48.6362219  66.0699088  76.4876535
  49.5358254  66.8960992  75.5932250  51.4126778  59.2700964  88.8017096
  51.3803099  58.3316964  88.9876780  52.0227402  59.3485000  88.0682921
  43.2510109  58.1397017  74.8444300  44.1969214  58.0103225  74.9132718
  42.8724354  57.4011679  75.3213728  51.5621267  56.0612007  88.8475379
  51.0460316  55.2770464  88.6605308  52.4461215  55.7330724  89.0121899
  49.2231994  49.8053023  84.8071192  49.0256815  49.4968111  85.6914524
  49.8331699  50.5314662  84.9369122  57.2303328  60.3316971  87.9423133
  57.9606717  60.0702259  88.5030836  56.6210274  59.5945693  87.9825201
  55.3118625  58.4724833  88.5397584  54.5851789  58.3380798  87.9314076
  54.8965912  58.7801662  89.3454302  43.1348802  62.1914763  96.3044957
  44.0551811  62.3693362  96.4985004  43.0998385  61.2470808  96.1524656
  41.4353026  56.0646993  74.7799185  40.5284482  55.7680106  74.8561899
  41.7129007  55.7676811  73.9133472  32.3530967  57.3853357  85.2298232
  32.0333751  56.5318665  84.9372606  31.8064395  57.6001935  85.9856199
  36.1310874  60.1015798  88.9467738  36.3496884  61.0332905  88.9655772
  36.5436648  59.7423772  89.7322542  43.0515092  50.6083883  80.9343427
  42.2415821  50.2630968  81.3098673  43.7399509  50.2991427  81.5231038
  44.9805640  49.6861930  82.5567723  45.5336679  50.1057383  83.2157746
  45.2175727  48.7597678  82.5990679  41.0038740  55.6749003  98.3370487
  40.9035467  56.6243360  98.2682578  40.7860282  55.3467242  97.4646557
  40.2051811  52.9233928  74.9211164  41.0670975  53.2488827  75.1806982
  40.3902155  52.1365424  74.4084230  32.2219227  61.0056268  87.1991353
  31.5282698  60.5910221  86.6861308  32.9692218  61.0476805  86.6024772
  48.3584448  51.7962455  82.0646387  47.7783117  52.4547259  81.6824440
  48.0920380  50.9739799  81.6533805  46.8088014  51.1967513  84.2667708
  47.3087792  51.3084047  83.4582027  47.4523622  50.8928565  84.9068516
  40.8670010  59.1046142  97.1535549  40.3837091  59.9046502  97.3599438
  40.9530949  59.1154087  96.2002993  34.1355969  60.9374522  85.0757368
  34.1126657  61.0362209  84.1239251  34.4456606  61.7839673  85.3974534
  36.7943347  62.9950677  89.1903983  37.7486601  62.9634619  89.1233914
  36.5955871  62.5341301  90.0054208  37.3842729  61.5651793  91.7574780
  38.2035618  62.0595872  91.7809618  37.6579537  60.6483761  91.7292348
  47.1409326  53.9562545  81.1202736  46.2535181  54.2412196  80.9022931
  47.5563315  53.7956309  80.2730013  50.4923862  53.9809066  84.8357075
  51.2684252  54.4705519  85.1081692  49.7671996  54.4067120  85.2928944
  52.9296420  54.6936685  85.8931016  53.5240911  54.4532421  85.1824324
  53.0023004  53.9743816  86.5204552  35.1493576  68.5370296  86.2074180
  35.0148044  67.7770697  85.6412178  34.7325638  69.2611196  85.7402969
  46.2852539  63.7207220  75.2150756  46.9888389  63.9257222  75.8308411
  45.5615188  64.2883982  75.4799839  47.1150349  59.4717081  81.3353026
  47.0585551  59.9285633  80.4960658  47.6678692  58.7107766  81.1575869
  50.9255155  55.2606813  82.1603145  50.6692089  54.8603449  82.9911353
  50.3008023  55.9750607  82.0353285  55.2367493  58.0002886  84.6674437
  54.6767051  58.0696076  85.4405999  54.6310996  57.8243871  83.9473933
  38.3062702  69.4339613  86.4192623  38.1895086  70.3785046  86.3171313
  37.4855148  69.1313175  86.8078422  48.1939236  64.1589749  77.2649216
  49.0284840  63.7270948  77.0826691  48.0323579  63.9871763  78.1926110
  47.8485129  60.6621862  78.6305555  47.7933932  60.4966134  77.6893999
  47.2231184  61.3697895  78.7867745  32.6377644  55.8989927  92.4566977
  33.2836507  55.3888881  92.9454202  32.4294795  56.6358608  93.0310403
  45.1631036  62.9670774  97.9559118  46.0322195  63.1411427  97.5945753
  44.6837787  63.7865191  97.8334847  41.1581254  50.1629971  78.2090873
  41.1459924  51.1071811  78.3659144  42.0504676  49.9800117  77.9150335
  39.3317216  70.0867875  89.6348552  40.2344463  70.1191486  89.9515046
  39.1054586  69.1568326  89.6494887  41.0870818  68.8398862  86.2958630
  40.1366449  68.8400723  86.1823002  41.3903304  68.0931596  85.7794665
  44.9733374  46.7572748  82.4636810  44.2065769  46.2031235  82.6093493
  45.3844079  46.8294617  83.3250962  36.9775135  53.0457544  96.5541992
  37.8406596  52.6894349  96.7645316  36.4040545  52.7071439  97.2417396
  56.8223512  74.6759400  87.3604393  57.4601922  74.5566148  86.6567733
  56.7044354  75.6240244  87.4192345  53.6313218  74.6286828  87.2965917
  53.2931729  74.5127893  86.4086452  54.5002986  74.2277993  87.2766923
  49.4900034  76.4822305  83.2862808  48.9264899  76.3912242  82.5179096
  49.3752429  75.6622209  83.7665301  54.1133001  75.7821680  93.2552123
  54.1021642  75.3874478  92.3832626  54.2753640  75.0487753  93.8485894
  47.0364465  77.9773496  86.1247029  47.8285757  77.6364321  85.7093328
  47.2761116  78.0868471  87.0449182  55.0699592  80.1493272  78.5977273
  54.4187572  80.7347353  78.2111287  55.8643955  80.6799467  78.6572311
  48.9955219  77.2382410  78.9964407  49.7686095  76.6911397  78.8577283
  49.3480618  78.1026659  79.2078869  50.8340262  78.5658792  92.2031307
  50.5430128  79.4704423  92.0877973  51.4697246  78.6075319  92.9175376
  51.7596469  75.9435640  88.7932666  52.3560041  75.7191663  88.0789629
  51.8171440  75.2020386  89.3958114  51.3321497  73.3975076  76.6282857
  51.5847018  72.8756597  75.8666320  50.3946056  73.2341221  76.7309541
  56.3764780  72.4010854  84.4357601  57.1627869  71.9830277  84.0848018
  56.6403484  73.3056946  84.6039249  56.5474857  77.8383704  79.1346257
  55.9120690  77.9118331  79.8467162  56.2172264  78.4277303  78.4565337
  61.7773207  72.3386087  85.3390579  62.5098379  71.7685304  85.5728409
  61.0212563  71.9507688  85.7797085  51.0517786  75.3003182  78.8307232
  50.9354044  74.6248085  79.4988317  51.1620046  74.8135556  78.0139385
  53.3949327  74.7613329  82.5353922  53.0307534  74.2343950  83.2466843
  54.2516443  74.3711798  82.3620407  59.2998628  66.0507661  89.7985188
  58.9681952  66.9203072  89.5746403  58.7044241  65.7343945  90.4779218
  53.0354814  69.7903228  77.5315270  53.2029216  70.6583465  77.8985741
  52.8451983  69.9530510  76.6076559  55.7930147  78.2520207  89.1981100
  55.4930870  79.1545246  89.0896908  55.4481207  77.9852391  90.0502253
  49.2442629  74.7034004  85.2317805  48.3193125  74.5710218  85.4395497
  49.4927042  75.4828223  85.7287747  59.1927291  70.7702748  86.8778538
  58.2844168  70.7018156  86.5837299  59.1414887  71.2474692  87.7060363
  53.0144035  72.2460886  78.5161937  52.8943660  72.6917937  79.3547417
  52.3196623  72.5946204  77.9575475  46.6051440  74.3467278  86.0661594
  46.7343821  74.6001757  86.9801006  45.9248891  74.9394986  85.7466249
  50.7750927  85.0164528  82.1652068  50.6974957  85.9672353  82.2440549
  50.1712570  84.6710400  82.8226994  53.2668157  72.1892393  94.8213435
  52.4901491  72.7486313  94.8116300  53.9058720  72.6749176  95.3428305
  61.0588937  68.9719186  88.6556412  60.4163317  69.2651719  88.0096206
  60.5543866  68.8572106  89.4609608  58.7129101  72.7182359  79.3442271
  59.6246957  72.9509746  79.1689968  58.2038748  73.3019403  78.7817350
  51.5214529  74.9977846  94.3831402  52.2629213  75.5362890  94.1066226
  50.8151514  75.6244135  94.5402954  56.9969869  77.1406987  92.9803564
  57.4053225  76.6989397  92.2358196  56.2747130  76.5659614  93.2337756
  53.3500939  72.0779594  90.3537120  54.1962134  72.5019007  90.4971769
  53.2899576  71.4213218  91.0475684  57.3198683  77.7008178  86.7355852
  56.6907546  77.8653892  86.0331920  56.9324345  78.1149787  87.5066816
  61.1987915  78.6362615  84.0900216  60.5138953  79.0161517  83.5397249
  61.2831764  79.2457942  84.8232164  56.5000384  69.7383962  92.0118294
  56.2561316  70.4926023  91.4752570  56.7760314  70.1169310  92.8465541
  58.4538847  76.2822574  90.6895560  58.6655742  76.9254334  90.0129941
  58.4068595  75.4484891  90.2217490  56.0565076  68.8940395  87.5932132
  55.1949555  69.1921649  87.8848869  56.0827510  69.1110794  86.6613164
  52.8726645  77.4382586  84.0005937  53.3364991  77.7170289  83.2110560
  52.6083443  76.5366030  83.8179028  49.7650726  76.9854067  86.9385701
  50.3352083  77.4141336  86.3003185  50.3558838  76.7036652  87.6369886
  51.8095531  73.5605738  80.8095503  52.5119574  74.0126782  81.2769429
  51.4776160  72.9189557  81.4375396  50.2575893  72.1517495  95.1846712
  49.6274553  72.8333775  95.4182109  50.1511981  72.0400576  94.2399850
  45.5520865  71.8189291  86.1112636  44.7619919  72.0746819  85.6352747
  46.0432112  72.6337629  86.2164677  59.5684675  79.1594530  88.8617917
  60.3902118  78.7574717  88.5800599  59.5647078  79.0562764  89.8134033
  47.5035610  72.1833870  83.0696113  46.7066774  72.2952564  83.5879609
  47.2761203  72.5220522  82.2037003  53.3341278  78.7078573  91.0178628
  53.3985711  79.1698980  91.8536799  52.6252202  78.0775938  91.1460937
  43.8358568  72.0719781  88.5427627  44.0866607  72.9566791  88.8085203
  44.3718116  71.8924383  87.7702719  67.6590668  75.5033278  85.2102888
  66.9054376  74.9340676  85.0546893  67.7938209  75.4695943  86.1573523
  53.0489296  80.3746681  80.8857608  52.9134971  81.2198216  81.3142456
  53.5899108  80.5765958  80.1223542  49.5356635  66.4538260  97.5471963
  49.1423581  65.9004459  98.2219607  50.3522776  66.7648839  97.9378481
  46.5018693  77.8922119  81.4585533  47.0143214  78.6865369  81.6091098
  47.1541406  77.1948409  81.3919134  48.3113578  81.0087875  83.5408286
  48.4880206  81.9305840  83.3529270  49.1070411  80.6946294  83.9702666
  52.4524596  67.8696140  95.1392220  53.1934310  68.4703293  95.0596682
  52.6842519  67.1273777  94.5810262  47.5965934  73.0552507  93.4170449
  47.4819450  72.1537764  93.7177548  46.7410452  73.3016204  93.0655266
  54.6757772  80.9970247  95.0157950  54.2321626  80.2106626  94.6978854
  55.3374986  81.1849398  94.3501841  49.4344893  82.5266049  89.5418628
  49.9852318  82.3983112  88.7695622  48.5956369  82.8260938  89.1913521
  56.7739010  81.2773047  93.0439351  56.7557486  82.0981928  92.5519620
  57.6958930  81.1527122  93.2689492  53.2312064  78.7917177  93.8862860
  53.7640401  78.0305465  93.6562168  52.7026145  78.4990828  94.6287014
  56.3981759  63.8977243  89.4156501  56.0546029  64.7878884  89.3395612
  56.7660722  63.7078900  88.5526086  44.4667610  76.2210773  82.2345103
  45.3042832  76.6307781  82.0178811  44.6445878  75.2810215  82.2045297
  56.3632042  73.8885854  77.9228936  55.8478665  74.6590458  78.1617324
  56.0909351  73.2150990  78.5461998  53.9479153  68.7335554  82.9814175
  53.0920749  68.3442405  82.8019814  54.3606105  68.8127515  82.1213960
  55.4778300  66.2681898  87.3805735  54.9743095  66.2312033  86.5673540
  55.7708907  67.1774640  87.4402391  51.7221186  66.3520627  86.3871916
  52.5874182  66.1563436  86.0277806  51.7898695  66.1230979  87.3141273
  61.3366316  76.6418208  79.8582110  60.5595759  76.3029368  79.4137272
  62.0157797  76.6470831  79.1837075  56.1518345  71.7612946  79.7488718
  55.8468481  72.0759095  80.5998861  57.1048787  71.8394366  79.7916051
  54.5964777  77.9203169  81.3981672  54.0686139  77.1855929  81.0854909
  54.0952280  78.6977845  81.1521640  59.5757623  76.1152190  86.5148718
  58.9181298  76.8051451  86.6028847  60.3798022  76.5048621  86.8582704
  49.3283505  68.5822835  83.7588283  49.9027257  68.3598017  83.0261476
  49.9154487  68.6511530  84.5116884  58.3863082  74.4696562  84.5652660
  58.8994964  75.1026554  85.0674369  59.0364306  73.8697758  84.1996020
  49.6553092  70.6127296  77.7784168  48.8190404  70.9501983  78.0993443
  49.5157861  70.4776276  76.8411305  51.6306172  65.4564084  82.4863353
  50.9770585  65.1413101  81.8619967  51.5886647  64.8339825  83.2123175
  52.7417377  75.7383379  74.4016645  51.8344439  75.5072633  74.6007794
  53.2388409  74.9420999  74.5890626  55.6485456  84.4480886  77.3213331
  54.9747155  84.7512583  77.9298289  56.0351278  85.2509967  76.9718788
  54.8643913  71.9446018  86.8111000  53.9466474  72.1660965  86.6532688
  55.2804056  72.0192328  85.9522708  55.6478961  73.3437433  81.9413680
  56.3950779  73.8558831  81.6320802  55.9170550  73.0221486  82.8018074
  53.9205611  75.8395974  78.9240635  53.0116830  75.5555007  79.0213104
  53.9500695  76.2595053  78.0643942  59.1524878  79.4502564  82.6931802
  58.6987205  78.6093474  82.7496993  58.5218845  80.0863962  83.0306582
  58.0957798  70.3794550  83.9232470  57.3580554  69.8671936  84.2542712
  58.3484571  69.9394931  83.1115747  57.5957817  81.2879060  83.6281620
  57.8880792  81.8484117  82.9093986  58.1056438  81.5807621  84.3834780
  58.1969425  63.1570802  84.5174239  58.5028302  62.2968165  84.2300154
  58.9222030  63.7488422  84.3173233  44.4893781  73.5601488  82.9055837
  44.2918181  72.9670849  82.1806903  43.9340445  73.2553698  83.6231776
  52.4690505  73.4524595  85.0250430  52.5239115  72.4998431  84.9492907
  51.6581707  73.6084034  85.5091728  53.6181699  77.3804718  76.2628713
  53.1801128  76.6640577  75.8034351  54.3592139  77.6080833  75.7013805
  50.4082865  72.0701655  82.7840809  49.5950730  72.3695825  83.1906001
  50.9041859  71.6757343  83.5015291  52.5591443  82.0659411  84.7175074
  52.5167621  82.2920258  83.7883606  53.4754141  81.8322786  84.8660875
  56.0057076  72.5343479  91.6155703  56.3606464  72.7614952  92.4750169
  56.6529208  72.8661856  90.9932958  61.7354813  75.6561915  82.3205032
  61.5972712  75.8463511  81.3926221  61.3791032  76.4181298  82.7773083
  49.8996939  69.6420010  88.4002044  50.5396319  69.5008769  87.7025007
  49.0674470  69.3554523  88.0240646  61.7624193  77.7238442  87.3316303
  62.1960700  77.6313731  88.1799357  62.4755774  77.6995942  86.6936319
  50.6757243  78.9422440  84.5137036  51.4697842  78.4472761  84.3119611
  49.9648936  78.4140304  84.1504742  55.4952088  81.3240536  88.8649404
  55.5489110  81.8931472  89.6327120  54.6266869  81.4942421  88.5003441
  46.9840007  73.0865522  80.5896789  46.0537595  73.0249978  80.8066751
  47.0797479  72.5641475  79.7933430  46.9025556  69.6120335  83.1775031
  47.1632373  70.5265668  83.0684191  47.7242728  69.1444778  83.3271643
  48.3750481  71.0258092  90.3473855  49.0473535  70.8175454  89.6986504
  47.5480268  70.8280178  89.9079088  62.6239742  77.7662143  89.8649189
  62.8175633  78.6707953  90.1108464  62.5240361  77.3069562  90.6987774
  54.2776053  67.6520033  92.3639516  53.6303968  68.3509983  92.2703992
  55.0477069  68.0856177  92.7315764  57.6854851  77.9168885  95.4390069
  57.5340358  77.6879437  94.5220153  57.6759531  78.8739487  95.4521414
  54.4540188  75.4900798  90.4236336  55.3832248  75.6411958  90.2505303
  54.0331218  75.5784819  89.5684982  53.2528519  79.5151462  88.1934873
  53.1139605  79.1470247  89.0660812  52.4643116  80.0299102  88.0218831
  53.8476671  84.6160559  79.5360410  54.0228427  84.1448602  80.3506033
  53.1609459  85.2426325  79.7641671  54.8033734  78.8933065  85.5823711
  54.4683567  78.8533835  86.4781361  54.3037680  78.2277781  85.1094121
  48.7777978  74.3000695  91.1076292  48.6397776  73.5680934  91.7087831
  49.6882902  74.2109595  90.8260480  57.7392926  76.2389099  75.8560771
  57.1222097  75.5135928  75.7593824  57.2709415  76.9998460  75.5127845
  51.4060279  74.0120654  90.5959972  52.1159898  73.3713847  90.5546590
  51.3629587  74.2633549  91.5186153  59.3947058  80.9488008  93.5166551
  59.3359604  80.2647228  92.8497134  59.7966576  81.6906998  93.0647177
  50.1189213  70.9985872  92.4155611  49.5826570  70.5476611  93.0677208
  49.5305922  71.1331781  91.6726076  48.4137757  87.7649922  86.3100270
  48.6534355  88.3968446  86.9879289  47.5706953  87.4137962  86.5965629
  49.5291472  70.4574524  74.9782075  48.6520938  70.3363325  74.6144322
  50.0049225  69.6660602  74.7260964  59.3964465  78.9127592  91.7480531
  58.5091244  78.5753514  91.8706930  59.9663016  78.1810623  91.9849296
  41.0493612  75.2451684  85.0723582  41.7364652  74.9313414  84.4844598
  40.8941741  76.1493048  84.7990834  45.8528334  70.1341880  89.5008606
  45.7686523  69.5267550  88.7659016  45.0311041  70.6250898  89.5018102
  52.9265618  83.5729044  88.7141774  52.8535790  84.3784016  89.2261079
  52.4843012  83.7721010  87.8889796  52.7155398  82.8100814  82.2244596
  51.9322920  83.3522494  82.3182820  53.4148143  83.3274794  82.6238837
  56.0252048  68.6195444  84.8678801  56.5220748  67.8665406  84.5479871
  55.2539030  68.6559760  84.3022010  63.8781806  74.3235809  86.5097093
  63.8671682  75.2060525  86.1391026  63.0099185  73.9707360  86.3151630
  55.3864302  83.4715878  90.8699933  56.0992274  84.1063343  90.7975834
  54.8954331  83.5679744  90.0539935  57.1081829  77.3767131  82.4417224
  56.1738108  77.4968593  82.2721929  57.2858497  76.4739598  82.1777234
  52.6087017  70.7612827  84.5950486  52.2384804  70.2083867  85.2831391
  53.1046109  70.1570960  84.0425486  60.4954380  73.2184450  82.9767259
  60.9614832  74.0512442  82.9027561  60.9461881  72.7529432  83.6812517
  50.4376215  81.2210322  91.6905504  51.1385675  81.8546805  91.8434898
  49.9671330  81.5625053  90.9301143  58.5630611  79.5628271  79.9753411
  58.8390455  79.4484866  80.8847285  57.6935110  79.1645756  79.9365584
  58.4671043  65.5865037  87.0158160  57.5534123  65.8169264  87.1840367
  58.8964144  65.6703481  87.8672192  58.2377501  73.7754929  89.5158054
  57.5848952  74.0230837  88.8610507  58.6157881  72.9619067  89.1820531
  55.1984675  83.8114622  83.6186224  55.3807070  82.9936278  84.0813977
  56.0217661  84.0282314  83.1811114  55.5326841  82.7382807  80.8801273
  56.0614607  82.2275262  80.2671435  55.7955060  82.4225338  81.7446806
  54.2865074  74.5174740  96.0024091  53.6105711  74.4168869  96.6726466
  55.1092708  74.3613954  96.4660088  46.0343934  80.7546677  88.6236606
  46.6197370  80.0090365  88.7564510  45.8368772  81.0650633  89.5073270
  48.8882589  83.7897924  83.6399049  48.2192964  84.2744052  83.1563089
  48.7495458  84.0367144  84.5542427  40.6261588  73.3252277  87.3441049
  40.6645688  72.7915868  88.1378168  40.1201881  72.7987482  86.7252027
  53.0287857  85.8241668  90.2381707  53.5806165  85.9873289  91.0030792
  53.3694051  86.4146105  89.5661732  48.0052351  68.1716817  90.8403592
  48.0693677  69.0331648  90.4280989  47.9419471  67.5590819  90.1075950
  47.4804623  70.2439950  94.4876626  48.1076662  69.8617027  95.1014150
  46.6232542  70.0254152  94.8532318  57.8798732  80.6502925  96.0930361
  58.4238636  81.2632883  95.5985316  57.2985577  81.2082503  96.6097374
  44.2570166  72.0516379  80.4194981  44.5523607  71.1427057  80.3662035
  43.3558202  72.0304118  80.0975983  56.1656245  83.7723643  87.2245389
  56.0407384  82.9713383  86.7156335  56.8235336  84.2669836  86.7359359
  47.7864413  70.1272376  86.4022529  47.0650999  70.7408343  86.2630003
  48.5757669  70.6630140  86.3239175  58.2291153  81.5732663  88.8524939
  57.2821489  81.4538014  88.7803266  58.5773926  80.6855161  88.9351201
  50.5890726  67.4626802  92.6763181  51.1125128  67.7089099  93.4389490
  50.3703060  68.2946837  92.2566319  45.9858007  69.7330477  80.5434306
  45.6570714  68.8527856  80.3609412  46.3397378  69.6778145  81.4310695
  55.2337586  81.3685379  85.0529291  55.0862549  80.4402087  85.2336862
  56.0591080  81.3905470  84.5686367  49.0999831  70.0203446  80.9109784
  49.4395903  70.5489368  80.1888392  49.5471951  70.3583853  81.6868350
  58.8371708  82.1913938  86.1394164  59.7618256  81.9856799  86.0018615
  58.6687012  81.9430339  87.0483506  51.7943271  68.4040497  90.3612852
  51.4540092  67.6048310  90.7633532  51.0882278  68.7042208  89.7889685
  52.4459743  65.4889810  88.8140175  53.2685813  65.0150288  88.6919065
  52.6897807  66.2680293  89.3138861  51.0867978  68.5178068  79.1103076
  51.8076340  68.8959321  78.6066793  50.4633282  69.2366945  79.2138054
  55.2299101  69.2223217  80.0461409  55.4462715  70.1047855  79.7450237
  54.7493168  68.8309430  79.3167051  49.9698322  72.1808930  86.6232153
  49.8242903  72.4949233  87.5156435  49.4923526  72.7993831  86.0703052
  51.8294705  69.1711478  86.6713043  51.8156274  68.2752572  86.3345341
  52.5467133  69.1782142  87.3051329  53.6820836  69.6048818  88.7166170
  53.4238613  70.5265889  88.7150501  53.1505876  69.2079253  89.4066634
  58.6267024  82.7099606  81.4956256  58.8003902  82.1446028  80.7430108
  59.1195916  83.5100500  81.3135746  44.4443984  74.7214275  89.5619815
  43.8997452  75.4974083  89.6940089  45.3223334  75.0685079  89.4038936
  51.2331601  68.0525859  81.9400613  51.3547512  67.1242505  82.1391501
  50.9433643  68.0664544  81.0278928  54.1022791  65.7380769  85.0767333
  54.1244488  65.8020102  84.1219312  54.5190850  64.8985278  85.2707839
  64.4806416  75.4736029  83.1146555  64.9237562  74.7243354  82.7165679
  63.6032926  75.4646165  82.7320287  59.6142197  82.0266370  78.5953154
  60.3093101  82.6473063  78.8140469  59.9565347  81.1761721  78.8705532
  45.2310006  73.8484171  92.4549971  44.4891742  73.9966806  93.0414602
  44.9102750  74.1092437  91.5916721  61.5133620  79.4766076  80.1240485
  62.0384944  79.8153348  79.3989805  61.4255973  78.5413091  79.9403619
  53.1753669  83.3900149  92.2530361  53.4840795  83.1449296  93.1253061
  53.9729151  83.5946788  91.7649232  53.1974281  85.5438059  84.4835738
  52.7579271  85.0514437  85.1768595  53.9482398  85.0011026  84.2427813
  45.6766620  81.7349600  84.4860366  46.5024640  81.4353372  84.1059010
  45.3260672  80.9657222  84.9350155  50.6448153  81.0876068  86.5558040
  50.0228162  80.4246773  86.2560267  51.3153020  81.1137200  85.8731687
  43.8775225  79.6535926  85.4449300  43.0407133  79.2258100  85.2633301
  43.8498870  79.8468369  86.3820091  50.7172680  69.5657856  96.1490546
  50.7660836  70.4419979  95.7668315  51.2595195  69.0235249  95.5762189
  61.2027526  80.1098979  95.4291683  60.4123070  80.0923118  94.8896182
  60.9660881  80.6487273  96.1840719  61.3225401  76.9591446  92.7424411
  61.3723406  76.7941453  93.6839934  61.2139324  76.0918705  92.3522292
  50.2061660  79.6379991  80.0316500  50.3549780  80.3215456  79.3783173
  51.0128103  79.6185081  80.5465956  58.6129163  72.9422374  94.0583718
  59.5139026  72.8028838  93.7667716  58.6877138  73.1076828  94.9981895
  52.9471969  70.3189228  92.9036904  52.0775278  70.6122794  92.6319493
  53.1831449  70.9029673  93.6244168  62.8243598  79.3788387  92.9866433
  62.5328406  79.7418368  93.8229894  62.2115729  78.6655395  92.8079765
  64.0239280  76.9441267  85.5069003  64.8586172  77.3831071  85.6706563
  64.1598409  76.4679920  84.6877249  61.0730786  74.5021002  91.4546491
  61.5484908  74.6948648  90.6465342  60.1496352  74.5580187  91.2089874
  47.9614293  75.6645169  81.0377569  47.7160335  74.7607499  81.2357779
  48.1310207  75.6662319  80.0957047  55.6511003  66.5368845  90.4202325
  56.1692947  67.2729872  90.0948813  55.2966135  66.8432839  91.2549084
  47.2309940  71.3973526  78.5363731  46.5379185  71.4717881  77.8803766
  46.9861692  70.6333870  79.0585247  55.9023597  62.9569128  85.9403221
  56.1825351  62.2892317  86.5663648  56.6874204  63.1498223  85.4277885
  53.7057065  82.1328122  77.5028248  53.1331032  82.7518309  77.0498719
  54.2789859  82.6827483  78.0368170  59.7732455  71.3786762  89.6874796
  60.7249878  71.4784859  89.7087020  59.6035906  70.5865030  90.1972881
  57.7946835  68.4642345  89.8734197  57.1996767  68.7447358  89.1780686
  57.5096531  68.9536246  90.6450938  56.9254325  82.4165272  78.6336830
  57.8584998  82.3510833  78.8369705  56.8377538  83.2521539  78.1751363
  59.5542342  81.7331142  75.5940777  59.4755973  81.3991006  76.4876535
  60.3752009  82.2252910  75.5932250  62.2520533  74.5992881  88.8017096
  62.2196853  73.6608882  88.9876780  62.8621157  74.6776918  88.0682921
  54.0903864  73.4688934  74.8444300  55.0362969  73.3395143  74.9132718
  53.7118109  72.7303596  75.3213728  62.4015021  71.3903925  88.8475379
  61.8854070  70.6062382  88.6605308  63.2854970  71.0622641  89.0121899
  60.0625748  65.1344940  84.8071192  59.8650569  64.8260029  85.6914524
  60.6725454  65.8606579  84.9369122  68.0697083  75.6608888  87.9423133
  68.8000471  75.3994176  88.5030836  67.4604028  74.9237610  87.9825201
  66.1512380  73.8016751  88.5397584  65.4245544  73.6672716  87.9314076
  65.7359667  74.1093579  89.3454302  53.9742556  77.5206681  96.3044957
  54.8945566  77.6985280  96.4985004  53.9392139  76.5762726  96.1524656
  52.2746781  71.3938911  74.7799185  51.3678236  71.0972024  74.8561899
  52.5522762  71.0968729  73.9133472  43.1924721  72.7145274  85.2298232
  42.8727506  71.8610582  84.9372606  42.6458150  72.9293852  85.9856199
  46.9704629  75.4307715  88.9467738  47.1890639  76.3624823  88.9655772
  47.3830403  75.0715690  89.7322542  53.8908847  65.9375801  80.9343427
  53.0809575  65.5922885  81.3098673  54.5793264  65.6283344  81.5231038
  55.8199395  65.0153847  82.5567723  56.3730434  65.4349301  83.2157746
  56.0569481  64.0889595  82.5990679  51.8432494  71.0040921  98.3370487
  51.7429221  71.9535278  98.2682578  51.6254036  70.6759160  97.4646557
  51.0445566  68.2525846  74.9211164  51.9064730  68.5780744  75.1806982
  51.2295910  67.4657342  74.4084230  43.0612981  76.3348186  87.1991353
  42.3676453  75.9202138  86.6861308  43.8085972  76.3768722  86.6024772
  59.1978202  67.1254372  82.0646387  58.6176871  67.7839177  81.6824440
  58.9314135  66.3031717  81.6533805  57.6481768  66.5259430  84.2667708
  58.1481547  66.6375965  83.4582027  58.2917376  66.2220483  84.9068516
  51.7063764  74.4338060  97.1535549  51.2230846  75.2338420  97.3599438
  51.7924703  74.4446005  96.2002993  44.9749724  76.2666439  85.0757368
  44.9520412  76.3654127  84.1239251  45.2850360  77.1131590  85.3974534
  47.6337102  78.3242595  89.1903983  48.5880355  78.2926537  89.1233914
  47.4349625  77.8633218  90.0054208  48.2236484  76.8943711  91.7574780
  49.0429373  77.3887789  91.7809618  48.4973292  75.9775679  91.7292348
  57.9803080  69.2854463  81.1202736  57.0928935  69.5704113  80.9022931
  58.3957069  69.1248226  80.2730013  61.3317616  69.3100984  84.8357075
  62.1078006  69.7997436  85.1081692  60.6065750  69.7359038  85.2928944
  63.7690175  70.0228603  85.8931016  64.3634666  69.7824339  85.1824324
  63.8416759  69.3035734  86.5204552  45.9887331  83.8662214  86.2074180
  45.8541798  83.1062615  85.6412178  45.5719393  84.5903114  85.7402969
  57.1246294  79.0499138  75.2150756  57.8282144  79.2549140  75.8308411
  56.4008942  79.6175899  75.4799839  57.9544104  74.8008999  81.3353026
  57.8979305  75.2577550  80.4960658  58.5072446  74.0399683  81.1575869
  61.7648910  70.5898731  82.1603145  61.5085844  70.1895366  82.9911353
  61.1401778  71.3042525  82.0353285  66.0761248  73.3294804  84.6674437
  65.5160806  73.3987993  85.4405999  65.4704751  73.1535789  83.9473933
  49.1456456  84.7631531  86.4192623  49.0288841  85.7076964  86.3171313
  48.3248903  84.4605093  86.8078422  59.0332991  79.4881667  77.2649216
  59.8678595  79.0562865  77.0826691  58.8717334  79.3163680  78.1926110
  58.6878883  75.9913780  78.6305555  58.6327687  75.8258051  77.6893999
  58.0624938  76.6989813  78.7867745  43.4771398  71.2281844  92.4566977
  44.1230262  70.7180798  92.9454202  43.2688549  71.9650526  93.0310403
  56.0024790  78.2962692  97.9559118  56.8715950  78.4703344  97.5945753
  55.5231542  79.1157109  97.8334847  51.9975009  65.4921889  78.2090873
  51.9853678  66.4363729  78.3659144  52.8898430  65.3092034  77.9150335
  50.1710971  85.4159793  89.6348552  51.0738217  85.4483403  89.9515046
  49.9448341  84.4860244  89.6494887  51.9264573  84.1690779  86.2958630
  50.9760204  84.1692641  86.1823002  52.2297059  83.4223514  85.7794665
  55.8127128  62.0864666  82.4636810  55.0459524  61.5323152  82.6093493
  56.2237833  62.1586534  83.3250962  47.8168889  68.3749461  96.5541992
  48.6800351  68.0186266  96.7645316  47.2434300  68.0363356  97.2417396
  67.6617266  90.0051318  87.3604393  68.2995676  89.8858065  86.6567733
  67.5438109  90.9532162  87.4192345  64.4706972  89.9578746  87.2965917
  64.1325484  89.8419811  86.4086452  65.3396741  89.5569911  87.2766923
  60.3293788  91.8114222  83.2862808  59.7658653  91.7204159  82.5179096
  60.2146183  90.9914127  83.7665301  64.9526755  91.1113598  93.2552123
  64.9415396  90.7166396  92.3832626  65.1147395  90.3779670  93.8485894
  57.8758220  93.3065414  86.1247029  58.6679512  92.9656239  85.7093328
  58.1154870  93.4160389  87.0449182  65.9093347  95.4785190  78.5977273
  65.2581327  96.0639270  78.2111287  66.7037710  96.0091385  78.6572311
  59.8348974  92.5674327  78.9964407  60.6079850  92.0203314  78.8577283
  60.1874373  93.4318577  79.2078869  61.6734016  93.8950709  92.2031307
  61.3823882  94.7996340  92.0877973  62.3091001  93.9367237  92.9175376
  62.5990223  91.2727558  88.7932666  63.1953796  91.0483580  88.0789629
  62.6565195  90.5312303  89.3958114  62.1715252  88.7266993  76.6282857
  62.4240772  88.2048515  75.8666320  61.2339811  88.5633139  76.7309541
  67.2158535  87.7302772  84.4357601  68.0021624  87.3122195  84.0848018
  67.4797239  88.6348864  84.6039249  67.3868612  93.1675622  79.1346257
  66.7514445  93.2410249  79.8467162  67.0566018  93.7569221  78.4565337
  72.6166962  87.6678005  85.3390579  73.3492134  87.0977222  85.5728409
  71.8606317  87.2799605  85.7797085  61.8911540  90.6295099  78.8307232
  61.7747799  89.9540003  79.4988317  62.0013800  90.1427473  78.0139385
  64.2343081  90.0905246  82.5353922  63.8701289  89.5635867  83.2466843
  65.0910197  89.7003715  82.3620407  70.1392382  81.3799579  89.7985188
  69.8075707  82.2494990  89.5746403  69.5437995  81.0635863  90.4779218
  63.8748568  85.1195146  77.5315270  64.0422971  85.9875383  77.8985741
  63.6845737  85.2822428  76.6076559  66.6323902  93.5812125  89.1981100
  66.3324625  94.4837164  89.0896908  66.2874961  93.3144308  90.0502253
  60.0836383  90.0325922  85.2317805  59.1586880  89.9002136  85.4395497
  60.3320796  90.8120141  85.7287747  70.0321045  86.0994665  86.8778538
  69.1237923  86.0310074  86.5837299  69.9808641  86.5766610  87.7060363
  63.8537789  87.5752804  78.5161937  63.7337414  88.0209854  79.3547417
  63.1590378  87.9238121  77.9575475  57.4445194  89.6759195  86.0661594
  57.5737575  89.9293674  86.9801006  56.7642645  90.2686903  85.7466249
  61.6144681 100.3456445  82.1652068  61.5368711 101.2964270  82.2440549
  61.0106325 100.0002318  82.8226994  64.1061911  87.5184311  94.8213435
  63.3295245  88.0778231  94.8116300  64.7452474  88.0041094  95.3428305
  71.8982692  84.3011104  88.6556412  71.2557072  84.5943637  88.0096206
  71.3937620  84.1864024  89.4609608  69.5522855  88.0474277  79.3442271
  70.4640712  88.2801664  79.1689968  69.0432502  88.6311321  78.7817350
  62.3608283  90.3269764  94.3831402  63.1022968  90.8654808  94.1066226
  61.6545269  90.9536053  94.5402954  67.8363623  92.4698905  92.9803564
  68.2446979  92.0281315  92.2358196  67.1140885  91.8951532  93.2337756
  64.1894693  87.4071511  90.3537120  65.0355888  87.8310925  90.4971769
  64.1293331  86.7505136  91.0475684  68.1592438  93.0300095  86.7355852
  67.5301300  93.1945809  86.0331920  67.7718100  93.4441705  87.5066816
  72.0381670  93.9654533  84.0900216  71.3532708  94.3453434  83.5397249
  72.1225519  94.5749860  84.8232164  67.3394138  85.0675880  92.0118294
  67.0955070  85.8217940  91.4752570  67.6154069  85.4461227  92.8465541
  69.2932601  91.6114492  90.6895560  69.5049496  92.2546252  90.0129941
  69.2462349  90.7776809  90.2217490  66.8958830  84.2232313  87.5932132
  66.0343309  84.5213566  87.8848869  66.9221265  84.4402712  86.6613164
  63.7120400  92.7674503  84.0005937  64.1758745  93.0462206  83.2110560
  63.4477198  91.8657948  83.8179028  60.6044481  92.3145985  86.9385701
  61.1745838  92.7433253  86.3003185  61.1952592  92.0328570  87.6369886
  62.6489286  88.8897656  80.8095503  63.3513329  89.3418699  81.2769429
  62.3169914  88.2481475  81.4375396  61.0969647  87.4809412  95.1846712
  60.4668308  88.1625693  95.4182109  60.9905735  87.3692494  94.2399850
  56.3914620  87.1481208  86.1112636  55.6013674  87.4038737  85.6352747
  56.8825867  87.9629546  86.2164677  70.4078429  94.4886448  88.8617917
  71.2295873  94.0866635  88.5800599  70.4040832  94.3854682  89.8134033
  58.3429365  87.5125788  83.0696113  57.5460528  87.6244482  83.5879609
  58.1154957  87.8512440  82.2037003  64.1735033  94.0370491  91.0178628
  64.2379465  94.4990898  91.8536799  63.4645956  93.4067856  91.1460937
  54.6752323  87.4011699  88.5427627  54.9260361  88.2858709  88.8085203
  55.2111871  87.2216300  87.7702719  78.4984422  90.8325196  85.2102888
  77.7448131  90.2632594  85.0546893  78.6331963  90.7987860  86.1573523
  63.8883050  95.7038598  80.8857608  63.7528725  96.5490134  81.3142456
  64.4292863  95.9057876  80.1223542  60.3750390  81.7830178  97.5471963
  59.9817335  81.2296377  98.2219607  61.1916530  82.0940757  97.9378481
  57.3412448  93.2214036  81.4585533  57.8536968  94.0157287  81.6091098
  57.9935160  92.5240327  81.3919134  59.1507332  96.3379793  83.5408286
  59.3273961  97.2597757  83.3529270  59.9464166  96.0238212  83.9702666
  63.2918351  83.1988057  95.1392220  64.0328064  83.7995210  95.0596682
  63.5236274  82.4565695  94.5810262  58.4359689  88.3844425  93.4170449
  58.3213204  87.4829682  93.7177548  57.5804207  88.6308121  93.0655266
  65.5151527  96.3262165  95.0157950  65.0715381  95.5398543  94.6978854
  66.1768740  96.5141315  94.3501841  60.2738648  97.8557966  89.5418628
  60.8246073  97.7275030  88.7695622  59.4350124  98.1552855  89.1913521
  67.6132765  96.6064965  93.0439351  67.5951240  97.4273846  92.5519620
  68.5352685  96.4819040  93.2689492  64.0705819  94.1209094  93.8862860
  64.6034156  93.3597382  93.6562168  63.5419900  93.8282746  94.6287014
  67.2375514  79.2269160  89.4156501  66.8939783  80.1170802  89.3395612
  67.6054476  79.0370818  88.5526086  55.3061364  91.5502691  82.2345103
  56.1436586  91.9599699  82.0178811  55.4839632  90.6102133  82.2045297
  67.2025797  89.2177771  77.9228936  66.6872420  89.9882376  78.1617324
  66.9303105  88.5442907  78.5461998  64.7872908  84.0627472  82.9814175
  63.9314504  83.6734322  82.8019814  65.1999859  84.1419433  82.1213960
  66.3172054  81.5973815  87.3805735  65.8136850  81.5603951  86.5673540
  66.6102661  82.5066558  87.4402391  62.5614940  81.6812545  86.3871916
  63.4267937  81.4855354  86.0277806  62.6292449  81.4522897  87.3141273
  72.1760071  91.9710126  79.8582110  71.3989513  91.6321285  79.4137272
  72.8551552  91.9762749  79.1837075  66.9912100  87.0904863  79.7488718
  66.6862235  87.4051013  80.5998861  67.9442542  87.1686283  79.7916051
  65.4358532  93.2495087  81.3981672  64.9079893  92.5147846  81.0854909
  64.9346034  94.0269763  81.1521640  70.4151378  91.4444107  86.5148718
  69.7575052  92.1343369  86.6028847  71.2191777  91.8340539  86.8582704
  60.1677259  83.9114753  83.7588283  60.7421011  83.6889934  83.0261476
  60.7548242  83.9803447  84.5116884  69.2256836  89.7988480  84.5652660
  69.7388718  90.4318472  85.0674369  69.8758060  89.1989675  84.1996020
  60.4946846  85.9419214  77.7784168  59.6584159  86.2793901  78.0993443
  60.3551616  85.8068194  76.8411305  62.4699927  80.7856002  82.4863353
  61.8164339  80.4705019  81.8619967  62.4280401  80.1631742  83.2123175
  63.5811132  91.0675297  74.4016645  62.6738193  90.8364550  74.6007794
  64.0782164  90.2712916  74.5890626  66.4879211  99.7772804  77.3213331
  65.8140909 100.0804501  77.9298289  66.8745033 100.5801885  76.9718788
  65.7037667  87.2737935  86.8111000  64.7860229  87.4952882  86.6532688
  66.1197811  87.3484246  85.9522708  66.4872715  88.6729351  81.9413680
  67.2344534  89.1850748  81.6320802  66.7564305  88.3513404  82.8018074
  64.7599365  91.1687892  78.9240635  63.8510584  90.8846925  79.0213104
  64.7894449  91.5886970  78.0643942  69.9918633  94.7794481  82.6931802
  69.5380960  93.9385391  82.7496993  69.3612599  95.4155880  83.0306582
  68.9351552  85.7086467  83.9232470  68.1974309  85.1963854  84.2542712
  69.1878326  85.2686849  83.1115747  68.4351572  96.6170978  83.6281620
  68.7274546  97.1776035  82.9093986  68.9450192  96.9099539  84.3834780
  69.0363179  78.4862719  84.5174239  69.3422056  77.6260083  84.2300154
  69.7615784  79.0780340  84.3173233  55.3287536  88.8893406  82.9055837
  55.1311935  88.2962767  82.1806903  54.7734200  88.5845616  83.6231776
  63.3084259  88.7816512  85.0250430  63.3632869  87.8290349  84.9492907
  62.4975461  88.9375952  85.5091728  64.4575453  92.7096636  76.2628713
  64.0194883  91.9932494  75.8034351  65.1985894  92.9372750  75.7013805
  61.2476619  87.3993572  82.7840809  60.4344485  87.6987743  83.1906001
  61.7435613  87.0049261  83.5015291  63.3985197  97.3951329  84.7175074
  63.3561376  97.6212175  83.7883606  64.3147896  97.1614704  84.8660875
  66.8450831  87.8635397  91.6155703  67.2000219  88.0906870  92.4750169
  67.4922962  88.1953773  90.9932958  72.5748568  90.9853833  82.3205032
  72.4366466  91.1755429  81.3926221  72.2184787  91.7473215  82.7773083
  60.7390694  84.9711928  88.4002044  61.3790073  84.8300687  87.7025007
  59.9068224  84.6846441  88.0240646  72.6017947  93.0530360  87.3316303
  73.0354454  92.9605649  88.1799357  73.3149528  93.0287860  86.6936319
  61.5150998  94.2714358  84.5137036  62.3091596  93.7764678  84.3119611
  60.8042690  93.7432221  84.1504742  66.3345842  96.6532454  88.8649404
  66.3882865  97.2223390  89.6327120  65.4660624  96.8234339  88.5003441
  57.8233761  88.4157440  80.5896789  56.8931349  88.3541895  80.8066751
  57.9191233  87.8933393  79.7933430  57.7419310  84.9412253  83.1775031
  58.0026128  85.8557586  83.0684191  58.5636483  84.4736695  83.3271643
  59.2144236  86.3550010  90.3473855  59.8867289  86.1467372  89.6986504
  58.3874022  86.1572096  89.9079088  73.4633497  93.0954060  89.8649189
  73.6569387  93.9999871  90.1108464  73.3634115  92.6361479  90.6987774
  65.1169808  82.9811951  92.3639516  64.4697723  83.6801900  92.2703992
  65.8870823  83.4148095  92.7315764  68.5248606  93.2460803  95.4390069
  68.3734112  93.0171355  94.5220153  68.5153285  94.2031404  95.4521414
  65.2933942  90.8192716  90.4236336  66.2226002  90.9703875  90.2505303
  64.8724972  90.9076736  89.5684982  64.0922274  94.8443380  88.1934873
  63.9533360  94.4762165  89.0660812  63.3036870  95.3591020  88.0218831
  64.6870426  99.9452477  79.5360410  64.8622181  99.4740520  80.3506033
  64.0003214 100.5718243  79.7641671  65.6427489  94.2224983  85.5823711
  65.3077322  94.1825753  86.4781361  65.1431435  93.5569699  85.1094121
  59.6171733  89.6292613  91.1076292  59.4791531  88.8972852  91.7087831
  60.5276656  89.5401513  90.8260480  68.5786681  91.5681017  75.8560771
  67.9615851  90.8427845  75.7593824  68.1103169  92.3290377  75.5127845
  62.2454034  89.3412572  90.5959972  62.9553652  88.7005764  90.5546590
  62.2023342  89.5925467  91.5186153  70.2340812  96.2779926  93.5166551
  70.1753358  95.5939146  92.8497134  70.6360331  97.0198916  93.0647177
  60.9582968  86.3277790  92.4155611  60.4220325  85.8768529  93.0677208
  60.3699676  86.4623699  91.6726076  59.2531511 103.0941839  86.3100270
  59.4928109 103.7260364  86.9879289  58.4100708 102.7429879  86.5965629
  60.3685227  85.7866441  74.9782075  59.4914693  85.6655242  74.6144322
  60.8442980  84.9952520  74.7260964  70.2358220  94.2419509  91.7480531
  69.3484998  93.9045431  91.8706930  70.8056771  93.5102541  91.9849296
  51.8887367  90.5743601  85.0723582  52.5758406  90.2605331  84.4844598
  51.7335495  91.4784966  84.7990834  56.6922089  85.4633798  89.5008606
  56.6080278  84.8559467  88.7659016  55.8704795  85.9542816  89.5018102
  63.7659373  98.9020962  88.7141774  63.6929544  99.7075933  89.2261079
  63.3236766  99.1012928  87.8889796  63.5549153  98.1392732  82.2244596
  62.7716674  98.6814412  82.3182820  64.2541898  98.6566711  82.6238837
  66.8645803  83.9487361  84.8678801  67.3614502  83.1957324  84.5479871
  66.0932784  83.9851678  84.3022010  74.7175560  89.6527727  86.5097093
  74.7065436  90.5352442  86.1391026  73.8492939  89.2999278  86.3151630
  66.2258056  98.8007796  90.8699933  66.9386029  99.4355261  90.7975834
  65.7348085  98.8971662  90.0539935  67.9475583  92.7059048  82.4417224
  67.0131862  92.8260511  82.2721929  68.1252252  91.8031515  82.1777234
  63.4480771  86.0904744  84.5950486  63.0778559  85.5375785  85.2831391
  63.9439864  85.4862878  84.0425486  71.3348135  88.5476368  82.9767259
  71.8008587  89.3804359  82.9027561  71.7855635  88.0821349  83.6812517
  61.2769970  96.5502239  91.6905504  61.9779429  97.1838722  91.8434898
  60.8065085  96.8916971  90.9301143  69.4024366  94.8920189  79.9753411
  69.6784210  94.7776784  80.8847285  68.5328865  94.4937674  79.9365584
  69.3064797  80.9156955  87.0158160  68.3927877  81.1461182  87.1840367
  69.7357899  80.9995399  87.8672192  69.0771256  89.1046847  89.5158054
  68.4242706  89.3522754  88.8610507  69.4551636  88.2910985  89.1820531
  66.0378430  99.1406540  83.6186224  66.2200824  98.3228196  84.0813977
  66.8611416  99.3574232  83.1811114  66.3720595  98.0674725  80.8801273
  66.9008362  97.5567180  80.2671435  66.6348815  97.7517255  81.7446806
  65.1258829  89.8466658  96.0024091  64.4499466  89.7460787  96.6726466
  65.9486463  89.6905872  96.4660088  56.8737688  96.0838594  88.6236606
  57.4591125  95.3382282  88.7564510  56.6762526  96.3942551  89.5073270
  59.7276343  99.1189842  83.6399049  59.0586719  99.6035969  83.1563089
  59.5889213  99.3659062  84.5542427  51.4655343  88.6544195  87.3441049
  51.5039442  88.1207785  88.1378168  50.9595636  88.1279400  86.7252027
  63.8681612 101.1533585  90.2381707  64.4199920 101.3165207  91.0030792
  64.2087805 101.7438023  89.5661732  58.8446105  83.5008735  90.8403592
  58.9087432  84.3623566  90.4280989  58.7813225  82.8882737  90.1075950
  58.3198378  85.5731868  94.4876626  58.9470416  85.1908945  95.1014150
  57.4626296  85.3546070  94.8532318  68.7192486  95.9794843  96.0930361
  69.2632390  96.5924801  95.5985316  68.1379331  96.5374421  96.6097374
  55.0963920  87.3808297  80.4194981  55.3917361  86.4718975  80.3662035
  54.1951956  87.3596036  80.0975983  67.0049999  99.1015561  87.2245389
  66.8801139  98.3005301  86.7156335  67.6629090  99.5961754  86.7359359
  58.6258167  85.4564293  86.4022529  57.9044753  86.0700261  86.2630003
  59.4151423  85.9922058  86.3239175  69.0684908  96.9024581  88.8524939
  68.1215243  96.7829932  88.7803266  69.4167681  96.0147079  88.9351201
  61.4284481  82.7918720  92.6763181  61.9518883  83.0381016  93.4389490
  61.2096814  83.6238755  92.2566319  56.8251762  85.0622394  80.5434306
  56.4964468  84.1819773  80.3609412  57.1791133  85.0070063  81.4310695
  66.0731341  96.6977297  85.0529291  65.9256303  95.7694004  85.2336862
  66.8984834  96.7197388  84.5686367  59.9393585  85.3495364  80.9109784
  60.2789658  85.8781285  80.1888392  60.3865706  85.6875770  81.6868350
  69.6765463  97.5205856  86.1394164  70.6012010  97.3148717  86.0018615
  69.5080766  97.2722257  87.0483506  62.6337026  83.7332415  90.3612852
  62.2933846  82.9340228  90.7633532  61.9276032  84.0334126  89.7889685
  63.2853498  80.8181727  88.8140175  64.1079567  80.3442205  88.6919065
  63.5291561  81.5972211  89.3138861  61.9261732  83.8469986  79.1103076
  62.6470095  84.2251239  78.6066793  61.3027036  84.5658863  79.2138054
  66.0692855  84.5515135  80.0461409  66.2856470  85.4339773  79.7450237
  65.5886922  84.1601348  79.3167051  60.8092077  87.5100848  86.6232153
  60.6636657  87.8241151  87.5156435  60.3317280  88.1285748  86.0703052
  62.6688459  84.5003396  86.6713043  62.6550028  83.6044489  86.3345341
  63.3860887  84.5074060  87.3051329  64.5214590  84.9340736  88.7166170
  64.2632368  85.8557807  88.7150501  63.9899630  84.5371171  89.4066634
  69.4660779  98.0391523  81.4956256  69.6397656  97.4737946  80.7430108
  69.9589670  98.8392418  81.3135746  55.2837739  90.0506192  89.5619815
  54.7391207  90.8266000  89.6940089  56.1617089  90.3976997  89.4038936
  62.0725355  83.3817776  81.9400613  62.1941267  82.4534422  82.1391501
  61.7827398  83.3956462  81.0278928  64.9416546  81.0672687  85.0767333
  64.9638243  81.1312020  84.1219312  65.3584605  80.2277195  85.2707839
  75.3200170  90.8027946  83.1146555  75.7631316  90.0535271  82.7165679
  74.4426680  90.7938083  82.7320287  70.4535951  97.3558288  78.5953154
  71.1486856  97.9764980  78.8140469  70.7959101  96.5053639  78.8705532
  56.0703761  89.1776089  92.4549971  55.3285497  89.3258724  93.0414602
  55.7496505  89.4384354  91.5916721  72.3527374  94.8057993  80.1240485
  72.8778699  95.1445266  79.3989805  72.2649727  93.8705009  79.9403619
  64.0147423  98.7192067  92.2530361  64.3234550  98.4741214  93.1253061
  64.8122905  98.9238705  91.7649232  64.0368035 100.8729976  84.4835738
  63.5973026 100.3806355  85.1768595  64.7876152 100.3302944  84.2427813
  56.5160374  97.0641517  84.4860366  57.3418394  96.7645289  84.1059010
  56.1654426  96.2949140  84.9350155  61.4841907  96.4167986  86.5558040
  60.8621917  95.7538691  86.2560267  62.1546774  96.4429117  85.8731687
  54.7168979  94.9827844  85.4449300  53.8800888  94.5550018  85.2633301
  54.6892625  95.1760287  86.3820091  61.5566435  84.8949774  96.1490546
  61.6054590  85.7711896  95.7668315  62.0988949  84.3527167  95.5762189
  72.0421281  95.4390897  95.4291683  71.2516824  95.4215036  94.8896182
  71.8054635  95.9779191  96.1840719  72.1619156  92.2883363  92.7424411
  72.2117161  92.1233371  93.6839934  72.0533079  91.4210622  92.3522292
  61.0455414  94.9671909  80.0316500  61.1943535  95.6507373  79.3783173
  61.8521858  94.9476999  80.5465956  69.4522918  88.2714291  94.0583718
  70.3532781  88.1320756  93.7667716  69.5270892  88.4368746  94.9981895
  63.7865723  85.6481146  92.9036904  62.9169033  85.9414712  92.6319493
  64.0225204  86.2321591  93.6244168  73.6637352  94.7080305  92.9866433
  73.3722161  95.0710285  93.8229894  73.0509484  93.9947313  92.8079765
  74.8633035  92.2733184  85.5069003  75.6979926  92.7122989  85.6706563
  74.9992164  91.7971838  84.6877249  71.9124541  89.8312919  91.4546491
  72.3878662  90.0240566  90.6465342  70.9890106  89.8872105  91.2089874
  58.8008047  90.9937087  81.0377569  58.5554089  90.0899417  81.2357779
  58.9703962  90.9954237  80.0957047  66.4904757  81.8660763  90.4202325
  67.0086701  82.6021790  90.0948813  66.1359890  82.1724756  91.2549084
  58.0703695  86.7265444  78.5363731  57.3772940  86.8009799  77.8803766
  57.8255447  85.9625788  79.0585247  66.7417351  78.2861045  85.9403221
  67.0219105  77.6184235  86.5663648  67.5267958  78.4790141  85.4277885
  64.5450820  97.4620039  77.5028248  63.9724787  98.0810226  77.0498719
  65.1183613  98.0119401  78.0368170  70.6126210  86.7078679  89.6874796
  71.5643633  86.8076777  89.7087020  70.4429660  85.9156948  90.1972881
  68.6340589  83.7934263  89.8734197  68.0390521  84.0739275  89.1780686
  68.3490286  84.2828164  90.6450938  67.7648080  97.7457189  78.6336830
  68.6978753  97.6802751  78.8369705  67.6771292  98.5813456  78.1751363
  70.3936096  97.0623060  75.5940777  70.3149728  96.7282923  76.4876535
  71.2145763  97.5544828  75.5932250  73.0914287  89.9284799  88.8017096
  73.0590608  88.9900800  88.9876780  73.7014911  90.0068836  88.0682921
  64.9297618  88.7980852  74.8444300  65.8756723  88.6687060  74.9132718
  64.5511863  88.0595514  75.3213728  73.2408776  86.7195843  88.8475379
  72.7247825  85.9354299  88.6605308  74.1248724  86.3914559  89.0121899
  70.9019503  80.4636858  84.8071192  70.7044324  80.1551946  85.6914524
  71.5119208  81.1898497  84.9369122  78.9090837  90.9900806  87.9423133
  79.6394226  90.7286094  88.5030836  78.2997783  90.2529528  87.9825201
  76.9906134  89.1308669  88.5397584  76.2639298  88.9964633  87.9314076
  76.5753421  89.4385497  89.3454302  64.8136311  92.8498598  96.3044957
  65.7339320  93.0277197  96.4985004  64.7785894  91.9054644  96.1524656
  63.1140535  86.7230828  74.7799185  62.2071991  86.4263941  74.8561899
  63.3916516  86.4260647  73.9133472  54.0318476  88.0437192  85.2298232
  53.7121260  87.1902500  84.9372606  53.4851904  88.2585770  85.9856199
  57.8098383  90.7599633  88.9467738  58.0284393  91.6916741  88.9655772
  58.2224157  90.4007607  89.7322542  64.7302601  81.2667718  80.9343427
  63.9203330  80.9214803  81.3098673  65.4187018  80.9575262  81.5231038
  66.6593149  80.3445765  82.5567723  67.2124188  80.7641218  83.2157746
  66.8963236  79.4181513  82.5990679  62.6826249  86.3332839  98.3370487
  62.5822976  87.2827196  98.2682578  62.4647791  86.0051078  97.4646557
  61.8839320  83.5817764  74.9211164  62.7458484  83.9072662  75.1806982
  62.0689664  82.7949260  74.4084230  53.9006736  91.6640103  87.1991353
  53.2070207  91.2494056  86.6861308  54.6479727  91.7060640  86.6024772
  70.0371957  82.4546290  82.0646387  69.4570626  83.1131094  81.6824440
  69.7707889  81.6323635  81.6533805  68.4875523  81.8551348  84.2667708
  68.9875301  81.9667882  83.4582027  69.1311131  81.5512401  84.9068516
  62.5457519  89.7629977  97.1535549  62.0624600  90.5630338  97.3599438
  62.6318458  89.7737922  96.2002993  55.8143478  91.5958357  85.0757368
  55.7914166  91.6946044  84.1239251  56.1244115  92.4423508  85.3974534
  58.4730856  93.6534512  89.1903983  59.4274110  93.6218455  89.1233914
  58.2743380  93.1925136  90.0054208  59.0630238  92.2235628  91.7574780
  59.8823127  92.7179707  91.7809618  59.3367046  91.3067596  91.7292348
  68.8196835  84.6146381  81.1202736  67.9322690  84.8996031  80.9022931
  69.2350824  84.4540144  80.2730013  72.1711371  84.6392902  84.8357075
  72.9471761  85.1289354  85.1081692  71.4459505  85.0650956  85.2928944
  74.6083929  85.3520521  85.8931016  75.2028420  85.1116257  85.1824324
  74.6810513  84.6327651  86.5204552  56.8281085  99.1954132  86.2074180
  56.6935553  98.4354533  85.6412178  56.4113147  99.9195032  85.7402969
  67.9640048  94.3791055  75.2150756  68.6675898  94.5841058  75.8308411
  67.2402697  94.9467817  75.4799839  68.7937858  90.1300916  81.3353026
  68.7373060  90.5869468  80.4960658  69.3466201  89.3691601  81.1575869
  72.6042664  85.9190648  82.1603145  72.3479598  85.5187284  82.9911353
  71.9795532  86.6334442  82.0353285  76.9155002  88.6586722  84.6674437
  76.3554560  88.7279911  85.4405999  76.3098505  88.4827706  83.9473933
  59.9850211 100.0923449  86.4192623  59.8682595 101.0368881  86.3171313
  59.1642657  99.7897010  86.8078422  69.8726745  94.8173584  77.2649216
  70.7072349  94.3854783  77.0826691  69.7111088  94.6455598  78.1926110
  69.5272638  91.3205698  78.6305555  69.4721441  91.1549969  77.6893999
  68.9018693  92.0281731  78.7867745  54.3165153  86.5573762  92.4566977
  54.9624016  86.0472716  92.9454202  54.1082304  87.2942444  93.0310403
  66.8418545  93.6254610  97.9559118  67.7109704  93.7995262  97.5945753
  66.3625296  94.4449026  97.8334847  62.8368763  80.8213807  78.2090873
  62.8247433  81.7655647  78.3659144  63.7292185  80.6383952  77.9150335
  61.0104725 100.7451711  89.6348552  61.9131972 100.7775321  89.9515046
  60.7842095  99.8152162  89.6494887  62.7658327  99.4982697  86.2958630
  61.8153958  99.4984559  86.1823002  63.0690813  98.7515432  85.7794665
  66.6520883  77.4156583  82.4636810  65.8853278  76.8615070  82.6093493
  67.0631588  77.4878452  83.3250962  58.6562644  83.7041379  96.5541992
  59.5194105  83.3478184  96.7645316  58.0828054  83.3655274  97.2417396
  78.5011021 105.3343236  87.3604393  79.1389430 105.2149983  86.6567733
  78.3831863 106.2824079  87.4192345  75.3100727 105.2870664  87.2965917
  74.9719238 105.1711728  86.4086452  76.1790495 104.8861829  87.2766923
  71.1687543 107.1406140  83.2862808  70.6052408 107.0496077  82.5179096
  71.0539938 106.3206045  83.7665301  75.7920510 106.4405515  93.2552123
  75.7809151 106.0458314  92.3832626  75.9541149 105.7071588  93.8485894
  68.7151974 108.6357332  86.1247029  69.5073266 108.2948156  85.7093328
  68.9548625 108.7452307  87.0449182  76.7487101 110.8077108  78.5977273
  76.0975081 111.3931188  78.2111287  77.5431464 111.3383303  78.6572311
  70.6742728 107.8966245  78.9964407  71.4473604 107.3495232  78.8577283
  71.0268127 108.7610494  79.2078869  72.5127771 109.2242627  92.2031307
  72.2217637 110.1288258  92.0877973  73.1484755 109.2659155  92.9175376
  73.4383978 106.6019476  88.7932666  74.0347550 106.3775498  88.0789629
  73.4958949 105.8604221  89.3958114  73.0109006 104.0558911  76.6282857
  73.2634527 103.5340432  75.8666320  72.0733565 103.8925056  76.7309541
  78.0552289 103.0594689  84.4357601  78.8415378 102.6414113  84.0848018
  78.3190993 103.9640782  84.6039249  78.2262366 108.4967540  79.1346257
  77.5908199 108.5702166  79.8467162  77.8959773 109.0861139  78.4565337
  83.4560716 102.9969923  85.3390579  84.1885888 102.4269139  85.5728409
  82.7000072 102.6091523  85.7797085  72.7305295 105.9587017  78.8307232
  72.6141553 105.2831920  79.4988317  72.8407555 105.4719391  78.0139385
  75.0736836 105.4197164  82.5353922  74.7095043 104.8927785  83.2466843
  75.9303952 105.0295633  82.3620407  80.9786136  96.7091497  89.7985188
  80.6469461  97.5786908  89.5746403  80.3831750  96.3927781  90.4779218
  74.7142323 100.4487064  77.5315270  74.8816725 101.3167300  77.8985741
  74.5239492 100.6114345  76.6076559  77.4717656 108.9104043  89.1981100
  77.1718379 109.8129081  89.0896908  77.1268716 108.6436226  90.0502253
  70.9230138 105.3617840  85.2317805  69.9980634 105.2294054  85.4395497
  71.1714551 106.1412059  85.7287747  80.8714800 101.4286583  86.8778538
  79.9631677 101.3601991  86.5837299  80.8202396 101.9058528  87.7060363
  74.6931544 102.9044721  78.5161937  74.5731169 103.3501772  79.3547417
  73.9984132 103.2530039  77.9575475  68.2838949 105.0051113  86.0661594
  68.4131330 105.2585592  86.9801006  67.6036400 105.5978821  85.7466249
  72.4538436 115.6748363  82.1652068  72.3762466 116.6256188  82.2440549
  71.8500079 115.3294236  82.8226994  74.9455666 102.8476228  94.8213435
  74.1689000 103.4070149  94.8116300  75.5846229 103.3333011  95.3428305
  82.7376446  99.6303021  88.6556412  82.0950826  99.9235554  88.0096206
  82.2331375  99.5155942  89.4609608  80.3916610 103.3766194  79.3442271
  81.3034466 103.6093581  79.1689968  79.8826257 103.9603239  78.7817350
  73.2002038 105.6561682  94.3831402  73.9416722 106.1946726  94.1066226
  72.4939023 106.2827971  94.5402954  78.6757378 107.7990822  92.9803564
  79.0840734 107.3573233  92.2358196  77.9534639 107.2243450  93.2337756
  75.0288448 102.7363429  90.3537120  75.8749643 103.1602843  90.4971769
  74.9687085 102.0797053  91.0475684  78.9986192 108.3592013  86.7355852
  78.3695055 108.5237727  86.0331920  78.6111854 108.7733622  87.5066816
  82.8775424 109.2946451  84.0900216  82.1926462 109.6745352  83.5397249
  82.9619273 109.9041777  84.8232164  78.1787893 100.3967797  92.0118294
  77.9348825 101.1509858  91.4752570  78.4547823 100.7753145  92.8465541
  80.1326356 106.9406410  90.6895560  80.3443251 107.5838170  90.0129941
  80.0856104 106.1068726  90.2217490  77.7352585  99.5524230  87.5932132
  76.8737064  99.8505484  87.8848869  77.7615019  99.7694629  86.6613164
  74.5514154 108.0966421  84.0005937  75.0152500 108.3754124  83.2110560
  74.2870952 107.1949866  83.8179028  71.4438235 107.6437903  86.9385701
  72.0139592 108.0725171  86.3003185  72.0346347 107.3620487  87.6369886
  73.4883040 104.2189573  80.8095503  74.1907083 104.6710617  81.2769429
  73.1563669 103.5773392  81.4375396  71.9363402 102.8101330  95.1846712
  71.3062062 103.4917611  95.4182109  71.8299490 102.6984412  94.2399850
  67.2308374 102.4773126  86.1112636  66.4407428 102.7330655  85.6352747
  67.7219621 103.2921464  86.2164677  81.2472184 109.8178365  88.8617917
  82.0689627 109.4158552  88.5800599  81.2434587 109.7146599  89.8134033
  69.1823119 102.8417705  83.0696113  68.3854283 102.9536400  83.5879609
  68.9548712 103.1804357  82.2037003  75.0128787 109.3662408  91.0178628
  75.0773220 109.8282816  91.8536799  74.3039711 108.7359773  91.1460937
  65.5146077 102.7303616  88.5427627  65.7654115 103.6150626  88.8085203
  66.0505625 102.5508218  87.7702719  89.3378177 106.1617114  85.2102888
  88.5841885 105.5924512  85.0546893  89.4725718 106.1279778  86.1573523
  74.7276805 111.0330516  80.8857608  74.5922480 111.8782052  81.3142456
  75.2686617 111.2349794  80.1223542  71.2144144  97.1122096  97.5471963
  70.8211090  96.5588294  98.2219607  72.0310285  97.4232674  97.9378481
  68.1806202 108.5505954  81.4585533  68.6930723 109.3449204  81.6091098
  68.8328915 107.8532244  81.3919134  69.9901087 111.6671710  83.5408286
  70.1667715 112.5889675  83.3529270  70.7857920 111.3530130  83.9702666
  74.1312105  98.5279975  95.1392220  74.8721819  99.1287128  95.0596682
  74.3630028  97.7857613  94.5810262  69.2753443 103.7136342  93.4170449
  69.1606959 102.8121599  93.7177548  68.4197961 103.9600039  93.0655266
  71.1132402 113.1849884  89.5418628  71.6639827 113.0566947  88.7695622
  70.2743878 113.4844773  89.1913521  78.4526519 111.9356882  93.0439351
  78.4344995 112.7565763  92.5519620  79.3746439 111.8110958  93.2689492
  74.9099573 109.4501012  93.8862860  75.4427910 108.6889300  93.6562168
  74.3813654 109.1574664  94.6287014  78.0769268  94.5561078  89.4156501
  77.7333538  95.4462720  89.3395612  78.4448231  94.3662736  88.5526086
  66.1455119 106.8794608  82.2345103  66.9830341 107.2891617  82.0178811
  66.3233387 105.9394050  82.2045297  78.0419551 104.5469689  77.9228936
  77.5266174 105.3174294  78.1617324  77.7696859 103.8734825  78.5461998
  75.6266662  99.3919390  82.9814175  74.7708258  99.0026240  82.8019814
  76.0393614  99.4711351  82.1213960  77.1565809  96.9265733  87.3805735
  76.6530604  96.8895868  86.5673540  77.4496416  97.8358476  87.4402391
  73.4008695  97.0104463  86.3871916  74.2661691  96.8147271  86.0277806
  73.4686203  96.7814815  87.3141273  83.0153825 107.3002044  79.8582110
  82.2383268 106.9613203  79.4137272  83.6945306 107.3054667  79.1837075
  77.8305854 102.4196781  79.7488718  77.5255990 102.7342930  80.5998861
  78.7836296 102.4978201  79.7916051  76.2752286 108.5787004  81.3981672
  75.7473648 107.8439764  81.0854909  75.7739789 109.3561681  81.1521640
  81.2545132 106.7736025  86.5148718  80.5968807 107.4635286  86.6028847
  82.0585531 107.1632457  86.8582704  71.0071014  99.2406671  83.7588283
  71.5814766  99.0181852  83.0261476  71.5941996  99.3095365  84.5116884
  80.0650591 105.1280398  84.5652660  80.5782473 105.7610389  85.0674369
  80.7151815 104.5281593  84.1996020  71.3340601 101.2711132  77.7784168
  70.4977913 101.6085818  78.0993443  71.1945370 101.1360111  76.8411305
  73.3093681  96.1147920  82.4863353  72.6558094  95.7996937  81.8619967
  73.2674156  95.4923660  83.2123175  74.4204886 106.3967215  74.4016645
  73.5131948 106.1656468  74.6007794  74.9175918 105.6004834  74.5890626
  77.3272965 115.1064722  77.3213331  76.6534664 115.4096419  77.9298289
  77.7138787 115.9093802  76.9718788  76.5431422 102.6029853  86.8111000
  75.6253983 102.8244800  86.6532688  76.9591565 102.6776164  85.9522708
  77.3266469 104.0021269  81.9413680  78.0738288 104.5142666  81.6320802
  77.5958059 103.6805322  82.8018074  75.5993120 106.4979810  78.9240635
  74.6904339 106.2138842  79.0213104  75.6288203 106.9178888  78.0643942
  80.8312387 110.1086399  82.6931802  80.3774714 109.2677309  82.7496993
  80.2006354 110.7447797  83.0306582  79.7745307 101.0378385  83.9232470
  79.0368063 100.5255771  84.2542712  80.0272080 100.5978767  83.1115747
  79.2745326 111.9462896  83.6281620  79.5668301 112.5067953  82.9093986
  79.7843947 112.2391457  84.3834780  79.8756934  93.8154637  84.5174239
  80.1815811  92.9552000  84.2300154  80.6009539  94.4072257  84.3173233
  66.1681290 104.2185324  82.9055837  65.9705690 103.6254684  82.1806903
  65.6127954 103.9137534  83.6231776  74.1478014 104.1108430  85.0250430
  74.2026623 103.1582267  84.9492907  73.3369216 104.2667869  85.5091728
  75.2969207 108.0388553  76.2628713  74.8588637 107.3224412  75.8034351
  76.0379648 108.2664668  75.7013805  72.0870374 102.7285490  82.7840809
  71.2738239 103.0279660  83.1906001  72.5829368 102.3341179  83.5015291
  74.2378952 112.7243247  84.7175074  74.1955130 112.9504093  83.7883606
  75.1541650 112.4906621  84.8660875  77.6844585 103.1927314  91.6155703
  78.0393973 103.4198787  92.4750169  78.3316717 103.5245691  90.9932958
  83.4142322 106.3145750  82.3205032  83.2760221 106.5047346  81.3926221
  83.0578541 107.0765133  82.7773083  71.5784448 100.3003845  88.4002044
  72.2183828 100.1592604  87.7025007  70.7461979 100.0138359  88.0240646
  83.4411702 108.3822277  87.3316303  83.8748209 108.2897566  88.1799357
  84.1543283 108.3579778  86.6936319  72.3544752 109.6006276  84.5137036
  73.1485351 109.1056596  84.3119611  71.6436445 109.0724139  84.1504742
  77.1739597 111.9824371  88.8649404  77.2276619 112.5515308  89.6327120
  76.3054378 112.1526256  88.5003441  68.6627516 103.7449358  80.5896789
  67.7325104 103.6833813  80.8066751  68.7584988 103.2225310  79.7933430
  68.5813065 100.2704170  83.1775031  68.8419882 101.1849504  83.0684191
  69.4030237  99.8028613  83.3271643  70.0537990 101.6841928  90.3473855
  70.7261044 101.4759290  89.6986504  69.2267777 101.4864014  89.9079088
  84.3027251 108.4245978  89.8649189  84.4963142 109.3291788  90.1108464
  84.2027870 107.9653397  90.6987774  75.9563562  98.3103868  92.3639516
  75.3091477  99.0093818  92.2703992  76.7264578  98.7440012  92.7315764
  76.1327697 106.1484633  90.4236336  77.0619757 106.2995793  90.2505303
  75.7118727 106.2368654  89.5684982  74.9316028 110.1735298  88.1934873
  74.7927114 109.8054082  89.0660812  74.1430625 110.6882937  88.0218831
  75.5264180 115.2744394  79.5360410  75.7015936 114.8032437  80.3506033
  74.8396968 115.9010160  79.7641671  76.4821243 109.5516900  85.5823711
  76.1471076 109.5117670  86.4781361  75.9825189 108.8861616  85.1094121
  70.4565487 104.9584531  91.1076292  70.3185285 104.2264769  91.7087831
  71.3670411 104.8693431  90.8260480  79.4180435 106.8972935  75.8560771
  78.8009606 106.1719763  75.7593824  78.9496924 107.6582295  75.5127845
  73.0847788 104.6704490  90.5959972  73.7947407 104.0297682  90.5546590
  73.0417096 104.9217385  91.5186153  71.7976722 101.6569708  92.4155611
  71.2614079 101.2060446  93.0677208  71.2093431 101.7915617  91.6726076
  70.0925266 118.4233757  86.3100270  70.3321864 119.0552281  86.9879289
  69.2494462 118.0721797  86.5965629  71.2078981 101.1158359  74.9782075
  70.3308447 100.9947160  74.6144322  71.6836734 100.3244437  74.7260964
  81.0751974 109.5711427  91.7480531  80.1878753 109.2337349  91.8706930
  81.6450525 108.8394458  91.9849296  62.7281121 105.9035519  85.0723582
  63.4152161 105.5897249  84.4844598  62.5729250 106.8076884  84.7990834
  67.5315843 100.7925715  89.5008606  67.4474032 100.1851385  88.7659016
  66.7098550 101.2834734  89.5018102  74.6053127 114.2312879  88.7141774
  74.5323299 115.0367851  89.2261079  74.1630521 114.4304845  87.8889796
  74.3942907 113.4684649  82.2244596  73.6110429 114.0106330  82.3182820
  75.0935652 113.9858629  82.6238837  77.7039557  99.2779279  84.8678801
  78.2008257  98.5249241  84.5479871  76.9326539  99.3143596  84.3022010
  85.5569315 104.9819644  86.5097093  85.5459191 105.8644360  86.1391026
  84.6886694 104.6291195  86.3151630  77.0651811 114.1299713  90.8699933
  77.7779783 114.7647178  90.7975834  76.5741840 114.2263579  90.0539935
  78.7869338 108.0350966  82.4417224  77.8525617 108.1552429  82.2721929
  78.9646006 107.1323433  82.1777234  74.2874526 101.4196662  84.5950486
  73.9172313 100.8667702  85.2831391  74.7833618 100.8154795  84.0425486
  82.1741889 103.8768285  82.9767259  82.6402341 104.7096277  82.9027561
  82.6249390 103.4113267  83.6812517  72.1163724 111.8794157  91.6905504
  72.8173184 112.5130640  91.8434898  71.6458839 112.2208889  90.9301143
  80.2418120 110.2212107  79.9753411  80.5177964 110.1068701  80.8847285
  79.3722619 109.8229592  79.9365584  80.1458552  96.2448872  87.0158160
  79.2321632  96.4753099  87.1840367  80.5751653  96.3287317  87.8672192
  79.9165010 104.4338764  89.5158054  79.2636461 104.6814672  88.8610507
  80.2945390 103.6202903  89.1820531  76.8772184 114.4698458  83.6186224
  77.0594579 113.6520114  84.0813977  77.7005170 114.6866150  83.1811114
  77.2114350 113.3966643  80.8801273  77.7402116 112.8859097  80.2671435
  77.4742569 113.0809173  81.7446806  75.9652583 105.1758575  96.0024091
  75.2893220 105.0752705  96.6726466  76.7880217 105.0197789  96.4660088
  67.7131443 111.4130512  88.6236606  68.2984879 110.6674200  88.7564510
  67.5156281 111.7234469  89.5073270  70.5670098 114.4481759  83.6399049
  69.8980473 114.9327887  83.1563089  70.4282967 114.6950980  84.5542427
  62.3049097 103.9836112  87.3441049  62.3433197 103.4499703  88.1378168
  61.7989390 103.4571318  86.7252027  74.7075366 116.4825503  90.2381707
  75.2593674 116.6457124  91.0030792  75.0481560 117.0729941  89.5661732
  69.6839860  98.8300653  90.8403592  69.7481186  99.6915484  90.4280989
  69.6206980  98.2174654  90.1075950  69.1592132 100.9023785  94.4876626
  69.7864171 100.5200863  95.1014150  68.3020051 100.6837987  94.8532318
  65.9357675 102.7100214  80.4194981  66.2311116 101.8010893  80.3662035
  65.0345711 102.6887954  80.0975983  77.8443754 114.4307478  87.2245389
  77.7194893 113.6297218  86.7156335  78.5022845 114.9253672  86.7359359
  69.4651922 100.7856211  86.4022529  68.7438508 101.3992179  86.2630003
  70.2545178 101.3213976  86.3239175  79.9078662 112.2316499  88.8524939
  78.9608998 112.1121850  88.7803266  80.2561435 111.3438997  88.9351201
  72.2678235  98.1210637  92.6763181  72.7912637  98.3672934  93.4389490
  72.0490569  98.9530672  92.2566319  67.6645516 100.3914312  80.5434306
  67.3358223  99.5111691  80.3609412  68.0184887 100.3361981  81.4310695
  76.9125095 112.0269215  85.0529291  76.7650058 111.0985922  85.2336862
  77.7378589 112.0489305  84.5686367  70.7787340 100.6787282  80.9109784
  71.1183412 101.2073203  80.1888392  71.2259460 101.0167688  81.6868350
  80.5159217 112.8497773  86.1394164  81.4405765 112.6440635  86.0018615
  80.3474521 112.6014175  87.0483506  73.4730780  99.0624333  90.3612852
  73.1327601  98.2632146  90.7633532  72.7669787  99.3626043  89.7889685
  74.1247252  96.1473645  88.8140175  74.9473322  95.6734123  88.6919065
  74.3685316  96.9264129  89.3138861  72.7655487  99.1761903  79.1103076
  73.4863849  99.5543156  78.6066793  72.1420791  99.8950780  79.2138054
  76.9086610  99.8807052  80.0461409  77.1250224 100.7631690  79.7450237
  76.4280677  99.4893266  79.3167051  71.6485831 102.8392766  86.6232153
  71.5030412 103.1533069  87.5156435  71.1711035 103.4577666  86.0703052
  73.5082214  99.8295314  86.6713043  73.4943783  98.9336407  86.3345341
  74.2254642  99.8365977  87.3051329  75.3608345 100.2632654  88.7166170
  75.1026122 101.1849724  88.7150501  74.8293385  99.8663088  89.4066634
  80.3054533 113.3683441  81.4956256  80.4791411 112.8029863  80.7430108
  80.7983425 114.1684336  81.3135746  66.1231493 105.3798110  89.5619815
  65.5784961 106.1557918  89.6940089  67.0010843 105.7268914  89.4038936
  72.9119110  98.7109694  81.9400613  73.0335021  97.7826340  82.1391501
  72.6221152  98.7248380  81.0278928  75.7810300  96.3964604  85.0767333
  75.8031997  96.4603937  84.1219312  76.1978359  95.5569113  85.2707839
  86.1593925 106.1319864  83.1146555  86.6025071 105.3827189  82.7165679
  85.2820435 106.1230000  82.7320287  81.2929706 112.6850205  78.5953154
  81.9880610 113.3056898  78.8140469  81.6352856 111.8345557  78.8705532
  66.9097515 104.5068006  92.4549971  66.1679251 104.6550642  93.0414602
  66.5890259 104.7676272  91.5916721  83.1921129 110.1349911  80.1240485
  83.7172453 110.4737184  79.3989805  83.1043482 109.1996926  79.9403619
  74.8541178 114.0483985  92.2530361  75.1628304 113.8033131  93.1253061
  75.6516660 114.2530623  91.7649232  74.8761790 116.2021894  84.4835738
  74.4366780 115.7098273  85.1768595  75.6269907 115.6594862  84.2427813
  67.3554129 112.3933435  84.4860366  68.1812149 112.0937207  84.1059010
  67.0048181 111.6241057  84.9350155  72.3235662 111.7459903  86.5558040
  71.7015671 111.0830608  86.2560267  72.9940529 111.7721035  85.8731687
  65.5562734 110.3119761  85.4449300  64.7194642 109.8841936  85.2633301
  65.5286379 110.5052205  86.3820091  72.3960189 100.2241691  96.1490546
  72.4448345 101.1003814  95.7668315  72.9382704  99.6819084  95.5762189
  83.0012910 107.6175281  92.7424411  83.0510915 107.4525288  93.6839934
  82.8926833 106.7502540  92.3522292  71.8849169 110.2963827  80.0316500
  72.0337289 110.9799291  79.3783173  72.6915612 110.2768917  80.5465956
  80.2916672 103.6006209  94.0583718  81.1926535 103.4612674  93.7667716
  80.3664647 103.7660664  94.9981895  74.6259478 100.9773064  92.9036904
  73.7562787 101.2706630  92.6319493  74.8618958 101.5613509  93.6244168
  85.7026789 107.6025102  85.5069003  86.5373681 108.0414906  85.6706563
  85.8385918 107.1263755  84.6877249  82.7518295 105.1604837  91.4546491
  83.2272417 105.3532483  90.6465342  81.8283861 105.2164023  91.2089874
  69.6401802 106.3229004  81.0377569  69.3947844 105.4191334  81.2357779
  69.8097716 106.3246155  80.0957047  77.3298512  97.1952681  90.4202325
  77.8480455  97.9313708  90.0948813  76.9753644  97.5016674  91.2549084
  68.9097449 102.0557362  78.5363731  68.2166694 102.1301717  77.8803766
  68.6649201 101.2917705  79.0585247  77.5811106  93.6152963  85.9403221
  77.8612860  92.9476152  86.5663648  78.3661713  93.8082059  85.4277885
  75.3844574 112.7911957  77.5028248  74.8118541 113.4102144  77.0498719
  75.9577368 113.3411319  78.0368170  81.4519964 102.0370597  89.6874796
  82.4037387 102.1368695  89.7087020  81.2823415 101.2448866  90.1972881
  79.4734344  99.1226180  89.8734197  78.8784276  99.4031193  89.1780686
  79.1884040  99.6120081  90.6450938  78.6041834 113.0749107  78.6336830
  79.5372507 113.0094669  78.8369705  78.5165047 113.9105374  78.1751363
  81.2329851 112.3914977  75.5940777  81.1543482 112.0574841  76.4876535
  82.0539518 112.8836745  75.5932250  83.9308042 105.2576717  88.8017096
  83.8984362 104.3192718  88.9876780  84.5408666 105.3360754  88.0682921
  75.7691373 104.1272770  74.8444300  76.7150478 103.9978978  74.9132718
  75.3905618 103.3887432  75.3213728  84.0802530 102.0487760  88.8475379
  83.5641579 101.2646217  88.6605308  84.9642479 101.7206477  89.0121899
  81.7413257  95.7928776  84.8071192  81.5438078  95.4843864  85.6914524
  82.3512963  96.5190415  84.9369122  89.7484592 106.3192724  87.9423133
  90.4787980 106.0578012  88.5030836  89.1391537 105.5821446  87.9825201
  87.8299889 104.4600586  88.5397584  87.1033052 104.3256551  87.9314076
  87.4147176 104.7677415  89.3454302  73.9534290 102.0522746  74.7799185
  73.0465745 101.7555859  74.8561899  74.2310271 101.7552564  73.9133472
  64.8712230 103.3729110  85.2298232  64.5515015 102.5194418  84.9372606
  64.3245659 103.5877688  85.9856199  68.6492138 106.0891551  88.9467738
  68.8678148 107.0208658  88.9655772  69.0617912 105.7299525  89.7322542
  75.5696356  96.5959636  80.9343427  74.7597084  96.2506721  81.3098673
  76.2580773  96.2867180  81.5231038  77.4986904  95.6737683  82.5567723
  78.0517943  96.0933136  83.2157746  77.7356990  94.7473431  82.5990679
  73.5220003 101.6624756  98.3370487  73.4216730 102.6119113  98.2682578
  73.3041545 101.3342995  97.4646557  72.7233075  98.9109681  74.9211164
  73.5852239  99.2364580  75.1806982  72.9083419  98.1241177  74.4084230
  64.7400490 106.9932021  87.1991353  64.0463962 106.5785974  86.6861308
  65.4873481 107.0352558  86.6024772  80.8765711  97.7838208  82.0646387
  80.2964380  98.4423012  81.6824440  80.6101644  96.9615552  81.6533805
  79.3269277  97.1843266  84.2667708  79.8269056  97.2959800  83.4582027
  79.9704885  96.8804318  84.9068516  73.3851273 105.0921895  97.1535549
  72.9018355 105.8922255  97.3599438  73.4712212 105.1029840  96.2002993
  66.6537233 106.9250275  85.0757368  66.6307921 107.0237962  84.1239251
  66.9637869 107.7715426  85.3974534  69.3124611 108.9826430  89.1903983
  70.2667864 108.9510372  89.1233914  69.1137134 108.5217054  90.0054208
  69.9023993 107.5527546  91.7574780  70.7216882 108.0471625  91.7809618
  70.1760801 106.6359514  91.7292348  79.6590589  99.9438298  81.1202736
  78.7716444 100.2287949  80.9022931  80.0744578  99.7832062  80.2730013
  83.0105125  99.9684819  84.8357075  83.7865515 100.4581272  85.1081692
  82.2853259 100.3942873  85.2928944  85.4477684 100.6812438  85.8931016
  86.0422175 100.4408174  85.1824324  85.5204268  99.9619569  86.5204552
  67.6674840 114.5246049  86.2074180  67.5329307 113.7646450  85.6412178
  67.2506902 115.2486949  85.7402969  78.8033803 109.7082973  75.2150756
  79.5069653 109.9132975  75.8308411  78.0796451 110.2759735  75.4799839
  79.6331613 105.4592834  81.3353026  79.5766814 105.9161386  80.4960658
  80.1859955 104.6983519  81.1575869  83.4436419 101.2482566  82.1603145
  83.1873353 100.8479202  82.9911353  82.8189287 101.9626360  82.0353285
  87.7548757 103.9878639  84.6674437  87.1948315 104.0571829  85.4405999
  87.1492260 103.8119624  83.9473933  70.8243965 115.4215366  86.4192623
  70.7076350 116.3660799  86.3171313  70.0036412 115.1188928  86.8078422
  80.7120500 110.1465502  77.2649216  81.5466104 109.7146701  77.0826691
  80.5504843 109.9747516  78.1926110  80.3666392 106.6497615  78.6305555
  80.3115196 106.4841887  77.6893999  79.7412447 107.3573648  78.7867745
  65.1558907 101.8865680  92.4566977  65.8017771 101.3764634  92.9454202
  64.9476058 102.6234361  93.0310403  73.6762518  96.1505724  78.2090873
  73.6641187  97.0947564  78.3659144  74.5685939  95.9675870  77.9150335
  71.8498480 116.0743628  89.6348552  72.7525726 116.1067239  89.9515046
  71.6235850 115.1444079  89.6494887  73.6052082 114.8274615  86.2958630
  72.6547713 114.8276476  86.1823002  73.9084568 114.0807349  85.7794665
  77.4914637  92.7448501  82.4636810  76.7247033  92.1906988  82.6093493
  77.9025342  92.8170370  83.3250962  69.4956398  99.0333297  96.5541992
  70.3587860  98.6770102  96.7645316  68.9221809  98.6947192  97.2417396
  82.0081297 122.4698058  83.2862808  81.4446162 122.3787995  82.5179096
  81.8933692 121.6497962  83.7665301  81.5136483 123.2258163  78.9964407
  82.2867359 122.6787150  78.8577283  81.8661882 124.0902412  79.2078869
  83.8502761 119.3850829  76.6282857  84.1028281 118.8632350  75.8666320
  82.9127320 119.2216974  76.7309541  88.8946044 118.3886607  84.4357601
  89.6809133 117.9706030  84.0848018  89.1584748 119.2932699  84.6039249
  83.5699049 121.2878935  78.8307232  83.4535308 120.6123838  79.4988317
  83.6801309 120.8011309  78.0139385  85.9130590 120.7489082  82.5353922
  85.5488798 120.2219703  83.2466843  86.7697706 120.3587551  82.3620407
  85.5536077 115.7778981  77.5315270  85.7210480 116.6459218  77.8985741
  85.3633246 115.9406263  76.6076559  81.7623892 120.6909757  85.2317805
  80.8374388 120.5585971  85.4395497  82.0108305 121.4703976  85.7287747
  85.5325298 118.2336639  78.5161937  85.4124923 118.6793690  79.3547417
  84.8377887 118.5821957  77.9575475  79.1232703 120.3343031  86.0661594
  79.2525084 120.5877510  86.9801006  78.4430154 120.9270739  85.7466249
  91.2310364 118.7058112  79.3442271  92.1428220 118.9385499  79.1689968
  90.7220011 119.2895156  78.7817350  88.5746339 114.8816148  87.5932132
  87.7130818 115.1797402  87.8848869  88.6008774 115.0986547  86.6613164
  85.3907909 123.4258339  84.0005937  85.8546254 123.7046042  83.2110560
  85.1264707 122.5241783  83.8179028  84.3276795 119.5481491  80.8095503
  85.0300838 120.0002535  81.2769429  83.9957423 118.9065310  81.4375396
  78.0702129 117.8065044  86.1112636  77.2801183 118.0622572  85.6352747
  78.5613376 118.6213382  86.2164677  80.0216874 118.1709623  83.0696113
  79.2248037 118.2828317  83.5879609  79.7942466 118.5096275  82.2037003
  76.3539832 118.0595534  88.5427627  76.6047870 118.9442544  88.8085203
  76.8899380 117.8800136  87.7702719  79.0199957 123.8797872  81.4585533
  79.5324477 124.6741122  81.6091098  79.6722669 123.1824162  81.3919134
  88.9163023 109.8852996  89.4156501  88.5727292 110.7754637  89.3395612
  89.2841985 109.6954653  88.5526086  76.9848873 122.2086526  82.2345103
  77.8224095 122.6183534  82.0178811  77.1627141 121.2685968  82.2045297
  88.8813306 119.8761607  77.9228936  88.3659929 120.6466211  78.1617324
  88.6090614 119.2026743  78.5461998  86.4660417 114.7211307  82.9814175
  85.6102013 114.3318158  82.8019814  86.8787368 114.8003268  82.1213960
  87.9959563 112.2557651  87.3805735  87.4924359 112.2187786  86.5673540
  88.2890170 113.1650393  87.4402391  84.2402449 112.3396380  86.3871916
  85.1055446 112.1439189  86.0277806  84.3079958 112.1106732  87.3141273
  88.6699609 117.7488699  79.7488718  88.3649744 118.0634848  80.5998861
  89.6230051 117.8270119  79.7916051  81.8464768 114.5698588  83.7588283
  82.4208520 114.3473770  83.0261476  82.4335751 114.6387283  84.5116884
  82.1734355 116.6003049  77.7784168  81.3371668 116.9377736  78.0993443
  82.0339125 116.4652029  76.8411305  84.1487436 111.4439837  82.4863353
  83.4951848 111.1288854  81.8619967  84.1067910 110.8215578  83.2123175
  85.2598641 121.7259132  74.4016645  84.3525702 121.4948386  74.6007794
  85.7569673 120.9296752  74.5890626  88.1660224 119.3313186  81.9413680
  88.9132043 119.8434584  81.6320802  88.4351814 119.0097239  82.8018074
  86.4386874 121.8271727  78.9240635  85.5298093 121.5430760  79.0213104
  86.4681958 122.2470806  78.0643942  90.6139061 116.3670303  83.9232470
  89.8761818 115.8547689  84.2542712  90.8665835 115.9270684  83.1115747
  90.7150688 109.1446555  84.5174239  91.0209565 108.2843918  84.2300154
  91.4403293 109.7364175  84.3173233  77.0075045 119.5477241  82.9055837
  76.8099444 118.9546602  82.1806903  76.4521709 119.2429452  83.6231776
  84.9871768 119.4400348  85.0250430  85.0420378 118.4874184  84.9492907
  84.1762970 119.5959787  85.5091728  82.9264128 118.0577408  82.7840809
  82.1131994 118.3571578  83.1906001  83.4223122 117.6633096  83.5015291
  82.4178203 115.6295763  88.4002044  83.0577582 115.4884522  87.7025007
  81.5855733 115.3430276  88.0240646  79.5021270 119.0741275  80.5896789
  78.5718858 119.0125731  80.8066751  79.5978742 118.5517228  79.7933430
  79.4206819 115.5996088  83.1775031  79.6813637 116.5141421  83.0684191
  80.2423992 115.1320531  83.3271643  82.0472735 116.4450277  74.9782075
  81.1702202 116.3239078  74.6144322  82.5230489 115.6536355  74.7260964
  73.5674876 121.2327437  85.0723582  74.2545915 120.9189167  84.4844598
  73.4123004 122.1368801  84.7990834  78.3709598 116.1217633  89.5008606
  78.2867787 115.5143303  88.7659016  77.5492304 116.6126651  89.5018102
  88.5433312 114.6071197  84.8678801  89.0402011 113.8541159  84.5479871
  87.7720293 114.6435513  84.3022010  85.1268280 116.7488580  84.5950486
  84.7566068 116.1959620  85.2831391  85.6227373 116.1446713  84.0425486
  90.9852306 111.5740790  87.0158160  90.0715386 111.8045017  87.1840367
  91.4145408 111.6579234  87.8672192  73.1442852 119.3128030  87.3441049
  73.1826951 118.7791621  88.1378168  72.6383145 118.7863235  86.7252027
  80.5233614 114.1592570  90.8403592  80.5874941 115.0207401  90.4280989
  80.4600734 113.5466572  90.1075950  76.7751429 118.0392132  80.4194981
  77.0704870 117.1302810  80.3662035  75.8739465 118.0179871  80.0975983
  80.3045676 116.1148129  86.4022529  79.5832262 116.7284096  86.2630003
  81.0938932 116.6505893  86.3239175  78.5039271 115.7206230  80.5434306
  78.1751977 114.8403609  80.3609412  78.8578642 115.6653898  81.4310695
  81.6181094 116.0079200  80.9109784  81.9577167 116.5365121  80.1888392
  82.0653215 116.3459606  81.6868350  84.9641007 111.4765563  88.8140175
  85.7867076 111.0026041  88.6919065  85.2079070 112.2556046  89.3138861
  83.6049241 114.5053821  79.1103076  84.3257604 114.8835074  78.6066793
  82.9814545 115.2242698  79.2138054  87.7480364 115.2098970  80.0461409
  87.9643978 116.0923608  79.7450237  87.2674431 114.8185183  79.3167051
  82.4879585 118.1684683  86.6232153  82.3424166 118.4824986  87.5156435
  82.0104789 118.7869584  86.0703052  84.3475968 115.1587231  86.6713043
  84.3337537 114.2628325  86.3345341  85.0648396 115.1657895  87.3051329
  83.7512864 114.0401612  81.9400613  83.8728775 113.1118258  82.1391501
  83.4614907 114.0540298  81.0278928  86.6204055 111.7256522  85.0767333
  86.6425752 111.7895855  84.1219312  87.0372114 110.8861031  85.2707839
  78.1947883 127.7225353  84.4860366  79.0205903 127.4229125  84.1059010
  77.8441935 126.9532975  84.9350155  76.3956488 125.6411679  85.4449300
  75.5588397 125.2133853  85.2633301  76.3680134 125.8344122  86.3820091
  80.4795556 121.6520922  81.0377569  80.2341598 120.7483252  81.2357779
  80.6491471 121.6538072  80.0957047  79.7491204 117.3849279  78.5363731
  79.0560449 117.4593634  77.8803766  79.5042956 116.6209623  79.0585247
  88.4204860 108.9444881  85.9403221  88.7006614 108.2768070  86.5663648
  89.2055467 109.1373976  85.4277885  86.6085127 119.4564687  74.8444300
  87.5544232 119.3270896  74.9132718  86.2299372 118.7179349  75.3213728
  92.5807012 111.1220693  84.8071192  92.3831833 110.8135782  85.6914524
  93.1906717 111.8482332  84.9369122  84.7928044 117.3814664  74.7799185
  83.8859500 117.0847777  74.8561899  85.0704025 117.0844482  73.9133472
  75.7105985 118.7021027  85.2298232  75.3908769 117.8486335  84.9372606
  75.1639413 118.9169605  85.9856199  86.4090110 111.9251554  80.9343427
  85.5990838 111.5798639  81.3098673  87.0974527 111.6159097  81.5231038
  88.3380658 111.0029600  82.5567723  88.8911697 111.4225054  83.2157746
  88.5750745 110.0765348  82.5990679  83.5626829 114.2401599  74.9211164
  84.4245993 114.5656497  75.1806982  83.7477173 113.4533095  74.4084230
  75.5794245 122.3223939  87.1991353  74.8857716 121.9077892  86.6861308
  76.3267236 122.3644475  86.6024772  91.7159466 113.1130126  82.0646387
  91.1358135 113.7714930  81.6824440  91.4495398 112.2907470  81.6533805
  90.1663032 112.5135183  84.2667708  90.6662810 112.6251718  83.4582027
  90.8098640 112.2096236  84.9068516  77.4930987 122.2542193  85.0757368
  77.4701675 122.3529880  84.1239251  77.8031624 123.1007343  85.3974534
  90.4984344 115.2730216  81.1202736  89.6110199 115.5579867  80.9022931
  90.9138333 115.1123979  80.2730013  94.2830173 116.5774484  82.1603145
  94.0267107 116.1771119  82.9911353  93.6583041 117.2918278  82.0353285
  84.5156272 111.4797642  78.2090873  84.5034942 112.4239482  78.3659144
  85.4079694 111.2967787  77.9150335  88.3308392 108.0740419  82.4636810
  87.5640787 107.5198905  82.6093493  88.7419096 108.1462287  83.3250962
  24.3042249   5.6945770  74.0849699  24.9420659   5.5752517  73.3813039
  24.1863092   6.6426614  74.1437651  21.1131956   5.6473198  74.0211224
  20.7750467   5.5314263  73.1331759  21.9821724   5.2464363  74.0012230
  16.9718771   7.5008674  70.0108115  16.4083636   7.4098611  69.2424403
  16.8571166   6.6808579  70.4910607  21.5951739   6.8008050  79.9797429
  21.5840379   6.4060848  79.1077933  21.7572378   6.0674122  80.5731201
  14.5183203   8.9959866  72.8492335  15.3104495   8.6550691  72.4338635
  14.7579853   9.1054841  73.7694489  22.5518330  11.1679642  65.3222580
  21.9006310  11.7533722  64.9356594  23.3462693  11.6985837  65.3817617
  16.4773957   8.2568779  65.7209714  17.2504833   7.7097766  65.5822590
  16.8299356   9.1213028  65.9324175  18.3159000   9.5845161  78.9276613
  18.0248866  10.4890792  78.8123280  18.9515984   9.6261689  79.6420683
  19.2415207   6.9622010  75.5177973  19.8378779   6.7378032  74.8034936
  19.2990178   6.2206755  76.1203421  23.8583518   3.4197224  71.1602907
  24.6446607   3.0016647  70.8093324  24.1222222   4.3243316  71.3284556
  24.0293595   8.8570074  65.8591564  23.3939428   8.9304700  66.5712469
  23.6991002   9.4463673  65.1810643  29.2591945   3.3572457  72.0635886
  29.9917117   2.7871674  72.2973715  28.5031301   2.9694057  72.5042391
  18.5336524   6.3189551  65.5552539  18.4172782   5.6434455  66.2233623
  18.6438784   5.8321925  64.7384692  20.8768065   5.7799698  69.2599228
  20.5126272   5.2530319  69.9712150  21.7335181   5.3898167  69.0865714
  23.2748885   9.2706577  75.9226407  22.9749608  10.1731616  75.8142214
  22.9299944   9.0038760  76.7747560  26.6746029   1.7889117  73.6023844
  25.7662906   1.7204526  73.3082605  26.6233624   2.2661062  74.4305670
  18.2569665  16.0350897  68.8897375  18.1793694  16.9858722  68.9685855
  17.6531308  15.6896770  69.5472301  28.5407675  -0.0094445  75.3801718
  27.8982055   0.2838089  74.7341513  28.0362604  -0.1241524  76.1854915
  26.1947839   3.7368729  66.0687578  27.1065695   3.9696115  65.8935275
  25.6857486   4.3205773  65.5062656  19.0033267   6.0164216  81.1076709
  19.7447951   6.5549260  80.8311532  18.2970252   6.6430505  81.2648260
  24.4788606   8.1593356  79.7048870  24.8871962   7.7175767  78.9603503
  23.7565868   7.5845984  79.9583063  24.8017421   8.7194547  73.4601159
  24.1726283   8.8840261  72.7577227  24.4143083   9.1336157  74.2312123
  28.6806653   9.6548985  70.8145523  27.9957691  10.0347886  70.2642556
  28.7650502  10.2644312  71.5477471  25.9357585   7.3008944  77.4140866
  26.1474480   7.9440704  76.7375247  25.8887333   6.4671261  76.9462796
  20.3545383   8.4568955  70.7251244  20.8183728   8.7356658  69.9355867
  20.0902181   7.5552400  70.5424335  17.2469464   8.0040437  73.6631007
  17.8170821   8.4327705  73.0248492  17.8377576   7.7223021  74.3615193
  27.0503412  10.1780899  75.5863224  27.8720856   9.7761087  75.3045905
  27.0465815  10.0749134  76.5379339  20.8160016   9.7264943  77.7423934
  20.8804448  10.1885350  78.5782106  20.1070940   9.0962308  77.8706244
  35.1409406   6.5219648  71.9348195  34.3873114   5.9527046  71.7792200
  35.2756947   6.4882312  72.8818830  20.5308034  11.3933050  67.6102914
  20.3953708  12.2384586  68.0387762  21.0717846  11.5952328  66.8468848
  13.9837431   8.9108488  68.1830840  14.4961952   9.7051738  68.3336404
  14.6360144   8.2134779  68.1164441  15.7932316  12.0274245  70.2653593
  15.9698944  12.9492209  70.0774577  16.5889149  11.7132664  70.6947973
  22.1576510  12.0156617  81.7403257  21.7140364  11.2292995  81.4224161
  22.8193724  12.2035767  81.0747147  16.9163631  13.5452418  76.2663935
  17.4671056  13.4169482  75.4940929  16.0775107  13.8447307  75.9158828
  24.2557748  12.2959417  79.7684658  24.2376223  13.1168298  79.2764927
  25.1777668  12.1713492  79.9934799  20.7130802   9.8103546  80.6108166
  21.2459139   9.0491834  80.3807474  20.1844883   9.5177198  81.3532321
  23.8450780   4.9072223  64.6474243  23.3297403   5.6776828  64.8862630
  23.5728088   4.2337359  65.2707305  28.8185054   7.6604578  66.5827417
  28.0414497   7.3215737  66.1382579  29.4976535   7.6657201  65.9082382
  23.6337083   2.7799315  66.4734024  23.3287219   3.0945464  67.3244167
  24.5867525   2.8580735  66.5161357  22.0783515   8.9389539  68.1226978
  21.5504876   8.2042298  67.8100216  21.5771018   9.7164215  67.8766947
  27.0576361   7.1338559  73.2394025  26.4000035   7.8237820  73.3274153
  27.8616760   7.5234991  73.5828011  25.8681820   5.4882932  71.2897966
  26.3813701   6.1212924  71.7919676  26.5183044   4.8884127  70.9241326
  20.2236115   6.7569749  61.1261951  19.3163177   6.5259002  61.3253100
  20.7207147   5.9607368  61.3135933  23.1304194  15.4667256  64.0458637
  22.4565893  15.7698953  64.6543595  23.5170016  16.2696336  63.6964094
  22.3462651   2.9632387  73.5356307  21.4285212   3.1847334  73.3777995
  22.7622794   3.0378698  72.6768014  23.1297698   4.3623803  68.6658987
  23.8769517   4.8745200  68.3566109  23.3989288   4.0407856  69.5263381
  21.4024348   6.8582344  65.6485941  20.4935568   6.5741377  65.7458411
  21.4319432   7.2781422  64.7889248  26.6343616  10.4688933  69.4177109
  26.1805943   9.6279843  69.4742299  26.0037583  11.1050332  69.7551889
  25.5776535   1.3980919  70.6477776  24.8399292   0.8858305  70.9788019
  25.8303309   0.9581301  69.8361053  25.0776555  12.3065430  70.3526927
  25.3699530  12.8670487  69.6339293  25.5875176  12.5993991  71.1080086
  21.1000436   8.3991087  62.9874020  20.6619866   7.6826946  62.5279657
  21.8410877   8.6267202  62.4259111  20.0410180  13.0845781  71.4420380
  19.9986359  13.3106627  70.5128912  20.9572879  12.8509156  71.5906181
  23.4875814   3.5529849  78.3401009  23.8425202   3.7801322  79.1995475
  24.1347945   3.8848225  77.7178265  29.2173551   6.6748284  69.0450338
  29.0791450   6.8649880  68.1171528  28.8609770   7.4367667  69.5018390
  29.2442931   8.7424811  74.0561610  29.6779437   8.6500101  74.9044664
  29.9574511   8.7182312  73.4181626  18.1575981   9.9608810  71.2382343
  18.9516580   9.4659130  71.0364918  17.4467673   9.4326673  70.8750049
  22.9770826  12.3426906  75.5894711  23.0307848  12.9117842  76.3572426
  22.1085607  12.5128791  75.2248748  30.1058480   8.7848512  76.5894495
  30.2994370   9.6894323  76.8353770  30.0059098   8.3255931  77.4233080
  25.1673589   8.9355255  82.1635376  25.0159095   8.7065807  81.2465460
  25.1578268   9.8925856  82.1766721  21.9358925   6.5087168  77.1481642
  22.8650985   6.6598327  76.9750610  21.5149955   6.5971188  76.2930289
  20.7347257  10.5337832  74.9180180  20.5958343  10.1656616  75.7906118
  19.9461853  11.0485471  74.7464138  21.3295409  15.6346928  66.2605717
  21.5047165  15.1634972  67.0751339  20.6428197  16.2612695  66.4886977
  22.2852472   9.9119435  72.3069018  21.9502305   9.8720205  73.2026668
  21.7856418   9.2464151  71.8339428  25.2211664   7.2575469  62.5806078
  24.6040835   6.5322297  62.4839130  24.7528152   8.0184829  62.2373152
  18.8879017   5.0307024  77.3205279  19.5978635   4.3900216  77.2791897
  18.8448325   5.2819919  78.2431459  26.8765796  11.9674377  80.2411858
  26.8178342  11.2833598  79.5742441  27.2785314  12.7093367  79.7892484
  15.8956494  18.7836291  73.0345577  16.1353093  19.4154815  73.7124595
  15.0525691  18.4324331  73.3210936  26.8783203   9.9313961  78.4725838
  25.9909982   9.5939883  78.5952236  27.4481754   9.1996993  78.7094603
  20.4084356  14.5915414  75.4387081  20.3354528  15.3970385  75.9506385
  19.9661749  14.7907380  74.6135102  20.1974136  13.8287184  68.9489902
  19.4141658  14.3708864  69.0428127  20.8966881  14.3461163  69.3484143
  31.3600543   5.3422179  73.2342399  31.3490420   6.2246894  72.8636332
  30.4917923   4.9893730  73.0396936  22.8683040  14.4902248  77.5945239
  23.5811012  15.1249713  77.5221141  22.3773068  14.5866114  76.7785241
  24.5900567   8.3953500  69.1662531  23.6556845   8.5154963  68.9967235
  24.7677235   7.4925967  68.9022541  27.9773118   4.2370820  69.7012565
  28.4433570   5.0698811  69.6272868  28.4280619   3.7715801  70.4057824
  17.9194953  12.2396691  78.4150810  18.6204413  12.8733174  78.5680204
  17.4490068  12.5811423  77.6546449  26.0449349  10.5814641  66.6998717
  26.3209193  10.4671236  67.6092591  25.1753848  10.1832126  66.6610890
  25.7196239   4.7941299  76.2403361  25.0667689   5.0417206  75.5855813
  26.0976619   3.9805437  75.9065838  22.6803413  14.8300992  70.3431531
  22.8625808  14.0122648  70.8059283  23.5036399  15.0468684  69.9056421
  23.0145579  13.7569177  67.6046579  23.5433345  13.2461632  66.9916741
  23.2773798  13.4411707  68.4692112  21.7683812   5.5361110  82.7269398
  21.0924449   5.4355239  83.3971773  22.5911446   5.3800323  83.1905395
  13.5162671  11.7733046  75.3481913  14.1016108  11.0276734  75.4809817
  13.3187510  12.0837003  76.2318577  16.3701327  14.8084294  70.3644355
  15.7011702  15.2930421  69.8808395  16.2314196  15.0553514  71.2787734
  20.5106595  16.8428037  76.9627014  21.0624903  17.0059659  77.7276099
  20.8512789  17.4332475  76.2907038  25.3617469  11.6689295  82.8175668
  25.9057373  12.2819253  82.3230623  24.7804314  12.2268873  83.3342681
  23.6474982  14.7910013  73.9490696  23.5226122  13.9899753  73.4401641
  24.3054074  15.2856206  73.4604666  25.7109891  12.5919033  75.5770246
  24.7640226  12.4724384  75.5048573  26.0592664  11.7041531  75.6596507
  22.7156324  12.3871749  71.7774598  22.5681287  11.4588456  71.9582168
  23.5409818  12.4091840  71.2931673  26.3190446  13.2100308  72.8639471
  27.2436993  13.0043169  72.7263922  26.1505749  12.9616709  73.7728812
  26.1085762  13.7285975  68.2201562  26.2822640  13.1632398  67.4675415
  26.6014653  14.5286870  68.0381052  31.9625153   6.4922398  69.8391862
  32.4056299   5.7429723  69.4410985  31.0851664   6.4832534  69.4565594
  27.0960935  13.0452740  65.3198461  27.7911839  13.6659432  65.5385775
  27.4384085  12.1948091  65.5950838  28.9952358  10.4952445  66.8485791
  29.5203682  10.8339718  66.1235111  28.9074710   9.5599460  66.6648926
  20.6572406  14.4086519  78.9775668  20.9659533  14.1635665  79.8498368
  21.4547888  14.6133157  78.4894538  20.6793019  16.5624428  71.2081045
  20.2398009  16.0700807  71.9013901  21.4301135  16.0197396  70.9673120
  13.1585357  12.7535969  71.2105673  13.9843377  12.4539741  70.8304316
  12.8079409  11.9843592  71.6595461  18.1266891  12.1062437  73.2803346
  17.5046900  11.4433142  72.9805574  18.7971758  12.1323569  72.5976994
  28.6846264  11.1285349  82.1536989  27.8941808  11.1109488  81.6141489
  28.4479618  11.6673642  82.9086026  28.8044139   7.9777815  79.4669718
  28.8542144   7.8127823  80.4085241  28.6958062   7.1105074  79.0767599
  17.6880398  10.6566361  66.7561807  17.8368518  11.3401825  66.1028480
  18.4946841  10.6371451  67.2711263  26.0947901   3.9608743  80.7829025
  26.9957764   3.8215208  80.4913022  26.1695876   4.1263198  81.7227202
  30.3062336  10.3974757  79.7111739  30.0147144  10.7604737  80.5475200
  29.6934467   9.6841765  79.5325071  31.5058018   7.9627636  72.2314310
  32.3404909   8.4017440  72.3951870  31.6417147   7.4866290  71.4122555
  28.5549524   5.5207371  78.1791797  29.0303646   5.7135018  77.3710649
  27.6315089   5.5766557  77.9335181  21.1875803  13.1514491  64.2273554
  20.6149770  13.7704678  63.7744026  21.7608597  13.7013853  64.7613476
  27.2551193   2.3973131  76.4120103  28.2068616   2.4971229  76.4332327
  27.0854643   1.6051400  76.9218187  24.4073063  13.4351641  65.3582136
  25.3403736  13.3697203  65.5615012  24.3196276  14.2707908  64.8996669
  27.0361080  12.7517512  62.3186084  26.9574711  12.4177375  63.2121842
  27.8570746  13.2439280  62.3177556  29.7339271   5.6179251  75.5262403
  29.7015591   4.6795252  75.7122086  30.3439894   5.6963288  74.7928228
  21.5722602   4.4875304  61.5689607  22.5181706   4.3581512  61.6378025
  21.1936847   3.7489966  62.0459035  29.8833759   2.4090294  75.5720686
  29.3672808   1.6248751  75.3850615  30.7673708   2.0809011  75.7367205
  35.5515821   6.6795258  74.6668439  36.2819209   6.4180546  75.2276143
  34.9422766   5.9423980  74.7070507  33.6331118   4.8203120  75.2642891
  32.9064281   4.6859085  74.6559382  33.2178405   5.1279949  76.0699609
  21.4561294   8.5393050  83.0290264  22.3764304   8.7171649  83.2230310
  21.4210877   7.5949095  82.8769963  19.1882502   5.4524429  83.8780855
  18.7049584   6.2524789  84.0844744  19.2743441   5.4632374  82.9248299
  15.1155840   9.3428964  75.9149289  16.0699093   9.3112906  75.8479221
  14.9168363   8.8819588  76.7299515  15.7055222   7.9130080  78.4820087
  16.5248111   8.4074159  78.5054924  15.9792029   6.9962048  78.4537654
  28.8136354   0.3287353  71.5602382  29.5896744   0.8183806  71.8326998
  28.0884488   0.7545408  72.0174251  31.2508913   1.0414973  72.6176322
  31.8453403   0.8010709  71.9069630  31.3235496   0.3222103  73.2449859
  13.4706068  14.8848584  72.9319487  13.3360536  14.1248984  72.3657485
  13.0538131  15.6089483  72.4648276  24.6065031  10.0685507  61.9396062
  25.3100881  10.2735510  62.5553718  23.8827680  10.6362269  62.2045146
  25.4362842   5.8195368  68.0598333  25.3798043   6.2763920  67.2205965
  25.9891184   5.0586053  67.8821175  29.2467648   1.6085100  68.8848452
  28.9904582   1.2081736  69.7156660  28.6220516   2.3228894  68.7598591
  33.5579985   4.3481173  71.3919743  32.9979543   4.4174363  72.1651305
  32.9523489   4.1722158  70.6719240  16.6275194  15.7817901  73.1437930
  16.5107578  16.7263333  73.0416620  15.8067640  15.4791462  73.5323729
  26.5151729  10.5068036  63.9894522  27.3497333  10.0749235  63.8071997
  26.3536072  10.3350050  64.9171417  26.1697621   7.0100150  65.3550862
  26.1146425   6.8444421  64.4139306  25.5443676   7.7176183  65.5113051
  23.4843528   9.3149061  84.6804424  24.3534688   9.4889714  84.3191059
  23.0050280  10.1343478  84.5580154  17.6529708  16.4346162  76.3593858
  18.5556955  16.4669773  76.6760353  17.4267078  15.5046613  76.3740194
  19.4083310  15.1877149  73.0203937  18.4578941  15.1879011  72.9068309
  19.7115796  14.4409884  72.5039971  35.1436004  21.0237687  74.0849699
  35.7814414  20.9044435  73.3813039  35.0256847  21.9718531  74.1437651
  31.9525710  20.9765116  74.0211224  31.6144222  20.8606180  73.1331759
  32.8215478  20.5756281  74.0012230  27.8112526  22.8300592  70.0108115
  27.2477391  22.7390529  69.2424403  27.6964921  22.0100496  70.4910607
  32.4345493  22.1299967  79.9797429  32.4234134  21.7352766  79.1077933
  32.5966133  21.3966040  80.5731201  25.3576958  24.3251784  72.8492335
  26.1498250  23.9842608  72.4338635  25.5973608  24.4346759  73.7694489
  33.3912085  26.4971560  65.3222580  32.7400064  27.0825640  64.9356594
  34.1856447  27.0277755  65.3817617  27.3167712  23.5860697  65.7209714
  28.0898588  23.0389684  65.5822590  27.6693111  24.4504946  65.9324175
  29.1552754  24.9137079  78.9276613  28.8642620  25.8182710  78.8123280
  29.7909739  24.9553607  79.6420683  30.0808961  22.2913928  75.5177973
  30.6772533  22.0669950  74.8034936  30.1383933  21.5498673  76.1203421
  29.6533990  19.7453363  63.3528164  29.9059510  19.2234884  62.5911627
  28.7158549  19.5819508  63.4554848  34.6977272  18.7489141  71.1602907
  35.4840362  18.3308564  70.8093324  34.9615977  19.6535233  71.3284556
  34.8687350  24.1861992  65.8591564  34.2333183  24.2596618  66.5712469
  34.5384756  24.7755590  65.1810643  40.0985699  18.6864374  72.0635886
  40.8310871  18.1163591  72.2973715  39.3425055  18.2985975  72.5042391
  29.3730278  21.6481469  65.5552539  29.2566536  20.9726372  66.2233623
  29.4832538  21.1613843  64.7384692  31.7161819  21.1091616  69.2599228
  31.3520026  20.5822237  69.9712150  32.5728935  20.7190085  69.0865714
  37.6211120  12.3985949  76.5230494  37.2894445  13.2681360  76.2991709
  37.0256733  12.0822233  77.2024525  31.3567306  16.1381516  64.2560577
  31.5241709  17.0061752  64.6231048  31.1664475  16.3008797  63.3321866
  34.1142639  24.5998495  75.9226407  33.8143362  25.5023533  75.8142214
  33.7693699  24.3330678  76.7747560  27.5655121  21.0512291  71.9563111
  26.6405617  20.9188506  72.1640803  27.8139534  21.8306511  72.4533054
  37.5139783  17.1181035  73.6023844  36.6056660  17.0496443  73.3082605
  37.4627379  17.5952980  74.4305670  31.3356527  18.5939173  65.2407244
  31.2156152  19.0396224  66.0792724  30.6409115  18.9424491  64.6820782
  24.9263932  20.6945565  72.7906901  25.0556313  20.9480044  73.7046312
  24.2461383  21.2873273  72.4711556  29.0963419  31.3642815  68.8897375
  29.0187449  32.3150640  68.9685855  28.4925063  31.0188687  69.5472301
  31.5880649  18.5370680  81.5458742  30.8113983  19.0964600  81.5361606
  32.2271212  19.0227463  82.0673612  39.3801430  15.3197473  75.3801718
  38.7375810  15.6130006  74.7341513  38.8756358  15.2050393  76.1854915
  37.0341593  19.0660646  66.0687578  37.9459449  19.2988033  65.8935275
  36.5251240  19.6497691  65.5062656  29.8427021  21.3456134  81.1076709
  30.5841706  21.8841178  80.8311532  29.1364007  21.9722422  81.2648260
  35.3182361  23.4885274  79.7048870  35.7265717  23.0467685  78.9603503
  34.5959622  22.9137902  79.9583063  31.6713431  18.4257881  77.0782427
  32.5174626  18.8497294  77.2217076  31.6112069  17.7691505  77.7720990
  35.6411175  24.0486465  73.4601159  35.0120038  24.2132179  72.7577227
  35.2536838  24.4628074  74.2312123  39.5200407  24.9840903  70.8145523
  38.8351446  25.3639804  70.2642556  39.6044257  25.5936229  71.5477471
  34.8212876  16.0862249  78.7363601  34.5773808  16.8404310  78.1997876
  35.0972807  16.4647597  79.5710848  36.7751339  22.6300862  77.4140866
  36.9868234  23.2732622  76.7375247  36.7281087  21.7963178  76.9462796
  34.3777568  15.2418682  74.3177438  33.5162047  15.5399936  74.6094176
  34.4040003  15.4589081  73.3858471  31.1939137  23.7860873  70.7251244
  31.6577483  24.0648576  69.9355867  30.9295935  22.8844317  70.5424335
  28.0863218  23.3332354  73.6631007  28.6564576  23.7619623  73.0248492
  28.6771330  23.0514939  74.3615193  30.1308023  19.9084025  67.5340809
  30.8332067  20.3605069  68.0014736  29.7988652  19.2667844  68.1620702
  28.5788385  18.4995782  81.9092019  27.9487046  19.1812063  82.1427415
  28.4724473  18.3878863  80.9645157  23.8733357  18.1667578  72.8357943
  23.0832411  18.4225106  72.3598053  24.3644605  18.9815916  72.9409983
  37.8897167  25.5072817  75.5863224  38.7114611  25.1053004  75.3045905
  37.8859570  25.4041051  76.5379339  25.8248103  18.5312157  69.7941420
  25.0279266  18.6430851  70.3124915  25.5973695  18.8698809  68.9282310
  31.6553770  25.0556860  77.7423934  31.7198203  25.5177268  78.5782106
  30.9464694  24.4254225  77.8706244  22.1571060  18.4198068  75.2672934
  22.4079099  19.3045078  75.5330510  22.6930609  18.2402670  74.4948025
  45.9803160  21.8511566  71.9348195  45.2266868  21.2818964  71.7792200
  46.1150701  21.8174230  72.8818830  31.3701788  26.7224968  67.6102914
  31.2347463  27.5676504  68.0387762  31.9111601  26.9244246  66.8468848
  27.8569128  12.8016548  84.2717270  27.4636073  12.2482746  84.9464914
  28.6735268  13.1127126  84.6623787  24.8231185  24.2400406  68.1830840
  25.3355706  25.0343656  68.3336404  25.4753898  23.5426696  68.1164441
  26.6326070  27.3566162  70.2653593  26.8092698  28.2784127  70.0774577
  27.4282904  27.0424581  70.6947973  30.7737089  14.2174427  81.8637526
  31.5146802  14.8181580  81.7841989  31.0055012  13.4752065  81.3055569
  25.9178427  19.4030794  80.1415756  25.8031942  18.5016051  80.4422855
  25.0622944  19.6494491  79.7900572  32.9970264  27.3448534  81.7403257
  32.5534119  26.5584913  81.4224161  33.6587478  27.5327685  81.0747147
  27.7557386  28.8744336  76.2663935  28.3064811  28.7461399  75.4940929
  26.9168862  29.1739225  75.9158828  35.0951502  27.6251334  79.7684658
  35.0769978  28.4460215  79.2764927  36.0171423  27.5005410  79.9934799
  31.5524557  25.1395464  80.6108166  32.0852893  24.3783752  80.3807474
  31.0238638  24.8469116  81.3532321  34.7194252  10.2455530  76.1401808
  34.3758521  11.1357171  76.0640919  35.0873214  10.0557187  75.2771393
  22.7880102  22.5689060  68.9590410  23.6255324  22.9786069  68.7424118
  22.9658370  21.6288502  68.9290604  34.6844534  20.2364141  64.6474243
  34.1691158  21.0068745  64.8862630  34.4121843  19.5629277  65.2707305
  32.2691645  15.0813842  69.7059481  31.4133242  14.6920692  69.5265120
  32.6818597  15.1605802  68.8459267  33.7990792  12.6160185  74.1051041
  33.2955588  12.5790320  73.2918846  34.0921399  13.5252928  74.1647698
  30.0433678  12.6998915  73.1117223  30.9086675  12.5041723  72.7523112
  30.1111187  12.4709266  74.0386580  39.6578808  22.9896496  66.5827417
  38.8808251  22.6507655  66.1382579  40.3370289  22.9949119  65.9082382
  34.4730838  18.1091233  66.4734024  34.1680973  18.4237382  67.3244167
  35.4261280  18.1872653  66.5161357  32.9177269  24.2681456  68.1226978
  32.3898631  23.5334216  67.8100216  32.4164772  25.0456133  67.8766947
  37.8970115  22.4630477  73.2394025  37.2393790  23.1529738  73.3274153
  38.7010515  22.8526909  73.5828011  27.6495997  14.9301123  70.4833590
  28.2239749  14.7076304  69.7506783  28.2366979  14.9989817  71.2362191
  36.7075574  20.8174849  71.2897966  37.2207456  21.4504841  71.7919676
  37.3576798  20.2176045  70.9241326  27.9765584  16.9605584  64.5029475
  27.1402896  17.2980270  64.8238750  27.8370354  16.8254563  63.5656612
  29.9518665  11.8042371  69.2108659  29.2983077  11.4891389  68.5865274
  29.9099139  11.1818112  69.9368482  31.0629870  22.0861667  61.1261951
  30.1556931  21.8550920  61.3253100  31.5600902  21.2899286  61.3135933
  33.9697948  30.7959174  64.0458637  33.2959647  31.0990870  64.6543595
  34.3563770  31.5988254  63.6964094  33.1856405  18.2924305  73.5356307
  32.2678966  18.5139252  73.3777995  33.6016549  18.3670615  72.6768014
  33.9691453  19.6915721  68.6658987  34.7163272  20.2037118  68.3566109
  34.2383042  19.3699773  69.5263381  32.2418103  22.1874261  65.6485941
  31.3329322  21.9033294  65.7458411  32.2713187  22.6073340  64.7889248
  37.4737370  25.7980851  69.4177109  37.0199697  24.9571761  69.4742299
  36.8431337  26.4342249  69.7551889  36.4170290  16.7272837  70.6477776
  35.6793047  16.2150223  70.9788019  36.6697063  16.2873219  69.8361053
  35.9170310  27.6357348  70.3526927  36.2093284  28.1962405  69.6339293
  36.4268930  27.9285909  71.1080086  36.5181917   9.5049089  71.2419546
  36.8240794   8.6446452  70.9545461  37.2434522  10.0966709  71.0418540
  22.8106273  19.9079776  69.6301144  22.6130673  19.3149136  68.9052210
  22.2552937  19.6031986  70.3477082  30.7902997  19.8002882  71.7495737
  30.8451607  18.8476718  71.6738213  29.9794199  19.9562321  72.2337035
  31.9394191  23.7283005  62.9874020  31.5013621  23.0118864  62.5279657
  32.6804632  23.9559120  62.4259111  28.7295357  18.4179942  69.5086116
  27.9163222  18.7174112  69.9151308  29.2254351  18.0235631  70.2260598
  30.8803935  28.4137699  71.4420380  30.8380114  28.6398545  70.5128912
  31.7966634  28.1801073  71.5906181  34.3269569  18.8821766  78.3401009
  34.6818956  19.1093239  79.1995475  34.9741700  19.2140143  77.7178265
  40.0567306  22.0040202  69.0450338  39.9185204  22.1941798  68.1171528
  39.7003524  22.7659585  69.5018390  28.2209432  15.9898297  75.1247351
  28.8608811  15.8487056  74.4270314  27.3886962  15.7032811  74.7485953
  40.0836685  24.0716729  74.0561610  40.5173192  23.9792018  74.9044664
  40.7968266  24.0474230  73.4181626  28.9969736  25.2900728  71.2382343
  29.7910334  24.7951048  71.0364918  28.2861428  24.7618591  70.8750049
  33.8164580  27.6718823  75.5894711  33.8701602  28.2409760  76.3572426
  32.9479361  27.8420708  75.2248748  25.3052499  19.4343809  67.3142096
  24.3750087  19.3728265  67.5312058  25.4009971  18.9119762  66.5178737
  25.2238048  15.9598622  69.9020337  25.4844865  16.8743956  69.7929498
  26.0455220  15.4923065  70.0516950  26.6962973  17.3736379  77.0719162
  27.3686027  17.1653742  76.4231811  25.8692760  17.1758465  76.6324394
  40.9452235  24.1140430  76.5894495  41.1388125  25.0186240  76.8353770
  40.8452853  23.6547849  77.4233080  32.5988545  13.9998320  79.0884823
  31.9516461  14.6988270  78.9949299  33.3689561  14.4334464  79.4561071
  36.0067343  24.2647173  82.1635376  35.8552850  24.0357724  81.2465460
  35.9972023  25.2217774  82.1766721  32.7752680  21.8379085  77.1481642
  33.7044740  21.9890245  76.9750610  32.3543710  21.9263106  76.2930289
  31.5741012  25.8629750  74.9180180  31.4352097  25.4948534  75.7906118
  30.7855608  26.3777389  74.7464138  32.1689164  30.9638846  66.2605717
  32.3440919  30.4926889  67.0751339  31.4821952  31.5904612  66.4886977
  33.1246227  25.2411352  72.3069018  32.7896059  25.2012122  73.2026668
  32.6250172  24.5756068  71.8339428  27.0990471  20.6478982  77.8321599
  26.9610269  19.9159221  78.4333138  28.0095394  20.5587883  77.5505787
  36.0605418  22.5867387  62.5806078  35.4434589  21.8614215  62.4839130
  35.5921907  23.3476747  62.2373152  29.7272771  20.3598942  77.3205279
  30.4372390  19.7192134  77.2791897  29.6842080  20.6111837  78.2431459
  37.7159550  27.2966295  80.2411858  37.6572096  26.6125515  79.5742441
  38.1179068  28.0385285  79.7892484  28.4401705  17.3464160  79.1400918
  27.9039062  16.8954898  79.7922514  27.8518414  17.4810068  78.3971382
  26.7350249  34.1128209  73.0345577  26.9746847  34.7446733  73.7124595
  25.8919445  33.7616249  73.3210936  27.8503964  16.8052811  61.7027382
  26.9733431  16.6841612  61.3389628  28.3261717  16.0138889  61.4506270
  37.7176957  25.2605879  78.4725838  36.8303736  24.9231801  78.5952236
  38.2875508  24.5288910  78.7094603  19.3706104  21.5929971  71.7968889
  20.0577144  21.2791701  71.2089904  19.2154233  22.4971335  71.5236140
  24.1740827  16.4820167  76.2253913  24.0899015  15.8745837  75.4904323
  23.3523533  16.9729186  76.2263409  31.2478111  29.9207331  75.4387081
  31.1748282  30.7262303  75.9506385  30.8055504  30.1199297  74.6135102
  31.0367890  29.1579101  68.9489902  30.2535412  29.7000782  69.0428127
  31.7360636  29.6753081  69.3484143  34.3464540  14.9673731  71.5924108
  34.8433240  14.2143693  71.2725178  33.5751522  15.0038048  71.0267317
  42.1994298  20.6714096  73.2342399  42.1884174  21.5538812  72.8636332
  41.3311677  20.3185647  73.0396936  33.7076794  29.8194165  77.5945239
  34.4204766  30.4541630  77.5221141  33.2166823  29.9158031  76.7785241
  35.4294321  23.7245418  69.1662531  34.4950600  23.8446881  68.9967235
  35.6070990  22.8217885  68.9022541  30.9299509  17.1091114  71.3195792
  30.5597297  16.5562154  72.0076698  31.4258602  16.5049247  70.7670792
  38.8166872  19.5662737  69.7012565  39.2827325  20.3990729  69.6272868
  39.2674373  19.1007719  70.4057824  28.7588708  27.5688609  78.4150810
  29.4598167  28.2025092  78.5680204  28.2883823  27.9103340  77.6546449
  36.8843104  25.9106559  66.6998717  37.1602947  25.7963153  67.6092591
  36.0147602  25.5124043  66.6610890  36.7883535  11.9343324  73.7403467
  35.8746615  12.1647551  73.9085673  37.2176637  12.0181768  74.5917499
  36.5589994  20.1233216  76.2403361  35.9061444  20.3709124  75.5855813
  36.9370374  19.3097354  75.9065838  33.5197168  30.1592909  70.3431531
  33.7019562  29.3414565  70.8059283  34.3430154  30.3760602  69.9056421
  33.8539333  29.0861095  67.6046579  34.3827100  28.5753549  66.9916741
  34.1167553  28.7703625  68.4692112  32.6077567  20.8653027  82.7269398
  31.9318204  20.7647157  83.3971773  33.4305201  20.7092241  83.1905395
  24.3556426  27.1024964  75.3481913  24.9409863  26.3568652  75.4809817
  24.1581264  27.4128921  76.2318577  27.2095081  30.1376211  70.3644355
  26.5405456  30.6222339  69.8808395  27.0707951  30.3845432  71.2787734
  18.9474081  19.6730564  74.0686356  18.9858180  19.1394155  74.8623474
  18.4414373  19.1465770  73.4497333  31.3500350  32.1719955  76.9627014
  31.9018658  32.3351576  77.7276099  31.6906543  32.7624393  76.2907038
  26.3264843  14.5195105  77.5648898  26.3906169  15.3809936  77.1526296
  26.2631963  13.9069106  76.8321257  25.8017115  16.5918237  81.2121933
  26.4289154  16.2095314  81.8259457  24.9445034  16.3732439  81.5777625
  36.2011224  26.9981212  82.8175668  36.7451128  27.6111171  82.3230623
  35.6198069  27.5560791  83.3342681  22.5782658  18.3994666  67.1440287
  22.8736099  17.4905345  67.0907341  21.6770694  18.3782406  66.8221290
  34.4868737  30.1201930  73.9490696  34.3619876  29.3191670  73.4401641
  35.1447828  30.6148124  73.4604666  26.1076905  16.4750663  73.1267836
  25.3863491  17.0886631  72.9875309  26.8970161  17.0108428  73.0484482
  36.5503645  27.9210950  75.5770246  35.6033981  27.8016302  75.5048573
  36.8986418  27.0333448  75.6596507  28.9103219  13.8105089  79.4008488
  29.4337620  14.0567386  80.1634797  28.6915552  14.6425124  78.9811625
  24.3070500  16.0808764  67.2679613  23.9783206  15.2006143  67.0854719
  24.6609870  16.0256433  68.1556002  33.5550079  27.7163667  71.7774598
  33.4075041  26.7880374  71.9582168  34.3803572  27.7383757  71.2931673
  27.4212323  16.3681734  67.6355090  27.7608395  16.8967655  66.9133699
  27.8684443  16.7062140  68.4113657  37.1584200  28.5392225  72.8639471
  38.0830748  28.3335087  72.7263922  36.9899504  28.2908627  73.7728812
  30.1155764  14.7518784  77.0858158  29.7752584  13.9526598  77.4878838
  29.4094770  15.0520495  76.5134992  30.7672236  11.8368097  75.5385481
  31.5898305  11.3628575  75.4164372  31.0110299  12.6158581  76.0384168
  29.4080470  14.8656355  65.8348383  30.1288833  15.2437608  65.3312100
  28.7845774  15.5845232  65.9383361  33.5511593  15.5701504  66.7706715
  33.7675207  16.4526142  66.4695544  33.0705660  15.1787718  66.0412357
  28.2910814  18.5287218  73.3477460  28.1455395  18.8427521  74.2401741
  27.8136018  19.1472118  72.7948359  30.1507197  15.5189765  73.3958350
  30.1368766  14.6230859  73.0590647  30.8679625  15.5260429  74.0296636
  32.0033328  15.9527106  75.4411477  31.7451106  16.8744176  75.4395807
  31.4718368  15.5557540  76.1311941  36.9479517  29.0577893  68.2201562
  37.1216394  28.4924315  67.4675415  37.4408408  29.8578788  68.0381052
  22.7656476  21.0692562  76.2865121  22.2209945  21.8452370  76.4185395
  23.6435826  21.4163366  76.1284243  29.5544093  14.4004146  68.6645920
  29.6760004  13.4720792  68.8636807  29.2646135  14.4142832  67.7524235
  32.4235283  12.0859056  71.8012639  32.4456980  12.1498389  70.8464619
  32.8403343  11.2463565  71.9953146  42.8018908  21.8214316  69.8391862
  43.2450054  21.0721641  69.4410985  41.9245418  21.8124452  69.4565594
  37.9354689  28.3744657  65.3198461  38.6305594  28.9951350  65.5385775
  38.2777839  27.5240008  65.5950838  23.5522498  20.1962458  79.1795278
  22.8104234  20.3445094  79.7659908  23.2315243  20.4570724  78.3162027
  39.8346112  25.8244363  66.8485791  40.3597436  26.1631636  66.1235111
  39.7468465  24.8891378  66.6648926  31.4966161  29.7378436  78.9775668
  31.8053287  29.4927583  79.8498368  32.2941643  29.9425075  78.4894538
  31.5186773  31.8916346  71.2081045  31.0791763  31.3992725  71.9013901
  32.2694890  31.3489314  70.9673120  23.9979112  28.0827887  71.2105673
  24.8237132  27.7831659  70.8304316  23.6473164  27.3135509  71.6595461
  28.9660645  27.4354355  73.2803346  28.3440654  26.7725060  72.9805574
  29.6365512  27.4615487  72.5976994  22.1987717  26.0014213  72.1694606
  21.3619625  25.5736388  71.9878607  22.1711362  26.1946657  73.1065397
  29.0385173  15.9136143  82.8735852  29.0873328  16.7898266  82.4913622
  29.5807687  15.3713536  82.3007495  39.5240018  26.4577266  82.1536989
  38.7335562  26.4401405  81.6141489  39.2873373  26.9965560  82.9086026
  39.6437893  23.3069733  79.4669718  39.6935898  23.1419740  80.4085241
  39.5351817  22.4396992  79.0767599  28.5274152  25.9858278  66.7561807
  28.6762272  26.6693743  66.1028480  29.3340596  25.9663369  67.2711263
  36.9341656  19.2900661  80.7829025  37.8351519  19.1507126  80.4913022
  37.0089630  19.4555116  81.7227202  31.2684461  16.6667516  79.6282211
  30.3987770  16.9601082  79.3564799  31.5043941  17.2507961  80.3489475
  41.1456090  25.7266674  79.7111739  40.8540899  26.0896655  80.5475200
  40.5328221  25.0133683  79.5325071  42.3451773  23.2919554  72.2314310
  43.1798664  23.7309358  72.3951870  42.4810901  22.8158207  71.4122555
  39.3943278  20.8499289  78.1791797  39.8697400  21.0426935  77.3710649
  38.4708844  20.9058475  77.9335181  26.2826785  22.0123456  67.7622876
  26.0372827  21.1085786  67.9603086  26.4522700  22.0140607  66.8202354
  33.9723495  12.8847132  77.1447631  34.4905439  13.6208159  76.8194120
  33.6178628  13.1911126  77.9794390  25.5522433  17.7451814  65.2609037
  24.8591678  17.8196169  64.6049073  25.3074184  16.9812157  65.7830554
  34.2236089   9.3047415  72.6648528  34.5037843   8.6370604  73.2908954
  35.0086696   9.4976511  72.1523192  32.0269558  28.4806409  64.2273554
  31.4543525  29.0996596  63.7744026  32.6002351  29.0305771  64.7613476
  38.0944947  17.7265049  76.4120103  39.0462370  17.8263147  76.4332327
  37.9248398  16.9343318  76.9218187  36.1159327  14.8120632  76.5979504
  35.5209259  15.0925645  75.9025993  35.8309024  15.3014533  77.3696245
  35.2466817  28.7643559  65.3582136  36.1797491  28.6989121  65.5615012
  35.1590030  29.5999826  64.8996669  37.8754834  28.0809429  62.3186084
  37.7968466  27.7469293  63.2121842  38.6964501  28.5731197  62.3177556
  40.5733025  20.9471169  75.5262403  40.5409345  20.0087169  75.7122086
  41.1833649  21.0255205  74.7928228  32.4116356  19.8167222  61.5689607
  33.3575461  19.6873430  61.6378025  32.0330601  19.0781884  62.0459035
  40.7227514  17.7382212  75.5720686  40.2066562  16.9540669  75.3850615
  41.6067462  17.4100929  75.7367205  38.3838241  11.4823228  71.5316499
  38.1863062  11.1738316  72.4159830  38.9937946  12.2084867  71.6614428
  46.3909575  22.0087176  74.6668439  47.1212964  21.7472464  75.2276143
  45.7816521  21.2715897  74.7070507  44.4724872  20.1495038  75.2642891
  43.7458036  20.0151003  74.6559382  44.0572159  20.4571867  76.0699609
  32.2955049  23.8684968  83.0290264  33.2158058  24.0463567  83.2230310
  32.2604632  22.9241013  82.8769963  30.5959273  17.7417198  61.5044492
  29.6890729  17.4450311  61.5807206  30.8735254  17.4447016  60.6378778
  21.5137214  19.0623561  71.9543538  21.1939998  18.2088870  71.6617912
  20.9670642  19.2772140  72.7101506  25.2917121  21.7786002  75.6713045
  25.5103131  22.7103110  75.6901079  25.7042895  21.4193977  76.4567849
  32.2121339  12.2854088  67.6588733  31.4022067  11.9401173  68.0343979
  32.9005756  11.9761631  68.2476345  34.1411887  11.3632135  69.2813030
  34.6942926  11.7827588  69.9403053  34.3781974  10.4367883  69.3235986
  30.1644986  17.3519208  85.0615794  30.0641713  18.3013565  84.9927885
  29.9466529  17.0237447  84.1891864  29.3658058  14.6004133  61.6456471
  30.2277222  14.9259032  61.9052288  29.5508402  13.8135629  61.1329537
  21.3825474  22.6826473  73.9236660  20.6888945  22.2680426  73.4106614
  22.1298465  22.7247009  73.3270079  37.5190694  13.4732660  68.7891694
  36.9389363  14.1317464  68.4069747  37.2526627  12.6510004  68.3779112
  35.9694261  12.8737717  70.9913014  36.4694039  12.9854252  70.1827333
  36.6129869  12.5698770  71.6313823  30.0276257  20.7816347  83.8780855
  29.5443338  21.5816707  84.0844744  30.1137196  20.7924292  82.9248299
  23.2962216  22.6144727  71.8002675  23.2732904  22.7132414  70.8484558
  23.6062853  23.4609878  72.1219841  25.9549594  24.6720882  75.9149289
  26.9092848  24.6404824  75.8479221  25.7562118  24.2111505  76.7299515
  26.5448976  23.2421998  78.4820087  27.3641865  23.7366076  78.5054924
  26.8185784  22.3253966  78.4537654  36.3015572  15.6332750  67.8448042
  35.4141427  15.9182401  67.6268237  36.7169561  15.4726513  66.9975319
  39.6530109  15.6579271  71.5602382  40.4290499  16.1475724  71.8326998
  38.9278243  16.0837325  72.0174251  42.0902667  16.3706890  72.6176322
  42.6847158  16.1302626  71.9069630  42.1629251  15.6514021  73.2449859
  24.3099823  30.2140501  72.9319487  24.1754291  29.4540902  72.3657485
  23.8931885  30.9381401  72.4648276  35.4458786  25.3977425  61.9396062
  36.1494636  25.6027427  62.5553718  34.7221435  25.9654187  62.2045146
  36.2756596  21.1487286  68.0598333  36.2191798  21.6055837  67.2205965
  36.8284939  20.3877971  67.8821175  40.0861402  16.9377018  68.8848452
  39.8298336  16.5373654  69.7156660  39.4614270  17.6520812  68.7598591
  44.3973740  19.6773091  71.3919743  43.8373298  19.7466280  72.1651305
  43.7917243  19.5014076  70.6719240  27.4668949  31.1109818  73.1437930
  27.3501333  32.0555251  73.0416620  26.6461395  30.8083380  73.5323729
  37.3545483  25.8359954  63.9894522  38.1891087  25.4041152  63.8071997
  37.1929826  25.6641968  64.9171417  37.0091375  22.3392067  65.3550862
  36.9540179  22.1736339  64.4139306  36.3837431  23.0468100  65.5113051
  21.7983890  17.5760132  79.1812284  22.4442754  17.0659086  79.6699509
  21.5901042  18.3128813  79.7555709  34.3237283  24.6440979  84.6804424
  35.1928442  24.8181631  84.3191059  33.8444034  25.4635396  84.5580154
  30.3187501  11.8400176  64.9336180  30.3066171  12.7842016  65.0904451
  31.2110923  11.6570322  64.6395641  28.4923463  31.7638080  76.3593858
  29.3950710  31.7961690  76.6760353  28.2660833  30.8338531  76.3740194
  30.2477065  30.5169067  73.0203937  29.2972696  30.5170928  72.9068309
  30.5509551  29.7701801  72.5039971  34.1339620   8.4342953  69.1882117
  33.3672016   7.8801440  69.3338799  34.5450325   8.5064822  70.0496269
  26.1381381  14.7227749  83.2787298  27.0012843  14.3664554  83.4890623
  25.5646792  14.3841644  83.9662702  45.9829758  36.3529605  74.0849699
  46.6208168  36.2336352  73.3813039  45.8650601  37.3010449  74.1437651
  42.7919465  36.3057033  74.0211224  42.4537976  36.1898098  73.1331759
  43.6609233  35.9048198  74.0012230  38.6506280  38.1592510  70.0108115
  38.0871145  38.0682447  69.2424403  38.5358675  37.3392414  70.4910607
  43.2739248  37.4591885  79.9797429  43.2627888  37.0644683  79.1077933
  43.4359887  36.7257958  80.5731201  36.1970712  39.6543701  72.8492335
  36.9892004  39.3134526  72.4338635  36.4367362  39.7638676  73.7694489
  38.1561466  38.9152614  65.7209714  38.9292342  38.3681602  65.5822590
  38.5086865  39.7796864  65.9324175  39.9946509  40.2428997  78.9276613
  39.7036375  41.1474628  78.8123280  40.6303493  40.2845524  79.6420683
  40.9202716  37.6205845  75.5177973  41.5166288  37.3961868  74.8034936
  40.9777687  36.8790591  76.1203421  40.4927744  35.0745281  63.3528164
  40.7453265  34.5526802  62.5911627  39.5552303  34.9111426  63.4554848
  45.5371027  34.0781059  71.1602907  46.3234116  33.6600482  70.8093324
  45.8009731  34.9827151  71.3284556  50.9379454  34.0156292  72.0635886
  51.6704626  33.4455509  72.2973715  50.1818810  33.6277893  72.5042391
  40.2124033  36.9773387  65.5552539  40.0960291  36.3018290  66.2233623
  40.3226293  36.4905760  64.7384692  42.5555574  36.4383534  69.2599228
  42.1913781  35.9114155  69.9712150  43.4122690  36.0482003  69.0865714
  48.4604874  27.7277866  76.5230494  48.1288199  28.5973277  76.2991709
  47.8650488  27.4114150  77.2024525  42.1961061  31.4673433  64.2560577
  42.3635463  32.3353670  64.6231048  42.0058230  31.6300715  63.3321866
  44.9536394  39.9290412  75.9226407  44.6537117  40.8315451  75.8142214
  44.6087453  39.6622595  76.7747560  38.4048875  36.3804209  71.9563111
  37.4799372  36.2480423  72.1640803  38.6533289  37.1598428  72.4533054
  48.3533538  32.4472952  73.6023844  47.4450415  32.3788361  73.3082605
  48.3021133  32.9244897  74.4305670  42.1750282  33.9231091  65.2407244
  42.0549907  34.3688142  66.0792724  41.4802870  34.2716409  64.6820782
  35.7657686  36.0237483  72.7906901  35.8950068  36.2771962  73.7046312
  35.0855138  36.6165191  72.4711556  39.9357174  46.6934733  68.8897375
  39.8581203  47.6442558  68.9685855  39.3318817  46.3480605  69.5472301
  42.4274403  33.8662598  81.5458742  41.6507737  34.4256518  81.5361606
  43.0664966  34.3519381  82.0673612  50.2195184  30.6489391  75.3801718
  49.5769564  30.9421924  74.7341513  49.7150113  30.5342311  76.1854915
  47.8735348  34.3952564  66.0687578  48.7853204  34.6279951  65.8935275
  47.3644995  34.9789608  65.5062656  40.6820776  36.6748051  81.1076709
  41.4235460  37.2133095  80.8311532  39.9757761  37.3014340  81.2648260
  46.1576115  38.8177192  79.7048870  46.5659471  38.3759602  78.9603503
  45.4353377  38.2429819  79.9583063  42.5107185  33.7549799  77.0782427
  43.3568381  34.1789212  77.2217076  42.4505823  33.0983423  77.7720990
  46.4804930  39.3778382  73.4601159  45.8513792  39.5424097  72.7577227
  46.0930592  39.7919992  74.2312123  50.3594162  40.3132820  70.8145523
  49.6745200  40.6931722  70.2642556  50.4438011  40.9228147  71.5477471
  45.6606631  31.4154167  78.7363601  45.4167563  32.1696228  78.1997876
  45.9366561  31.7939515  79.5710848  47.6145093  37.9592779  77.4140866
  47.8261989  38.6024539  76.7375247  47.5674842  37.1255096  76.9462796
  45.2171322  30.5710600  74.3177438  44.3555801  30.8691854  74.6094176
  45.2433757  30.7880999  73.3858471  42.0332892  39.1152791  70.7251244
  42.4971237  39.3940494  69.9355867  41.7689690  38.2136235  70.5424335
  38.9256973  38.6624272  73.6631007  39.4958330  39.0911540  73.0248492
  39.5165085  38.3806857  74.3615193  40.9701778  35.2375943  67.5340809
  41.6725821  35.6896987  68.0014736  40.6382406  34.5959762  68.1620702
  39.4182139  33.8287700  81.9092019  38.7880800  34.5103980  82.1427415
  39.3118227  33.7170781  80.9645157  34.7127112  33.4959496  72.8357943
  33.9226166  33.7517024  72.3598053  35.2038359  34.3107833  72.9409983
  48.7290921  40.8364735  75.5863224  49.5508365  40.4344922  75.3045905
  48.7253324  40.7332969  76.5379339  36.6641857  33.8604075  69.7941420
  35.8673021  33.9722769  70.3124915  36.4367449  34.1990727  68.9282310
  42.4947525  40.3848778  77.7423934  42.5591957  40.8469185  78.5782106
  41.7858449  39.7546143  77.8706244  32.9964815  33.7489986  75.2672934
  33.2472853  34.6336996  75.5330510  33.5324363  33.5694588  74.4948025
  56.8196914  37.1803483  71.9348195  56.0660623  36.6110881  71.7792200
  56.9544456  37.1466148  72.8818830  38.6962882  28.1308465  84.2717270
  38.3029828  27.5774664  84.9464914  39.5129022  28.4419044  84.6623787
  35.6624940  39.5692324  68.1830840  36.1749460  40.3635574  68.3336404
  36.3147653  38.8718614  68.1164441  37.4719825  42.6858080  70.2653593
  37.6486453  43.6076045  70.0774577  38.2676658  42.3716499  70.6947973
  41.6130843  29.5466344  81.8637526  42.3540557  30.1473498  81.7841989
  41.8448766  28.8043982  81.3055569  36.7572181  34.7322712  80.1415756
  36.6425696  33.8307969  80.4422855  35.9016699  34.9786409  79.7900572
  43.8364019  42.6740452  81.7403257  43.3927873  41.8876831  81.4224161
  44.4981232  42.8619603  81.0747147  38.5951140  44.2036254  76.2663935
  39.1458565  44.0753317  75.4940929  37.7562616  44.5031143  75.9158828
  45.9345257  42.9543252  79.7684658  45.9163732  43.7752133  79.2764927
  46.8565177  42.8297327  79.9934799  42.3918311  40.4687381  80.6108166
  42.9246648  39.7075670  80.3807474  41.8632392  40.1761033  81.3532321
  45.5588006  25.5747447  76.1401808  45.2152275  26.4649089  76.0640919
  45.9266969  25.3849105  75.2771393  33.6273857  37.8980978  68.9590410
  34.4649079  38.3077986  68.7424118  33.8052124  36.9580420  68.9290604
  45.5238289  35.5656059  64.6474243  45.0084912  36.3360663  64.8862630
  45.2515597  34.8921195  65.2707305  43.1085400  30.4105759  69.7059481
  42.2526996  30.0212610  69.5265120  43.5212352  30.4897720  68.8459267
  44.6384546  27.9452103  74.1051041  44.1349342  27.9082238  73.2918846
  44.9315153  28.8544845  74.1647698  40.8827432  28.0290832  73.1117223
  41.7480429  27.8333641  72.7523112  40.9504941  27.8001184  74.0386580
  50.4972563  38.3188413  66.5827417  49.7202006  37.9799573  66.1382579
  51.1764044  38.3241036  65.9082382  45.3124592  33.4383151  66.4734024
  45.0074728  33.7529300  67.3244167  46.2655034  33.5164571  66.5161357
  43.7571024  39.5973374  68.1226978  43.2292385  38.8626134  67.8100216
  43.2558527  40.3748050  67.8766947  48.7363870  37.7922394  73.2394025
  48.0787544  38.4821656  73.3274153  49.5404269  38.1818826  73.5828011
  38.4889751  30.2593040  70.4833590  39.0633503  30.0368222  69.7506783
  39.0760734  30.3281735  71.2362191  47.5469329  36.1466767  71.2897966
  48.0601210  36.7796759  71.7919676  48.1970553  35.5467963  70.9241326
  38.8159339  32.2897501  64.5029475  37.9796651  32.6272188  64.8238750
  38.6764108  32.1546481  63.5656612  40.7912419  27.1334289  69.2108659
  40.1376832  26.8183306  68.5865274  40.7492893  26.5110030  69.9368482
  44.0250160  33.6216223  73.5356307  43.1072721  33.8431170  73.3777995
  44.4410303  33.6962533  72.6768014  44.8085207  35.0207638  68.6658987
  45.5557026  35.5329036  68.3566109  45.0776797  34.6991691  69.5263381
  43.0811857  37.5166179  65.6485941  42.1723077  37.2325212  65.7458411
  43.1106941  37.9365258  64.7889248  48.3131125  41.1272769  69.4177109
  47.8593452  40.2863678  69.4742299  47.6825092  41.7634167  69.7551889
  47.2564044  32.0564755  70.6477776  46.5186801  31.5442141  70.9788019
  47.5090818  31.6165136  69.8361053  47.3575672  24.8341007  71.2419546
  47.6634549  23.9738370  70.9545461  48.0828277  25.4258627  71.0418540
  33.6500028  35.2371693  69.6301144  33.4524428  34.6441054  68.9052210
  33.0946692  34.9323903  70.3477082  41.6296752  35.1294800  71.7495737
  41.6845361  34.1768636  71.6738213  40.8187954  35.2854239  72.2337035
  39.5689111  33.7471859  69.5086116  38.7556977  34.0466030  69.9151308
  40.0648106  33.3527548  70.2260598  41.7197689  43.7429616  71.4420380
  41.6773868  43.9690463  70.5128912  42.6360388  43.5092991  71.5906181
  45.1663323  34.2113684  78.3401009  45.5212711  34.4385157  79.1995475
  45.8135454  34.5432061  77.7178265  50.8961060  37.3332120  69.0450338
  50.7578959  37.5233716  68.1171528  50.5397279  38.0951503  69.5018390
  39.0603186  31.3190215  75.1247351  39.7002566  31.1778974  74.4270314
  38.2280717  31.0324728  74.7485953  50.9230440  39.4008647  74.0561610
  51.3566946  39.3083936  74.9044664  51.6362020  39.3766147  73.4181626
  39.8363490  40.6192645  71.2382343  40.6304089  40.1242966  71.0364918
  39.1255182  40.0910509  70.8750049  44.6558335  43.0010741  75.5894711
  44.7095357  43.5701677  76.3572426  43.7873116  43.1712626  75.2248748
  36.1446254  34.7635727  67.3142096  35.2143842  34.7020183  67.5312058
  36.2403726  34.2411680  66.5178737  36.0631803  31.2890540  69.9020337
  36.3238620  32.2035873  69.7929498  36.8848975  30.8214983  70.0516950
  37.5356728  32.7028297  77.0719162  38.2079781  32.4945659  76.4231811
  36.7086514  32.5050383  76.6324394  51.7845989  39.4432347  76.5894495
  51.9781879  40.3478158  76.8353770  51.6846607  38.9839767  77.4233080
  43.4382300  29.3290238  79.0884823  42.7910215  30.0280188  78.9949299
  44.2083315  29.7626382  79.4561071  46.8461098  39.5939090  82.1635376
  46.6946604  39.3649642  81.2465460  46.8365777  40.5509692  82.1766721
  43.6146434  37.1671003  77.1481642  44.5438494  37.3182163  76.9750610
  43.1937464  37.2555024  76.2930289  42.4134766  41.1921667  74.9180180
  42.2745852  40.8240452  75.7906118  41.6249362  41.7069307  74.7464138
  43.9639981  40.5703270  72.3069018  43.6289814  40.5304040  73.2026668
  43.4643927  39.9047986  71.8339428  37.9384225  35.9770900  77.8321599
  37.8004023  35.2451139  78.4333138  38.8489149  35.8879800  77.5505787
  40.5666526  35.6890859  77.3205279  41.2766144  35.0484052  77.2791897
  40.5235834  35.9403754  78.2431459  48.5553305  42.6258213  80.2411858
  48.4965851  41.9417433  79.5742441  48.9572823  43.3677203  79.7892484
  39.2795460  32.6756077  79.1400918  38.7432817  32.2246816  79.7922514
  38.6912168  32.8101986  78.3971382  37.5744003  49.4420127  73.0345577
  37.8140602  50.0738651  73.7124595  36.7313200  49.0908167  73.3210936
  38.6897719  32.1344729  61.7027382  37.8127185  32.0133529  61.3389628
  39.1655472  31.3430807  61.4506270  48.5570712  40.5897797  78.4725838
  47.6697491  40.2523718  78.5952236  49.1269263  39.8580828  78.7094603
  30.2099859  36.9221888  71.7968889  30.8970899  36.6083618  71.2089904
  30.0547988  37.8263253  71.5236140  35.0134581  31.8112085  76.2253913
  34.9292770  31.2037755  75.4904323  34.1917287  32.3021103  76.2263409
  42.0871865  45.2499249  75.4387081  42.0142037  46.0554221  75.9506385
  41.6449258  45.4491215  74.6135102  41.8761645  44.4871019  68.9489902
  41.0929167  45.0292699  69.0428127  42.5754390  45.0044999  69.3484143
  45.1858295  30.2965649  71.5924108  45.6826994  29.5435611  71.2725178
  44.4145276  30.3329965  71.0267317  53.0388052  36.0006014  73.2342399
  53.0277929  36.8830729  72.8636332  52.1705432  35.6477565  73.0396936
  44.5470549  45.1486083  77.5945239  45.2598521  45.7833548  77.5221141
  44.0560577  45.2449949  76.7785241  46.2688076  39.0537336  69.1662531
  45.3344354  39.1738798  68.9967235  46.4464744  38.1509803  68.9022541
  41.7693264  32.4383032  71.3195792  41.3991051  31.8854072  72.0076698
  42.2652356  31.8341165  70.7670792  49.6560627  34.8954655  69.7012565
  50.1221079  35.7282647  69.6272868  50.1068127  34.4299637  70.4057824
  39.5982462  42.8980527  78.4150810  40.2991922  43.5317009  78.5680204
  39.1277577  43.2395258  77.6546449  47.6277290  27.2635242  73.7403467
  46.7140370  27.4939469  73.9085673  48.0570391  27.3473686  74.5917499
  47.3983748  35.4525134  76.2403361  46.7455198  35.7001041  75.5855813
  47.7764128  34.6389272  75.9065838  43.4471321  36.1944945  82.7269398
  42.7711958  36.0939074  83.3971773  44.2698955  36.0384159  83.1905395
  35.1950180  42.4316882  75.3481913  35.7803617  41.6860569  75.4809817
  34.9975019  42.7420838  76.2318577  38.0488836  45.4668129  70.3644355
  37.3799211  45.9514257  69.8808395  37.9101705  45.7137349  71.2787734
  29.7867835  35.0022482  74.0686356  29.8251935  34.4686072  74.8623474
  29.2808128  34.4757687  73.4497333  42.1894104  47.5011872  76.9627014
  42.7412412  47.6643494  77.7276099  42.5300298  48.0916310  76.2907038
  37.1658597  29.8487022  77.5648898  37.2299924  30.7101853  77.1526296
  37.1025718  29.2361024  76.8321257  36.6410870  31.9210155  81.2121933
  37.2682909  31.5387232  81.8259457  35.7838789  31.7024357  81.5777625
  47.0404978  42.3273130  82.8175668  47.5844882  42.9403088  82.3230623
  46.4591823  42.8852708  83.3342681  33.4176413  33.7286584  67.1440287
  33.7129854  32.8197262  67.0907341  32.5164448  33.7074323  66.8221290
  45.3262491  45.4493848  73.9490696  45.2013631  44.6483588  73.4401641
  45.9841583  45.9440041  73.4604666  36.9470660  31.8042581  73.1267836
  36.2257245  32.4178548  72.9875309  37.7363915  32.3400345  73.0484482
  47.3897400  43.2502868  75.5770246  46.4427735  43.1308219  75.5048573
  47.7380173  42.3625366  75.6596507  39.7496973  29.1397007  79.4008488
  40.2731375  29.3859304  80.1634797  39.5309306  29.9717042  78.9811625
  35.1464254  31.4100682  67.2679613  34.8176960  30.5298061  67.0854719
  35.5003625  31.3548350  68.1556002  44.3943833  43.0455584  71.7774598
  44.2468796  42.1172292  71.9582168  45.2197327  43.0675675  71.2931673
  38.2606077  31.6973651  67.6355090  38.6002150  32.2259573  66.9133699
  38.7078198  32.0354058  68.4113657  47.9977955  43.8684143  72.8639471
  48.9224502  43.6627004  72.7263922  47.8293258  43.6200544  73.7728812
  40.9549518  30.0810702  77.0858158  40.6146339  29.2818515  77.4878838
  40.2488524  30.3812413  76.5134992  41.6065990  27.1660015  75.5385481
  42.4292059  26.6920493  75.4164372  41.8504054  27.9450498  76.0384168
  40.2474225  30.1948273  65.8348383  40.9682587  30.5729526  65.3312100
  39.6239529  30.9137150  65.9383361  44.3905347  30.8993422  66.7706715
  44.6068962  31.7818060  66.4695544  43.9099415  30.5079635  66.0412357
  39.1304569  33.8579135  73.3477460  38.9849150  34.1719438  74.2401741
  38.6529772  34.4764036  72.7948359  40.9900952  30.8481683  73.3958350
  40.9762520  29.9522776  73.0590647  41.7073380  30.8552347  74.0296636
  42.8427082  31.2819023  75.4411477  42.5844860  32.2036094  75.4395807
  42.3112123  30.8849458  76.1311941  33.6050231  36.3984480  76.2865121
  33.0603699  37.1744288  76.4185395  34.4829581  36.7455284  76.1284243
  40.3937848  29.7296063  68.6645920  40.5153759  28.8012710  68.8636807
  40.1039890  29.7434749  67.7524235  43.2629038  27.4150974  71.8012639
  43.2850735  27.4790307  70.8464619  43.6797097  26.5755483  71.9953146
  53.6412662  37.1506233  69.8391862  54.0843808  36.4013559  69.4410985
  52.7639173  37.1416370  69.4565594  34.3916253  35.5254376  79.1795278
  33.6497989  35.6737011  79.7659908  34.0708997  35.7862641  78.3162027
  42.3359915  45.0670354  78.9775668  42.6447042  44.8219501  79.8498368
  43.1335397  45.2716993  78.4894538  42.3580527  47.2208264  71.2081045
  41.9185518  46.7284642  71.9013901  43.1088644  46.6781231  70.9673120
  34.8372866  43.4119805  71.2105673  35.6630886  43.1123576  70.8304316
  34.4866918  42.6427427  71.6595461  39.8054400  42.7646273  73.2803346
  39.1834409  42.1016978  72.9805574  40.4759267  42.7907405  72.5976994
  33.0381472  41.3306131  72.1694606  32.2013380  40.9028305  71.9878607
  33.0105117  41.5238574  73.1065397  39.8778927  31.2428061  82.8735852
  39.9267083  32.1190184  82.4913622  40.4201441  30.7005454  82.3007495
  50.3633773  41.7869184  82.1536989  49.5729317  41.7693323  81.6141489
  50.1267127  42.3257478  82.9086026  50.4831648  38.6361650  79.4669718
  50.5329653  38.4711658  80.4085241  50.3745571  37.7688909  79.0767599
  39.3667907  41.3150196  66.7561807  39.5156027  41.9985661  66.1028480
  40.1734350  41.2955286  67.2711263  47.7735410  34.6192578  80.7829025
  48.6745273  34.4799043  80.4913022  47.8483385  34.7847033  81.7227202
  42.1078216  31.9959433  79.6282211  41.2381525  32.2892999  79.3564799
  42.3437696  32.5799878  80.3489475  51.9849845  41.0558592  79.7111739
  51.6934653  41.4188573  80.5475200  51.3721976  40.3425600  79.5325071
  53.1845527  38.6211472  72.2314310  54.0192418  39.0601276  72.3951870
  53.3204656  38.1450125  71.4122555  50.2337033  36.1791207  78.1791797
  50.7091155  36.3718853  77.3710649  49.3102598  36.2350392  77.9335181
  37.1220540  37.3415374  67.7622876  36.8766581  36.4377704  67.9603086
  37.2916454  37.3432524  66.8202354  44.8117249  28.2139050  77.1447631
  45.3299193  28.9500077  76.8194120  44.4572382  28.5203043  77.9794390
  36.3916187  33.0743731  65.2609037  35.6985432  33.1488086  64.6049073
  36.1467939  32.3104075  65.7830554  45.0629844  24.6339333  72.6648528
  45.3431597  23.9662522  73.2908954  45.8480451  24.8268428  72.1523192
  48.9338702  33.0556967  76.4120103  49.8856125  33.1555064  76.4332327
  48.7642152  32.2635235  76.9218187  46.9553081  30.1412550  76.5979504
  46.3603014  30.4217563  75.9025993  46.6702778  30.6306451  77.3696245
  51.4126780  36.2763086  75.5262403  51.3803100  35.3379087  75.7122086
  52.0227403  36.3547123  74.7928228  43.2510111  35.1459139  61.5689607
  44.1969215  35.0165347  61.6378025  42.8724356  34.4073801  62.0459035
  51.5621268  33.0674130  75.5720686  51.0460317  32.2832586  75.3850615
  52.4461217  32.7392846  75.7367205  49.2231995  26.8115145  71.5316499
  49.0256816  26.5030234  72.4159830  49.8331701  27.5376784  71.6614428
  57.2303330  37.3379093  74.6668439  57.9606718  37.0764381  75.2276143
  56.6210275  36.6007815  74.7070507  55.3118627  35.4786956  75.2642891
  54.5851790  35.3442921  74.6559382  54.8965914  35.7863784  76.0699609
  43.1348803  39.1976885  83.0290264  44.0551813  39.3755484  83.2230310
  43.0998386  38.2532931  82.8769963  41.4353028  33.0709116  61.5044492
  40.5284483  32.7742228  61.5807206  41.7129009  32.7738934  60.6378778
  32.3530968  34.3915479  71.9543538  32.0333752  33.5380787  71.6617912
  31.8064396  34.6064057  72.7101506  36.1310876  37.1077920  75.6713045
  36.3496885  38.0395028  75.6901079  36.5436649  36.7485895  76.4567849
  43.0515093  27.6146005  67.6588733  42.2415822  27.2693090  68.0343979
  43.7399510  27.3053549  68.2476345  44.9805642  26.6924052  69.2813030
  45.5336680  27.1119506  69.9403053  45.2175728  25.7659800  69.3235986
  41.0038741  32.6811126  85.0615794  40.9035468  33.6305483  84.9927885
  40.7860283  32.3529365  84.1891864  40.2051812  29.9296051  61.6456471
  41.0670976  30.2550949  61.9052288  40.3902157  29.1427547  61.1329537
  32.2219228  38.0118391  73.9236660  31.5282700  37.5972343  73.4106614
  32.9692219  38.0538927  73.3270079  48.3584449  28.8024577  68.7891694
  47.7783118  29.4609381  68.4069747  48.0920382  27.9801922  68.3779112
  46.8088015  28.2029635  70.9913014  47.3087794  28.3146170  70.1827333
  47.4523623  27.8990688  71.6313823  40.8670011  36.1108265  83.8780855
  40.3837093  36.9108625  84.0844744  40.9530950  36.1216210  82.9248299
  34.1355971  37.9436644  71.8002675  34.1126659  38.0424332  70.8484558
  34.4456607  38.7901795  72.1219841  36.7943349  40.0012799  75.9149289
  37.7486602  39.9696742  75.8479221  36.5955872  39.5403423  76.7299515
  37.3842731  38.5713915  78.4820087  38.2035620  39.0657994  78.5054924
  37.6579538  37.6545884  78.4537654  47.1409327  30.9624668  67.8448042
  46.2535182  31.2474318  67.6268237  47.5563316  30.8018431  66.9975319
  50.4923863  30.9871189  71.5602382  51.2684253  31.4767641  71.8326998
  49.7671997  31.4129243  72.0174251  52.9296422  31.6998808  72.6176322
  53.5240912  31.4594544  71.9069630  53.0023005  30.9805939  73.2449859
  35.1493577  45.5432419  72.9319487  35.0148045  44.7832820  72.3657485
  34.7325640  46.2673319  72.4648276  47.1150351  36.4779204  68.0598333
  47.0585552  36.9347755  67.2205965  47.6678693  35.7169888  67.8821175
  50.9255157  32.2668936  68.8848452  50.6692091  31.8665571  69.7156660
  50.3008025  32.9812730  68.7598591  55.2367494  35.0065009  71.3919743
  54.6767052  35.0758198  72.1651305  54.6310998  34.8305993  70.6719240
  38.3062703  46.4401736  73.1437930  38.1895087  47.3847168  73.0416620
  37.4855149  46.1375297  73.5323729  32.6377645  32.9052049  79.1812284
  33.2836508  32.3951003  79.6699509  32.4294796  33.6420731  79.7555709
  45.1631037  39.9732897  84.6804424  46.0322197  40.1473549  84.3191059
  44.6837789  40.7927314  84.5580154  41.1581255  27.1692094  64.9336180
  41.1459925  28.1133934  65.0904451  42.0504677  26.9862239  64.6395641
  39.3317217  47.0929998  76.3593858  40.2344464  47.1253608  76.6760353
  39.1054587  46.1630449  76.3740194  41.0870819  45.8460984  73.0203937
  40.1366450  45.8462846  72.9068309  41.3903305  45.0993719  72.5039971
  44.9733375  23.7634871  69.1882117  44.2065771  23.2093357  69.3338799
  45.3844080  23.8356739  70.0496269  36.9775136  30.0519666  83.2787298
  37.8406597  29.6956471  83.4890623  36.4040547  29.7133561  83.9662702
  56.8223513  51.6821523  74.0849699  57.4601923  51.5628270  73.3813039
  56.7044356  52.6302367  74.1437651  53.6313219  51.6348951  74.0211224
  53.2931731  51.5190016  73.1331759  54.5002987  51.2340116  74.0012230
  54.1133002  52.7883803  79.9797429  54.1021643  52.3936601  79.1077933
  54.2753642  52.0549875  80.5731201  47.0364467  54.9835619  72.8492335
  47.8285759  54.6426444  72.4338635  47.2761117  55.0930594  73.7694489
  50.8340263  55.5720914  78.9276613  50.5430129  56.4766545  78.8123280
  51.4697248  55.6137442  79.6420683  51.7596470  52.9497763  75.5177973
  52.3560042  52.7253785  74.8034936  51.8171442  52.2082508  76.1203421
  56.3764781  49.4072977  71.1602907  57.1627871  48.9892400  70.8093324
  56.6403486  50.3119069  71.3284556  59.2998629  43.0569784  76.5230494
  58.9681954  43.9265195  76.2991709  58.7044242  42.7406068  77.2024525
  55.7930148  55.2582330  75.9226407  55.4930871  56.1607369  75.8142214
  55.4481208  54.9914513  76.7747560  59.1927292  47.7764870  73.6023844
  58.2844169  47.7080279  73.3082605  59.1414888  48.2536815  74.4305670
  46.6051441  51.3529400  72.7906901  46.7343822  51.6063879  73.7046312
  45.9248892  51.9457108  72.4711556  50.7750928  62.0226650  68.8897375
  50.6974958  62.9734475  68.9685855  50.1712572  61.6772523  69.5472301
  53.2668158  49.1954516  81.5458742  52.4901492  49.7548436  81.5361606
  53.9058721  49.6811299  82.0673612  61.0588939  45.9781309  75.3801718
  60.4163319  46.2713842  74.7341513  60.5543867  45.8634229  76.1854915
  51.5214530  52.0039969  81.1076709  52.2629215  52.5425013  80.8311532
  50.8151516  52.6306258  81.2648260  56.9969870  54.1469110  79.7048870
  57.4053226  53.7051520  78.9603503  56.2747131  53.5721737  79.9583063
  53.3500940  49.0841716  77.0782427  54.1962135  49.5081130  77.2217076
  53.2899578  48.4275341  77.7720990  57.3198684  54.7070300  73.4601159
  56.6907547  54.8716014  72.7577227  56.9324347  55.1211910  74.2312123
  61.1987916  55.6424738  70.8145523  60.5138955  56.0223639  70.2642556
  61.2831766  56.2520065  71.5477471  56.5000385  46.7446085  78.7363601
  56.2561317  47.4988145  78.1997876  56.7760316  47.1231432  79.5710848
  58.4538848  53.2884697  77.4140866  58.6655743  53.9316457  76.7375247
  58.4068596  52.4547014  76.9462796  56.0565077  45.9002518  74.3177438
  55.1949556  46.1983771  74.6094176  56.0827512  46.1172917  73.3858471
  49.7650727  53.9916190  73.6631007  50.3352084  54.4203458  73.0248492
  50.3558839  53.7098774  74.3615193  50.2575894  49.1579617  81.9092019
  49.6274555  49.8395898  82.1427415  50.1511982  49.0462699  80.9645157
  45.5520866  48.8251413  72.8357943  44.7619920  49.0808942  72.3598053
  46.0432114  49.6399751  72.9409983  59.5684676  56.1656652  75.5863224
  60.3902120  55.7636840  75.3045905  59.5647079  56.0624887  76.5379339
  53.3341279  55.7140696  77.7423934  53.3985712  56.1761103  78.5782106
  52.6252203  55.0838061  77.8706244  43.8358569  49.0781904  75.2672934
  44.0866608  49.9628914  75.5330510  44.3718118  48.8986505  74.4948025
  49.5356637  43.4600383  84.2717270  49.1423582  42.9066582  84.9464914
  50.3522777  43.7710962  84.6623787  48.3113579  58.0149998  70.2653593
  48.4880207  58.9367962  70.0774577  49.1070413  57.7008417  70.6947973
  52.4524598  44.8758262  81.8637526  53.1934311  45.4765415  81.7841989
  52.6842520  44.1335900  81.3055569  47.5965936  50.0614629  80.1415756
  47.4819451  49.1599887  80.4422855  46.7410453  50.3078326  79.7900572
  54.6757773  58.0032370  81.7403257  54.2321628  57.2168748  81.4224161
  55.3374987  58.1911520  81.0747147  49.4344895  59.5328171  76.2663935
  49.9852320  59.4045235  75.4940929  48.5956370  59.8323060  75.9158828
  56.7739011  58.2835170  79.7684658  56.7557487  59.1044051  79.2764927
  57.6958932  58.1589245  79.9934799  53.2312066  55.7979299  80.6108166
  53.7640402  55.0367587  80.3807474  52.7026147  55.5052951  81.3532321
  56.3981761  40.9039365  76.1401808  56.0546030  41.7941007  76.0640919
  56.7660723  40.7141023  75.2771393  55.4778301  43.2744020  74.1051041
  54.9743097  43.2374155  73.2918846  55.7708908  44.1836763  74.1647698
  51.7221187  43.3582750  73.1117223  52.5874184  43.1625559  72.7523112
  51.7898696  43.1293102  74.0386580  58.3863083  51.4758685  71.2897966
  58.8994965  52.1088677  71.7919676  59.0364307  50.8759880  70.9241326
  54.8643914  48.9508140  73.5356307  53.9466475  49.1723087  73.3777995
  55.2804058  49.0254451  72.6768014  58.0957799  47.3856672  70.6477776
  57.3580556  46.8734058  70.9788019  58.3484572  46.9457054  69.8361053
  57.5957819  58.2941183  70.3526927  57.8880793  58.8546240  69.6339293
  58.1056439  58.5869744  71.1080086  58.1969426  40.1632924  71.2419546
  58.5028303  39.3030288  70.9545461  58.9222031  40.7550544  71.0418540
  52.5591444  59.0721534  71.4420380  52.5167623  59.2982380  70.5128912
  53.4754143  58.8384909  71.5906181  56.0057078  49.5405602  78.3401009
  56.3606465  49.7677075  79.1995475  56.6529209  49.8723978  77.7178265
  49.8996941  46.6482133  75.1247351  50.5396320  46.5070892  74.4270314
  49.0674471  46.3616646  74.7485953  61.7624194  54.7300564  74.0561610
  62.1960701  54.6375854  74.9044664  62.4755775  54.7058065  73.4181626
  55.4952089  58.3302659  75.5894711  55.5489111  58.8993595  76.3572426
  54.6266870  58.5004544  75.2248748  48.3750482  48.0320215  77.0719162
  49.0473536  47.8237577  76.4231811  47.5480269  47.8342301  76.6324394
  62.6239744  54.7724265  76.5894495  62.8175634  55.6770076  76.8353770
  62.5240362  54.3131684  77.4233080  54.2776054  44.6582156  79.0884823
  53.6303969  45.3572105  78.9949299  55.0477070  45.0918300  79.4561071
  57.6854852  54.9231008  82.1635376  57.5340359  54.6941560  81.2465460
  57.6759532  55.8801609  82.1766721  54.4540189  52.4962921  77.1481642
  55.3832249  52.6474080  76.9750610  54.0331219  52.5846941  76.2930289
  53.2528521  56.5213585  74.9180180  53.1139606  56.1532369  75.7906118
  52.4643117  57.0361224  74.7464138  48.7777980  51.3062818  77.8321599
  48.6397778  50.5743057  78.4333138  49.6882903  51.2171718  77.5505787
  51.4060280  51.0182777  77.3205279  52.1159899  50.3775969  77.2791897
  51.3629589  51.2695672  78.2431459  59.3947059  57.9550130  80.2411858
  59.3359605  57.2709351  79.5742441  59.7966577  58.6969120  79.7892484
  50.1189214  48.0047995  79.1400918  49.5826571  47.5538733  79.7922514
  49.5305923  48.1393904  78.3971382  48.4137758  64.7712044  73.0345577
  48.6534356  65.4030568  73.7124595  47.5706954  64.4200084  73.3210936
  59.3964466  55.9189714  78.4725838  58.5091245  55.5815636  78.5952236
  59.9663017  55.1872746  78.7094603  41.0493613  52.2513806  71.7968889
  41.7364653  51.9375536  71.2089904  40.8941742  53.1555171  71.5236140
  45.8528336  47.1404003  76.2253913  45.7686524  46.5329672  75.4904323
  45.0311042  47.6313021  76.2263409  52.9265620  60.5791167  75.4387081
  52.8535791  61.3846138  75.9506385  52.4843013  60.7783133  74.6135102
  56.0252049  45.6257566  71.5924108  56.5220749  44.8727529  71.2725178
  55.2539031  45.6621883  71.0267317  55.3864303  60.4778001  77.5945239
  56.0992275  61.1125466  77.5221141  54.8954332  60.5741867  76.7785241
  50.4376217  58.2272444  78.4150810  51.1385676  58.8608927  78.5680204
  49.9671332  58.5687176  77.6546449  58.4671044  42.5927160  73.7403467
  57.5534124  42.8231387  73.9085673  58.8964146  42.6765604  74.5917499
  58.2377503  50.7817052  76.2403361  57.5848953  51.0292959  75.5855813
  58.6157883  49.9681190  75.9065838  55.1984677  60.8176745  70.3431531
  55.3807071  59.9998401  70.8059283  56.0217663  61.0344437  69.9056421
  54.2865076  51.5236863  82.7269398  53.6105713  51.4230992  83.3971773
  55.1092710  51.3676076  83.1905395  46.0343935  57.7608799  75.3481913
  46.6197372  57.0152487  75.4809817  45.8368773  58.0712756  76.2318577
  48.8882590  60.7960047  70.3644355  48.2192965  61.2806174  69.8808395
  48.7495460  61.0429267  71.2787734  40.6261590  50.3314399  74.0686356
  40.6645689  49.7977990  74.8623474  40.1201882  49.8049605  73.4497333
  53.0287859  62.8303790  76.9627014  53.5806167  62.9935412  77.7276099
  53.3694052  63.4208228  76.2907038  48.0052352  45.1778940  77.5648898
  48.0693678  46.0393771  77.1526296  47.9419472  44.5652942  76.8321257
  47.4804624  47.2502073  81.2121933  48.1076663  46.8679150  81.8259457
  46.6232543  47.0316274  81.5777625  57.8798733  57.6565048  82.8175668
  58.4238637  58.2695006  82.3230623  57.2985578  58.2144626  83.3342681
  56.1656246  60.7785766  73.9490696  56.0407385  59.9775506  73.4401641
  56.8235337  61.2731959  73.4604666  47.7864414  47.1334498  73.1267836
  47.0651000  47.7470466  72.9875309  48.5757670  47.6692263  73.0484482
  58.2291154  58.5794786  75.5770246  57.2821490  58.4600137  75.5048573
  58.5773927  57.6917284  75.6596507  50.5890728  44.4688925  79.4008488
  51.1125129  44.7151221  80.1634797  50.3703061  45.3008960  78.9811625
  55.2337588  58.3747502  71.7774598  55.0862550  57.4464209  71.9582168
  56.0591081  58.3967593  71.2931673  58.8371709  59.1976061  72.8639471
  59.7618257  58.9918922  72.7263922  58.6687013  58.9492462  73.7728812
  51.7943273  45.4102620  77.0858158  51.4540093  44.6110433  77.4878838
  51.0882279  45.7104331  76.5134992  52.4459745  42.4951932  75.5385481
  53.2685814  42.0212410  75.4164372  52.6897808  43.2742416  76.0384168
  49.9698323  49.1871053  73.3477460  49.8242904  49.5011356  74.2401741
  49.4923527  49.8055953  72.7948359  51.8294706  46.1773601  73.3958350
  51.8156275  45.2814694  73.0590647  52.5467134  46.1844265  74.0296636
  53.6820837  46.6110941  75.4411477  53.4238615  47.5328012  75.4395807
  53.1505877  46.2141376  76.1311941  58.6267026  59.7161728  68.2201562
  58.8003903  59.1508151  67.4675415  59.1195917  60.5162623  68.0381052
  44.4443985  51.7276397  76.2865121  43.8997454  52.5036205  76.4185395
  45.3223335  52.0747202  76.1284243  54.1022792  42.7442892  71.8012639
  54.1244489  42.8082225  70.8464619  54.5190851  41.9047400  71.9953146
  45.2310007  50.8546294  79.1795278  44.4891743  51.0028929  79.7659908
  44.9102752  51.1154559  78.3162027  53.1753670  60.3962272  78.9775668
  53.4840796  60.1511419  79.8498368  53.9729152  60.6008910  78.4894538
  53.1974282  62.5500181  71.2081045  52.7579272  62.0576560  71.9013901
  53.9482399  62.0073149  70.9673120  45.6766621  58.7411722  71.2105673
  46.5024641  58.4415494  70.8304316  45.3260673  57.9719345  71.6595461
  50.6448154  58.0938190  73.2803346  50.0228163  57.4308895  72.9805574
  51.3153021  58.1199322  72.5976994  43.8775226  56.6598049  72.1694606
  43.0407134  56.2320223  71.9878607  43.8498871  56.8530492  73.1065397
  50.7172682  46.5719978  82.8735852  50.7660837  47.4482101  82.4913622
  51.2595196  46.0297372  82.3007495  61.2027527  57.1161102  82.1536989
  60.4123071  57.0985241  81.6141489  60.9660882  57.6549395  82.9086026
  61.3225402  53.9653568  79.4669718  61.3723407  53.8003576  80.4085241
  61.2139326  53.0980827  79.0767599  50.2061661  56.6442114  66.7561807
  50.3549781  57.3277578  66.1028480  51.0128105  56.6247204  67.2711263
  58.6129165  49.9484496  80.7829025  59.5139027  49.8090961  80.4913022
  58.6877139  50.1138951  81.7227202  52.9471970  47.3251351  79.6282211
  52.0775279  47.6184917  79.3564799  53.1831450  47.9091796  80.3489475
  62.8243599  56.3850510  79.7111739  62.5328407  56.7480490  80.5475200
  62.2115730  55.6717518  79.5325071  61.0730787  51.5083124  78.1791797
  61.5484909  51.7010771  77.3710649  60.1496353  51.5642310  77.9335181
  55.6511004  43.5430968  77.1447631  56.1692948  44.2791995  76.8194120
  55.2966137  43.8494961  77.9794390  55.9023598  39.9631250  72.6648528
  56.1825352  39.2954439  73.2908954  56.6874205  40.1560346  72.1523192
  59.7732456  48.3848884  76.4120103  60.7249879  48.4846982  76.4332327
  59.6035907  47.5927153  76.9218187  57.7946836  45.4704468  76.5979504
  57.1996768  45.7509480  75.9025993  57.5096533  45.9598368  77.3696245
  60.0625750  42.1407063  71.5316499  59.8650571  41.8322151  72.4159830
  60.6725455  42.8668702  71.6614428  53.9742558  54.5268803  83.0290264
  54.8945567  54.7047402  83.2230310  53.9392141  53.5824848  82.8769963
  43.1924723  49.7207397  71.9543538  42.8727507  48.8672705  71.6617912
  42.6458151  49.9355975  72.7101506  46.9704630  52.4369838  75.6713045
  47.1890640  53.3686946  75.6901079  47.3830404  52.0777812  76.4567849
  55.8199396  42.0215970  69.2813030  56.3730435  42.4411423  69.9403053
  56.0569483  41.0951718  69.3235986  51.8432495  48.0103044  85.0615794
  51.7429222  48.9597401  84.9927885  51.6254038  47.6821282  84.1891864
  43.0612983  53.3410308  73.9236660  42.3676454  52.9264261  73.4106614
  43.8085974  53.3830845  73.3270079  59.1978203  44.1316495  68.7891694
  58.6176872  44.7901299  68.4069747  58.9314136  43.3093840  68.3779112
  57.6481770  43.5321553  70.9913014  58.1481548  43.6438087  70.1827333
  58.2917378  43.2282606  71.6313823  51.7063766  51.4400182  83.8780855
  51.2230847  52.2400543  84.0844744  51.7924705  51.4508127  82.9248299
  44.9749725  53.2728562  71.8002675  44.9520413  53.3716249  70.8484558
  45.2850362  54.1193713  72.1219841  47.6337103  55.3304717  75.9149289
  48.5880357  55.2988659  75.8479221  47.4349627  54.8695341  76.7299515
  48.2236485  53.9005833  78.4820087  49.0429374  54.3949912  78.5054924
  48.4973293  52.9837801  78.4537654  61.3317617  46.3163106  71.5602382
  62.1078008  46.8059559  71.8326998  60.6065752  46.7421161  72.0174251
  45.9887332  60.8724337  72.9319487  45.8541800  60.1124737  72.3657485
  45.5719394  61.5965236  72.4648276  49.1456458  61.7693654  73.1437930
  49.0288842  62.7139086  73.0416620  48.3248904  61.4667215  73.5323729
  43.4771399  48.2343967  79.1812284  44.1230263  47.7242921  79.6699509
  43.2688550  48.9712649  79.7555709  56.0024792  55.3024814  84.6804424
  56.8715951  55.4765467  84.3191059  55.5231543  56.1219231  84.5580154
  50.1710972  62.4221916  76.3593858  51.0738219  62.4545526  76.6760353
  49.9448342  61.4922366  76.3740194  51.9264574  61.1752902  73.0203937
  50.9760205  61.1754764  72.9068309  52.2297060  60.4285637  72.5039971
  55.8127129  39.0926788  69.1882117  55.0459525  38.5385275  69.3338799
  56.2237834  39.1648657  70.0496269  47.8168890  45.3811584  83.2787298
  48.6800352  45.0248389  83.4890623  47.2434301  45.0425479  83.9662702
  61.6734018  70.9012832  78.9276613  61.3823884  71.8058463  78.8123280
  62.3091002  70.9429360  79.6420683  70.1392383  58.3861702  76.5230494
  69.8075708  59.2557113  76.2991709  69.5437997  58.0697986  77.2024525
  61.6144683  77.3518568  68.8897375  61.5368712  78.3026393  68.9685855
  61.0106326  77.0064440  69.5472301  64.1061912  64.5246433  81.5458742
  63.3295246  65.0840354  81.5361606  64.7452475  65.0103216  82.0673612
  62.3608285  67.3331887  81.1076709  63.1022969  67.8716931  80.8311532
  61.6545270  67.9598175  81.2648260  61.0969648  64.4871535  81.9092019
  60.4668309  65.1687816  82.1427415  60.9905736  64.3754617  80.9645157
  56.3914621  64.1543331  72.8357943  55.6013675  64.4100859  72.3598053
  56.8825868  64.9691669  72.9409983  58.3429366  64.5187910  69.7941420
  57.5460530  64.6306604  70.3124915  58.1154958  64.8574562  68.9282310
  54.6752324  64.4073821  75.2672934  54.9260362  65.2920831  75.5330510
  55.2111872  64.2278423  74.4948025  63.8883052  72.7100721  67.6102914
  63.7528726  73.5552257  68.0387762  64.4292864  72.9119999  66.8468848
  60.3750391  58.7892301  84.2717270  59.9817337  58.2358499  84.9464914
  61.1916531  59.1002879  84.6623787  63.2918352  60.2050180  81.8637526
  64.0328066  60.8057333  81.7841989  63.5236275  59.4627818  81.3055569
  58.4359690  65.3906547  80.1415756  58.3213205  64.4891804  80.4422855
  57.5804208  65.6370244  79.7900572  65.5151528  73.3324287  81.7403257
  65.0715382  72.5460666  81.4224161  66.1768741  73.5203438  81.0747147
  60.2738649  74.8620089  76.2663935  60.8246074  74.7337152  75.4940929
  59.4350125  75.1614978  75.9158828  67.6132766  73.6127087  79.7684658
  67.5951241  74.4335968  79.2764927  68.5352686  73.4881163  79.9934799
  64.0705820  71.1271217  80.6108166  64.6034157  70.3659505  80.3807474
  63.5419901  70.8344869  81.3532321  67.2375515  56.2331283  76.1401808
  66.8939784  57.1232924  76.0640919  67.6054478  56.0432940  75.2771393
  66.3172055  58.6035938  74.1051041  65.8136851  58.5666073  73.2918846
  66.6102662  59.5128681  74.1647698  62.5614941  58.6874668  73.1117223
  63.4267938  58.4917476  72.7523112  62.6292450  58.4585019  74.0386580
  55.3287537  65.8955529  69.6301144  55.1311937  65.3024889  68.9052210
  54.7734201  65.5907739  70.3477082  57.7419312  61.9474375  69.9020337
  58.0026129  62.8619709  69.7929498  58.5636484  61.4798818  70.0516950
  59.2144237  63.3612132  77.0719162  59.8867290  63.1529495  76.4231811
  58.3874023  63.1634218  76.6324394  68.5248607  70.2522926  82.1635376
  68.3734113  70.0233477  81.2465460  68.5153286  71.2093527  82.1766721
  59.6171734  66.6354735  77.8321599  59.4791532  65.9034974  78.4333138
  60.5276658  66.5463636  77.5505787  70.2340814  73.2842048  80.2411858
  70.1753360  72.6001268  79.5742441  70.6360332  74.0261038  79.7892484
  60.9582969  63.3339913  79.1400918  60.4220326  62.8830651  79.7922514
  60.3699677  63.4685821  78.3971382  59.2531512  80.1003962  73.0345577
  59.4928111  80.7322486  73.7124595  58.4100709  79.7492002  73.3210936
  51.8887368  67.5805724  71.7968889  52.5758408  67.2667454  71.2089904
  51.7335497  68.4847088  71.5236140  56.6922090  62.4695920  76.2253913
  56.6080279  61.8621590  75.4904323  55.8704796  62.9604939  76.2263409
  63.7659374  75.9083084  75.4387081  63.6929546  76.7138056  75.9506385
  63.3236767  76.1075050  74.6135102  63.5549154  75.1454854  68.9489902
  62.7716676  75.6876535  69.0428127  64.2541899  75.6628834  69.3484143
  66.2258058  75.8069918  77.5945239  66.9386030  76.4417383  77.5221141
  65.7348086  75.9033784  76.7785241  61.2769971  73.5564362  78.4150810
  61.9779431  74.1900845  78.5680204  60.8065086  73.8979093  77.6546449
  69.3064799  57.9219077  73.7403467  68.3927879  58.1523304  73.9085673
  69.7357900  58.0057521  74.5917499  66.0378431  76.1468663  70.3431531
  66.2200826  75.3290318  70.8059283  66.8611417  76.3636355  69.9056421
  65.1258830  66.8528780  82.7269398  64.4499467  66.7522910  83.3971773
  65.9486464  66.6967994  83.1905395  56.8737689  73.0900717  75.3481913
  57.4591126  72.3444405  75.4809817  56.6762528  73.4004674  76.2318577
  59.7276345  76.1251964  70.3644355  59.0586720  76.6098092  69.8808395
  59.5889214  76.3721185  71.2787734  51.4655344  65.6606317  74.0686356
  51.5039444  65.1269908  74.8623474  50.9595637  65.1341523  73.4497333
  63.8681613  78.1595708  76.9627014  64.4199921  78.3227329  77.7276099
  64.2087807  78.7500146  76.2907038  58.8446106  60.5070858  77.5648898
  58.9087433  61.3685689  77.1526296  58.7813227  59.8944859  76.8321257
  58.3198379  62.5793990  81.2121933  58.9470418  62.1971068  81.8259457
  57.4626298  62.3608192  81.5777625  68.7192487  72.9856965  82.8175668
  69.2632391  73.5986924  82.3230623  68.1379332  73.5436544  83.3342681
  55.0963922  64.3870419  67.1440287  55.3917363  63.4781098  67.0907341
  54.1951957  64.3658159  66.8221290  67.0050000  76.1077683  73.9490696
  66.8801140  75.3067423  73.4401641  67.6629091  76.6023877  73.4604666
  61.4284482  59.7980842  79.4008488  61.9518884  60.0443139  80.1634797
  61.2096815  60.6300877  78.9811625  56.8251763  62.0684517  67.2679613
  56.4964469  61.1881896  67.0854719  57.1791134  62.0132186  68.1556002
  69.6765464  74.5267978  72.8639471  70.6012011  74.3210840  72.7263922
  69.5080767  74.2784380  73.7728812  63.2853499  57.8243850  75.5385481
  64.1079568  57.3504328  75.4164372  63.5291563  58.6034334  76.0384168
  69.4660780  75.0453646  68.2201562  69.6397658  74.4800068  67.4675415
  69.9589671  75.8454541  68.0381052  55.2837740  67.0568315  76.2865121
  54.7391208  67.8328123  76.4185395  56.1617090  67.4039119  76.1284243
  56.0703762  66.1838211  79.1795278  55.3285498  66.3320847  79.7659908
  55.7496506  66.4446477  78.3162027  72.3527376  71.8120116  66.8485791
  72.8778700  72.1507389  66.1235111  72.2649728  70.8767131  66.6648926
  64.0147424  75.7254189  78.9775668  64.3234551  75.4803336  79.8498368
  64.8122906  75.9300828  78.4894538  64.0368036  77.8792099  71.2081045
  63.5973027  77.3868478  71.9013901  64.7876153  77.3365067  70.9673120
  61.5566436  61.9011896  82.8735852  61.6054592  62.7774019  82.4913622
  62.0988950  61.3589289  82.3007495  72.0421282  72.4453019  82.1536989
  71.2516825  72.4277158  81.6141489  71.8054636  72.9841313  82.9086026
  73.6637354  71.7142427  79.7111739  73.3722162  72.0772408  80.5475200
  73.0509485  71.0009436  79.5325071  66.4904758  58.8722886  77.1447631
  67.0086702  59.6083912  76.8194120  66.1359891  59.1786879  77.9794390
  66.7417353  55.2923168  72.6648528  67.0219106  54.6246357  73.2908954
  67.5267959  55.4852264  72.1523192  64.8136312  69.8560721  83.0290264
  65.7339322  70.0339320  83.2230310  64.7785895  68.9116766  82.8769963
  54.0318477  65.0499314  71.9543538  53.7121261  64.1964623  71.6617912
  53.4851905  65.2647893  72.7101506  57.8098385  67.7661755  75.6713045
  58.0284394  68.6978863  75.6901079  58.2224158  67.4069730  76.4567849
  62.6826250  63.3394961  85.0615794  62.5822977  64.2889318  84.9927885
  62.4647792  63.0113200  84.1891864  53.9006737  68.6702226  73.9236660
  53.2070209  68.2556179  73.4106614  54.6479728  68.7122762  73.3270079
  62.5457520  66.7692100  83.8780855  62.0624602  67.5692460  84.0844744
  62.6318459  66.7800045  82.9248299  58.4730858  70.6596635  75.9149289
  59.4274111  70.6280577  75.8479221  58.2743381  70.1987259  76.7299515
  59.0630240  69.2297751  78.4820087  59.8823129  69.7241830  78.5054924
  59.3367047  68.3129719  78.4537654  56.8281086  76.2016254  72.9319487
  56.6935554  75.4416655  72.3657485  56.4113149  76.9257154  72.4648276
  59.9850212  77.0985571  73.1437930  59.8682596  78.0431004  73.0416620
  59.1642658  76.7959133  73.5323729  54.3165154  63.5635885  79.1812284
  54.9624017  63.0534839  79.6699509  54.1082305  64.3004566  79.7555709
  66.8418546  70.6316732  84.6804424  67.7109706  70.8057384  84.3191059
  66.3625298  71.4511149  84.5580154  61.0104726  77.7513833  76.3593858
  61.9131973  77.7837443  76.6760353  60.7842096  76.8214284  76.3740194
  62.7658328  76.5044820  73.0203937  61.8153959  76.5046681  72.9068309
  63.0690814  75.7577554  72.5039971  58.6562645  60.7103502  83.2787298
  59.5194106  60.3540307  83.4890623  58.0828056  60.3717397  83.9662702
  78.5011022  82.3405358  74.0849699  79.1389432  82.2212105  73.3813039
  78.3831865  83.2886202  74.1437651  75.3100728  82.2932786  74.0211224
  74.9719240  82.1773851  73.1331759  76.1790496  81.8923951  74.0012230
  71.1687544  84.1468263  70.0108115  70.6052409  84.0558200  69.2424403
  71.0539939  83.3268167  70.4910607  75.7920511  83.4467638  79.9797429
  75.7809152  83.0520436  79.1077933  75.9541151  82.7133711  80.5731201
  68.7151976  85.6419454  72.8492335  69.5073268  85.3010279  72.4338635
  68.9548626  85.7514429  73.7694489  76.7487103  87.8139230  65.3222580
  76.0975082  88.3993311  64.9356594  77.5431465  88.3445425  65.3817617
  70.6742730  84.9028367  65.7209714  71.4473606  84.3557355  65.5822590
  71.0268129  85.7672617  65.9324175  72.5127772  86.2304750  78.9276613
  72.2217638  87.1350381  78.8123280  73.1484757  86.2721277  79.6420683
  73.4383979  83.6081598  75.5177973  74.0347551  83.3837621  74.8034936
  73.4958951  82.8666344  76.1203421  73.0109007  81.0621034  63.3528164
  73.2634528  80.5402555  62.5911627  72.0733567  80.8987179  63.4554848
  78.0552290  80.0656812  71.1602907  78.8415380  79.6476235  70.8093324
  78.3190995  80.9702904  71.3284556  78.2262368  85.5029662  65.8591564
  77.5908201  85.5764289  66.5712469  77.8959774  86.0923261  65.1810643
  83.4560717  80.0032045  72.0635886  84.1885889  79.4331262  72.2973715
  82.7000073  79.6153646  72.5042391  72.7305296  82.9649140  65.5552539
  72.6141554  82.2894043  66.2233623  72.8407556  82.4781513  64.7384692
  75.0736837  82.4259287  69.2599228  74.7095044  81.8989908  69.9712150
  75.9303953  82.0357756  69.0865714  80.9786138  73.7153619  76.5230494
  80.6469463  74.5849030  76.2991709  80.3831751  73.3989903  77.2024525
  74.7142324  77.4549186  64.2560577  74.8816726  78.3229423  64.6231048
  74.5239493  77.6176468  63.3321866  77.4717657  85.9166165  75.9226407
  77.1718380  86.8191204  75.8142214  77.1268717  85.6498348  76.7747560
  70.9230139  82.3679962  71.9563111  69.9980635  82.2356176  72.1640803
  71.1714552  83.1474181  72.4533054  80.8714801  78.4348705  73.6023844
  79.9631678  78.3664114  73.3082605  80.8202397  78.9120650  74.4305670
  74.6931545  79.9106844  65.2407244  74.5731170  80.3563895  66.0792724
  73.9984133  80.2592162  64.6820782  68.2838950  82.0113236  72.7906901
  68.4131331  82.2647715  73.7046312  67.6036401  82.6040944  72.4711556
  72.4538437  92.6810486  68.8897375  72.3762467  93.6318311  68.9685855
  71.8500081  92.3356358  69.5472301  74.9455667  79.8538351  81.5458742
  74.1689001  80.4132271  81.5361606  75.5846230  80.3395134  82.0673612
  82.7376447  76.6365144  75.3801718  82.0950828  76.9297677  74.7341513
  82.2331376  76.5218064  76.1854915  80.3916611  80.3828317  66.0687578
  81.3034467  80.6155704  65.8935275  79.8826258  80.9665361  65.5062656
  73.2002039  82.6623804  81.1076709  73.9416724  83.2008848  80.8311532
  72.4939025  83.2890093  81.2648260  78.6757379  84.8052945  79.7048870
  79.0840735  84.3635355  78.9603503  77.9534640  84.2305572  79.9583063
  75.0288449  79.7425552  77.0782427  75.8749644  80.1664965  77.2217076
  74.9687087  79.0859176  77.7720990  78.9986193  85.3654135  73.4601159
  78.3695056  85.5299850  72.7577227  78.6111856  85.7795745  74.2312123
  82.8775425  86.3008573  70.8145523  82.1926464  86.6807475  70.2642556
  82.9619275  86.9103900  71.5477471  78.1787894  77.4029920  78.7363601
  77.9348826  78.1571981  78.1997876  78.4547825  77.7815268  79.5710848
  80.1326357  83.9468532  77.4140866  80.3443252  84.5900292  76.7375247
  80.0856105  83.1130849  76.9462796  77.7352586  76.5586353  74.3177438
  76.8737065  76.8567607  74.6094176  77.7615021  76.7756752  73.3858471
  74.5514155  85.1028544  70.7251244  75.0152501  85.3816247  69.9355867
  74.2870953  84.2011988  70.5424335  71.4438236  84.6500025  73.6631007
  72.0139593  85.0787293  73.0248492  72.0346348  84.3682610  74.3615193
  73.4883041  81.2251696  67.5340809  74.1907085  81.6772740  68.0014736
  73.1563670  80.5835515  68.1620702  71.9363403  79.8163453  81.9092019
  71.3062063  80.4979733  82.1427415  71.8299491  79.7046534  80.9645157
  67.2308375  79.4835249  72.8357943  66.4407429  79.7392777  72.3598053
  67.7219623  80.2983586  72.9409983  81.2472185  86.8240488  75.5863224
  82.0689629  86.4220675  75.3045905  81.2434588  86.7208722  76.5379339
  69.1823121  79.8479828  69.7941420  68.3854284  79.9598522  70.3124915
  68.9548713  80.1866480  68.9282310  75.0128788  86.3724531  77.7423934
  75.0773221  86.8344938  78.5782106  74.3039712  85.7421896  77.8706244
  65.5146078  79.7365739  75.2672934  65.7654117  80.6212749  75.5330510
  66.0505627  79.5570341  74.4948025  89.3378178  83.1679236  71.9348195
  88.5841886  82.5986634  71.7792200  89.4725719  83.1341901  72.8818830
  74.7276806  88.0392639  67.6102914  74.5922481  88.8844174  68.0387762
  75.2686619  88.2411916  66.8468848  71.2144146  74.1184218  84.2717270
  70.8211091  73.5650417  84.9464914  72.0310286  74.4294797  84.6623787
  68.1806203  85.5568077  68.1830840  68.6930724  86.3511327  68.3336404
  68.8328916  84.8594367  68.1164441  69.9901088  88.6733833  70.2653593
  70.1667716  89.5951798  70.0774577  70.7857922  88.3592252  70.6947973
  74.1312107  75.5342098  81.8637526  74.8721820  76.1349251  81.7841989
  74.3630029  74.7919735  81.3055569  69.2753445  80.7198465  80.1415756
  69.1606960  79.8183722  80.4422855  68.4197962  80.9662162  79.7900572
  76.3545282  88.6616205  81.7403257  75.9109137  87.8752584  81.4224161
  77.0162496  88.8495356  81.0747147  71.1132404  90.1912007  76.2663935
  71.6639829  90.0629070  75.4940929  70.2743879  90.4906896  75.9158828
  78.4526520  88.9419005  79.7684658  78.4344996  89.7627886  79.2764927
  79.3746441  88.8173080  79.9934799  74.9099575  86.4563135  80.6108166
  75.4427911  85.6951423  80.3807474  74.3813656  86.1636786  81.3532321
  78.0769270  71.5623200  76.1401808  77.7333539  72.4524842  76.0640919
  78.4448232  71.3724858  75.2771393  66.1455120  83.8856731  68.9590410
  66.9830342  84.2953739  68.7424118  66.3233388  82.9456173  68.9290604
  78.0419552  81.5531812  64.6474243  77.5266176  82.3236416  64.8862630
  77.7696861  80.8796948  65.2707305  75.6266663  76.3981512  69.7059481
  74.7708260  76.0088363  69.5265120  76.0393615  76.4773473  68.8459267
  77.1565810  73.9327856  74.1051041  76.6530606  73.8957991  73.2918846
  77.4496417  74.8420598  74.1647698  73.4008696  74.0166585  73.1117223
  74.2661693  73.8209394  72.7523112  73.4686205  73.7876937  74.0386580
  83.0153826  84.3064166  66.5827417  82.2383269  83.9675326  66.1382579
  83.6945307  84.3116789  65.9082382  77.8305855  79.4258904  66.4734024
  77.5255991  79.7405053  67.3244167  78.7836298  79.5040324  66.5161357
  76.2752287  85.5849127  68.1226978  75.7473649  84.8501887  67.8100216
  75.7739790  86.3623803  67.8766947  81.2545133  83.7798147  73.2394025
  80.5968808  84.4697409  73.3274153  82.0585533  84.1694579  73.5828011
  71.0071015  76.2468793  70.4833590  71.5814767  76.0243975  69.7506783
  71.5941997  76.3157488  71.2362191  80.0650592  82.1342520  71.2897966
  80.5782474  82.7672512  71.7919676  80.7151816  81.5343716  70.9241326
  71.3340602  78.2773254  64.5029475  70.4977914  78.6147941  64.8238750
  71.1945372  78.1422234  63.5656612  73.3093683  73.1210042  69.2108659
  72.6558095  72.8059059  68.5865274  73.2674157  72.4985783  69.9368482
  74.4204887  83.4029337  61.1261951  73.5131949  83.1718591  61.3253100
  74.9175919  82.6066956  61.3135933  77.3272966  92.1126844  64.0458637
  76.6534665  92.4158541  64.6543595  77.7138788  92.9155925  63.6964094
  76.5431423  79.6091976  73.5356307  75.6253984  79.8306923  73.3777995
  76.9591567  79.6838286  72.6768014  77.3266471  81.0083391  68.6658987
  78.0738290  81.5204789  68.3566109  77.5958060  80.6867444  69.5263381
  75.5993121  83.5041932  65.6485941  74.6904340  83.2200965  65.7458411
  75.6288205  83.9241011  64.7889248  80.8312388  87.1148522  69.4177109
  80.3774715  86.2739431  69.4742299  80.2006355  87.7509920  69.7551889
  79.7745308  78.0440508  70.6477776  79.0368065  77.5317894  70.9788019
  80.0272081  77.6040889  69.8361053  79.2745328  88.9525018  70.3526927
  79.5668302  89.5130075  69.6339293  79.7843948  89.2453579  71.1080086
  79.8756935  70.8216760  71.2419546  80.1815812  69.9614123  70.9545461
  80.6009540  71.4134380  71.0418540  66.1681291  81.2247446  69.6301144
  65.9705691  80.6316807  68.9052210  65.6127955  80.9199656  70.3477082
  74.1478015  81.1170553  71.7495737  74.2026625  80.1644389  71.6738213
  73.3369217  81.2729992  72.2337035  75.2969209  85.0450676  62.9874020
  74.8588639  84.3286535  62.5279657  76.0379650  85.2726791  62.4259111
  72.0870375  79.7347612  69.5086116  71.2738240  80.0341783  69.9151308
  72.5829369  79.3403301  70.2260598  74.2378953  89.7305369  71.4420380
  74.1955132  89.9566216  70.5128912  75.1541652  89.4968744  71.5906181
  77.6844587  80.1989437  78.3401009  78.0393974  80.4260910  79.1995475
  78.3316718  80.5307814  77.7178265  83.4142324  83.3207873  69.0450338
  83.2760222  83.5109469  68.1171528  83.0578542  84.0827256  69.5018390
  71.5784450  77.3065968  75.1247351  72.2183829  77.1654727  74.4270314
  70.7461980  77.0200481  74.7485953  83.4411703  85.3884400  74.0561610
  83.8748210  85.2959689  74.9044664  84.1543284  85.3641900  73.4181626
  72.3544754  86.6068398  71.2382343  73.1485352  86.1118719  71.0364918
  71.6436446  86.0786262  70.8750049  77.1739598  88.9886494  75.5894711
  77.2276620  89.5577430  76.3572426  76.3054379  89.1588379  75.2248748
  68.6627517  80.7511480  67.3142096  67.7325105  80.6895936  67.5312058
  68.7584989  80.2287433  66.5178737  68.5813066  77.2766293  69.9020337
  68.8419883  78.1911626  69.7929498  69.4030238  76.8090736  70.0516950
  70.0537991  78.6904050  77.0719162  70.7261045  78.4821412  76.4231811
  69.2267778  78.4926136  76.6324394  84.3027253  85.4308100  76.5894495
  84.4963143  86.3353911  76.8353770  84.2027871  84.9715520  77.4233080
  75.9563563  75.3165991  79.0884823  75.3091478  76.0155941  78.9949299
  76.7264579  75.7502135  79.4561071  79.3642361  85.5814843  82.1635376
  79.2127868  85.3525395  81.2465460  79.3547041  86.5385445  82.1766721
  76.1327698  83.1546756  77.1481642  77.0619758  83.3057916  76.9750610
  75.7118728  83.2430777  76.2930289  74.9316030  87.1797420  74.9180180
  74.7927115  86.8116205  75.7906118  74.1430626  87.6945060  74.7464138
  75.5264182  92.2806517  66.2605717  75.7015937  91.8094560  67.0751339
  74.8396970  92.9072283  66.4886977  76.4821245  86.5579023  72.3069018
  76.1471077  86.5179793  73.2026668  75.9825190  85.8923739  71.8339428
  70.4565489  81.9646653  77.8321599  70.3185287  81.2326892  78.4333138
  71.3670412  81.8755553  77.5505787  79.4180436  83.9035057  62.5806078
  78.8009607  83.1781886  62.4839130  78.9496925  84.6644418  62.2373152
  73.0847789  81.6766612  77.3205279  73.7947408  81.0359805  77.2791897
  73.0417097  81.9279507  78.2431459  81.0734568  88.6133966  80.2411858
  81.0147114  87.9293186  79.5742441  81.4754086  89.3552956  79.7892484
  71.7976723  78.6631830  79.1400918  71.2614080  78.2122569  79.7922514
  71.2093432  78.7977739  78.3971382  70.0925267  95.4295880  73.0345577
  70.3321865  96.0614404  73.7124595  69.2494463  95.0783920  73.3210936
  71.2078982  78.1220482  61.7027382  70.3308449  78.0009283  61.3389628
  71.6836735  77.3306560  61.4506270  81.0751975  86.5773550  78.4725838
  80.1878754  86.2399472  78.5952236  81.6450526  85.8456581  78.7094603
  62.7281122  82.9097641  71.7968889  63.4152162  82.5959371  71.2089904
  62.5729251  83.8139006  71.5236140  67.5315845  77.7987838  76.2253913
  67.4474033  77.1913508  75.4904323  66.7098551  78.2896856  76.2263409
  74.6053129  91.2375002  75.4387081  74.5323300  92.0429974  75.9506385
  74.1630522  91.4366968  74.6135102  74.3942908  90.4746772  68.9489902
  73.6110430  91.0168452  69.0428127  75.0935653  90.9920752  69.3484143
  77.7039558  76.2841402  71.5924108  78.2008258  75.5311364  71.2725178
  76.9326540  76.3205718  71.0267317  85.5569316  81.9881767  73.2342399
  85.5459192  82.8706483  72.8636332  84.6886695  81.6353318  73.0396936
  77.0651812  91.1361836  77.5945239  77.7779784  91.7709301  77.5221141
  76.5741841  91.2325702  76.7785241  78.7869339  85.0413089  69.1662531
  77.8525618  85.1614551  68.9967235  78.9646008  84.1385556  68.9022541
  74.2874527  78.4258785  71.3195792  73.9172315  77.8729825  72.0076698
  74.7833620  77.8216918  70.7670792  82.1741890  80.8830408  69.7012565
  82.6402343  81.7158400  69.6272868  82.6249391  80.4175390  70.4057824
  72.1163726  88.8856280  78.4150810  72.8173185  89.5192763  78.5680204
  71.6458841  89.2271011  77.6546449  80.2418122  87.2274229  66.6998717
  80.5177965  87.1130824  67.6092591  79.3722620  86.8291714  66.6610890
  80.1458553  73.2510995  73.7403467  79.2321633  73.4815222  73.9085673
  80.5751655  73.3349439  74.5917499  79.9165012  81.4400887  76.2403361
  79.2636462  81.6876794  75.5855813  80.2945392  80.6265025  75.9065838
  76.8772186  91.4760580  70.3431531  77.0594580  90.6582236  70.8059283
  77.7005172  91.6928272  69.9056421  77.2114351  90.4028765  67.6046579
  77.7402117  89.8921220  66.9916741  77.4742571  90.0871296  68.4692112
  75.9652585  82.1820698  82.7269398  75.2893222  82.0814827  83.3971773
  76.7880219  82.0259912  83.1905395  67.7131444  88.4192635  75.3481913
  68.2984881  87.6736323  75.4809817  67.5156282  88.7296591  76.2318577
  70.5670099  91.4543882  70.3644355  69.8980474  91.9390010  69.8808395
  70.4282969  91.7013102  71.2787734  62.3049099  80.9898235  74.0686356
  62.3433198  80.4561826  74.8623474  61.7989391  80.4633440  73.4497333
  74.7075368  93.4887626  76.9627014  75.2593676  93.6519247  77.7276099
  75.0481561  94.0792063  76.2907038  69.6839861  75.8362775  77.5648898
  69.7481187  76.6977606  77.1526296  69.6206981  75.2236777  76.8321257
  69.1592133  77.9085908  81.2121933  69.7864172  77.5262985  81.8259457
  68.3020052  77.6900110  81.5777625  79.5586242  88.3148883  82.8175668
  80.1026146  88.9278841  82.3230623  78.9773087  88.8728461  83.3342681
  65.9357676  79.7162337  67.1440287  66.2311117  78.8073015  67.0907341
  65.0345712  79.6950076  66.8221290  77.8443755  91.4369601  73.9490696
  77.7194894  90.6359341  73.4401641  78.5022846  91.9315794  73.4604666
  69.4651923  77.7918334  73.1267836  68.7438509  78.4054301  72.9875309
  70.2545179  78.3276098  73.0484482  79.9078663  89.2378621  75.5770246
  78.9608999  89.1183972  75.5048573  80.2561436  88.3501119  75.6596507
  72.2678237  75.1272760  79.4008488  72.7912638  75.3735057  80.1634797
  72.0490570  75.9592795  78.9811625  76.9125097  89.0331337  71.7774598
  76.7650059  88.1048045  71.9582168  77.7378590  89.0551428  71.2931673
  70.7787341  77.6849404  67.6355090  71.1183413  78.2135326  66.9133699
  71.2259461  78.0229811  68.4113657  80.5159218  89.8559896  72.8639471
  81.4405766  89.6502757  72.7263922  80.3474522  89.6076297  73.7728812
  73.4730782  76.0686455  77.0858158  73.1327602  75.2694268  77.4878838
  72.7669788  76.3688166  76.5134992  74.1247253  73.1535768  75.5385481
  74.9473323  72.6796246  75.4164372  74.3685317  73.9326251  76.0384168
  72.7655488  76.1824026  65.8348383  73.4863850  76.5605279  65.3312100
  72.1420792  76.9012903  65.9383361  76.9086611  76.8869175  66.7706715
  77.1250225  77.7693813  66.4695544  76.4280678  76.4955388  66.0412357
  71.6485832  79.8454888  73.3477460  71.5030413  80.1595191  74.2401741
  71.1711036  80.4639789  72.7948359  73.5082215  76.8357436  73.3958350
  73.4943784  75.9398530  73.0590647  74.2254643  76.8428100  74.0296636
  75.3608346  77.2694776  75.4411477  75.1026124  78.1911847  75.4395807
  74.8293386  76.8725211  76.1311941  80.3054535  90.3745564  68.2201562
  80.4791412  89.8091986  67.4675415  80.7983426  91.1746458  68.0381052
  66.1231494  82.3860233  76.2865121  65.5784962  83.1620041  76.4185395
  67.0010844  82.7331037  76.1284243  72.9119111  75.7171816  68.6645920
  73.0335022  74.7888463  68.8636807  72.6221153  75.7310502  67.7524235
  75.7810301  73.4026727  71.8012639  75.8031998  73.4666060  70.8464619
  76.1978360  72.5631236  71.9953146  86.1593926  83.1381986  69.8391862
  86.6025072  82.3889312  69.4410985  85.2820436  83.1292123  69.4565594
  81.2929707  89.6912328  65.3198461  81.9880612  90.3119021  65.5385775
  81.6352857  88.8407679  65.5950838  66.9097516  81.5130129  79.1795278
  66.1679252  81.6612764  79.7659908  66.5890261  81.7738394  78.3162027
  83.1921130  87.1412033  66.8485791  83.7172454  87.4799306  66.1235111
  83.1043483  86.2059049  66.6648926  74.8541179  91.0546107  78.9775668
  75.1628305  90.8095254  79.8498368  75.6516661  91.2592746  78.4894538
  74.8761791  93.2084017  71.2081045  74.4366781  92.7160395  71.9013901
  75.6269908  92.6656984  70.9673120  67.3554130  89.3995558  71.2105673
  68.1812150  89.0999329  70.8304316  67.0048182  88.6303180  71.6595461
  72.3235663  88.7522026  73.2803346  71.7015672  88.0892731  72.9805574
  72.9940530  88.7783158  72.5976994  65.5562735  87.3181884  72.1694606
  64.7194643  86.8904058  71.9878607  65.5286380  87.5114327  73.1065397
  72.3960191  77.2303814  82.8735852  72.4448346  78.1065937  82.4913622
  72.9382705  76.6881207  82.3007495  82.8815036  87.7744937  82.1536989
  82.0910580  87.7569076  81.6141489  82.6448391  88.3133231  82.9086026
  83.0012911  84.6237403  79.4669718  83.0510916  84.4587411  80.4085241
  82.8926835  83.7564662  79.0767599  71.8849170  87.3025949  66.7561807
  72.0337290  87.9861414  66.1028480  72.6915613  87.2831039  67.2711263
  80.2916674  80.6068331  80.7829025  81.1926536  80.4674796  80.4913022
  80.3664648  80.7722786  81.7227202  74.6259479  77.9835186  79.6282211
  73.7562788  78.2768752  79.3564799  74.8618959  78.5675631  80.3489475
  84.5031108  87.0434345  79.7111739  84.2115916  87.4064326  80.5475200
  83.8903239  86.3301353  79.5325071  85.7026790  84.6087225  72.2314310
  86.5373682  85.0477029  72.3951870  85.8385919  84.1325878  71.4122555
  82.7518296  82.1666960  78.1791797  83.2272418  82.3594606  77.3710649
  81.8283862  82.2226145  77.9335181  69.6401803  83.3291127  67.7622876
  69.3947845  82.4253457  67.9603086  69.8097718  83.3308277  66.8202354
  77.3298513  74.2014803  77.1447631  77.8480457  74.9375830  76.8194120
  76.9753646  74.5078796  77.9794390  68.9097451  79.0619484  65.2609037
  68.2166695  79.1363839  64.6049073  68.6649202  78.2979828  65.7830554
  77.5811107  70.6215086  72.6648528  77.8612861  69.9538275  73.2908954
  78.3661714  70.8144181  72.1523192  75.3844576  89.7974080  64.2273554
  74.8118543  90.4164267  63.7744026  75.9577369  90.3473441  64.7613476
  81.4519965  79.0432720  76.4120103  82.4037388  79.1430817  76.4332327
  81.2823416  78.2510988  76.9218187  79.4734345  76.1288303  76.5979504
  78.8784277  76.4093316  75.9025993  79.1884042  76.6182204  77.3696245
  78.6041835  90.0811230  65.3582136  79.5372508  90.0156791  65.5615012
  78.5165048  90.9167497  64.8996669  81.2329852  89.3977100  62.3186084
  81.1543484  89.0636964  63.2121842  82.0539519  89.8898868  62.3177556
  83.9308043  82.2638839  75.5262403  83.8984363  81.3254840  75.7122086
  84.5408667  82.3422876  74.7928228  75.7691374  81.1334892  61.5689607
  76.7150479  81.0041100  61.6378025  75.3905619  80.3949554  62.0459035
  84.0802532  79.0549883  75.5720686  83.5641580  78.2708339  75.3850615
  84.9642480  78.7268599  75.7367205  81.7413259  72.7990898  71.5316499
  81.5438080  72.4905987  72.4159830  82.3512964  73.5252537  71.6614428
  89.7484593  83.3254846  74.6668439  90.4787982  83.0640134  75.2276143
  89.1391539  82.5883568  74.7070507  87.8299890  81.4662709  75.2642891
  87.1033054  81.3318674  74.6559382  87.4147177  81.7739537  76.0699609
  75.6530067  85.1852638  83.0290264  76.5733076  85.3631238  83.2230310
  75.6179650  84.2408684  82.8769963  73.9534291  79.0584869  61.5044492
  73.0465747  78.7617981  61.5807206  74.2310272  78.7614687  60.6378778
  64.8712232  80.3791232  71.9543538  64.5515016  79.5256540  71.6617912
  64.3245660  80.5939810  72.7101506  68.6492139  83.0953673  75.6713045
  68.8678149  84.0270781  75.6901079  69.0617913  82.7361648  76.4567849
  75.5696357  73.6021758  67.6588733  74.7597085  73.2568843  68.0343979
  76.2580774  73.2929302  68.2476345  77.4986905  72.6799805  69.2813030
  78.0517944  73.0995259  69.9403053  77.7356992  71.7535553  69.3235986
  73.5220004  78.6686879  85.0615794  73.4216731  79.6181236  84.9927885
  73.3041546  78.3405118  84.1891864  72.7233076  75.9171804  61.6456471
  73.5852240  76.2426702  61.9052288  72.9083420  75.1303300  61.1329537
  64.7400492  83.9994144  73.9236660  64.0463963  83.5848096  73.4106614
  65.4873483  84.0414680  73.3270079  80.8765712  74.7900330  68.7891694
  80.2964381  75.4485134  68.4069747  80.6101645  73.9677675  68.3779112
  79.3269279  74.1905388  70.9913014  79.8269057  74.3021923  70.1827333
  79.9704887  73.8866441  71.6313823  73.3851275  82.0984018  83.8780855
  72.9018356  82.8984378  84.0844744  73.4712214  82.1091963  82.9248299
  66.6537234  83.9312397  71.8002675  66.6307922  84.0300085  70.8484558
  66.9637871  84.7777548  72.1219841  69.3124612  85.9888552  75.9149289
  70.2667866  85.9572495  75.8479221  69.1137136  85.5279176  76.7299515
  69.9023994  84.5589669  78.4820087  70.7216883  85.0533747  78.5054924
  70.1760802  83.6421637  78.4537654  79.6590590  76.9500421  67.8448042
  78.7716445  77.2350071  67.6268237  80.0744579  76.7894184  66.9975319
  83.0105126  76.9746942  71.5602382  83.7865517  77.4643394  71.8326998
  82.2853261  77.4004996  72.0174251  85.4477685  77.6874561  72.6176322
  86.0422176  77.4470297  71.9069630  85.5204269  76.9681692  73.2449859
  67.6674841  91.5308172  72.9319487  67.5329309  90.7708573  72.3657485
  67.2506903  92.2549072  72.4648276  78.8033804  86.7145095  61.9396062
  79.5069654  86.9195098  62.5553718  78.0796453  87.2821857  62.2045146
  79.6331614  82.4654957  68.0598333  79.5766815  82.9223508  67.2205965
  80.1859957  81.7045641  67.8821175  83.4436420  78.2544689  68.8848452
  83.1873354  77.8541324  69.7156660  82.8189288  78.9688483  68.7598591
  87.7548758  80.9940762  71.3919743  87.1948316  81.0633951  72.1651305
  87.1492261  80.8181746  70.6719240  70.8243967  92.4277489  73.1437930
  70.7076351  93.3722921  73.0416620  70.0036413  92.1251051  73.5323729
  80.7120501  87.1527625  63.9894522  81.5466105  86.7208823  63.8071997
  80.5504844  86.9809638  64.9171417  80.3666393  83.6559738  65.3550862
  80.3115197  83.4904009  64.4139306  79.7412449  84.3635771  65.5113051
  65.1558908  78.8927802  79.1812284  65.8017772  78.3826756  79.6699509
  64.9476059  79.6296484  79.7555709  77.6812301  85.9608650  84.6804424
  78.5503460  86.1349302  84.3191059  77.2019052  86.7803067  84.5580154
  73.6762519  73.1567847  64.9336180  73.6641189  74.1009687  65.0904451
  74.5685941  72.9737992  64.6395641  71.8498481  93.0805751  76.3593858
  72.7525727  93.1129361  76.6760353  71.6235851  92.1506202  76.3740194
  73.6052083  91.8336737  73.0203937  72.6547714  91.8338599  72.9068309
  73.9084569  91.0869472  72.5039971  77.4914638  69.7510624  69.1882117
  76.7247034  69.1969110  69.3338799  77.9025343  69.8232492  70.0496269
  69.4956399  76.0395419  83.2787298  70.3587861  75.6832224  83.4890623
  68.9221810  75.7009314  83.9662702  89.3404776  97.6697276  74.0849699
  89.9783186  97.5504023  73.3813039  89.2225619  98.6178120  74.1437651
  86.1494483  97.6224704  74.0211224  85.8112994  97.5065769  73.1331759
  87.0184251  97.2215869  74.0012230  82.0081298  99.4760180  70.0108115
  81.4446163  99.3850117  69.2424403  81.8933693  98.6560085  70.4910607
  86.6314266  98.7759556  79.9797429  86.6202906  98.3812354  79.1077933
  86.7934905  98.0425628  80.5731201  79.5545730 100.9711372  72.8492335
  80.3467022 100.6302197  72.4338635  79.7942380 101.0806347  73.7694489
  87.5880857 103.1431148  65.3222580  86.9368837 103.7285228  64.9356594
  88.3825220 103.6737343  65.3817617  81.5136484 100.2320285  65.7209714
  82.2867360  99.6849272  65.5822590  81.8661883 101.0964534  65.9324175
  83.3521527 101.5596667  78.9276613  83.0611393 102.4642298  78.8123280
  83.9878511 101.6013195  79.6420683  84.2777734  98.9373516  75.5177973
  84.8741306  98.7129538  74.8034936  84.3352705  98.1958261  76.1203421
  83.8502762  96.3912951  63.3528164  84.1028283  95.8694473  62.5911627
  82.9127321  96.2279097  63.4554848  88.8946045  95.3948730  71.1602907
  89.6809134  94.9768153  70.8093324  89.1584749  96.2994822  71.3284556
  89.0656122 100.8321580  65.8591564  88.4301955 100.9056206  66.5712469
  88.7353529 101.4215179  65.1810643  94.2954472  95.3323963  72.0635886
  95.0279644  94.7623180  72.2973715  93.5393828  94.9445563  72.5042391
  83.5699051  98.2941057  65.5552539  83.4535309  97.6185961  66.2233623
  83.6801311  97.8073431  64.7384692  85.9130592  97.7551204  69.2599228
  85.5488799  97.2281825  69.9712150  86.7697708  97.3649673  69.0865714
  91.8179892  89.0445537  76.5230494  91.4863217  89.9140948  76.2991709
  91.2225506  88.7281821  77.2024525  85.5536079  92.7841104  64.2560577
  85.7210481  93.6521340  64.6231048  85.3633248  92.9468386  63.3321866
  88.3111412 101.2458083  75.9226407  88.0112135 102.1483122  75.8142214
  87.9662471 100.9790266  76.7747560  81.7623893  97.6971880  71.9563111
  80.8374390  97.5648094  72.1640803  82.0108306  98.4766099  72.4533054
  91.7108556  93.7640623  73.6023844  90.8025433  93.6956032  73.3082605
  91.6596151  94.2412568  74.4305670  85.5325299  95.2398762  65.2407244
  85.4124925  95.6855812  66.0792724  84.8377888  95.5884079  64.6820782
  79.1232704  97.3405153  72.7906901  79.2525085  97.5939632  73.7046312
  78.4430156  97.9332861  72.4711556  83.2932192 108.0102403  68.8897375
  83.2156221 108.9610228  68.9685855  82.6893835 107.6648276  69.5472301
  85.7849421  95.1830269  81.5458742  85.0082755  95.7424189  81.5361606
  86.4239984  95.6687052  82.0673612  93.5770202  91.9657062  75.3801718
  92.9344582  92.2589595  74.7341513  93.0725130  91.8509982  76.1854915
  91.2310366  95.7120235  66.0687578  92.1428222  95.9447621  65.8935275
  90.7220013  96.2957279  65.5062656  84.0395794  97.9915722  81.1076709
  84.7810478  98.5300766  80.8311532  83.3332779  98.6182011  81.2648260
  89.5151133 100.1344863  79.7048870  89.9234489  99.6927273  78.9603503
  88.7928395  99.5597490  79.9583063  85.8682203  95.0717469  77.0782427
  86.7143399  95.4956883  77.2217076  85.8080841  94.4151094  77.7720990
  89.8379948 100.6946053  73.4601159  89.2088810 100.8591767  72.7577227
  89.4505610 101.1087663  74.2312123  93.7169180 101.6300491  70.8145523
  93.0320218 102.0099392  70.2642556  93.8013029 102.2395818  71.5477471
  89.0181649  92.7321838  78.7363601  88.7742581  93.4863898  78.1997876
  89.2941579  93.1107185  79.5710848  90.9720111  99.2760450  77.4140866
  91.1837007  99.9192210  76.7375247  90.9249860  98.4422767  76.9462796
  88.5746340  91.8878271  74.3177438  87.7130819  92.1859524  74.6094176
  88.6008775  92.1048670  73.3858471  85.3907910 100.4320461  70.7251244
  85.8546255 100.7108164  69.9355867  85.1264708  99.5303906  70.5424335
  82.2831991  99.9791943  73.6631007  82.8533348 100.4079211  73.0248492
  82.8740103  99.6974528  74.3615193  84.3276796  96.5543614  67.5340809
  85.0300839  97.0064657  68.0014736  83.9957424  95.9127432  68.1620702
  82.7757157  95.1455370  81.9092019  82.1455818  95.8271651  82.1427415
  82.6693245  95.0338452  80.9645157  78.0702130  94.8127166  72.8357943
  77.2801184  95.0684695  72.3598053  78.5613377  95.6275504  72.9409983
  92.0865939 102.1532405  75.5863224  92.9083383 101.7512593  75.3045905
  92.0828342 102.0500640  76.5379339  80.0216875  95.1771746  69.7941420
  79.2248038  95.2890440  70.3124915  79.7942467  95.5158398  68.9282310
  85.8522543 101.7016449  77.7423934  85.9166975 102.1636856  78.5782106
  85.1433467 101.0713814  77.8706244  76.3539833  95.0657657  75.2672934
  76.6047871  95.9504667  75.5330510  76.8899381  94.8862258  74.4948025
 100.1771932  98.4971154  71.9348195  99.4235641  97.9278552  71.7792200
 100.3119474  98.4633818  72.8818830  85.5670560 103.3684556  67.6102914
  85.4316235 104.2136092  68.0387762  86.1080373 103.5703834  66.8468848
  82.0537900  89.4476136  84.2717270  81.6604846  88.8942335  84.9464914
  82.8704040  89.7586715  84.6623787  79.0199958 100.8859994  68.1830840
  79.5324478 101.6803245  68.3336404  79.6722671 100.1886285  68.1164441
  80.8294843 104.0025751  70.2653593  81.0061471 104.9243715  70.0774577
  81.6251676 103.6884170  70.6947973  84.9705861  90.8634015  81.8637526
  85.7115574  91.4641168  81.7841989  85.2023784  90.1211653  81.3055569
  80.1147199  96.0490382  80.1415756  80.0000714  95.1475640  80.4422855
  79.2591717  96.2954079  79.7900572  87.1939037 103.9908123  81.7403257
  86.7502891 103.2044501  81.4224161  87.8556250 104.1787273  81.0747147
  81.9526158 105.5203924  76.2663935  82.5033583 105.3920988  75.4940929
  81.1137634 105.8198813  75.9158828  89.2920275 104.2710923  79.7684658
  89.2738750 105.0919804  79.2764927  90.2140195 104.1464998  79.9934799
  85.7493329 101.7855052  80.6108166  86.2821666 101.0243340  80.3807474
  85.2207410 101.4928704  81.3532321  88.9163024  86.8915118  76.1401808
  88.5727293  87.7816760  76.0640919  89.2841987  86.7016776  75.2771393
  76.9848875  99.2148649  68.9590410  77.8224097  99.6245657  68.7424118
  77.1627142  98.2748091  68.9290604  88.8813307  96.8823729  64.6474243
  88.3659930  97.6528334  64.8862630  88.6090615  96.2088865  65.2707305
  86.4660418  91.7273430  69.7059481  85.6102014  91.3380280  69.5265120
  86.8787370  91.8065391  68.8459267  87.9959564  89.2619773  74.1051041
  87.4924360  89.2249908  73.2918846  88.2890171  90.1712516  74.1647698
  84.2402450  89.3458503  73.1117223  85.1055447  89.1501312  72.7523112
  84.3079959  89.1168855  74.0386580  93.8547581  99.6356084  66.5827417
  93.0777024  99.2967243  66.1382579  94.5339062  99.6408707  65.9082382
  88.6699610  94.7550821  66.4734024  88.3649746  95.0696971  67.3244167
  89.6230052  94.8332241  66.5161357  87.1146042 100.9141045  68.1226978
  86.5867403 100.1793804  67.8100216  86.6133545 101.6915721  67.8766947
  92.0938888  99.1090065  73.2394025  91.4362562  99.7989327  73.3274153
  92.8979287  99.4986497  73.5828011  81.8464769  91.5760711  70.4833590
  82.4208521  91.3535892  69.7506783  82.4335752  91.6449405  71.2362191
  90.9044347  97.4634438  71.2897966  91.4176228  98.0964430  71.7919676
  91.5545571  96.8635633  70.9241326  82.1734357  93.6065172  64.5029475
  81.3371669  93.9439859  64.8238750  82.0339126  93.4714152  63.5656612
  84.1487437  88.4501960  69.2108659  83.4951849  88.1350977  68.5865274
  84.1067911  87.8277700  69.9368482  85.2598642  98.7321255  61.1261951
  84.3525704  98.5010508  61.3253100  85.7569674  97.9358874  61.3135933
  88.1666721 107.4418762  64.0458637  87.4928420 107.7450459  64.6543595
  88.5532543 108.2447842  63.6964094  87.3825177  94.9383893  73.5356307
  86.4647739  95.1598840  73.3777995  87.7985321  95.0130204  72.6768014
  88.1660225  96.3375309  68.6658987  88.9132044  96.8496706  68.3566109
  88.4351815  96.0159362  69.5263381  86.4386875  98.8333850  65.6485941
  85.5298095  98.5492883  65.7458411  86.4681959  99.2532928  64.7889248
  91.6706143 102.4440439  69.4177109  91.2168470 101.6031349  69.4742299
  91.0400110 103.0801838  69.7551889  90.6139062  93.3732425  70.6477776
  89.8761819  92.8609812  70.9788019  90.8665836  92.9332807  69.8361053
  90.1139082 104.2816936  70.3526927  90.4062056 104.8421993  69.6339293
  90.6237703 104.5745497  71.1080086  90.7150690  86.1508677  71.2419546
  91.0209567  85.2906041  70.9545461  91.4403295  86.7426298  71.0418540
  77.0075046  96.5539364  69.6301144  76.8099446  95.9608725  68.9052210
  76.4521710  96.2491574  70.3477082  84.9871769  96.4462470  71.7495737
  85.0420379  95.4936307  71.6738213  84.1762971  96.6021909  72.2337035
  86.1362963 100.3742593  62.9874020  85.6982393  99.6578452  62.5279657
  86.8773404 100.6018708  62.4259111  82.9264129  95.0639530  69.5086116
  82.1131995  95.3633701  69.9151308  83.4223124  94.6695219  70.2260598
  85.0772707 105.0597287  71.4420380  85.0348886 105.2858133  70.5128912
  85.9935406 104.8260662  71.5906181  88.5238341  95.5281355  78.3401009
  88.8787729  95.7552828  79.1995475  89.1710472  95.8599731  77.7178265
  94.2536078  98.6499790  69.0450338  94.1153977  98.8401386  68.1171528
  93.8972297  99.4119173  69.5018390  82.4178204  92.6357886  75.1247351
  83.0577583  92.4946645  74.4270314  81.5855735  92.3492399  74.7485953
  94.2805458 100.7176317  74.0561610  94.7141964 100.6251607  74.9044664
  94.9937038 100.6933818  73.4181626  83.1938508 101.9360316  71.2382343
  83.9879107 101.4410636  71.0364918  82.4830200 101.4078179  70.8750049
  88.0133353 104.3178412  75.5894711  88.0670375 104.8869348  76.3572426
  87.1448134 104.4880297  75.2248748  79.5021272  96.0803398  67.3142096
  78.5718860  96.0187853  67.5312058  79.5978744  95.5579351  66.5178737
  79.4206821  92.6058211  69.9020337  79.6813638  93.5203544  69.7929498
  80.2423993  92.1382653  70.0516950  80.8931746  94.0195968  77.0719162
  81.5654799  93.8113330  76.4231811  80.0661532  93.8218054  76.6324394
  95.1421007 100.7600018  76.5894495  95.3356897 101.6645829  76.8353770
  95.0421625 100.3007437  77.4233080  86.7957318  90.6457909  79.0884823
  86.1485233  91.3447858  78.9949299  87.5658333  91.0794053  79.4561071
  90.2036116 100.9106761  82.1635376  90.0521622 100.6817313  81.2465460
  90.1940795 101.8677362  82.1766721  86.9721452  98.4838674  77.1481642
  87.9013512  98.6349833  76.9750610  86.5512482  98.5722694  76.2930289
  85.7709784 102.5089338  74.9180180  85.6320870 102.1408122  75.7906118
  84.9824380 103.0236977  74.7464138  86.3657936 107.6098435  66.2605717
  86.5409692 107.1386478  67.0751339  85.6790724 108.2364201  66.4886977
  87.3214999 101.8870941  72.3069018  86.9864832 101.8471711  73.2026668
  86.8218945 101.2215657  71.8339428  81.2959243  97.2938571  77.8321599
  81.1579041  96.5618810  78.4333138  82.2064167  97.2047471  77.5505787
  90.2574191  99.2326975  62.5806078  89.6403361  98.5073803  62.4839130
  89.7890679  99.9936335  62.2373152  83.9241544  97.0058530  77.3205279
  84.6341162  96.3651722  77.2791897  83.8810852  97.2571425  78.2431459
  91.9128322 103.9425883  80.2411858  91.8540869 103.2585104  79.5742441
  92.3147841 104.6844873  79.7892484  82.6370478  93.9923748  79.1400918
  82.1007835  93.5414486  79.7922514  82.0487186  94.1269657  78.3971382
  80.9319021 110.7587797  73.0345577  81.1715620 111.3906321  73.7124595
  80.0888218 110.4075837  73.3210936  82.0472737  93.4512399  61.7027382
  81.1702203  93.3301200  61.3389628  82.5230490  92.6598478  61.4506270
  91.9145730 101.9065467  78.4725838  91.0272509 101.5691389  78.5952236
  92.4844281 101.1748499  78.7094603  73.5674877  98.2389559  71.7968889
  74.2545917  97.9251289  71.2089904  73.4123006  99.1430924  71.5236140
  78.3709599  93.1279756  76.2253913  78.2867788  92.5205425  75.4904323
  77.5492305  93.6188774  76.2263409  85.4446883 106.5666920  75.4387081
  85.3717055 107.3721891  75.9506385  85.0024276 106.7658886  74.6135102
  85.2336663 105.8038690  68.9489902  84.4504185 106.3460370  69.0428127
  85.9329408 106.3212669  69.3484143  88.5433313  91.6133319  71.5924108
  89.0402012  90.8603282  71.2725178  87.7720294  91.6497636  71.0267317
  96.3963070  97.3173685  73.2342399  96.3852947  98.1998400  72.8636332
  95.5280450  96.9645236  73.0396936  87.9045567 106.4653754  77.5945239
  88.6173539 107.1001219  77.5221141  87.4135595 106.5617620  76.7785241
  89.6263094 100.3705006  69.1662531  88.6919372 100.4906469  68.9967235
  89.8039762  99.4677473  68.9022541  85.1268282  93.7550702  71.3195792
  84.7566069  93.2021743  72.0076698  85.6227374  93.1508836  70.7670792
  93.0135645  96.2122326  69.7012565  93.4796097  97.0450317  69.6272868
  93.4643145  95.7467307  70.4057824  82.9557480 104.2148197  78.4150810
  83.6566940 104.8484680  78.5680204  82.4852595 104.5562929  77.6546449
  91.0811876 102.5566147  66.6998717  91.3571720 102.4422742  67.6092591
  90.2116375 102.1583632  66.6610890  90.9852308  88.5802913  73.7403467
  90.0715387  88.8107140  73.9085673  91.4145409  88.6641357  74.5917499
  90.7558766  96.7692805  76.2403361  90.1030216  97.0168712  75.5855813
  91.1339146  95.9556943  75.9065838  87.7165940 106.8052498  70.3431531
  87.8988335 105.9874154  70.8059283  88.5398926 107.0220190  69.9056421
  88.0508106 105.7320683  67.6046579  88.5795872 105.2213138  66.9916741
  88.3136325 105.4163213  68.4692112  86.8046339  97.5112616  82.7269398
  86.1286976  97.4106745  83.3971773  87.6273973  97.3551829  83.1905395
  78.5525198 103.7484552  75.3481913  79.1378635 103.0028240  75.4809817
  78.3550037 104.0588509  76.2318577  81.4063853 106.7835800  70.3644355
  80.7374229 107.2681927  69.8808395  81.2676723 107.0305020  71.2787734
  73.1442853  96.3190152  74.0686356  73.1826953  95.7853743  74.8623474
  72.6383146  95.7925358  73.4497333  85.5469122 108.8179543  76.9627014
  86.0987430 108.9811165  77.7276099  85.8875316 109.4083981  76.2907038
  80.5233615  91.1654693  77.5648898  80.5874942  92.0269524  77.1526296
  80.4600736  90.5528695  76.8321257  79.9985888  93.2377826  81.2121933
  80.6257927  92.8554903  81.8259457  79.1413807  93.0192027  81.5777625
  90.3979996 103.6440801  82.8175668  90.9419900 104.2570759  82.3230623
  89.8166841 104.2020379  83.3342681  76.7751431  95.0454255  67.1440287
  77.0704872  94.1364933  67.0907341  75.8739466  95.0241994  66.8221290
  88.6837509 106.7661519  73.9490696  88.5588649 105.9651259  73.4401641
  89.3416600 107.2607712  73.4604666  80.3045678  93.1210251  73.1267836
  79.5832263  93.7346219  72.9875309  81.0938933  93.6568016  73.0484482
  90.7472418 104.5670539  75.5770246  89.8002753 104.4475890  75.5048573
  91.0955191 103.6793037  75.6596507  83.1071991  90.4564678  79.4008488
  83.6306393  90.7026974  80.1634797  82.8884324  91.2884713  78.9811625
  78.5039272  92.7268352  67.2679613  78.1751978  91.8465731  67.0854719
  78.8578643  92.6716021  68.1556002  87.7518851 104.3623255  71.7774598
  87.6043813 103.4339962  71.9582168  88.5772345 104.3843346  71.2931673
  81.6181095  93.0141322  67.6355090  81.9577168  93.5427243  66.9133699
  82.0653216  93.3521728  68.4113657  91.3552973 105.1851814  72.8639471
  92.2799520 104.9794675  72.7263922  91.1868276 104.9368215  73.7728812
  84.3124536  91.3978373  77.0858158  83.9721357  90.5986186  77.4878838
  83.6063542  91.6980084  76.5134992  84.9641008  88.4827685  75.5385481
  85.7867077  88.0088163  75.4164372  85.2079072  89.2618169  76.0384168
  83.6049242  91.5115944  65.8348383  84.3257605  91.8897196  65.3312100
  82.9814547  92.2304821  65.9383361  87.7480365  92.2161093  66.7706715
  87.9643980  93.0985731  66.4695544  87.2674433  91.8247306  66.0412357
  82.4879587  95.1746806  73.3477460  82.3424167  95.4887109  74.2401741
  82.0104790  95.7931706  72.7948359  84.3475970  92.1649354  73.3958350
  84.3337538  91.2690447  73.0590647  85.0648398  92.1720018  74.0296636
  86.2002100  92.5986694  75.4411477  85.9419878  93.5203765  75.4395807
  85.6687141  92.2017129  76.1311941  91.1448289 105.7037481  68.2201562
  91.3185167 105.1383904  67.4675415  91.6377180 106.5038376  68.0381052
  76.9625249  97.7152150  76.2865121  76.4178717  98.4911958  76.4185395
  77.8404599  98.0622955  76.1284243  83.7512866  91.0463734  68.6645920
  83.8728777  90.1180380  68.8636807  83.4614908  91.0602420  67.7524235
  86.6204056  88.7318645  71.8012639  86.6425753  88.7957978  70.8464619
  87.0372115  87.8923153  71.9953146  96.9987680  98.4673904  69.8391862
  97.4418826  97.7181229  69.4410985  96.1214191  98.4584041  69.4565594
  92.1323462 105.0204246  65.3198461  92.8274366 105.6410938  65.5385775
  92.4746612 104.1699597  65.5950838  77.7491271  96.8422047  79.1795278
  77.0073007  96.9904682  79.7659908  77.4284015  97.1030312  78.3162027
  94.0314885 102.4703951  66.8485791  94.5566209 102.8091224  66.1235111
  93.9437237 101.5350966  66.6648926  85.6934933 106.3838025  78.9775668
  86.0022060 106.1387172  79.8498368  86.4910415 106.5884663  78.4894538
  85.7155545 108.5375934  71.2081045  85.2760536 108.0452313  71.9013901
  86.4663662 107.9948902  70.9673120  78.1947884 104.7287475  71.2105673
  79.0205904 104.4291247  70.8304316  77.8441936 103.9595098  71.6595461
  83.1629418 104.0813944  73.2803346  82.5409427 103.4184649  72.9805574
  83.8334285 104.1075075  72.5976994  76.3956489 102.6473802  72.1694606
  75.5588398 102.2195976  71.9878607  76.3680135 102.8406245  73.1065397
  83.2353945  92.5595732  82.8735852  83.2842101  93.4357854  82.4913622
  83.7776459  92.0173125  82.3007495  93.7208791 103.1036855  82.1536989
  92.9304334 103.0860994  81.6141489  93.4842145 103.6425148  82.9086026
  93.8406666  99.9529321  79.4669718  93.8904671  99.7879329  80.4085241
  93.7320589  99.0856580  79.0767599  82.7242925 102.6317867  66.7561807
  82.8731045 103.3153331  66.1028480  83.5309368 102.6122957  67.2711263
  91.1310428  95.9360249  80.7829025  92.0320291  95.7966714  80.4913022
  91.2058403  96.1014704  81.7227202  85.4653234  93.3127104  79.6282211
  84.5956543  93.6060670  79.3564799  85.7012714  93.8967549  80.3489475
  95.3424863 102.3726263  79.7111739  95.0509671 102.7356243  80.5475200
  94.7296994 101.6593271  79.5325071  96.5420545  99.9379142  72.2314310
  97.3767436 100.3768947  72.3951870  96.6779674  99.4617796  71.4122555
  93.5912051  97.4958877  78.1791797  94.0666172  97.6886524  77.3710649
  92.6677616  97.5518063  77.9335181  80.4795557  98.6583044  67.7622876
  80.2341599  97.7545374  67.9603086  80.6491472  98.6600195  66.8202354
  88.1692267  89.5306721  77.1447631  88.6874211  90.2667748  76.8194120
  87.8147400  89.8370714  77.9794390  79.7491205  94.3911402  65.2609037
  79.0560450  94.4655757  64.6049073  79.5042957  93.6271746  65.7830554
  88.4204862  85.9507003  72.6648528  88.7006615  85.2830192  73.2908954
  89.2055468  86.1436099  72.1523192  86.2238330 105.1265997  64.2273554
  85.6512297 105.7456184  63.7744026  86.7971124 105.6765359  64.7613476
  92.2913720  94.3724637  76.4120103  93.2431143  94.4722735  76.4332327
  92.1217170  93.5802906  76.9218187  90.3128099  91.4580221  76.5979504
  89.7178031  91.7385233  75.9025993  90.0277796  91.9474122  77.3696245
  89.4435590 105.4103147  65.3582136  90.3766263 105.3448709  65.5615012
  89.3558803 106.2459414  64.8996669  92.0723606 104.7269018  62.3186084
  91.9937238 104.3928881  63.2121842  92.8933273 105.2190786  62.3177556
  94.7701798  97.5930757  75.5262403  94.7378118  96.6546758  75.7122086
  95.3802421  97.6714794  74.7928228  86.6085129  96.4626810  61.5689607
  87.5544233  96.3333018  61.6378025  86.2299373  95.7241472  62.0459035
  94.9196286  94.3841800  75.5720686  94.4035335  93.6000257  75.3850615
  95.8036235  94.0560517  75.7367205  92.5807013  88.1282816  71.5316499
  92.3831834  87.8197904  72.4159830  93.1906719  88.8544455  71.6614428
 100.5878348  98.6546764  74.6668439 101.3181736  98.3932052  75.2276143
  99.9785293  97.9175486  74.7070507  98.6693645  96.7954626  75.2642891
  97.9426808  96.6610591  74.6559382  98.2540932  97.1031455  76.0699609
  86.4923821 100.5144556  83.0290264  87.4126831 100.6923155  83.2230310
  86.4573404  99.5700602  82.8769963  84.7928046  94.3876786  61.5044492
  83.8859501  94.0909899  61.5807206  85.0704027  94.0906605  60.6378778
  75.7105986  95.7083150  71.9543538  75.3908770  94.8548458  71.6617912
  75.1639414  95.9231728  72.7101506  79.4885894  98.4245591  75.6713045
  79.7071903  99.3562699  75.6901079  79.9011667  98.0653565  76.4567849
  86.4090111  88.9313676  67.6588733  85.5990840  88.5860761  68.0343979
  87.0974528  88.6221220  68.2476345  88.3380660  88.0091723  69.2813030
  88.8911698  88.4287176  69.9403053  88.5750746  87.0827471  69.3235986
  84.3613759  93.9978797  85.0615794  84.2610486  94.9473154  84.9927885
  84.1435301  93.6697035  84.1891864  83.5626830  91.2463722  61.6456471
  84.4245994  91.5718620  61.9052288  83.7477174  90.4595218  61.1329537
  75.5794246  99.3286061  73.9236660  74.8857718  98.9140014  73.4106614
  76.3267237  99.3706598  73.3270079  91.7159467  90.1192248  68.7891694
  91.1358136  90.7777052  68.4069747  91.4495399  89.2969593  68.3779112
  90.1663033  89.5197306  70.9913014  90.6662812  89.6313840  70.1827333
  90.8098641  89.2158359  71.6313823  84.2245029  97.4275935  83.8780855
  83.7412111  98.2276296  84.0844744  84.3105968  97.4383880  82.9248299
  77.4930989  99.2604315  71.8002675  77.4701677  99.3592002  70.8484558
  77.8031625 100.1069466  72.1219841  80.1518366 101.3180470  75.9149289
  81.1061620 101.2864412  75.8479221  79.9530890 100.8571094  76.7299515
  80.7417749  99.8881586  78.4820087  81.5610638 100.3825665  78.5054924
  81.0154556  98.9713554  78.4537654  90.4984345  92.2792338  67.8448042
  89.6110200  92.5641989  67.6268237  90.9138334  92.1186102  66.9975319
  93.8498881  92.3038859  71.5602382  94.6259271  92.7935312  71.8326998
  93.1247015  92.7296914  72.0174251  96.2871440  93.0166479  72.6176322
  96.8815930  92.7762215  71.9069630  96.3598023  92.2973609  73.2449859
  78.5068595 106.8600090  72.9319487  78.3723063 106.1000491  72.3657485
  78.0900658 107.5840989  72.4648276  89.6427558 102.0437013  61.9396062
  90.3463408 102.2487016  62.5553718  88.9190207 102.6113775  62.2045146
  90.4725369  97.7946874  68.0598333  90.4160570  98.2515426  67.2205965
  91.0253711  97.0337559  67.8821175  94.2830174  93.5836606  68.8848452
  94.0267109  93.1833242  69.7156660  93.6583043  94.2980400  68.7598591
  98.5942512  96.3232680  71.3919743  98.0342070  96.3925869  72.1651305
  97.9886016  96.1473664  70.6719240  81.6637721 107.7569407  73.1437930
  81.5470105 108.7014839  73.0416620  80.8430167 107.4542968  73.5323729
  91.5514256 102.4819542  63.9894522  92.3859860 102.0500741  63.8071997
  91.3898599 102.3101556  64.9171417  91.2060148  98.9851656  65.3550862
  91.1508952  98.8195927  64.4139306  90.5806203  99.6927689  65.5113051
  75.9952663  94.2219720  79.1812284  76.6411526  93.7118674  79.6699509
  75.7869814  94.9588402  79.7555709  88.5206055 101.2900568  84.6804424
  89.3897215 101.4641220  84.3191059  88.0412807 102.1094984  84.5580154
  84.5156273  88.4859765  64.9336180  84.5034943  89.4301605  65.0904451
  85.4079695  88.3029910  64.6395641  82.6892235 108.4097669  76.3593858
  83.5919482 108.4421279  76.6760353  82.4629605 107.4798119  76.3740194
  84.4445837 107.1628655  73.0203937  83.4941468 107.1630517  72.9068309
  84.7478323 106.4161390  72.5039971  88.3308393  85.0802541  69.1882117
  87.5640789  84.5261028  69.3338799  88.7419098  85.1524410  70.0496269
  80.3350154  91.3687337  83.2787298  81.1981615  91.0124142  83.4890623
  79.7615565  91.0301232  83.9662702 100.1798531 112.9989193  74.0849699
 100.8176941 112.8795941  73.3813039 100.0619374 113.9470037  74.1437651
  96.9888237 112.9516622  74.0211224  96.6506749 112.8357686  73.1331759
  97.8578005 112.5507787  74.0012230  92.8475053 114.8052098  70.0108115
  92.2839918 114.7142035  69.2424403  92.7327448 113.9852002  70.4910607
  97.4708020 114.1051473  79.9797429  97.4596661 113.7104272  79.1077933
  97.6328660 113.3717546  80.5731201  90.3939485 116.3003290  72.8492335
  91.1860777 115.9594114  72.4338635  90.6336135 116.4098265  73.7694489
  92.3530239 115.5612203  65.7209714  93.1261115 115.0141190  65.5822590
  92.7055637 116.4256452  65.9324175  94.1915281 116.8888585  78.9276613
  93.9005147 117.7934216  78.8123280  94.8272266 116.9305113  79.6420683
  95.1171488 114.2665434  75.5177973  95.7135060 114.0421456  74.8034936
  95.1746460 113.5250179  76.1203421  94.6896516 111.7204869  63.3528164
  94.9422037 111.1986390  62.5911627  93.7521076 111.5571014  63.4554848
  99.7339799 110.7240647  71.1602907 100.5202888 110.3060070  70.8093324
  99.9978504 111.6286740  71.3284556  94.4092805 113.6232975  65.5552539
  94.2929063 112.9477878  66.2233623  94.5195065 113.1365349  64.7384692
  96.7524346 113.0843122  69.2599228  96.3882553 112.5573743  69.9712150
  97.6091462 112.6941591  69.0865714 102.6573647 104.3737455  76.5230494
 102.3256972 105.2432866  76.2991709 102.0619260 104.0573739  77.2024525
  96.3929833 108.1133022  64.2560577  96.5604235 108.9813258  64.6231048
  96.2027002 108.2760303  63.3321866  92.6017648 113.0263797  71.9563111
  91.6768144 112.8940012  72.1640803  92.8502061 113.8058017  72.4533054
 102.5502310 109.0932541  73.6023844 101.6419187 109.0247949  73.3082605
 102.4989906 109.5704486  74.4305670  96.3719054 110.5690679  65.2407244
  96.2518679 111.0147730  66.0792724  95.6771642 110.9175997  64.6820782
  89.9626459 112.6697071  72.7906901  90.0918840 112.9231550  73.7046312
  89.2823910 113.2624779  72.4711556  96.6243176 110.5122186  81.5458742
  95.8476510 111.0716107  81.5361606  97.2633739 110.9978969  82.0673612
 104.4163956 107.2948979  75.3801718 103.7738337 107.5881512  74.7341513
 103.9118885 107.1801900  76.1854915 102.0704120 111.0412152  66.0687578
 102.9821976 111.2739539  65.8935275 101.5613767 111.6249197  65.5062656
  94.8789548 113.3207640  81.1076709  95.6204233 113.8592684  80.8311532
  94.1726534 113.9473929  81.2648260  96.7075958 110.4009387  77.0782427
  97.5537153 110.8248801  77.2217076  96.6474596 109.7443011  77.7720990
  99.8575403 108.0613755  78.7363601  99.6136335 108.8155816  78.1997876
 100.1335334 108.4399103  79.5710848  99.4140095 107.2170188  74.3177438
  98.5524574 107.5151442  74.6094176  99.4402530 107.4340587  73.3858471
  96.2301664 115.7612379  70.7251244  96.6940010 116.0400082  69.9355867
  95.9658462 114.8595824  70.5424335  93.1225745 115.3083860  73.6631007
  93.6927102 115.7371129  73.0248492  93.7133857 115.0266445  74.3615193
  95.1670550 111.8835531  67.5340809  95.8694594 112.3356575  68.0014736
  94.8351179 111.2419350  68.1620702  93.6150912 110.4747288  81.9092019
  92.9849572 111.1563569  82.1427415  93.5087000 110.3630370  80.9645157
  88.9095884 110.1419084  72.8357943  88.1194938 110.3976613  72.3598053
  89.4007132 110.9567422  72.9409983  90.8610630 110.5063663  69.7941420
  90.0641793 110.6182357  70.3124915  90.6336222 110.8450315  68.9282310
  87.1933587 110.3949574  75.2672934  87.4441626 111.2796584  75.5330510
  87.7293136 110.2154176  74.4948025  92.8931655 104.7768054  84.2717270
  92.4998600 104.2234252  84.9464914  93.7097795 105.0878632  84.6623787
  89.8593712 116.2151912  68.1830840  90.3718233 117.0095162  68.3336404
  90.5116425 115.5178202  68.1164441  95.8099616 106.1925933  81.8637526
  96.5509329 106.7933086  81.7841989  96.0417538 105.4503571  81.3055569
  90.9540954 111.3782300  80.1415756  90.8394469 110.4767557  80.4422855
  90.0985471 111.6245997  79.7900572  99.7556779 102.2207036  76.1401808
  99.4121048 103.1108677  76.0640919 100.1235741 102.0308693  75.2771393
  87.8242629 114.5440566  68.9590410  88.6617851 114.9537575  68.7424118
  88.0020897 113.6040008  68.9290604  99.7207061 112.2115647  64.6474243
  99.2053685 112.9820252  64.8862630  99.4484370 111.5380783  65.2707305
  97.3054172 107.0565348  69.7059481  96.4495769 106.6672198  69.5265120
  97.7181124 107.1357308  68.8459267  98.8353319 104.5911691  74.1051041
  98.3318115 104.5541826  73.2918846  99.1283926 105.5004434  74.1647698
  95.0796205 104.6750421  73.1117223  95.9449202 104.4793229  72.7523112
  95.1473714 104.4460772  74.0386580  99.5093364 110.0842739  66.4734024
  99.2043500 110.3988888  67.3244167 100.4623807 110.1624159  66.5161357
  92.6858524 106.9052629  70.4833590  93.2602276 106.6827810  69.7506783
  93.2729506 106.9741323  71.2362191  93.0128111 108.9357090  64.5029475
  92.1765423 109.2731776  64.8238750  92.8732881 108.8006069  63.5656612
  94.9881192 103.7793878  69.2108659  94.3345604 103.4642895  68.5865274
  94.9461666 103.1569618  69.9368482  96.0992396 114.0613173  61.1261951
  95.1919458 113.8302426  61.3253100  96.5963428 113.2650792  61.3135933
  98.2218932 110.2675811  73.5356307  97.3041493 110.4890758  73.3777995
  98.6379076 110.3422122  72.6768014  99.0053980 111.6667227  68.6658987
  99.7525799 112.1788624  68.3566109  99.2745569 111.3451279  69.5263381
  97.2780630 114.1625767  65.6485941  96.3691849 113.8784800  65.7458411
  97.3075714 114.5824846  64.7889248 101.4532817 108.7024343  70.6477776
 100.7155574 108.1901729  70.9788019 101.7059590 108.2624725  69.8361053
 101.5544444 101.4800595  71.2419546 101.8603321 100.6197958  70.9545461
 102.2797049 102.0718215  71.0418540  87.8468800 111.8831282  69.6301144
  87.6493200 111.2900642  68.9052210  87.2915464 111.5783492  70.3477082
  95.8265524 111.7754388  71.7495737  95.8814134 110.8228224  71.6738213
  95.0156726 111.9313827  72.2337035  93.7657884 110.3931448  69.5086116
  92.9525749 110.6925618  69.9151308  94.2616878 109.9987137  70.2260598
  99.3632096 110.8573272  78.3401009  99.7181483 111.0844745  79.1995475
 100.0104227 111.1891649  77.7178265  93.2571959 107.9649803  75.1247351
  93.8971338 107.8238562  74.4270314  92.4249489 107.6784317  74.7485953
  94.0332263 117.2652234  71.2382343  94.8272861 116.7702554  71.0364918
  93.3223955 116.7370097  70.8750049  90.3415026 111.4095315  67.3142096
  89.4112614 111.3479771  67.5312058  90.4372498 110.8871268  66.5178737
  90.2600575 107.9350128  69.9020337  90.5207392 108.8495462  69.7929498
  91.0817747 107.4674571  70.0516950  91.7325500 109.3487885  77.0719162
  92.4048554 109.1405248  76.4231811  90.9055287 109.1509971  76.6324394
  97.6351072 105.9749826  79.0884823  96.9878987 106.6739776  78.9949299
  98.4052088 106.4085970  79.4561071  97.8115207 113.8130591  77.1481642
  98.7407267 113.9641751  76.9750610  97.3906237 113.9014612  76.2930289
  92.1352998 112.6230488  77.8321599  91.9972796 111.8910727  78.4333138
  93.0457921 112.5339389  77.5505787  94.7635298 112.3350448  77.3205279
  95.4734917 111.6943640  77.2791897  94.7204606 112.5863343  78.2431459
  93.4764232 109.3215666  79.1400918  92.9401589 108.8706404  79.7922514
  92.8880941 109.4561575  78.3971382  92.8866491 108.7804317  61.7027382
  92.0095958 108.6593118  61.3389628  93.3624244 107.9890395  61.4506270
  84.4068631 113.5681477  71.7968889  85.0939671 113.2543207  71.2089904
  84.2516760 114.4722841  71.5236140  89.2103354 108.4571673  76.2253913
  89.1261542 107.8497343  75.4904323  88.3886060 108.9480692  76.2263409
  99.3827067 106.9425237  71.5924108  99.8795767 106.1895199  71.2725178
  98.6114049 106.9789554  71.0267317  95.9662036 109.0842620  71.3195792
  95.5959824 108.5313660  72.0076698  96.4621129 108.4800753  70.7670792
 101.8246062 103.9094830  73.7403467 100.9109142 104.1399057  73.9085673
 102.2539164 103.9933274  74.5917499 101.5952521 112.0984722  76.2403361
 100.9423971 112.3460630  75.5855813 101.9732901 111.2848861  75.9065838
  97.6440094 112.8404533  82.7269398  96.9680731 112.7398663  83.3971773
  98.4667728 112.6843747  83.1905395  89.3918953 119.0776470  75.3481913
  89.9772390 118.3320158  75.4809817  89.1943791 119.3880427  76.2318577
  83.9836608 111.6482070  74.0686356  84.0220707 111.1145661  74.8623474
  83.4776900 111.1217276  73.4497333  91.3627370 106.4946611  77.5648898
  91.4268696 107.3561442  77.1526296  91.2994490 105.8820612  76.8321257
  90.8379642 108.5669743  81.2121933  91.4651681 108.1846821  81.8259457
  89.9807561 108.3483945  81.5777625  87.6145185 110.3746172  67.1440287
  87.9098626 109.4656851  67.0907341  86.7133221 110.3533912  66.8221290
  91.1439432 108.4502169  73.1267836  90.4226018 109.0638137  72.9875309
  91.9332688 108.9859934  73.0484482  93.9465746 105.7856595  79.4008488
  94.4700147 106.0318892  80.1634797  93.7278079 106.6176630  78.9811625
  89.3433027 108.0560270  67.2679613  89.0145733 107.1757649  67.0854719
  89.6972397 108.0007939  68.1556002  92.4574850 108.3433240  67.6355090
  92.7970922 108.8719161  66.9133699  92.9046970 108.6813646  68.4113657
  95.1518291 106.7270291  77.0858158  94.8115111 105.9278104  77.4878838
  94.4457297 107.0272001  76.5134992  95.8034762 103.8119603  75.5385481
  96.6260832 103.3380081  75.4164372  96.0472826 104.5910087  76.0384168
  94.4442997 106.8407861  65.8348383  95.1651359 107.2189114  65.3312100
  93.8208301 107.5596738  65.9383361  98.5874120 107.5453010  66.7706715
  98.8037734 108.4277648  66.4695544  98.1068187 107.1539224  66.0412357
  93.3273341 110.5038724  73.3477460  93.1817922 110.8179027  74.2401741
  92.8498545 111.1223624  72.7948359  95.1869724 107.4941272  73.3958350
  95.1731293 106.5982365  73.0590647  95.9042152 107.5011935  74.0296636
  97.0395855 107.9278612  75.4411477  96.7813633 108.8495682  75.4395807
  96.5080895 107.5309046  76.1311941  87.8019003 113.0444068  76.2865121
  87.2572471 113.8203876  76.4185395  88.6798353 113.3914872  76.1284243
  94.5906620 106.3755652  68.6645920  94.7122531 105.4472298  68.8636807
  94.3008662 106.3894338  67.7524235  97.4597810 104.0610562  71.8012639
  97.4819507 104.1249895  70.8464619  97.8765869 103.2215071  71.9953146
  88.5885025 112.1713964  79.1795278  87.8466761 112.3196600  79.7659908
  88.2677770 112.4322230  78.3162027  89.0341639 120.0579393  71.2105673
  89.8599659 119.7583165  70.8304316  88.6835691 119.2887015  71.6595461
  87.2350244 117.9765719  72.1694606  86.3982152 117.5487894  71.9878607
  87.2073889 118.1698163  73.1065397  94.0747700 107.8887649  82.8735852
  94.1235855 108.7649772  82.4913622  94.6170214 107.3465042  82.3007495
 101.9704183 111.2652167  80.7829025 102.8714045 111.1258632  80.4913022
 102.0452157 111.4306622  81.7227202  96.3046988 108.6419022  79.6282211
  95.4350297 108.9352588  79.3564799  96.5406468 109.2259467  80.3489475
  91.3189312 113.9874962  67.7622876  91.0735354 113.0837292  67.9603086
  91.4885227 113.9892113  66.8202354  99.0086022 104.8598639  77.1447631
  99.5267966 105.5959665  76.8194120  98.6541155 105.1662632  77.9794390
  90.5884960 109.7203320  65.2609037  89.8954204 109.7947675  64.6049073
  90.3436711 108.9563663  65.7830554  99.2598616 101.2798921  72.6648528
  99.5400370 100.6122110  73.2908954 100.0449223 101.4728017  72.1523192
 103.1307474 109.7016555  76.4120103 104.0824897 109.8014653  76.4332327
 102.9610925 108.9094824  76.9218187 101.1521854 106.7872138  76.5979504
 100.5571786 107.0677151  75.9025993 100.8671551 107.2766039  77.3696245
  97.4478883 111.7918728  61.5689607  98.3937988 111.6624936  61.6378025
  97.0693128 111.0533390  62.0459035 105.7590041 109.7133718  75.5720686
 105.2429089 108.9292175  75.3850615 106.6429989 109.3852435  75.7367205
 103.4200768 103.4574734  71.5316499 103.2225589 103.1489822  72.4159830
 104.0300473 104.1836373  71.6614428  95.6321800 109.7168704  61.5044492
  94.7253256 109.4201817  61.5807206  95.9097781 109.4198522  60.6378778
  86.5499741 111.0375068  71.9543538  86.2302525 110.1840376  71.6617912
  86.0033169 111.2523646  72.7101506  90.3279648 113.7537509  75.6713045
  90.5465658 114.6854616  75.6901079  90.7405422 113.3945483  76.4567849
  97.2483866 104.2605594  67.6588733  96.4384594 103.9152679  68.0343979
  97.9368283 103.9513138  68.2476345  99.1774414 103.3383641  69.2813030
  99.7305453 103.7579094  69.9403053  99.4144501 102.4119389  69.3235986
  95.2007513 109.3270714  85.0615794  95.1004240 110.2765071  84.9927885
  94.9829055 108.9988953  84.1891864  94.4020585 106.5755639  61.6456471
  95.2639749 106.9010538  61.9052288  94.5870929 105.7887135  61.1329537
  86.4188001 114.6577979  73.9236660  85.7251472 114.2431932  73.4106614
  87.1660992 114.6998516  73.3270079 102.5553221 105.4484166  68.7891694
 101.9751890 106.1068970  68.4069747 102.2889154 104.6261510  68.3779112
 101.0056788 104.8489223  70.9913014 101.5056566 104.9605758  70.1827333
 101.6492396 104.5450276  71.6313823  95.0638783 112.7567853  83.8780855
  94.5805865 113.5568213  84.0844744  95.1499723 112.7675798  82.9248299
  88.3324743 114.5896233  71.8002675  88.3095431 114.6883920  70.8484558
  88.6425380 115.4361384  72.1219841  90.9912121 116.6472388  75.9149289
  91.9455375 116.6156330  75.8479221  90.7924645 116.1863012  76.7299515
  91.5811503 115.2173504  78.4820087  92.4004392 115.7117583  78.5054924
  91.8548311 114.3005472  78.4537654 101.3378099 107.6084256  67.8448042
 100.4503954 107.8933907  67.6268237 101.7532088 107.4478020  66.9975319
 104.6892635 107.6330777  71.5602382 105.4653026 108.1227230  71.8326998
 103.9640770 108.0588831  72.0174251 107.1265194 108.3458396  72.6176322
 107.7209685 108.1054132  71.9069630 107.1991778 107.6265527  73.2449859
 105.1223929 108.9128524  68.8848452 104.8660863 108.5125160  69.7156660
 104.4976797 109.6272318  68.7598591  86.8346417 109.5511638  79.1812284
  87.4805281 109.0410592  79.6699509  86.6263568 110.2880319  79.7555709
  95.3550028 103.8151682  64.9336180  95.3428698 104.7593522  65.0904451
  96.2473450 103.6321828  64.6395641  99.1702147 100.4094459  69.1882117
  98.4034543  99.8552946  69.3338799  99.5812852 100.4816328  70.0496269
  91.1743908 106.6979255  83.2787298  92.0375370 106.3416060  83.4890623
  90.6009319 106.3593150  83.9662702  35.1436005  -1.9700190  60.8095006
  35.7814415  -2.0893443  60.1058346  35.0256848  -1.0219346  60.8682958
  31.9525711  -2.0172762  60.7456531  31.6144223  -2.1331697  59.8577065
  32.8215480  -2.4181597  60.7257537  27.8112527  -0.1637285  56.7353421
  27.2477392  -0.2547349  55.9669709  27.6964922  -0.9837381  57.2155914
  32.4345494  -0.8637910  66.7042736  32.4234135  -1.2585112  65.8323240
  32.5966134  -1.5971838  67.2976507  25.3576959   1.3313906  59.5737642
  26.1498251   0.9904731  59.1583941  25.5973609   1.4408881  60.4939795
  33.3912086   3.5033682  52.0467886  32.7400066   4.0887763  51.6601900
  34.1856449   4.0339877  52.1062924  27.3167713   0.5922819  52.4455021
  28.0898589   0.0451806  52.3067897  27.6693112   1.4567069  52.6569482
  29.1552756   1.9199202  65.6521920  28.8642621   2.8244832  65.5368586
  29.7909740   1.9615729  66.3665990  30.0808962  -0.7023950  62.2423280
  30.6772535  -0.9267927  61.5280243  30.1383934  -1.4439204  62.8448728
  34.6977274  -4.2448736  57.8848214  35.4840363  -4.6629313  57.5338631
  34.9615978  -3.3402644  58.0529862  34.8687351   1.1924114  52.5836871
  34.2333184   1.2658741  53.2957775  34.5384757   1.7817713  51.9055950
  40.0985701  -4.3073503  58.7881192  40.8310873  -4.8774286  59.0219022
  39.3425056  -4.6951902  59.2287698  29.3730280  -1.3456409  52.2797846
  29.2566538  -2.0211505  52.9478930  29.4832539  -1.8324035  51.4629999
  31.7161820  -1.8846261  55.9844535  31.3520028  -2.4115640  56.6957456
  32.5728936  -2.2747792  55.8111020  34.1142641   1.6060617  62.6471714
  33.8143364   2.5085656  62.5387521  33.7693700   1.3392800  63.4992867
  37.5139784  -5.8756843  60.3269151  36.6056662  -5.9441434  60.0327912
  37.4627380  -5.3984898  61.1550977  29.0963420   8.3704938  55.6142681
  29.0187450   9.3212763  55.6931162  28.4925064   8.0250810  56.2717608
  39.3801431  -7.6740404  62.1047025  38.7375811  -7.3807871  61.4586820
  38.8756359  -7.7887484  62.9100222  37.0341594  -3.9277231  52.7932884
  37.9459451  -3.6949844  52.6180582  36.5251242  -3.3440187  52.2307963
  29.8427022  -1.6481744  67.8322015  30.5841707  -1.1096700  67.5556839
  29.1364008  -1.0215455  67.9893567  35.3182362   0.4947397  66.4294177
  35.7265718   0.0529807  65.6848809  34.5959624  -0.0799976  66.6828370
  35.6411177   1.0548587  60.1846466  35.0120039   1.2194302  59.4822534
  35.2536839   1.4690197  60.9557430  39.5200409   1.9903025  57.5390829
  38.8351447   2.3701927  56.9887863  39.6044258   2.5998352  58.2722777
  36.7751340  -0.3637016  64.1386173  36.9868235   0.2794744  63.4620554
  36.7281089  -1.1974699  63.6708103  31.1939139   0.7922995  57.4496551
  31.6577484   1.0710698  56.6601173  30.9295937  -0.1093560  57.2669641
  28.0863220   0.3394477  60.3876314  28.6564577   0.7681745  59.7493799
  28.6771332   0.0577062  61.0860500  37.8897168   2.5134940  62.3108530
  38.7114612   2.1115127  62.0291212  37.8859571   2.4103174  63.2624646
  31.6553772   2.0618983  64.4669241  31.7198204   2.5239390  65.3027413
  30.9464696   1.4316348  64.5951551  45.9803161  -1.1426312  58.6593502
  45.2266870  -1.7118914  58.5037506  46.1150702  -1.1763647  59.6064136
  31.3701789   3.7287090  54.3348221  31.2347464   4.5738626  54.7633069
  31.9111602   3.9306368  53.5714155  24.8231187   1.2462529  54.9076146
  25.3355707   2.0405779  55.0581711  25.4753900   0.5488819  54.8409748
  26.6326071   4.3628285  56.9898899  26.8092700   5.2846249  56.8019883
  27.4282905   4.0486704  57.4193279  32.9970266   4.3510657  68.4648563
  32.5534120   3.5647036  68.1469468  33.6587479   4.5389807  67.7992454
  27.7557387   5.8806459  62.9909242  28.3064812   5.7523522  62.2186236
  26.9168863   6.1801348  62.6404135  35.0951504   4.6313457  66.4929964
  35.0769979   5.4522338  66.0010234  36.0171424   4.5067532  66.7180106
  31.5524558   2.1457586  67.3353473  32.0852895   1.3845875  67.1052781
  31.0238639   1.8531238  68.0777627  34.6844536  -2.7573737  51.3719550
  34.1691159  -1.9869132  51.6107937  34.4121844  -3.4308600  51.9952611
  39.6578810  -0.0041382  53.3072723  38.8808252  -0.3430222  52.8627885
  40.3370291   0.0011241  52.6327688  34.4730839  -4.8846644  53.1979331
  34.1680974  -4.5700495  54.0489474  35.4261281  -4.8065225  53.2406664
  32.9177271   1.2743579  54.8472285  32.3898632   0.5396338  54.5345522
  32.4164773   2.0518255  54.6012253  37.8970117  -0.5307401  59.9639331
  37.2393791   0.1591861  60.0519460  38.7010516  -0.1410969  60.3073318
  36.7075575  -2.1763028  58.0143273  37.2207457  -1.5433036  58.5164983
  37.3576799  -2.7761832  57.6486633  31.0629871  -0.9076211  47.8507258
  30.1556933  -1.1386957  48.0498407  31.5600903  -1.7038592  48.0381239
  33.9697950   7.8021296  50.7703944  33.2959648   8.1052993  51.3788902
  34.3563772   8.6050377  50.4209401  33.1856406  -4.7013572  60.2601613
  32.2678968  -4.4798625  60.1023301  33.6016550  -4.6267262  59.4013321
  33.9691454  -3.3022157  55.3904294  34.7163273  -2.7900760  55.0811416
  34.2383044  -3.6238104  56.2508687  32.2418104  -0.8063616  52.3731248
  31.3329323  -1.0904583  52.4703718  32.2713188  -0.3864537  51.5134555
  37.4737372   2.8042973  56.1422416  37.0199699   1.9633883  56.1987606
  36.8431338   3.4404372  56.4797196  36.4170291  -6.2665040  57.3723083
  35.6793048  -6.7787654  57.7033326  36.6697065  -6.7064659  56.5606360
  35.9170311   4.6419470  57.0772234  36.2093285   5.2024527  56.3584599
  36.4268931   4.9348031  57.8325393  31.9394192   0.7345128  49.7119327
  31.5013622   0.0180987  49.2524964  32.6804633   0.9621242  49.1504418
  30.8803936   5.4199821  58.1665687  30.8380115   5.6460668  57.2374219
  31.7966635   5.1863196  58.3151488  34.3269570  -4.1116111  65.0646316
  34.6818958  -3.8844638  65.9240782  34.9741701  -3.7797734  64.4423571
  40.0567307  -0.9897675  55.7695645  39.9185205  -0.7996079  54.8416834
  39.7003526  -0.2278292  56.2263696  40.0836686   1.0778852  60.7806917
  40.5173193   0.9854141  61.6289971  40.7968267   1.0536352  60.1426933
  28.9969737   2.2962850  57.9627650  29.7910335   1.8013170  57.7610225
  28.2861429   1.7680713  57.5995355  33.8164581   4.6780946  62.3140017
  33.8701604   5.2471882  63.0817733  32.9479363   4.8482831  61.9494054
  40.9452236   1.1202552  63.3139802  41.1388126   2.0248363  63.5599077
  40.8452854   0.6609971  64.1478387  36.0067345   1.2709295  68.8880683
  35.8552851   1.0419847  67.9710766  35.9972024   2.2279897  68.9012028
  32.7752681  -1.1558792  63.8726949  33.7044741  -1.0047633  63.6995916
  32.3543711  -1.0674771  63.0175596  31.5741013   2.8691872  61.6425487
  31.4352099   2.5010657  62.5151425  30.7855609   3.3839512  61.4709445
  32.1689165   7.9700969  52.9851023  32.3440921   7.4989012  53.7996646
  31.4821953   8.5966735  53.2132284  33.1246228   2.2473475  59.0314324
  32.7896061   2.2074245  59.9271974  32.6250174   1.5818191  58.5584735
  36.0605420  -0.4070491  49.3051384  35.4434590  -1.1323663  49.2084437
  35.5921908   0.3538870  48.9618458  29.7272773  -2.6338936  64.0450585
  30.4372391  -3.2745743  64.0037204  29.6842081  -2.3826041  64.9676766
  37.7159551   4.3028418  66.9657165  37.6572097   3.6187638  66.2987748
  38.1179070   5.0447408  66.5137790  26.7350250  11.1190332  59.7590883
  26.9746848  11.7508856  60.4369902  25.8919447  10.7678372  60.0456243
  37.7176959   2.2668002  65.1971144  36.8303737   1.9293923  65.3197543
  38.2875510   1.5351033  65.4339910  31.2478112   6.9269454  62.1632387
  31.1748283   7.7324425  62.6751692  30.8055505   7.1261420  61.3380409
  31.0367892   6.1641224  55.6735209  30.2535413   6.7062904  55.7673433
  31.7360637   6.6815204  56.0729450  42.1994299  -2.3223781  59.9587706
  42.1884175  -1.4399066  59.5881639  41.3311679  -2.6752230  59.7642243
  33.7076795   6.8256288  64.3190546  34.4204768   7.4603753  64.2466448
  33.2166824   6.9220154  63.5030548  35.4294322   0.7307541  55.8907838
  34.4950601   0.8509003  55.7212542  35.6070991  -0.1719993  55.6267848
  38.8166874  -3.4275140  56.4257872  39.2827326  -2.5947148  56.3518175
  39.2674374  -3.8930158  57.1303130  28.7588709   4.5750731  65.1396117
  29.4598169   5.2087214  65.2925511  28.2883824   4.9165463  64.3791756
  36.8843105   2.9168681  53.4244024  37.1602949   2.8025276  54.3337898
  36.0147604   2.5186166  53.3856197  36.5589995  -2.8704661  62.9648667
  35.9061445  -2.6228754  62.3101120  36.9370375  -3.6840523  62.6311145
  33.5197169   7.1655032  57.0676838  33.7019563   6.3476688  57.5304590
  34.3430155   7.3822724  56.6301728  33.8539334   6.0923217  54.3291886
  34.3827101   5.5815672  53.7162048  34.1167554   5.7765747  55.1937419
  32.6077568  -2.1284850  69.4514704  31.9318205  -2.2290721  70.1217080
  33.4305202  -2.2845636  69.9150702  24.3556427   4.1087086  62.0727220
  24.9409864   3.3630774  62.2055124  24.1581266   4.4191043  62.9563883
  27.2095082   7.1438334  57.0889662  26.5405458   7.6284462  56.6053702
  27.0707952   7.3907554  58.0033040  31.3500351   9.1782077  63.6872320
  31.9018659   9.3413699  64.4521406  31.6906544   9.7686515  63.0152345
  36.2011225   4.0043335  69.5420975  36.7451129   4.6173293  69.0475930
  35.6198070   4.5622913  70.0587988  34.4868738   7.1264053  60.6736002
  34.3619878   6.3253793  60.1646948  35.1447829   7.6210246  60.1849972
  36.5503647   4.9273073  62.3015553  35.6033982   4.8078424  62.2293879
  36.8986420   4.0395571  62.3841814  33.5550080   4.7225789  58.5019905
  33.4075042   3.7942497  58.6827475  34.3803573   4.7445880  58.0176980
  37.1584202   5.5454348  59.5884778  38.0830749   5.3397209  59.4509229
  36.9899505   5.2970749  60.4974119  36.9479518   6.0640015  54.9446869
  37.1216395   5.4986438  54.1920721  37.4408409   6.8640910  54.7626359
  42.8018909  -1.1723562  56.5637169  43.2450055  -1.9216236  56.1656292
  41.9245419  -1.1813425  56.1810901  37.9354690   5.3806780  52.0443767
  38.6305595   6.0013472  52.2631082  38.2777841   4.5302131  52.3196145
  39.8346114   2.8306485  53.5731098  40.3597438   3.1693758  52.8480418
  39.7468466   1.8953501  53.3894233  31.4966162   6.7440559  65.7020975
  31.8053289   6.4989706  66.5743674  32.2941644   6.9487197  65.2139845
  31.5186774   8.8978469  57.9326351  31.0791765   8.4054847  58.6259208
  32.2694891   8.3551436  57.6918426  23.9979113   5.0890009  57.9350979
  24.8237133   4.7893781  57.5549623  23.6473165   4.3197632  58.3840768
  28.9660646   4.4416478  60.0048653  28.3440656   3.7787183  59.7050881
  29.6365513   4.4677610  59.3222301  39.5240020   3.4639389  68.8782296
  38.7335563   3.4463528  68.3386795  39.2873374   4.0027683  69.6331333
  39.6437895   0.3131855  66.1915025  39.6935900   0.1481863  67.1330547
  39.5351818  -0.5540886  65.8012905  28.5274153   2.9920401  53.4807113
  28.6762274   3.6755865  52.8273786  29.3340597   2.9725491  53.9956569
  36.9341657  -3.7037217  67.5074331  37.8351520  -3.8430752  67.2158329
  37.0089632  -3.5382762  68.4472509  41.1456091   2.7328797  66.4357046
  40.8540900   3.0958777  67.2720507  40.5328223   2.0195805  66.2570378
  42.3451774   0.2981677  58.9559616  43.1798665   0.7371481  59.1197177
  42.4810903  -0.1779670  58.1367862  39.3943280  -2.1438588  64.9037104
  39.8697401  -1.9510942  64.0955955  38.4708845  -2.0879403  64.6580488
  32.0269559   5.4868531  50.9518861  31.4543526   6.1058719  50.4989333
  32.6002353   6.0367893  51.4858783  38.0944949  -5.2672828  63.1365410
  39.0462372  -5.1674731  63.1577634  37.9248399  -6.0594560  63.6463494
  35.2466819   5.7705682  52.0827443  36.1797492   5.7051243  52.2860319
  35.1590031   6.6061948  51.6241976  37.8754835   5.0871552  49.0431391
  37.7968467   4.7531416  49.9367149  38.6964502   5.5793320  49.0422863
  40.5733026  -2.0466709  62.2507709  40.5409347  -2.9850708  62.4367393
  41.1833650  -1.9682672  61.5173534  32.4116357  -3.1770656  48.2934913
  33.3575462  -3.3064448  48.3623331  32.0330602  -3.9155994  48.7704342
  40.7227515  -5.2555665  62.2965992  40.2066564  -6.0397209  62.1095921
  41.6067463  -5.5836949  62.4612512  46.3909576  -0.9850702  61.3913746
  47.1212965  -1.2465414  61.9521449  45.7816522  -1.7221980  61.4315814
  44.4724873  -2.8442839  61.9888197  43.7458037  -2.9786874  61.3804689
  44.0572160  -2.5366011  62.7944915  32.2955050   0.8747090  69.7535570
  33.2158059   1.0525689  69.9475617  32.2604633  -0.0696864  69.6015270
  30.0276258  -2.2121530  70.6026162  29.5443340  -1.4121170  70.8090051
  30.1137197  -2.2013585  69.6493606  25.9549595   1.6783004  62.6394596
  26.9092849   1.6466947  62.5724527  25.7562119   1.2173628  63.4544822
  26.5448977   0.2484120  65.2065394  27.3641866   0.7428199  65.2300231
  26.8185785  -0.6683911  65.1782961  39.6530110  -7.3358606  58.2847688
  40.4290500  -6.8462154  58.5572305  38.9278244  -6.9100552  58.7419558
  42.0902668  -6.6230987  59.3421629  42.6847159  -6.8635251  58.6314937
  42.1629252  -7.3423857  59.9695165  24.3099824   7.2202624  59.6564794
  24.1754292   6.4603025  59.0902792  23.8931886   7.9443524  59.1893583
  35.4458787   2.4039547  48.6641369  36.1494637   2.6089550  49.2799025
  34.7221436   2.9716309  48.9290453  36.2756597  -1.8450591  54.7843639
  36.2191799  -1.3882040  53.9451272  36.8284940  -2.6059907  54.6066482
  40.0861403  -6.0560859  55.6093759  39.8298338  -6.4564224  56.4401966
  39.4614271  -5.3417066  55.4843898  44.3973741  -3.3164786  58.1165050
  43.8373299  -3.2471597  58.8896612  43.7917245  -3.4923802  57.3964546
  27.4668950   8.1171941  59.8683236  27.3501334   9.0617373  59.7661927
  26.6461396   7.8145502  60.2569036  37.3545484   2.8422077  50.7139829
  38.1891088   2.4103275  50.5317304  37.1929827   2.6704090  51.6416724
  37.0091377  -0.6545810  52.0796168  36.9540180  -0.8201539  51.1384612
  36.3837432   0.0530223  52.2358358  34.3237284   1.6503102  71.4049731
  35.1928443   1.8243754  71.0436366  33.8444035   2.4697519  71.2825460
  28.4923464   8.7700203  63.0839165  29.3950711   8.8023813  63.4005660
  28.2660834   7.8400654  63.0985501  30.2477066   7.5231189  59.7449243
  29.2972697   7.5233051  59.6313616  30.5509552   6.7763924  59.2285278
  45.9829760  13.3591728  60.8095006  46.6208170  13.2398475  60.1058346
  45.8650602  14.3072572  60.8682958  42.7919466  13.3119156  60.7456531
  42.4537977  13.1960220  59.8577065  43.6609234  12.9110321  60.7257537
  38.6506282  15.1654632  56.7353421  38.0871147  15.0744569  55.9669709
  38.5358677  14.3454537  57.2155914  43.2739249  14.4654008  66.7042736
  43.2627890  14.0706806  65.8323240  43.4359888  13.7320080  67.2976507
  36.1970713  16.6605824  59.5737642  36.9892005  16.3196648  59.1583941
  36.4367364  16.7700799  60.4939795  44.2305840  18.8325600  52.0467886
  43.5793820  19.4179680  51.6601900  45.0250203  19.3631795  52.1062924
  38.1561467  15.9214737  52.4455021  38.9292343  15.3743724  52.3067897
  38.5086866  16.7858986  52.6569482  39.9946510  17.2491119  65.6521920
  39.7036376  18.1536750  65.5368586  40.6303494  17.2907647  66.3665990
  40.9202717  14.6267968  62.2423280  41.5166289  14.4023990  61.5280243
  40.9777688  13.8852713  62.8448728  40.4927745  12.0807403  50.0773471
  40.7453266  11.5588924  49.3156934  39.5552304  11.9173549  50.1800154
  45.5371028  11.0843182  57.8848214  46.3234117  10.6662605  57.5338631
  45.8009732  11.9889274  58.0529862  45.7081105  16.5216032  52.5836871
  45.0726938  16.5950658  53.2957775  45.3778512  17.1109631  51.9055950
  50.9379455  11.0218415  58.7881192  51.6704627  10.4517632  59.0219022
  50.1818811  10.6340015  59.2287698  40.2124034  13.9835509  52.2797846
  40.0960292  13.3080413  52.9478930  40.3226294  13.4967883  51.4629999
  42.5555575  13.4445656  55.9844535  42.1913782  12.9176277  56.6957456
  43.4122691  13.0544125  55.8111020  48.4604876   4.7339989  63.2475801
  48.1288200   5.6035400  63.0237016  47.8650489   4.4176273  63.9269831
  42.1961062   8.4735556  50.9805883  42.3635464   9.3415792  51.3476354
  42.0058231   8.6362838  50.0567173  44.9536395  16.9352535  62.6471714
  44.6537118  17.8377574  62.5387521  44.6087455  16.6684718  63.4992867
  38.4048877  13.3866332  58.6808418  37.4799373  13.2542546  58.8886110
  38.6533290  14.1660551  59.1778361  48.3533539   9.4535075  60.3269151
  47.4450416   9.3850483  60.0327912  48.3021135   9.9307020  61.1550977
  42.1750283  10.9293213  51.9652550  42.0549908  11.3750264  52.8038030
  41.4802871  11.2778531  51.4066088  35.7657688  13.0299605  59.5152207
  35.8950069  13.2834084  60.4291619  35.0855139  13.6227313  59.1956862
  39.9357175  23.6996855  55.6142681  39.8581205  24.6504680  55.6931162
  39.3318818  23.3542728  56.2717608  42.4274405  10.8724721  68.2704048
  41.6507739  11.4318641  68.2606913  43.0664968  11.3581504  68.7918918
  50.2195185   7.6551513  62.1047025  49.5769566   7.9484047  61.4586820
  49.7150114   7.5404434  62.9100222  47.8735349  11.4014687  52.7932884
  48.7853205  11.6342073  52.6180582  47.3644996  11.9851731  52.2307963
  40.6820777  13.6810174  67.8322015  41.4235461  14.2195218  67.5556839
  39.9757762  14.3076463  67.9893567  46.1576117  15.8239314  66.4294177
  46.5659473  15.3821725  65.6848809  45.4353378  15.2491942  66.6828370
  42.5107187  10.7611921  63.8027734  43.3568382  11.1851335  63.9462383
  42.4505824  10.1045546  64.4966297  46.4804931  16.3840505  60.1846466
  45.8513794  16.5486219  59.4822534  46.0930593  16.7982115  60.9557430
  50.3594163  17.3194943  57.5390829  49.6745201  17.6993844  56.9887863
  50.4438012  17.9290270  58.2722777  45.6606632   8.4216290  65.4608907
  45.4167564   9.1758350  64.9243183  45.9366562   8.8001637  66.2956154
  47.6145095  14.9654902  64.1386173  47.8261990  15.6086662  63.4620554
  47.5674843  14.1317218  63.6708103  45.2171324   7.5772723  61.0422745
  44.3555803   7.8753976  61.3339483  45.2433758   7.7943121  60.1103778
  42.0332893  16.1214913  57.4496551  42.4971239  16.4002616  56.6601173
  41.7689691  15.2198358  57.2669641  38.9256974  15.6686395  60.3876314
  39.4958331  16.0973663  59.7493799  39.5165086  15.3868979  61.0860500
  40.9701779  12.2438066  54.2586116  41.6725823  12.6959109  54.7260042
  40.6382408  11.6021884  54.8866009  39.4182141  10.8349822  68.6337325
  38.7880801  11.5166103  68.8672722  39.3118229  10.7232904  67.6890464
  34.7127113  10.5021618  59.5603249  33.9226167  10.7579147  59.0843360
  35.2038361  11.3169956  59.6655290  48.7290923  17.8426857  62.3108530
  49.5508366  17.4407045  62.0291212  48.7253326  17.7395092  63.2624646
  36.6641859  10.8666197  56.5186726  35.8673022  10.9784892  57.0370222
  36.4367451  11.2052850  55.6527617  42.4947526  17.3910901  64.4669241
  42.5591959  17.8531308  65.3027413  41.7858450  16.7608266  64.5951551
  32.9964816  10.7552109  61.9918240  33.2472855  11.6399119  62.2575816
  33.5324365  10.5756710  61.2193332  56.8196916  14.1865606  58.6593502
  56.0660624  13.6173004  58.5037506  56.9544457  14.1528270  59.6064136
  42.2095544  19.0579008  54.3348221  42.0741219  19.9030544  54.7633069
  42.7505356  19.2598286  53.5714155  38.6962883   5.1370588  70.9962576
  38.3029829   4.5836787  71.6710221  39.5129024   5.4481166  71.3869094
  35.6624941  16.5754446  54.9076146  36.1749462  17.3697696  55.0581711
  36.3147654  15.8780737  54.8409748  37.4719826  19.6920202  56.9898899
  37.6486454  20.6138167  56.8019883  38.2676659  19.3778622  57.4193279
  41.6130844   6.5528467  68.5882833  42.3540558   7.1535620  68.5087295
  41.8448767   5.8106105  68.0300875  36.7572182  11.7384834  66.8661063
  36.6425698  10.8370092  67.1668162  35.9016700  11.9848531  66.5145879
  43.8364020  19.6802575  68.4648563  43.3927874  18.8938953  68.1469468
  44.4981234  19.8681725  67.7992454  38.5951141  21.2098376  62.9909242
  39.1458566  21.0815440  62.2186236  37.7562617  21.5093265  62.6404135
  45.9345258  19.9605375  66.4929964  45.9163734  20.7814256  66.0010234
  46.8565178  19.8359450  66.7180106  42.3918312  17.4749504  67.3353473
  42.9246649  16.7137792  67.1052781  41.8632393  17.1823156  68.0777627
  45.5588007   2.5809570  62.8647115  45.2152277   3.4711212  62.7886225
  45.9266970   2.3911228  62.0016700  33.6273858  14.9043100  55.6835717
  34.4649080  15.3140109  55.4669424  33.8052126  13.9642543  55.6535911
  45.5238290  12.5718181  51.3719550  45.0084914  13.3422786  51.6107937
  45.2515599  11.8983317  51.9952611  43.1085401   7.4167882  56.4304788
  42.2526997   7.0274732  56.2510427  43.5212353   7.4959843  55.5704574
  44.6384548   4.9514225  60.8296348  44.1349343   4.9144360  60.0164153
  44.9315155   5.8606968  60.8893004  40.8827434   5.0352955  59.8362530
  41.7480430   4.8395764  59.4768419  40.9504943   4.8063307  60.7631886
  50.4972564  15.3250536  53.3072723  49.7202007  14.9861695  52.8627885
  51.1764045  15.3303159  52.6327688  45.3124593  10.4445273  53.1979331
  45.0074729  10.7591422  54.0489474  46.2655035  10.5226693  53.2406664
  43.7571025  16.6035497  54.8472285  43.2292387  15.8688256  54.5345522
  43.2558528  17.3810173  54.6012253  48.7363871  14.7984517  59.9639331
  48.0787546  15.4883778  60.0519460  49.5404270  15.1880949  60.3073318
  38.4889753   7.2655163  57.2078896  39.0633505   7.0430344  56.4752089
  39.0760735   7.3343857  57.9607498  47.5469330  13.1528890  58.0143273
  48.0601212  13.7858882  58.5164983  48.1970554  12.5530085  57.6486633
  38.8159340   9.2959624  51.2274782  37.9796652   9.6334310  51.5484056
  38.6764109   9.1608604  50.2901919  40.7912420   4.1396412  55.9353966
  40.1376833   3.8245429  55.3110581  40.7492895   3.5172152  56.6613789
  41.9023625  14.4215707  47.8507258  40.9950687  14.1904960  48.0498407
  42.3994657  13.6253326  48.0381239  44.8091704  23.1313214  50.7703944
  44.1353403  23.4344911  51.3788902  45.1957526  23.9342294  50.4209401
  44.0250161  10.6278345  60.2601613  43.1072722  10.8493292  60.1023301
  44.4410304  10.7024656  59.4013321  44.8085209  12.0269761  55.3904294
  45.5557027  12.5391158  55.0811416  45.0776798  11.7053814  56.2508687
  43.0811859  14.5228302  52.3731248  42.1723078  14.2387334  52.4703718
  43.1106943  14.9427380  51.5134555  48.3131126  18.1334891  56.1422416
  47.8593453  17.2925801  56.1987606  47.6825093  18.7696290  56.4797196
  47.2564046   9.0626877  57.3723083  46.5186802   8.5504263  57.7033326
  47.5090819   8.6227259  56.5606360  46.7564065  19.9711388  57.0772234
  47.0487040  20.5316445  56.3584599  47.2662686  20.2639949  57.8325393
  47.3575673   1.8403129  57.9664852  47.6634550   0.9800493  57.6790767
  48.0828278   2.4320749  57.7663846  33.6500029  12.2433816  56.3546450
  33.4524429  11.6503177  55.6297517  33.0946693  11.9386026  57.0722389
  41.6296753  12.1356922  58.4741043  41.6845363  11.1830759  58.3983520
  40.8187955  12.2916361  58.9582342  42.7787947  16.0637045  49.7119327
  42.3407376  15.3472904  49.2524964  43.5198387  16.2913160  49.1504418
  39.5689113  10.7533982  56.2331422  38.7556978  11.0528153  56.6396614
  40.0648107  10.3589671  56.9505904  41.7197691  20.7491739  58.1665687
  41.6773869  20.9752585  57.2374219  42.6360389  20.5155114  58.3151488
  45.1663324  11.2175806  65.0646316  45.5212712  11.4447280  65.9240782
  45.8135456  11.5494183  64.4423571  50.8961061  14.3394242  55.7695645
  50.7578960  14.5295838  54.8416834  50.5397280  15.1013625  56.2263696
  39.0603187   8.3252338  61.8492657  39.7002567   8.1841097  61.1515620
  38.2280718   8.0386851  61.4731259  50.9230441  16.4070769  60.7806917
  51.3566948  16.3146058  61.6289971  51.6362022  16.3828270  60.1426933
  39.8363491  17.6254768  57.9627650  40.6304090  17.1305088  57.7610225
  39.1255184  17.0972631  57.5995355  44.6558336  20.0072863  62.3140017
  44.7095358  20.5763800  63.0817733  43.7873117  20.1774749  61.9494054
  36.1446255  11.7697850  54.0387402  35.2143843  11.7082305  54.2557364
  36.2403727  11.2473802  53.2424044  36.0631804   8.2952663  56.6265644
  36.3238621   9.2097996  56.5174804  36.8848976   7.8277105  56.7762257
  37.5356729   9.7090420  63.7964468  38.2079783   9.5007782  63.1477117
  36.7086516   9.5112506  63.3569701  51.7845990  16.4494470  63.3139802
  51.9781881  17.3540281  63.5599077  51.6846609  15.9901889  64.1478387
  43.4382301   6.3352361  65.8130129  42.7910216   7.0342310  65.7194606
  44.2083317   6.7688505  66.1806378  46.8461099  16.6001213  68.8880683
  46.6946606  16.3711764  67.9710766  46.8365779  17.5571814  68.9012028
  43.6146436  14.1733126  63.8726949  44.5438496  14.3244285  63.6995916
  43.1937466  14.2617146  63.0175596  42.4134767  18.1983790  61.6425487
  42.2745853  17.8302574  62.5151425  41.6249364  18.7131429  61.4709445
  43.0082919  23.2992886  52.9851023  43.1834675  22.8280930  53.7996646
  42.3215707  23.9258653  53.2132284  43.9639982  17.5765393  59.0314324
  43.6289815  17.5366163  59.9271974  43.4643928  16.9110109  58.5584735
  37.9384226  12.9833023  64.5566906  37.8004024  12.2513262  65.1578445
  38.8489150  12.8941923  64.2751093  46.8999174  14.9221427  49.3051384
  46.2828345  14.1968255  49.2084437  46.4315663  15.6830787  48.9618458
  40.5666527  12.6952982  64.0450585  41.2766146  12.0546174  64.0037204
  40.5235835  12.9465877  64.9676766  48.5553306  19.6320335  66.9657165
  48.4965852  18.9479555  66.2987748  48.9572824  20.3739325  66.5137790
  39.2795461   9.6818200  65.8646225  38.7432818   9.2308938  66.5167821
  38.6912170   9.8164109  65.1216689  37.5744005  26.4482249  59.7590883
  37.8140603  27.0800773  60.4369902  36.7313201  26.0970289  60.0456243
  38.6897720   9.1406851  48.4272688  37.8127186   9.0195652  48.0634935
  39.1655473   8.3492930  48.1751577  48.5570713  17.5959919  65.1971144
  47.6697492  17.2585841  65.3197543  49.1269264  16.8642951  65.4339910
  30.2099860  13.9284011  58.5214196  30.8970900  13.6145741  57.9335211
  30.0547989  14.8325376  58.2481447  35.0134582   8.8174208  62.9499219
  34.9292771   8.2099877  62.2149629  34.1917289   9.3083226  62.9508716
  42.0871866  22.2561372  62.1632387  42.0142038  23.0616343  62.6751692
  41.6449260  22.4553337  61.3380409  41.8761646  21.4933142  55.6735209
  41.0929168  22.0354822  55.7673433  42.5754391  22.0107121  56.0729450
  45.1858296   7.3027771  58.3169414  45.6826996   6.5497733  57.9970485
  44.4145278   7.3392088  57.7512624  53.0388054  13.0068137  59.9587706
  53.0277930  13.8892852  59.5881639  52.1705433  12.6539687  59.7642243
  44.5470550  22.1548206  64.3190546  45.2598522  22.7895670  64.2466448
  44.0560579  22.2512072  63.5030548  46.2688077  16.0599458  55.8907838
  45.3344356  16.1800921  55.7212542  46.4464745  15.1571925  55.6267848
  41.7693265   9.4445154  58.0441099  41.3991052   8.8916194  58.7322004
  42.2652357   8.8403288  57.4916099  49.6560628  11.9016778  56.4257872
  50.1221080  12.7344769  56.3518175  50.1068129  11.4361759  57.1303130
  39.5982464  19.9042649  65.1396117  40.2991923  20.5379132  65.2925511
  39.1277579  20.2457381  64.3791756  47.7236859  18.2460599  53.4244024
  47.9996703  18.1317193  54.3337898  46.8541358  17.8478084  53.3856197
  47.6277291   4.2697365  60.4648773  46.7140371   4.5001591  60.6330980
  48.0570392   4.3535809  61.3162806  47.3983749  12.4587257  62.9648667
  46.7455200  12.7063164  62.3101120  47.7764129  11.6451395  62.6311145
  44.3590923  22.4946950  57.0676838  44.5413318  21.6768606  57.5304590
  45.1823909  22.7114642  56.6301728  44.6933089  21.4215135  54.3291886
  45.2220855  20.9107589  53.7162048  44.9561308  21.1057665  55.1937419
  43.4471323  13.2007068  69.4514704  42.7711960  13.1001197  70.1217080
  44.2698956  13.0446281  69.9150702  35.1950182  19.4379004  62.0727220
  35.7803618  18.6922692  62.2055124  34.9975020  19.7482961  62.9563883
  38.0488837  22.4730252  57.0889662  37.3799212  22.9576379  56.6053702
  37.9101706  22.7199472  58.0033040  29.7867836  12.0084604  60.7931663
  29.8251936  11.4748195  61.5868781  29.2808129  11.4819810  60.1742640
  42.1894105  24.5073995  63.6872320  42.7412413  24.6705617  64.4521406
  42.5300299  25.0978433  63.0152345  37.1658599   6.8549145  64.2894205
  37.2299925   7.7163976  63.8771603  37.1025719   6.2423147  63.5566564
  36.6410871   8.9272277  67.9367239  37.2682910   8.5449355  68.5504764
  35.7838790   8.7086479  68.3022932  47.0404980  19.3335253  69.5420975
  47.5844884  19.9465211  69.0475930  46.4591825  19.8914831  70.0587988
  33.4176414  10.7348707  53.8685594  33.7129855   9.8259385  53.8152648
  32.5164450  10.7136446  53.5466596  45.3262493  22.4555971  60.6736002
  45.2013632  21.6545710  60.1646948  45.9841584  22.9502164  60.1849972
  36.9470661   8.8104703  59.8513143  36.2257247   9.4240671  59.7120616
  37.7363917   9.3462468  59.7729789  47.3897401  20.2564991  62.3015553
  46.4427737  20.1370342  62.2293879  47.7380174  19.3687489  62.3841814
  39.7496974   6.1459130  66.1253794  40.2731376   6.3921426  66.8880104
  39.5309308   6.9779164  65.7056932  35.1464255   8.4162804  53.9924919
  34.8176962   7.5360183  53.8100025  35.5003626   8.3610473  54.8801308
  44.3943834  20.0517707  58.5019905  44.2468797  19.1234414  58.6827475
  45.2197328  20.0737798  58.0176980  38.2606079   8.7035774  54.3600397
  38.6002151   9.2321695  53.6379005  38.7078199   9.0416180  55.1358963
  47.9977956  20.8746266  59.5884778  48.9224504  20.6689127  59.4509229
  47.8293260  20.6262667  60.4974119  40.9549519   7.0872825  63.8103465
  40.6146340   6.2880638  64.2124145  40.2488526   7.3874536  63.2380298
  41.6065991   4.1722137  62.2630788  42.4292061   3.6982615  62.1409678
  41.8504055   4.9512621  62.7629474  40.2474226   7.2010396  52.5593690
  40.9682588   7.5791648  52.0557407  39.6239530   7.9199272  52.6628668
  44.3905349   7.9055545  53.4952022  44.6068963   8.7880182  53.1940850
  43.9099416   7.5141758  52.7657664  39.1304570  10.8641258  60.0722767
  38.9849151  11.1781561  60.9647048  38.6529774  11.4826158  59.5193665
  40.9900953   7.8543806  60.1203656  40.9762522   6.9584899  59.7835954
  41.7073381   7.8614470  60.7541942  42.8427084   8.2881146  62.1656784
  42.5844861   9.2098217  62.1641114  42.3112124   7.8911581  62.8557248
  47.7873272  21.3931933  54.9446869  47.9610150  20.8278356  54.1920721
  48.2802164  22.1932828  54.7626359  33.6050232  13.4046602  63.0110428
  33.0603700  14.1806410  63.1430702  34.4829582  13.7517407  62.8529549
  40.3937849   6.7358186  55.3891226  40.5153760   5.8074832  55.5882114
  40.1039891   6.7496872  54.4769542  43.2629039   4.4213096  58.5257946
  43.2850736   4.4852430  57.5709926  43.6797098   3.5817605  58.7198452
  53.6412664  14.1568356  56.5637169  54.0843810  13.4075681  56.1656292
  52.7639174  14.1478492  56.1810901  48.7748445  20.7098697  52.0443767
  49.4699350  21.3305390  52.2631082  49.1171595  19.8594049  52.3196145
  34.3916254  12.5316498  65.9040585  33.6497990  12.6799134  66.4905215
  34.0708998  12.7924764  65.0407334  50.6739868  18.1598403  53.5731098
  51.1991192  18.4985676  52.8480418  50.5862221  17.2245418  53.3894233
  42.3359917  22.0732477  65.7020975  42.6447043  21.8281623  66.5743674
  43.1335399  22.2779115  65.2139845  42.3580529  24.2270386  57.9326351
  41.9185519  23.7346765  58.6259208  43.1088646  23.6843354  57.6918426
  34.8372868  20.4181927  57.9350979  35.6630888  20.1185699  57.5549623
  34.4866920  19.6489550  58.3840768  39.8054401  19.7708395  60.0048653
  39.1834410  19.1079100  59.7050881  40.4759268  19.7969527  59.3222301
  33.0381473  18.3368254  58.8939913  32.2013381  17.9090428  58.7123914
  33.0105118  18.5300697  59.8310704  39.8778928   8.2490183  69.5981159
  39.9267084   9.1252306  69.2158929  40.4201443   7.7067576  69.0252802
  50.3633774  18.7931307  68.8782296  49.5729318  18.7755446  68.3386795
  50.1267129  19.3319600  69.6331333  50.4831649  15.6423773  66.1915025
  50.5329654  15.4773780  67.1330547  50.3745572  14.7751032  65.8012905
  39.3667908  18.3212319  53.4807113  39.5156028  19.0047783  52.8273786
  40.1734351  18.3017409  53.9956569  47.7735412  11.6254701  67.5074331
  48.6745274  11.4861166  67.2158329  47.8483386  11.7909156  68.4472509
  42.1078217   9.0021556  66.3527518  41.2381526   9.2955122  66.0810106
  42.3437697   9.5862001  67.0734781  51.9849846  18.0620715  66.4357046
  51.6934654  18.4250695  67.2720507  51.3721977  17.3487723  66.2570378
  53.1845528  15.6273594  58.9559616  54.0192420  16.0663398  59.1197177
  53.3204657  15.1512248  58.1367862  50.2337034  13.1853329  64.9037104
  50.7091156  13.3780975  64.0955955  49.3102600  13.2412515  64.6580488
  37.1220541  14.3477496  54.4868182  36.8766583  13.4439826  54.6848392
  37.2916455  14.3494647  53.5447660  44.8117251   5.2201173  63.8692938
  45.3299195   5.9562200  63.5439427  44.4572383   5.5265166  64.7039697
  36.3916188  10.0805854  51.9854344  35.6985433  10.1550209  51.3294380
  36.1467940   9.3166198  52.5075861  45.0629845   1.6401455  59.3893835
  45.3431599   0.9724644  60.0154261  45.8480452   1.8330551  58.8768498
  42.8663313  20.8160449  50.9518861  42.2937280  21.4350636  50.4989333
  43.4396107  21.3659811  51.4858783  48.9338703  10.0619089  63.1365410
  49.8856126  10.1617187  63.1577634  48.7642154   9.2697358  63.6463494
  46.9553083   7.1474672  63.3224811  46.3603015   7.4279685  62.6271299
  46.6702779   7.6368573  64.0941552  46.0860573  21.0997599  52.0827443
  47.0191246  21.0343161  52.2860319  45.9983786  21.9353866  51.6241976
  48.7148590  20.4163470  49.0431391  48.6362221  20.0823333  49.9367149
  49.5358257  20.9085238  49.0422863  51.4126781  13.2825209  62.2507709
  51.3803101  12.3441210  62.4367393  52.0227405  13.3609246  61.5173534
  43.2510112  12.1521262  48.2934913  44.1969217  12.0227470  48.3623331
  42.8724357  11.4135924  48.7704342  51.5621269  10.0736252  62.2965992
  51.0460318   9.2894709  62.1095921  52.4461218   9.7454969  62.4612512
  49.2231996   3.8177268  58.2561805  49.0256818   3.5092356  59.1405137
  49.8331702   4.5438907  58.3859735  57.2303331  14.3441216  61.3913746
  57.9606719  14.0826504  61.9521449  56.6210276  13.6069938  61.4315814
  55.3118628  12.4849078  61.9888197  54.5851792  12.3505043  61.3804689
  54.8965915  12.7925907  62.7944915  43.1348804  16.2039008  69.7535570
  44.0551814  16.3817607  69.9475617  43.0998387  15.2595053  69.6015270
  41.4353029  10.0771238  48.2289799  40.5284484   9.7804351  48.3052512
  41.7129010   9.7801056  47.3624085  32.3530969  11.3977602  58.6788845
  32.0333754  10.5442910  58.3863219  31.8064398  11.6126180  59.4346812
  36.1310877  14.1140043  62.3958351  36.3496887  15.0457151  62.4146385
  36.5436651  13.7548017  63.1813155  43.0515095   4.6208128  54.3834040
  42.2415823   4.2755213  54.7589286  43.7399512   4.3115672  54.9721651
  44.9805643   3.6986175  56.0058337  45.5336682   4.1181628  56.6648360
  45.2175729   2.7721923  56.0481293  41.0038742   9.6873248  71.7861100
  40.9035469  10.6367605  71.7173192  40.7860284   9.3591487  70.9137171
  40.2051814   6.9358174  48.3701778  41.0670978   7.2613072  48.6297595
  40.3902158   6.1489669  47.8574844  32.2219229  15.0180513  60.6481967
  31.5282701  14.6034466  60.1351921  32.9692220  15.0601050  60.0515385
  48.3584450   5.8086700  55.5137001  47.7783119   6.4671504  55.1315053
  48.0920383   4.9864045  55.1024418  46.8088016   5.2091758  57.7158321
  47.3087795   5.3208292  56.9072640  47.4523624   4.9052811  58.3559130
  40.8670012  13.1170387  70.6026162  40.3837094  13.9170747  70.8090051
  40.9530951  13.1278332  69.6493606  34.1355972  14.9498767  58.5247981
  34.1126660  15.0486454  57.5729865  34.4456608  15.7963918  58.8465148
  36.7943350  17.0074922  62.6394596  37.7486603  16.9758864  62.5724527
  36.5955873  16.5465546  63.4544822  37.3842732  15.5776038  65.2065394
  38.2035621  16.0720117  65.2300231  37.6579540  14.6608006  65.1782961
  47.1409328   7.9686790  54.5693349  46.2535183   8.2536441  54.3513544
  47.5563317   7.8080554  53.7220626  50.4923864   7.9933311  58.2847688
  51.2684254   8.4829764  58.5572305  49.7671998   8.4191366  58.7419558
  52.9296423   8.7060931  59.3421629  53.5240914   8.4656667  58.6314937
  53.0023007   7.9868061  59.9695165  35.1493579  22.5494542  59.6564794
  35.0148046  21.7894942  59.0902792  34.7325641  23.2735441  59.1893583
  46.2852542  17.7331465  48.6641369  46.9888392  17.9381468  49.2799025
  45.5615190  18.3008227  48.9290453  47.1150352  13.4841326  54.7843639
  47.0585553  13.9409878  53.9451272  47.6678694  12.7232011  54.6066482
  50.9255158   9.2731058  55.6093759  50.6692092   8.8727694  56.4401966
  50.3008026   9.9874852  55.4843898  55.2367496  12.0127131  58.1165050
  54.6767054  12.0820321  58.8896612  54.6310999  11.8368116  57.3964546
  38.3062704  23.4463859  59.8683236  38.1895089  24.3909291  59.7661927
  37.4855151  23.1437420  60.2569036  48.1939239  18.1713994  50.7139829
  49.0284843  17.7395193  50.5317304  48.0323582  17.9996008  51.6416724
  47.8485131  14.6746108  52.0796168  47.7933935  14.5090379  51.1384612
  47.2231186  15.3822140  52.2358358  32.6377646   9.9114172  65.9057591
  33.2836510   9.4013126  66.3944816  32.4294797  10.6482854  66.4801016
  45.1631038  16.9795019  71.4049731  46.0322198  17.1535672  71.0436366
  44.6837790  17.7989436  71.2825460  41.1581257   4.1754217  51.6581487
  41.1459926   5.1196056  51.8149758  42.0504678   3.9924362  51.3640948
  39.3317219  24.0992120  63.0839165  40.2344465  24.1315731  63.4005660
  39.1054589  23.1692571  63.0985501  41.0870821  22.8523107  59.7449243
  40.1366452  22.8524969  59.6313616  41.3903307  22.1055842  59.2285278
  44.9733376   0.7696993  55.9127424  44.2065772   0.2155480  56.0584106
  45.3844081   0.8418862  56.7741575  36.9775137   7.0581789  70.0032605
  37.8406599   6.7018594  70.2135929  36.4040548   6.7195684  70.6908009
  56.8223514  28.6883645  60.8095006  57.4601924  28.5690393  60.1058346
  56.7044357  29.6364489  60.8682958  53.6313220  28.6411073  60.7456531
  53.2931732  28.5252138  59.8577065  54.5002989  28.2402239  60.7257537
  54.1133003  29.7945925  66.7042736  54.1021644  29.3998723  65.8323240
  54.2753643  29.0611998  67.2976507  47.0364468  31.9897741  59.5737642
  47.8285760  31.6488566  59.1583941  47.2761118  32.0992717  60.4939795
  55.0699595  34.1617518  52.0467886  54.4187575  34.7471598  51.6601900
  55.8643958  34.6923712  52.1062924  50.8340264  32.5783037  65.6521920
  50.5430130  33.4828668  65.5368586  51.4697249  32.6199565  66.3665990
  51.7596471  29.9559886  62.2423280  52.3560044  29.7315908  61.5280243
  51.8171443  29.2144631  62.8448728  51.3321500  27.4099321  50.0773471
  51.5847020  26.8880842  49.3156934  50.3946059  27.2465466  50.1800154
  56.3764783  26.4135099  57.8848214  57.1627872  25.9954522  57.5338631
  56.6403487  27.3181191  58.0529862  56.5474860  31.8507950  52.5836871
  55.9120693  31.9242576  53.2957775  56.2172266  32.4401548  51.9055950
  61.7773210  26.3510332  58.7881192  62.5098382  25.7809549  59.0219022
  61.0212565  25.9631933  59.2287698  51.0517788  29.3127427  52.2797846
  50.9354047  28.6372330  52.9478930  51.1620048  28.8259801  51.4629999
  53.3949329  28.7737574  55.9844535  53.0307537  28.2468195  56.6957456
  54.2516445  28.3836043  55.8111020  59.2998630  20.0631907  63.2475801
  58.9681955  20.9327317  63.0237016  58.7044243  19.7468191  63.9269831
  53.0354816  23.8027474  50.9805883  53.2029219  24.6707710  51.3476354
  52.8451985  23.9654755  50.0567173  55.7930150  32.2644453  62.6471714
  55.4930873  33.1669491  62.5387521  55.4481209  31.9976636  63.4992867
  49.2442631  28.7158249  58.6808418  48.3193128  28.5834463  58.8886110
  49.4927044  29.4952469  59.1778361  59.1927293  24.7826993  60.3269151
  58.2844171  24.7142401  60.0327912  59.1414889  25.2598938  61.1550977
  53.0144037  26.2585131  51.9652550  52.8943662  26.7042182  52.8038030
  52.3196626  26.6070449  51.4066088  46.6051442  28.3591523  59.5152207
  46.7343823  28.6126002  60.4291619  45.9248893  28.9519231  59.1956862
  53.2668159  26.2016638  68.2704048  52.4901493  26.7610558  68.2606913
  53.9058722  26.6873421  68.7918918  61.0588940  22.9843431  62.1047025
  60.4163320  23.2775964  61.4586820  60.5543868  22.8696351  62.9100222
  58.7129103  26.7306604  52.7932884  59.6246960  26.9633991  52.6180582
  58.2038750  27.3143648  52.2307963  51.5214531  29.0102092  67.8322015
  52.2629216  29.5487136  67.5556839  50.8151517  29.6368380  67.9893567
  56.9969871  31.1531232  66.4294177  57.4053227  30.7113643  65.6848809
  56.2747133  30.5783860  66.6828370  53.3500941  26.0903839  63.8027734
  54.1962136  26.5143252  63.9462383  53.2899579  25.4337463  64.4966297
  57.3198686  31.7132423  60.1846466  56.6907548  31.8778137  59.4822534
  56.9324348  32.1274032  60.9557430  61.1987918  32.6486861  57.5390829
  60.5138956  33.0285762  56.9887863  61.2831767  33.2582187  58.2722777
  56.5000386  23.7508207  65.4608907  56.2561318  24.5050268  64.9243183
  56.7760317  24.1293555  66.2956154  58.4538849  30.2946820  64.1386173
  58.6655744  30.9378580  63.4620554  58.4068597  29.4609136  63.6708103
  56.0565078  22.9064640  61.0422745  55.1949557  23.2045894  61.3339483
  56.0827513  23.1235039  60.1103778  52.8726648  31.4506831  57.4496551
  53.3364993  31.7294534  56.6601173  52.6083446  30.5490275  57.2669641
  49.7650729  30.9978312  60.3876314  50.3352086  31.4265581  59.7493799
  50.3558841  30.7160897  61.0860500  51.8095534  27.5729983  54.2586116
  52.5119577  28.0251027  54.7260042  51.4776162  26.9313802  54.8866009
  50.2575895  26.1641740  68.6337325  49.6274556  26.8458021  68.8672722
  50.1511983  26.0524821  67.6890464  45.5520868  25.8313536  59.5603249
  44.7619922  26.0871064  59.0843360  46.0432115  26.6461874  59.6655290
  59.5684677  33.1718775  62.3108530  60.3902121  32.7698962  62.0291212
  59.5647080  33.0687009  63.2624646  47.5035613  26.1958115  56.5186726
  46.7066776  26.3076809  57.0370222  47.2761205  26.5344767  55.6527617
  53.3341281  32.7202818  64.4669241  53.3985713  33.1823226  65.3027413
  52.6252205  32.0900183  64.5951551  43.8358571  26.0844026  61.9918240
  44.0866609  26.9691036  62.2575816  44.3718119  25.9048628  61.2193332
  67.6590670  29.5157524  58.6593502  66.9054379  28.9464922  58.5037506
  67.7938211  29.4820188  59.6064136  49.5356638  20.4662506  70.9962576
  49.1423583  19.9128704  71.6710221  50.3522778  20.7773084  71.3869094
  52.4524599  21.8820385  68.5882833  53.1934312  22.4827538  68.5087295
  52.6842522  21.1398023  68.0300875  47.5965937  27.0676752  66.8661063
  47.4819452  26.1662009  67.1668162  46.7410455  27.3140449  66.5145879
  54.6757775  35.0094492  68.4648563  54.2321629  34.2230871  68.1469468
  55.3374988  35.1973643  67.7992454  56.7739013  35.2897292  66.4929964
  56.7557488  36.1106173  66.0010234  57.6958933  35.1651367  66.7180106
  53.2312067  32.8041422  67.3353473  53.7640404  32.0429710  67.1052781
  52.7026148  32.5115074  68.0777627  56.3981762  17.9101488  62.8647115
  56.0546031  18.8003129  62.7886225  56.7660724  17.7203145  62.0016700
  44.4667612  30.2335018  55.6835717  45.3042834  30.6432027  55.4669424
  44.6445880  29.2934460  55.6535911  56.3632045  27.9010099  51.3719550
  55.8478668  28.6714703  51.6107937  56.0909353  27.2275235  51.9952611
  53.9479156  22.7459800  56.4304788  53.0920752  22.3566650  56.2510427
  54.3606107  22.8251760  55.5704574  55.4778302  20.2806143  60.8296348
  54.9743098  20.2436278  60.0164153  55.7708909  21.1898886  60.8893004
  51.7221188  20.3644873  59.8362530  52.5874185  20.1687681  59.4768419
  51.7898697  20.1355224  60.7631886  61.3366319  30.6542453  53.3072723
  60.5595761  30.3153613  52.8627885  62.0157800  30.6595077  52.6327688
  56.1518348  25.7737191  53.1979331  55.8468483  26.0883340  54.0489474
  57.1048790  25.8518611  53.2406664  54.5964780  31.9327414  54.8472285
  54.0686141  31.1980174  54.5345522  54.0952282  32.7102091  54.6012253
  59.5757626  30.1276435  59.9639331  58.9181300  30.8175696  60.0519460
  60.3798025  30.5172867  60.3073318  49.3283507  22.5947081  57.2078896
  49.9027259  22.3722262  56.4752089  49.9154490  22.6635775  57.9607498
  58.3863084  28.4820807  58.0143273  58.8994966  29.1150799  58.5164983
  59.0364308  27.8822003  57.6486633  49.6553094  24.6251542  51.2274782
  48.8190407  24.9626228  51.5484056  49.5157864  24.4900521  50.2901919
  51.6306175  19.4688329  55.9353966  50.9770587  19.1537347  55.3110581
  51.5886649  18.8464070  56.6613789  52.7417380  29.7507624  47.8507258
  51.8344442  29.5196878  48.0498407  53.2388412  28.9545244  48.0381239
  54.8643915  25.9570263  60.2601613  53.9466477  26.1785210  60.1023301
  55.2804059  26.0316573  59.4013321  55.6478963  27.3561679  55.3904294
  56.3950782  27.8683076  55.0811416  55.9170553  27.0345731  56.2508687
  53.9205613  29.8520219  52.3731248  53.0116832  29.5679252  52.4703718
  53.9500697  30.2719298  51.5134555  59.1524881  33.4626809  56.1422416
  58.6987208  32.6217719  56.1987606  58.5218847  34.0988207  56.4797196
  58.0957800  24.3918795  57.3723083  57.3580557  23.8796181  57.7033326
  58.3484574  23.9519176  56.5606360  58.1969428  17.1695047  57.9664852
  58.5028304  16.3092410  57.6790767  58.9222032  17.7612667  57.7663846
  44.4893784  27.5725733  56.3546450  44.2918183  26.9795094  55.6297517
  43.9340448  27.2677944  57.0722389  52.4690507  27.4648840  58.4741043
  52.5239117  26.5122676  58.3983520  51.6581709  27.6208279  58.9582342
  53.6181701  31.3928963  49.7119327  53.1801131  30.6764822  49.2524964
  54.3592142  31.6205078  49.1504418  50.4082867  26.0825900  56.2331422
  49.5950733  26.3820070  56.6396614  50.9041861  25.6881588  56.9505904
  56.0057079  26.5467724  65.0646316  56.3606467  26.7739197  65.9240782
  56.6529210  26.8786101  64.4423571  61.7354816  29.6686160  55.7695645
  61.5972714  29.8587756  54.8416834  61.3791035  30.4305543  56.2263696
  49.8996942  23.6544255  61.8492657  50.5396321  23.5133014  61.1515620
  49.0674472  23.3678769  61.4731259  61.7624195  31.7362687  60.7806917
  62.1960702  31.6437976  61.6289971  62.4755776  31.7120188  60.1426933
  55.4952090  35.3364781  62.3140017  55.5489113  35.9055717  63.0817733
  54.6266872  35.5066666  61.9494054  46.9840009  27.0989767  54.0387402
  46.0537597  27.0374223  54.2557364  47.0797481  26.5765720  53.2424044
  46.9025558  23.6244580  56.6265644  47.1632376  24.5389913  56.5174804
  47.7242731  23.1569023  56.7762257  48.3750484  25.0382337  63.7964468
  49.0473537  24.8299700  63.1477117  47.5480270  24.8404423  63.3569701
  62.6239745  31.7786388  63.3139802  62.8175635  32.6832198  63.5599077
  62.5240363  31.3193807  64.1478387  54.2776056  21.6644278  65.8130129
  53.6303971  22.3634228  65.7194606  55.0477071  22.0980422  66.1806378
  57.6854854  31.9293130  68.8880683  57.5340360  31.7003682  67.9710766
  57.6759533  32.8863732  68.9012028  54.4540190  29.5025043  63.8726949
  55.3832250  29.6536203  63.6995916  54.0331220  29.5909064  63.0175596
  53.2528522  33.5275708  61.6425487  53.1139608  33.1594492  62.5151425
  52.4643118  34.0423347  61.4709445  54.8033737  32.9057310  59.0314324
  54.4683570  32.8658080  59.9271974  54.3037683  32.2402026  58.5584735
  48.7777981  28.3124940  64.5566906  48.6397779  27.5805179  65.1578445
  49.6882904  28.2233840  64.2751093  57.7392929  30.2513345  49.3051384
  57.1222099  29.5260173  49.2084437  57.2709417  31.0122705  48.9618458
  51.4060282  28.0244900  64.0450585  52.1159900  27.3838092  64.0037204
  51.3629590  28.2757795  64.9676766  59.3947060  34.9612253  66.9657165
  59.3359606  34.2771473  66.2987748  59.7966579  35.7031243  66.5137790
  50.1189216  25.0110118  65.8646225  49.5826573  24.5600856  66.5167821
  49.5305924  25.1456026  65.1216689  49.5291475  24.4698769  48.4272688
  48.6520941  24.3487570  48.0634935  50.0049228  23.6784847  48.1751577
  59.3964468  32.9251837  65.1971144  58.5091246  32.5877759  65.3197543
  59.9663019  32.1934868  65.4339910  41.0493615  29.2575929  58.5214196
  41.7364655  28.9437659  57.9335211  40.8941743  30.1617293  58.2481447
  45.8528337  24.1466125  62.9499219  45.7686526  23.5391795  62.2149629
  45.0311043  24.6375144  62.9508716  56.0252051  22.6319689  58.3169414
  56.5220750  21.8789651  57.9970485  55.2539032  22.6684005  57.7512624
  63.8781808  28.3360054  59.9587706  63.8671684  29.2184770  59.5881639
  63.0099188  27.9831605  59.7642243  55.3864304  37.4840123  64.3190546
  56.0992277  38.1187588  64.2466448  54.8954333  37.5803989  63.5030548
  57.1081831  31.3891376  55.8907838  56.1738110  31.5092838  55.7212542
  57.2858500  30.4863843  55.6267848  52.6087019  24.7737072  58.0441099
  52.2384807  24.2208112  58.7322004  53.1046112  24.1695205  57.4916099
  60.4954383  27.2308695  56.4257872  60.9614835  28.0636687  56.3518175
  60.9461883  26.7653677  57.1303130  50.4376218  35.2334567  65.1396117
  51.1385677  35.8671050  65.2925511  49.9671333  35.5749298  64.3791756
  58.5630614  33.5752517  53.4244024  58.8390458  33.4609111  54.3337898
  57.6935113  33.1770001  53.3856197  58.4671045  19.5989282  60.4648773
  57.5534125  19.8293509  60.6330980  58.8964147  19.6827726  61.3162806
  58.2377504  27.7879174  62.9648667  57.5848954  28.0355082  62.3101120
  58.6157884  26.9743312  62.6311145  54.2865077  28.5298985  69.4514704
  53.6105714  28.4293115  70.1217080  55.1092711  28.3738199  69.9150702
  46.0343936  34.7670922  62.0727220  46.6197373  34.0214610  62.2055124
  45.8368775  35.0774879  62.9563883  40.6261591  27.3376522  60.7931663
  40.6645690  26.8040113  61.5868781  40.1201884  26.8111728  60.1742640
  48.0052353  22.1841063  64.2894205  48.0693680  23.0455893  63.8771603
  47.9419473  21.5715064  63.5566564  47.4804626  24.2564195  67.9367239
  48.1076664  23.8741272  68.5504764  46.6232544  24.0378397  68.3022932
  57.8798734  34.6627170  69.5420975  58.4238638  35.2757129  69.0475930
  57.2985579  35.2206749  70.0587988  44.2570168  26.0640624  53.8685594
  44.5523609  25.1551303  53.8152648  43.3558204  26.0428364  53.5466596
  56.1656247  37.7847888  60.6736002  56.0407387  36.9837628  60.1646948
  56.8235338  38.2794082  60.1849972  47.7864415  24.1396621  59.8513143
  47.0651001  24.7532588  59.7120616  48.5757671  24.6754386  59.7729789
  58.2291156  35.5856908  62.3015553  57.2821491  35.4662260  62.2293879
  58.5773929  34.6979406  62.3841814  50.5890729  21.4751047  66.1253794
  51.1125131  21.7213344  66.8880104  50.3703062  22.3071082  65.7056932
  45.9858010  23.7454722  53.9924919  45.6570716  22.8652101  53.8100025
  46.3397381  23.6902391  54.8801308  55.2337589  35.3809625  58.5019905
  55.0862551  34.4526332  58.6827475  56.0591082  35.4029715  58.0176980
  49.0999833  24.0327692  54.3600397  49.4395906  24.5613613  53.6379005
  49.5471954  24.3708098  55.1358963  58.8371711  36.2038183  59.5884778
  59.7618258  35.9981045  59.4509229  58.6687014  35.9554584  60.4974119
  51.7943274  22.4164742  63.8103465  51.4540094  21.6172555  64.2124145
  51.0882280  22.7166453  63.2380298  52.4459746  19.5014055  62.2630788
  53.2685815  19.0274533  62.1409678  52.6897809  20.2804539  62.7629474
  51.0867980  22.5302313  52.5593690  51.8076343  22.9083566  52.0557407
  50.4633284  23.2491190  52.6628668  55.2299103  23.2347462  53.4952022
  55.4462718  24.1172100  53.1940850  54.7493170  22.8433676  52.7657664
  49.9698325  26.1933175  60.0722767  49.8242905  26.5073479  60.9647048
  49.4923528  26.8118076  59.5193665  51.8294707  23.1835723  60.1203656
  51.8156276  22.2876817  59.7835954  52.5467136  23.1906387  60.7541942
  53.6820838  23.6173064  62.1656784  53.4238616  24.5390134  62.1641114
  53.1505879  23.2203498  62.8557248  44.4443987  28.7338520  63.0110428
  43.8997455  29.5098328  63.1430702  45.3223337  29.0809324  62.8529549
  51.2331603  22.0650104  55.3891226  51.3547515  21.1366750  55.5882114
  50.9433646  22.0788790  54.4769542  54.1022794  19.7505014  58.5257946
  54.1244491  19.8144347  57.5709926  54.5190853  18.9109523  58.7198452
  64.4806418  29.4860274  56.5637169  64.9237564  28.7367599  56.1656292
  63.6032928  29.4770410  56.1810901  45.2310009  27.8608416  65.9040585
  44.4891745  28.0091051  66.4905215  44.9102753  28.1216682  65.0407334
  61.5133623  33.4890321  53.5731098  62.0384947  33.8277593  52.8480418
  61.4255975  32.5537336  53.3894233  53.1753671  37.4024394  65.7020975
  53.4840798  37.1573541  66.5743674  53.9729153  37.6071033  65.2139845
  43.8775227  33.6660171  58.8939913  43.0407136  33.2382346  58.7123914
  43.8498873  33.8592615  59.8310704  50.7172683  23.5782101  69.5981159
  50.7660838  24.4544224  69.2158929  51.2595197  23.0359494  69.0252802
  61.2027529  34.1223224  68.8782296  60.4123072  34.1047363  68.3386795
  60.9660883  34.6611518  69.6331333  61.3225404  30.9715691  66.1915025
  61.3723409  30.8065698  67.1330547  61.2139327  30.1042950  65.8012905
  58.6129166  26.9546619  67.5074331  59.5139029  26.8153084  67.2158329
  58.6877141  27.1201074  68.4472509  52.9471971  24.3313473  66.3527518
  52.0775281  24.6247040  66.0810106  53.1831452  24.9153918  67.0734781
  62.8243600  33.3912632  66.4357046  62.5328409  33.7542613  67.2720507
  62.2115732  32.6779641  66.2570378  64.0239283  30.9565512  58.9559616
  64.8586174  31.3955316  59.1197177  64.1598412  30.4804165  58.1367862
  61.0730789  28.5145247  64.9037104  61.5484910  28.7072893  64.0955955
  60.1496354  28.5704433  64.6580488  55.6511005  20.5493090  63.8692938
  56.1692949  21.2854117  63.5439427  55.2966138  20.8557084  64.7039697
  47.2309943  25.4097772  51.9854344  46.5379188  25.4842127  51.3294380
  46.9861695  24.6458115  52.5075861  55.9023599  16.9693373  59.3893835
  56.1825353  16.3016562  60.0154261  56.6874206  17.1622469  58.8768498
  59.7732458  25.3911007  63.1365410  60.7249881  25.4909105  63.1577634
  59.6035908  24.5989275  63.6463494  57.7946837  22.4766590  63.3224811
  57.1996769  22.7571603  62.6271299  57.5096534  22.9660491  64.0941552
  59.5542344  35.7455387  49.0431391  59.4755976  35.4115251  49.9367149
  60.3752011  36.2377155  49.0422863  62.2520535  28.6117127  62.2507709
  62.2196856  27.6733127  62.4367393  62.8621159  28.6901163  61.5173534
  54.0903866  27.4813180  48.2934913  55.0362971  27.3519388  48.3623331
  53.7118111  26.7427842  48.7704342  62.4015024  25.4028170  62.2965992
  61.8854073  24.6186627  62.1095921  63.2854972  25.0746887  62.4612512
  60.0625751  19.1469186  58.2561805  59.8650572  18.8384274  59.1405137
  60.6725456  19.8730825  58.3859735  68.0697085  29.6733133  61.3913746
  68.8000474  29.4118422  61.9521449  67.4604031  28.9361855  61.4315814
  66.1512382  27.8140996  61.9888197  65.4245546  27.6796961  61.3804689
  65.7359669  28.1217825  62.7944915  53.9742559  31.5330926  69.7535570
  54.8945568  31.7109525  69.9475617  53.9392142  30.5886971  69.6015270
  52.2746783  25.4063156  48.2289799  51.3678239  25.1096269  48.3052512
  52.5522764  25.1092974  47.3624085  43.1924724  26.7269519  58.6788845
  42.8727508  25.8734828  58.3863219  42.6458152  26.9418098  59.4346812
  46.9704631  29.4431960  62.3958351  47.1890641  30.3749068  62.4146385
  47.3830405  29.0839935  63.1813155  53.8908849  19.9500046  54.3834040
  53.0809578  19.6047131  54.7589286  54.5793266  19.6407589  54.9721651
  55.8199397  19.0278093  56.0058337  56.3730436  19.4473546  56.6648360
  56.0569484  18.1013841  56.0481293  51.8432497  25.0165166  71.7861100
  51.7429224  25.9659523  71.7173192  51.6254039  24.6883405  70.9137171
  51.0445568  22.2650091  48.3701778  51.9064732  22.5904990  48.6297595
  51.2295912  21.4781587  47.8574844  43.0612984  30.3472431  60.6481967
  42.3676455  29.9326384  60.1351921  43.8085975  30.3892967  60.0515385
  59.1978205  21.1378618  55.5137001  58.6176874  21.7963422  55.1315053
  58.9314137  20.3155962  55.1024418  57.6481771  20.5383675  57.7158321
  58.1481549  20.6500210  56.9072640  58.2917379  20.2344728  58.3559130
  51.7063767  28.4462305  70.6026162  51.2230848  29.2462665  70.8090051
  51.7924706  28.4570250  69.6493606  44.9749726  30.2790685  58.5247981
  44.9520415  30.3778372  57.5729865  45.2850363  31.1255835  58.8465148
  47.6337104  32.3366840  62.6394596  48.5880358  32.3050782  62.5724527
  47.4349628  31.8757463  63.4544822  48.2236486  30.9067956  65.2065394
  49.0429375  31.4012034  65.2300231  48.4973294  29.9899924  65.1782961
  57.9803083  23.2978708  54.5693349  57.0928938  23.5828359  54.3513544
  58.3957072  23.1372471  53.7220626  61.3317619  23.3225229  58.2847688
  62.1078009  23.8121681  58.5572305  60.6065753  23.7483283  58.7419558
  63.7690177  24.0352848  59.3421629  64.3634668  23.7948584  58.6314937
  63.8416761  23.3159979  59.9695165  57.1246296  33.0623383  48.6641369
  57.8282146  33.2673385  49.2799025  56.4008945  33.6300145  48.9290453
  57.9544106  28.8133244  54.7843639  57.8979308  29.2701795  53.9451272
  58.5072449  28.0523929  54.6066482  61.7648912  24.6022976  55.6093759
  61.5085846  24.2019612  56.4401966  61.1401780  25.3166770  55.4843898
  66.0761250  27.3419049  58.1165050  65.5160808  27.4112238  58.8896612
  65.4704753  27.1660034  57.3964546  59.0332993  33.5005912  50.7139829
  59.8678597  33.0687110  50.5317304  58.8717336  33.3287926  51.6416724
  58.6878886  30.0038025  52.0796168  58.6327689  29.8382297  51.1384612
  58.0624941  30.7114058  52.2358358  43.4771401  25.2406090  65.9057591
  44.1230264  24.7305044  66.3944816  43.2688552  25.9774771  66.4801016
  56.0024793  32.3086937  71.4049731  56.8715952  32.4827589  71.0436366
  55.5231544  33.1281354  71.2825460  51.9975011  19.5046134  51.6581487
  51.9853681  20.4487974  51.8149758  52.8898433  19.3216280  51.3640948
  55.8127131  16.0988911  55.9127424  55.0459526  15.5447398  56.0584106
  56.2237836  16.1710780  56.7741575  47.8168892  22.3873707  70.0032605
  48.6800353  22.0310512  70.2135929  47.2434302  22.0487602  70.6908009
  72.6166964  41.6802250  58.7881192  73.3492136  41.1101467  59.0219022
  71.8606320  41.2923851  59.2287698  70.1392385  35.3923824  63.2475801
  69.8075709  36.2619235  63.0237016  69.5437998  35.0760108  63.9269831
  63.8748571  39.1319391  50.9805883  64.0422973  39.9999628  51.3476354
  63.6845740  39.2946673  50.0567173  66.6323904  47.5936370  62.6471714
  66.3324627  48.4961409  62.5387521  66.2874964  47.3268553  63.4992867
  70.0321048  40.1118910  60.3269151  69.1237925  40.0434319  60.0327912
  69.9808644  40.5890855  61.1550977  64.1061914  41.5308556  68.2704048
  63.3295248  42.0902476  68.2606913  64.7452477  42.0165339  68.7918918
  71.8982694  38.3135349  62.1047025  71.2557074  38.6067882  61.4586820
  71.3937623  38.1988269  62.9100222  69.5522858  42.0598522  52.7932884
  70.4640714  42.2925909  52.6180582  69.0432505  42.6435566  52.2307963
  67.8363626  46.4823150  66.4294177  68.2446982  46.0405560  65.6848809
  67.1140887  45.9075777  66.6828370  67.3394141  39.0800125  65.4608907
  67.0955073  39.8342185  64.9243183  67.6154071  39.4585473  66.2956154
  69.2932604  45.6238737  64.1386173  69.5049499  46.2670497  63.4620554
  69.2462352  44.7901054  63.6708103  66.8958833  38.2356558  61.0422745
  66.0343312  38.5337812  61.3339483  66.9221267  38.4526957  60.1103778
  78.4984425  44.8449441  58.6593502  77.7448133  44.2756839  58.5037506
  78.6331966  44.8112106  59.6064136  60.3750392  35.7954423  70.9962576
  59.9817338  35.2420622  71.6710221  61.1916533  36.1065002  71.3869094
  63.2918353  37.2112302  68.5882833  64.0328067  37.8119456  68.5087295
  63.5236276  36.4689940  68.0300875  67.2375516  33.2393405  62.8647115
  66.8939786  34.1295047  62.7886225  67.6054479  33.0495063  62.0016700
  67.2025799  43.2302016  51.3719550  66.6872422  44.0006621  51.6107937
  66.9303108  42.5567153  51.9952611  66.3172057  35.6098061  60.8296348
  65.8136852  35.5728196  60.0164153  66.6102664  36.5190803  60.8893004
  62.5614943  35.6936790  59.8362530  63.4267939  35.4979599  59.4768419
  62.6292452  35.4647142  60.7631886  66.9912102  41.1029109  53.1979331
  66.6862238  41.4175258  54.0489474  67.9442544  41.1810528  53.2406664
  68.9351555  39.7210713  57.3723083  68.1974311  39.2088099  57.7033326
  69.1878328  39.2811094  56.5606360  69.0363182  32.4986965  57.9664852
  69.3422059  31.6384328  57.6790767  69.7615787  33.0904585  57.7663846
  72.6017950  47.0654605  60.7806917  73.0354457  46.9729894  61.6289971
  73.3149531  47.0412105  60.1426933  66.3345845  50.6656699  62.3140017
  66.3882867  51.2347635  63.0817733  65.4660626  50.8358584  61.9494054
  73.4633499  47.1078305  63.3139802  73.6569390  48.0124116  63.5599077
  73.3634118  46.6485724  64.1478387  65.1169810  36.9936196  65.8130129
  64.4697725  37.6926146  65.7194606  65.8870826  37.4272340  66.1806378
  60.3685229  39.7990687  48.4272688  59.4914695  39.6779487  48.0634935
  60.8442982  39.0076765  48.1751577  66.8645805  37.9611606  58.3169414
  67.3614505  37.2081569  57.9970485  66.0932787  37.9975923  57.7512624
  74.7175563  43.6651972  59.9587706  74.7065439  44.5476687  59.5881639
  73.8492942  43.3123523  59.7642243  71.3348137  42.5600613  56.4257872
  71.8008589  43.3928605  56.3518175  71.7855638  42.0945595  57.1303130
  69.3064800  34.9281200  60.4648773  68.3927880  35.1585427  60.6330980
  69.7357901  35.0119644  61.3162806  69.0771258  43.1171092  62.9648667
  68.4242709  43.3646999  62.3101120  69.4551638  42.3035230  62.6311145
  65.1258831  43.8590903  69.4514704  64.4499469  43.7585032  70.1217080
  65.9486465  43.7030117  69.9150702  58.8446108  37.5132980  64.2894205
  58.9087434  38.3747811  63.8771603  58.7813228  36.9006982  63.5566564
  58.3198380  39.5856113  67.9367239  58.9470419  39.2033190  68.5504764
  57.4626299  39.3670315  68.3022932  61.4284483  36.8042965  66.1253794
  61.9518885  37.0505262  66.8880104  61.2096817  37.6363000  65.7056932
  63.2853500  34.8305972  62.2630788  64.1079570  34.3566451  62.1409678
  63.5291564  35.6096456  62.7629474  66.0692858  38.5639380  53.4952022
  66.2856472  39.4464018  53.1940850  65.5886925  38.1725593  52.7657664
  64.9416548  35.0796932  58.5257946  64.9638245  35.1436265  57.5709926
  65.3584607  34.2401440  58.7198452  75.3200173  44.8152191  56.5637169
  75.7631319  44.0659517  56.1656292  74.4426683  44.8062328  56.1810901
  61.5566437  38.9074019  69.5981159  61.6054593  39.7836142  69.2158929
  62.0988952  38.3651412  69.0252802  72.1619158  46.3007608  66.1915025
  72.2117163  46.1357616  67.1330547  72.0533081  45.4334867  65.8012905
  69.4522921  42.2838536  67.5074331  70.3532783  42.1445001  67.2158329
  69.5270895  42.4492991  68.4472509  74.8633037  46.2857430  58.9559616
  75.6979929  46.7247234  59.1197177  74.9992166  45.8096083  58.1367862
  71.9124543  43.8437165  64.9037104  72.3878665  44.0364811  64.0955955
  70.9890109  43.8996350  64.6580488  66.4904760  35.8785008  63.8692938
  67.0086704  36.6146035  63.5439427  66.1359892  36.1849001  64.7039697
  66.7417354  32.2985291  59.3893835  67.0219108  31.6308480  60.0154261
  67.5267961  32.4914386  58.8768498  70.6126212  40.7202925  63.1365410
  71.5643635  40.8201022  63.1577634  70.4429663  39.9281193  63.6463494
  68.6340592  37.8058508  63.3224811  68.0390524  38.0863521  62.6271299
  68.3490288  38.2952409  64.0941552  70.3936099  51.0747305  49.0431391
  70.3149730  50.7407169  49.9367149  71.2145766  51.5669073  49.0422863
  73.0914290  43.9409044  62.2507709  73.0590610  43.0025045  62.4367393
  73.7014914  44.0193081  61.5173534  73.2408778  40.7320088  62.2965992
  72.7247827  39.9478544  62.1095921  74.1248727  40.4038804  62.4612512
  70.9019505  34.4761103  58.2561805  70.7044326  34.1676191  59.1405137
  71.5119211  35.2022742  58.3859735  78.9090840  45.0025051  61.3913746
  79.6394228  44.7410339  61.9521449  78.2997785  44.2653773  61.4315814
  76.9906137  43.1432914  61.9888197  76.2639301  43.0088879  61.3804689
  76.5753424  43.4509742  62.7944915  64.7302604  35.2791963  54.3834040
  63.9203332  34.9339048  54.7589286  65.4187021  34.9699507  54.9721651
  66.6593152  34.3570010  56.0058337  67.2124191  34.7765464  56.6648360
  66.8963238  33.4305758  56.0481293  62.6826251  40.3457084  71.7861100
  62.5822978  41.2951441  71.7173192  62.4647793  40.0175323  70.9137171
  61.8839323  37.5942009  48.3701778  62.7458487  37.9196907  48.6297595
  62.0689667  36.8073505  47.8574844  70.0371959  36.4670535  55.5137001
  69.4570628  37.1255339  55.1315053  69.7707892  35.6447880  55.1024418
  68.4875525  35.8675593  57.7158321  68.9875304  35.9792128  56.9072640
  69.1311133  35.5636646  58.3559130  62.5457521  43.7754223  70.6026162
  62.0624603  44.5754583  70.8090051  62.6318460  43.7862168  69.6493606
  68.8196837  38.6270626  54.5693349  67.9322692  38.9120276  54.3513544
  69.2350826  38.4664389  53.7220626  72.1711373  38.6517147  58.2847688
  72.9471763  39.1413599  58.5572305  71.4459507  39.0775201  58.7419558
  74.6083932  39.3644766  59.3421629  75.2028423  39.1240502  58.6314937
  74.6810516  38.6451897  59.9695165  72.6042667  39.9314894  55.6093759
  72.3479601  39.5311529  56.4401966  71.9795535  40.6458687  55.4843898
  76.9155005  42.6710967  58.1165050  76.3554563  42.7404156  58.8896612
  76.3098508  42.4951951  57.3964546  69.8726748  48.8297830  50.7139829
  70.7072352  48.3979028  50.5317304  69.7111091  48.6579843  51.6416724
  69.5272640  45.3329943  52.0796168  69.4721444  45.1674214  51.1384612
  68.9018695  46.0405976  52.2358358  54.3165155  40.5698007  65.9057591
  54.9624019  40.0596961  66.3944816  54.1082306  41.3066689  66.4801016
  62.8368766  34.8338052  51.6581487  62.8247435  35.7779892  51.8149758
  63.7292187  34.6508197  51.3640948  66.6520885  31.4280829  55.9127424
  65.8853281  30.8739315  56.0584106  67.0631590  31.5002697  56.7741575
  58.6562646  37.7165624  70.0032605  59.5194108  37.3602429  70.2135929
  58.0828057  37.3779519  70.6908009  82.8775427  63.3070696  57.5390829
  82.1926465  63.6869597  56.9887863  82.9619276  63.9166023  58.2722777
  89.3378179  60.1741359  58.6593502  88.5841888  59.6048757  58.5037506
  89.4725720  60.1404023  59.6064136  78.0769271  48.5685323  62.8647115
  77.7333540  49.4586965  62.7886225  78.4448233  48.3786981  62.0016700
  77.1565811  50.9389978  60.8296348  76.6530607  50.9020113  60.0164153
  77.4496418  51.8482721  60.8893004  83.0153828  61.3126289  53.3072723
  82.2383270  60.9737448  52.8627885  83.6945309  61.3178912  52.6327688
  81.2545135  60.7860270  59.9639331  80.5968809  61.4759531  60.0519460
  82.0585534  61.1756702  60.3073318  79.8756936  47.8278882  57.9664852
  80.1815813  46.9676246  57.6790767  80.6009541  48.4196502  57.7663846
  83.4142325  60.3269995  55.7695645  83.2760223  60.5171591  54.8416834
  83.0578544  61.0889378  56.2263696  83.4411704  62.3946522  60.7806917
  83.8748211  62.3021812  61.6289971  84.1543285  62.3704023  60.1426933
  77.1739599  65.9948617  62.3140017  77.2276622  66.5639553  63.0817733
  76.3054381  66.1650502  61.9494054  84.3027254  62.4370223  63.3139802
  84.4963144  63.3416034  63.5599077  84.2027872  61.9777642  64.1478387
  79.4180438  60.9097180  49.3051384  78.8009608  60.1844008  49.2084437
  78.9496926  61.6706540  48.9618458  85.5569317  58.9943890  59.9587706
  85.5459193  59.8768605  59.5881639  84.6886697  58.6415441  59.7642243
  82.1741892  57.8892531  56.4257872  82.6402344  58.7220522  56.3518175
  82.6249392  57.4237512  57.1303130  74.7075369  70.4949748  63.6872320
  75.2593677  70.6581370  64.4521406  75.0481562  71.0854186  63.0152345
  77.8443756  68.4431724  60.6736002  77.7194896  67.6421463  60.1646948
  78.5022847  68.9377917  60.1849972  80.5159220  66.8622019  59.5884778
  81.4405767  66.6564880  59.4509229  80.3474523  66.6138420  60.4974119
  74.1247255  50.1597890  62.2630788  74.9473324  49.6858368  62.1409678
  74.3685318  50.9388374  62.7629474  86.1593927  60.1444109  56.5637169
  86.6025073  59.3951434  56.1656292  85.2820437  60.1354245  56.1810901
  85.7026792  61.6149347  58.9559616  86.5373683  62.0539151  59.1197177
  85.8385921  61.1388001  58.1367862  77.5811108  47.6277208  59.3893835
  77.8612862  46.9600397  60.0154261  78.3661715  47.8206304  58.8768498
  81.2329853  66.4039223  49.0431391  81.1543485  66.0699086  49.9367149
  82.0539520  66.8960991  49.0422863  83.9308044  59.2700962  62.2507709
  83.8984365  58.3316963  62.4367393  84.5408668  59.3484999  61.5173534
  81.7413260  49.8053021  58.2561805  81.5438081  49.4968109  59.1405137
  82.3512965  50.5314660  58.3859735  89.7484594  60.3316969  61.3913746
  90.4787983  60.0702257  61.9521449  89.1391540  59.5945691  61.4315814
  87.8299891  58.4724831  61.9888197  87.1033055  58.3380796  61.3804689
  87.4147178  58.7801660  62.7944915  80.8765714  51.7962453  55.5137001
  80.2964383  52.4547257  55.1315053  80.6101646  50.9739798  55.1024418
  79.3269280  51.1967511  57.7158321  79.8269058  51.3084045  56.9072640
  79.9704888  50.8928564  58.3559130  85.4477686  54.6936684  59.3421629
  86.0422177  54.4532420  58.6314937  85.5204270  53.9743814  59.9695165
  83.4436421  55.2606811  55.6093759  83.1873355  54.8603447  56.4401966
  82.8189289  55.9750605  55.4843898  87.7548759  58.0002884  58.1165050
  87.1948317  58.0696074  58.8896612  87.1492262  57.8243869  57.3964546
  89.3404778  74.6759398  60.8095006  89.9783187  74.5566146  60.1058346
  89.2225620  75.6240242  60.8682958  86.1494484  74.6286827  60.7456531
  85.8112995  74.5127891  59.8577065  87.0184252  74.2277992  60.7257537
  82.0081300  76.4822303  56.7353421  81.4446165  76.3912240  55.9669709
  81.8933695  75.6622207  57.2155914  86.6314267  75.7821678  66.7042736
  86.6202908  75.3874476  65.8323240  86.7934906  75.0487751  67.2976507
  79.5545731  77.9773495  59.5737642  80.3467023  77.6364319  59.1583941
  79.7942382  78.0868470  60.4939795  87.5880858  80.1493271  52.0467886
  86.9368838  80.7347351  51.6601900  88.3825221  80.6799466  52.1062924
  81.5136485  77.2382408  52.4455021  82.2867361  76.6911395  52.3067897
  81.8661884  78.1026657  52.6569482  83.3521528  78.5658790  65.6521920
  83.0611394  79.4704421  65.5368586  83.9878512  78.6075318  66.3665990
  84.2777735  75.9435639  62.2423280  84.8741307  75.7191661  61.5280243
  84.3352706  75.2020384  62.8448728  83.8502763  73.3975074  50.0773471
  84.1028284  72.8756595  49.3156934  82.9127322  73.2341219  50.1800154
  88.8946046  72.4010852  57.8848214  89.6809135  71.9830275  57.5338631
  89.1584750  73.3056944  58.0529862  89.0656123  77.8383703  52.5836871
  88.4301956  77.9118329  53.2957775  88.7353530  78.4277301  51.9055950
  94.2954473  72.3386085  58.7881192  95.0279645  71.7685302  59.0219022
  93.5393829  71.9507686  59.2287698  85.9130593  74.7613327  55.9844535
  85.5488800  74.2343948  56.6957456  86.7697709  74.3711796  55.8111020
  91.8179893  66.0507660  63.2475801  91.4863218  66.9203071  63.0237016
  91.2225507  65.7343944  63.9269831  85.5536080  69.7903227  50.9805883
  85.7210482  70.6583463  51.3476354  85.3633249  69.9530508  50.0567173
  88.3111413  78.2520206  62.6471714  88.0112136  79.1545244  62.5387521
  87.9662473  77.9852389  63.4992867  81.7623895  74.7034002  58.6808418
  80.8374391  74.5710216  58.8886110  82.0108308  75.4828222  59.1778361
  91.7108557  70.7702746  60.3269151  90.8025434  70.7018154  60.0327912
  91.6596153  71.2474691  61.1550977  85.5325301  72.2460884  51.9652550
  85.4124926  72.6917935  52.8038030  84.8377889  72.5946202  51.4066088
  79.1232706  74.3467276  59.5152207  79.2525087  74.6001755  60.4291619
  78.4430157  74.9394984  59.1956862  83.2932193  85.0164526  55.6142681
  83.2156223  85.9672351  55.6931162  82.6893836  84.6710398  56.2717608
  85.7849423  72.1892391  68.2704048  85.0082757  72.7486311  68.2606913
  86.4239986  72.6749174  68.7918918  93.5770203  68.9719184  62.1047025
  92.9344583  69.2651717  61.4586820  93.0725132  68.8572104  62.9100222
  91.2310367  72.7182357  52.7932884  92.1428223  72.9509744  52.6180582
  90.7220014  73.3019402  52.2307963  84.0395795  74.9977845  67.8322015
  84.7810479  75.5362889  67.5556839  83.3332780  75.6244133  67.9893567
  89.5151135  77.1406985  66.4294177  89.9234491  76.6989396  65.6848809
  88.7928396  76.5659613  66.6828370  85.8682205  72.0779592  63.8027734
  86.7143400  72.5019005  63.9462383  85.8080842  71.4213216  64.4966297
  89.8379949  77.7008176  60.1846466  89.2088812  77.8653890  59.4822534
  89.4505611  78.1149785  60.9557430  93.7169181  78.6362614  57.5390829
  93.0320219  79.0161515  56.9887863  93.8013030  79.2457940  58.2722777
  89.0181650  69.7383960  65.4608907  88.7742582  70.4926021  64.9243183
  89.2941580  70.1169308  66.2956154  90.9720113  76.2822573  64.1386173
  91.1837008  76.9254333  63.4620554  90.9249861  75.4484889  63.6708103
  88.5746342  68.8940393  61.0422745  87.7130821  69.1921647  61.3339483
  88.6008776  69.1110792  60.1103778  85.3907911  77.4382584  57.4496551
  85.8546257  77.7170287  56.6601173  85.1264709  76.5366028  57.2669641
  82.2831992  76.9854065  60.3876314  82.8533349  77.4141334  59.7493799
  82.8740104  76.7036650  61.0860500  84.3276797  73.5605736  54.2586116
  85.0300840  74.0126780  54.7260042  83.9957426  72.9189555  54.8866009
  82.7757159  72.1517493  68.6337325  82.1455819  72.8333774  68.8672722
  82.6693247  72.0400574  67.6890464  78.0702131  71.8189289  59.5603249
  77.2801185  72.0746817  59.0843360  78.5613378  72.6337627  59.6655290
  92.0865941  79.1594528  62.3108530  92.9083384  78.7574715  62.0291212
  92.0828344  79.0562762  63.2624646  80.0216876  72.1833868  56.5186726
  79.2248040  72.2952562  57.0370222  79.7942469  72.5220520  55.6527617
  85.8522544  78.7078571  64.4669241  85.9166977  79.1698979  65.3027413
  85.1433468  78.0775936  64.5951551  76.3539834  72.0719779  61.9918240
  76.6047872  72.9566789  62.2575816  76.8899382  71.8924381  61.2193332
 100.1771934  75.5033277  58.6593502  99.4235642  74.9340675  58.5037506
 100.3119475  75.4695941  59.6064136  85.5670562  80.3746679  54.3348221
  85.4316237  81.2198215  54.7633069  86.1080374  80.5765956  53.5714155
  80.8294844  81.0087873  56.9898899  81.0061472  81.9305838  56.8019883
  81.6251677  80.6946292  57.4193279  80.1147200  73.0552505  66.8661063
  80.0000716  72.1537762  67.1668162  79.2591718  73.3016202  66.5145879
  87.1939038  80.9970245  68.4648563  86.7502892  80.2106624  68.1469468
  87.8556252  81.1849396  67.7992454  81.9526159  82.5266047  62.9909242
  82.5033584  82.3983110  62.2186236  81.1137635  82.8260936  62.6404135
  89.2920276  81.2773045  66.4929964  89.2738752  82.0981926  66.0010234
  90.2140196  81.1527121  66.7180106  85.7493330  78.7917175  67.3353473
  86.2821667  78.0305463  67.1052781  85.2207411  78.4990827  68.0777627
  88.9163025  63.8977241  62.8647115  88.5727295  64.7878882  62.7886225
  89.2841988  63.7078898  62.0016700  88.8813308  73.8885852  51.3719550
  88.3659931  74.6590456  51.6107937  88.6090616  73.2150988  51.9952611
  86.4660419  68.7335553  56.4304788  85.6102015  68.3442403  56.2510427
  86.8787371  68.8127513  55.5704574  87.9959566  66.2681896  60.8296348
  87.4924361  66.2312031  60.0164153  88.2890173  67.1774639  60.8893004
  84.2402452  66.3520626  59.8362530  85.1055448  66.1563434  59.4768419
  84.3079961  66.1230977  60.7631886  93.8547582  76.6418206  53.3072723
  93.0777025  76.3029366  52.8627885  94.5339063  76.6470830  52.6327688
  88.6699611  71.7612944  53.1979331  88.3649747  72.0759093  54.0489474
  89.6230053  71.8394364  53.2406664  87.1146043  77.9203167  54.8472285
  86.5867405  77.1855927  54.5345522  86.6133546  78.6977844  54.6012253
  92.0938889  76.1152188  59.9639331  91.4362564  76.8051449  60.0519460
  92.8979288  76.5048620  60.3073318  90.9044348  74.4696560  58.0143273
  91.4176230  75.1026552  58.5164983  91.5545572  73.8697756  57.6486633
  85.2598643  75.7383378  47.8507258  84.3525705  75.5072631  48.0498407
  85.7569675  74.9420997  48.0381239  88.1666722  84.4480885  50.7703944
  87.4928421  84.7512581  51.3788902  88.5532544  85.2509965  50.4209401
  87.3825179  71.9446016  60.2601613  86.4647740  72.1660963  60.1023301
  87.7985322  72.0192326  59.4013321  88.1660227  73.3437432  55.3904294
  88.9132045  73.8558829  55.0811416  88.4351816  73.0221484  56.2508687
  86.4386877  75.8395972  52.3731248  85.5298096  75.5555005  52.4703718
  86.4681960  76.2595051  51.5134555  91.6706144  79.4502562  56.1422416
  91.2168471  78.6093472  56.1987606  91.0400111  80.0863960  56.4797196
  90.6139064  70.3794548  57.3723083  89.8761820  69.8671934  57.7033326
  90.8665837  69.9394930  56.5606360  90.1139083  81.2879059  57.0772234
  90.4062058  81.8484116  56.3584599  90.6237704  81.5807620  57.8325393
  90.7150691  63.1570800  57.9664852  91.0209568  62.2968163  57.6790767
  91.4403296  63.7488420  57.7663846  84.9871771  73.4524593  58.4741043
  85.0420381  72.4998429  58.3983520  84.1762973  73.6084032  58.9582342
  86.1362964  77.3804716  49.7119327  85.6982394  76.6640575  49.2524964
  86.8773405  77.6080831  49.1504418  82.9264131  72.0701653  56.2331422
  82.1131996  72.3695823  56.6396614  83.4223125  71.6757342  56.9505904
  85.0772709  82.0659410  58.1665687  85.0348887  82.2920256  57.2374219
  85.9935407  81.8322784  58.3151488  88.5238342  72.5343477  65.0646316
  88.8787730  72.7614950  65.9240782  89.1710474  72.8661854  64.4423571
  94.2536079  75.6561913  55.7695645  94.1153978  75.8463509  54.8416834
  93.8972298  76.4181296  56.2263696  82.4178205  69.6420008  61.8492657
  83.0577585  69.5008767  61.1515620  81.5855736  69.3554522  61.4731259
  94.2805459  77.7238440  60.7806917  94.7141966  77.6313729  61.6289971
  94.9937040  77.6995941  60.1426933  83.1938509  78.9422439  57.9627650
  83.9879108  78.4472759  57.7610225  82.4830202  78.4140302  57.5995355
  88.0133354  81.3240534  62.3140017  88.0670376  81.8931471  63.0817733
  87.1448135  81.4942419  61.9494054  95.1421008  77.7662141  63.3139802
  95.3356899  78.6707951  63.5599077  95.0421627  77.3069560  64.1478387
  90.2036117  77.9168884  68.8880683  90.0521624  77.6879435  67.9710766
  90.1940797  78.8739485  68.9012028  86.9721454  75.4900796  63.8726949
  87.9013514  75.6411956  63.6995916  86.5512484  75.5784817  63.0175596
  85.7709785  79.5151461  61.6425487  85.6320871  79.1470245  62.5151425
  84.9824382  80.0299100  61.4709445  86.3657937  84.6160557  52.9851023
  86.5409693  84.1448600  53.7996646  85.6790725  85.2426323  53.2132284
  87.3215000  78.8933063  59.0314324  86.9864833  78.8533833  59.9271974
  86.8218946  78.2277779  58.5584735  81.2959244  74.3000693  64.5566906
  81.1579042  73.5680932  65.1578445  82.2064168  74.2109593  64.2751093
  90.2574192  76.2389098  49.3051384  89.6403363  75.5135926  49.2084437
  89.7890681  76.9998458  48.9618458  83.9241545  74.0120653  64.0450585
  84.6341164  73.3713845  64.0037204  83.8810853  74.2633548  64.9676766
  91.9128324  80.9488006  66.9657165  91.8540870  80.2647226  66.2987748
  92.3147842  81.6906996  66.5137790  80.9319023  87.7649920  59.7590883
  81.1715621  88.3968444  60.4369902  80.0888219  87.4137960  60.0456243
  82.0472738  70.4574522  48.4272688  81.1702204  70.3363323  48.0634935
  82.5230491  69.6660600  48.1751577  91.9145731  78.9127590  65.1971144
  91.0272510  78.5753512  65.3197543  92.4844282  78.1810621  65.4339910
  78.3709600  70.1341878  62.9499219  78.2867789  69.5267548  62.2149629
  77.5492307  70.6250897  62.9508716  85.4446884  83.5729042  62.1632387
  85.3717056  84.3784014  62.6751692  85.0024278  83.7721008  61.3380409
  85.2336664  82.8100812  55.6735209  84.4504186  83.3522493  55.7673433
  85.9329409  83.3274792  56.0729450  88.5433314  68.6195442  58.3169414
  89.0402014  67.8665404  57.9970485  87.7720296  68.6559758  57.7512624
  96.3963072  74.3235807  59.9587706  96.3852948  75.2060523  59.5881639
  95.5280451  73.9707358  59.7642243  87.9045568  83.4715876  64.3190546
  88.6173540  84.1063341  64.2466448  87.4135597  83.5679742  63.5030548
  89.6263095  77.3767129  55.8907838  88.6919374  77.4968592  55.7212542
  89.8039763  76.4739596  55.6267848  85.1268283  70.7612825  58.0441099
  84.7566070  70.2083865  58.7322004  85.6227375  70.1570958  57.4916099
  93.0135646  73.2184448  56.4257872  93.4796098  74.0512440  56.3518175
  93.4643147  72.7529430  57.1303130  82.9557481  81.2210320  65.1396117
  83.6566941  81.8546803  65.2925511  82.4852596  81.5625051  64.3791756
  91.0811877  79.5628270  53.4244024  91.3571721  79.4484864  54.3337898
  90.2116376  79.1645754  53.3856197  90.9852309  65.5865035  60.4648773
  90.0715389  65.8169262  60.6330980  91.4145410  65.6703479  61.3162806
  90.7558767  73.7754927  62.9648667  90.1030218  74.0230835  62.3101120
  91.1339147  72.9619065  62.6311145  87.7165941  83.8114620  57.0676838
  87.8988336  82.9936276  57.5304590  88.5398927  84.0282313  56.6301728
  88.0508107  82.7382806  54.3291886  88.5795873  82.2275260  53.7162048
  88.3136326  82.4225336  55.1937419  86.8046340  74.5174738  69.4514704
  86.1286977  74.4168868  70.1217080  87.6273974  74.3613952  69.9150702
  78.5525200  80.7546675  62.0727220  79.1378636  80.0090363  62.2055124
  78.3550038  81.0650632  62.9563883  81.4063855  83.7897922  57.0889662
  80.7374230  84.2744050  56.6053702  81.2676724  84.0367143  58.0033040
  85.5469123  85.8241666  63.6872320  86.0987431  85.9873287  64.4521406
  85.8875317  86.4146104  63.0152345  79.9985889  70.2439948  67.9367239
  80.6257928  69.8617025  68.5504764  79.1413808  70.0254150  68.3022932
  90.3979998  80.6502923  69.5420975  90.9419902  81.2632882  69.0475930
  89.8166843  81.2082502  70.0587988  88.6837511  83.7723641  60.6736002
  88.5588650  82.9713381  60.1646948  89.3416602  84.2669835  60.1849972
  80.3045679  70.1272374  59.8513143  79.5832265  70.7408342  59.7120616
  81.0938935  70.6630139  59.7729789  90.7472419  81.5732661  62.3015553
  89.8002755  81.4538013  62.2293879  91.0955192  80.6855159  62.3841814
  87.7518852  81.3685378  58.5019905  87.6043815  80.4402085  58.6827475
  88.5772346  81.3905468  58.0176980  91.3552974  82.1913936  59.5884778
  92.2799522  81.9856798  59.4509229  91.1868278  81.9430338  60.4974119
  84.9641009  65.4889808  62.2630788  85.7867079  65.0150286  62.1409678
  85.2079073  66.2680292  62.7629474  87.7480367  69.2223215  53.4952022
  87.9643981  70.1047853  53.1940850  87.2674434  68.8309429  52.7657664
  82.4879588  72.1808928  60.0722767  82.3424169  72.4949232  60.9647048
  82.0104792  72.7993829  59.5193665  84.3475971  69.1711476  60.1203656
  84.3337540  68.2752570  59.7835954  85.0648399  69.1782140  60.7541942
  86.2002102  69.6048817  62.1656784  85.9419879  70.5265887  62.1641114
  85.6687142  69.2079251  62.8557248  91.1448290  82.7099604  54.9446869
  91.3185168  82.1446026  54.1920721  91.6377182  83.5100499  54.7626359
  76.9625250  74.7214273  63.0110428  76.4178718  75.4974081  63.1430702
  77.8404600  75.0685077  62.8529549  86.6204057  65.7380767  58.5257946
  86.6425754  65.8020100  57.5709926  87.0372116  64.8985276  58.7198452
  96.9987682  75.4736027  56.5637169  97.4418828  74.7243352  56.1656292
  96.1214192  75.4646163  56.1810901  92.1323463  82.0266368  52.0443767
  92.8274367  82.6473061  52.2631082  92.4746613  81.1761719  52.3196145
  77.7491272  73.8484169  65.9040585  77.0073008  73.9966805  66.4905215
  77.4284016  74.1092435  65.0407334  94.0314886  79.4766074  53.5731098
  94.5566210  79.8153346  52.8480418  93.9437239  78.5413089  53.3894233
  85.6934935  83.3900147  65.7020975  86.0022061  83.1449294  66.5743674
  86.4910417  83.5946786  65.2139845  85.7155547  85.5438057  57.9326351
  85.2760537  85.0514436  58.6259208  86.4663664  85.0011025  57.6918426
  83.1629419  81.0876066  60.0048653  82.5409428  80.4246771  59.7050881
  83.8334286  81.1137198  59.3222301  93.7208792  80.1098977  68.8782296
  92.9304336  80.0923116  68.3386795  93.4842147  80.6487271  69.6331333
  93.8406667  76.9591444  66.1915025  93.8904672  76.7941451  67.1330547
  93.7320590  76.0918703  65.8012905  82.7242926  79.6379989  53.4807113
  82.8731046  80.3215454  52.8273786  83.5309369  79.6185079  53.9956569
  91.1310429  72.9422372  67.5074331  92.0320292  72.8028837  67.2158329
  91.2058404  73.1076827  68.4472509  95.3424864  79.3788385  66.4357046
  95.0509672  79.7418366  67.2720507  94.7296995  78.6655394  66.2570378
  96.5420546  76.9441265  58.9559616  97.3767438  77.3831069  59.1197177
  96.6779675  76.4679918  58.1367862  93.5912052  74.5021000  64.9037104
  94.0666174  74.6948646  64.0955955  92.6677618  74.5580186  64.6580488
  88.1692269  66.5368843  63.8692938  88.6874213  67.2729870  63.5439427
  87.8147401  66.8432837  64.7039697  88.4204863  62.9569126  59.3893835
  88.7006617  62.2892315  60.0154261  89.2055470  63.1498222  58.8768498
  86.2238331  82.1328120  50.9518861  85.6512298  82.7518307  50.4989333
  86.7971125  82.6827482  51.4858783  92.2913721  71.3786760  63.1365410
  93.2431144  71.4784858  63.1577634  92.1217172  70.5865029  63.6463494
  90.3128101  68.4642343  63.3224811  89.7178033  68.7447356  62.6271299
  90.0277797  68.9536244  64.0941552  89.4435591  82.4165270  52.0827443
  90.3766264  82.3510832  52.2860319  89.3558804  83.2521537  51.6241976
  92.0723608  81.7331140  49.0431391  91.9937239  81.3991004  49.9367149
  92.8933275  82.2252908  49.0422863  94.7701799  74.5992880  62.2507709
  94.7378119  73.6608880  62.4367393  95.3802423  74.6776916  61.5173534
  86.6085130  73.4688933  48.2934913  87.5544235  73.3395141  48.3623331
  86.2299375  72.7303595  48.7704342  94.9196287  71.3903923  62.2965992
  94.4035336  70.6062380  62.1095921  95.8036236  71.0622640  62.4612512
  92.5807014  65.1344939  58.2561805  92.3831835  64.8260027  59.1405137
  93.1906720  65.8606578  58.3859735 100.5878349  75.6608887  61.3913746
 101.3181737  75.3994175  61.9521449  99.9785294  74.9237608  61.4315814
  98.6693646  73.8016749  61.9888197  97.9426809  73.6672714  61.3804689
  98.2540933  74.1093578  62.7944915  86.4923822  77.5206679  69.7535570
  87.4126832  77.6985278  69.9475617  86.4573405  76.5762724  69.6015270
  84.7928047  71.3938909  48.2289799  83.8859502  71.0972022  48.3052512
  85.0704028  71.0968727  47.3624085  75.7105987  72.7145272  58.6788845
  75.3908772  71.8610581  58.3863219  75.1639416  72.9293851  59.4346812
  79.4885895  75.4307713  62.3958351  79.7071905  76.3624821  62.4146385
  79.9011669  75.0715688  63.1813155  86.4090113  65.9375799  54.3834040
  85.5990841  65.5922884  54.7589286  87.0974530  65.6283342  54.9721651
  88.3380661  65.0153846  56.0058337  88.8911700  65.4349299  56.6648360
  88.5750747  64.0889594  56.0481293  84.3613760  71.0040919  71.7861100
  84.2610487  71.9535276  71.7173192  84.1435302  70.6759158  70.9137171
  83.5626832  68.2525844  48.3701778  84.4245996  68.5780743  48.6297595
  83.7477176  67.4657340  47.8574844  75.5794247  76.3348184  60.6481967
  74.8857719  75.9202137  60.1351921  76.3267238  76.3768720  60.0515385
  91.7159468  67.1254371  55.5137001  91.1358137  67.7839175  55.1315053
  91.4495401  66.3031715  55.1024418  90.1663034  66.5259428  57.7158321
  90.6662813  66.6375963  56.9072640  90.8098642  66.2220481  58.3559130
  84.2245030  74.4338058  70.6026162  83.7412112  75.2338418  70.8090051
  84.3105969  74.4446003  69.6493606  80.1518368  78.3242593  62.6394596
  81.1061621  78.2926535  62.5724527  79.9530891  77.8633216  63.4544822
  80.7417750  76.8943709  65.2065394  81.5610639  77.3887787  65.2300231
  81.0154558  75.9775677  65.1782961  90.4984346  69.2854461  54.5693349
  89.6110201  69.5704112  54.3513544  90.9138335  69.1248224  53.7220626
  93.8498882  69.3100982  58.2847688  94.6259272  69.7997435  58.5572305
  93.1247016  69.7359036  58.7419558  96.2871441  70.0228601  59.3421629
  96.8815932  69.7824337  58.6314937  96.3598025  69.3035732  59.9695165
  78.5068597  83.8662212  59.6564794  78.3723064  83.1062613  59.0902792
  78.0900659  84.5903112  59.1893583  89.6427560  79.0499136  48.6641369
  90.3463410  79.2549138  49.2799025  88.9190208  79.6175898  48.9290453
  90.4725370  74.8008997  54.7843639  90.4160571  75.2577548  53.9451272
  91.0253712  74.0399682  54.6066482  94.2830176  70.5898729  55.6093759
  94.0267110  70.1895365  56.4401966  93.6583044  71.3042523  55.4843898
  98.5942514  73.3294802  58.1165050  98.0342072  73.3987991  58.8896612
  97.9886017  73.1535787  57.3964546  81.6637722  84.7631529  59.8683236
  81.5470107  85.7076962  59.7661927  80.8430169  84.4605091  60.2569036
  91.5514257  79.4881665  50.7139829  92.3859861  79.0562863  50.5317304
  91.3898600  79.3163679  51.6416724  91.2060149  75.9913778  52.0796168
  91.1508953  75.8258050  51.1384612  90.5806204  76.6989811  52.2358358
  75.9952664  71.2281843  65.9057591  76.6411528  70.7180797  66.3944816
  75.7869815  71.9650524  66.4801016  88.5206056  78.2962690  71.4049731
  89.3897216  78.4703342  71.0436366  88.0412808  79.1157107  71.2825460
  84.5156275  65.4921887  51.6581487  84.5034944  66.4363727  51.8149758
  85.4079696  65.3092033  51.3640948  82.6892237  85.4159791  63.0839165
  83.5919483  85.4483401  63.4005660  82.4629607  84.4860242  63.0985501
  84.4445839  84.1690778  59.7449243  83.4941470  84.1692639  59.6313616
  84.7478325  83.4223512  59.2285278  88.3308394  62.0864664  55.9127424
  87.5640790  61.5323151  56.0584106  88.7419099  62.1586533  56.7741575
 100.1798532  90.0051316  60.8095006 100.8176942  89.8858063  60.1058346
 100.0619375  90.9532160  60.8682958  96.9888238  89.9578744  60.7456531
  96.6506750  89.8419809  59.8577065  97.8578007  89.5569909  60.7257537
  92.8475054  91.8114221  56.7353421  92.2839919  91.7204158  55.9669709
  92.7327449  90.9914125  57.2155914  97.4708021  91.1113596  66.7042736
  97.4596662  90.7166394  65.8323240  97.6328661  90.3779669  67.2976507
  90.3939486  93.3065412  59.5737642  91.1860778  92.9656237  59.1583941
  90.6336136  93.4160387  60.4939795  98.4274613  95.4785188  52.0467886
  97.7762592  96.0639269  51.6601900  99.2218976  96.0091383  52.1062924
  92.3530240  92.5674325  52.4455021  93.1261116  92.0203313  52.3067897
  92.7055639  93.4318575  52.6569482  94.1915282  93.8950708  65.6521920
  93.9005148  94.7996339  65.5368586  94.8272267  93.9367235  66.3665990
  95.1171489  91.2727556  62.2423280  95.7135062  91.0483579  61.5280243
  95.1746461  90.5312302  62.8448728  94.6896518  88.7266992  50.0773471
  94.9422038  88.2048513  49.3156934  93.7521077  88.5633137  50.1800154
  99.7339801  87.7302770  57.8848214 100.5202890  87.3122193  57.5338631
  99.9978505  88.6348862  58.0529862  99.9049878  93.1675620  52.5836871
  99.2695711  93.2410247  53.2957775  99.5747284  93.7569219  51.9055950
 105.1348228  87.6678003  58.7881192 105.8673400  87.0977220  59.0219022
 104.3787583  87.2799604  59.2287698  94.4092806  90.6295098  52.2797846
  94.2929065  89.9540001  52.9478930  94.5195066  90.1427471  51.4629999
  96.7524347  90.0905245  55.9844535  96.3882555  89.5635866  56.6957456
  97.6091463  89.7003714  55.8111020 102.6573648  81.3799577  63.2475801
 102.3256973  82.2494988  63.0237016 102.0619261  81.0635861  63.9269831
  96.3929834  85.1195144  50.9805883  96.5604237  85.9875381  51.3476354
  96.2027003  85.2822426  50.0567173  99.1505168  93.5812123  62.6471714
  98.8505891  94.4837162  62.5387521  98.8056227  93.3144306  63.4992867
  92.6017649  90.0325920  58.6808418  91.6768145  89.9002134  58.8886110
  92.8502062  90.8120139  59.1778361 102.5502311  86.0994663  60.3269151
 101.6419189  86.0310072  60.0327912 102.4989907  86.5766608  61.1550977
  96.3719055  87.5752802  51.9652550  96.2518680  88.0209853  52.8038030
  95.6771644  87.9238119  51.4066088  89.9626460  89.6759194  59.5152207
  90.0918841  89.9293673  60.4291619  89.2823911  90.2686902  59.1956862
  94.1325947 100.3456444  55.6142681  94.0549977 101.2964269  55.6931162
  93.5287591 100.0002316  56.2717608  96.6243177  87.5184309  68.2704048
  95.8476511  88.0778229  68.2606913  97.2633740  88.0041092  68.7918918
 104.4163958  84.3011102  62.1047025 103.7738338  84.5943635  61.4586820
 103.9118886  84.1864022  62.9100222 102.0704121  88.0474275  52.7932884
 102.9821977  88.2801662  52.6180582 101.5613768  88.6311319  52.2307963
  94.8789549  90.3269762  67.8322015  95.6204234  90.8654806  67.5556839
  94.1726535  90.9536051  67.9893567 100.3544889  92.4698903  66.4294177
 100.7628245  92.0281313  65.6848809  99.6322151  91.8951530  66.6828370
  96.7075959  87.4071510  63.8027734  97.5537154  87.8310923  63.9462383
  96.6474597  86.7505134  64.4966297 100.6773704  93.0300093  60.1846466
 100.0482566  93.1945808  59.4822534 100.2899366  93.4441703  60.9557430
 104.5562936  93.9654531  57.5390829 103.8713974  94.3453433  56.9887863
 104.6406785  94.5749858  58.2722777  99.8575404  85.0675878  65.4608907
  99.6136336  85.8217938  64.9243183 100.1335335  85.4461226  66.2956154
 101.8113867  91.6114490  64.1386173 102.0230762  92.2546250  63.4620554
 101.7643615  90.7776807  63.6708103  99.4140096  84.2232311  61.0422745
  98.5524575  84.5213565  61.3339483  99.4402531  84.4402710  60.1103778
  96.2301666  92.7674502  57.4496551  96.6940011  93.0462205  56.6601173
  95.9658464  91.8657946  57.2669641  93.1225747  92.3145983  60.3876314
  93.6927104  92.7433251  59.7493799  93.7133858  92.0328568  61.0860500
  95.1670552  88.8897654  54.2586116  95.8694595  89.3418698  54.7260042
  94.8351180  88.2481473  54.8866009  93.6150913  87.4809411  68.6337325
  92.9849574  88.1625691  68.8672722  93.5087001  87.3692492  67.6890464
  88.9095886  87.1481207  59.5603249  88.1194940  87.4038735  59.0843360
  89.4007133  87.9629544  59.6655290 102.9259695  94.4886446  62.3108530
 103.7477139  94.0866633  62.0291212 102.9222098  94.3854680  63.2624646
  90.8610631  87.5125786  56.5186726  90.0641794  87.6244480  57.0370222
  90.6336223  87.8512438  55.6527617  96.6916299  94.0370489  64.4669241
  96.7560731  94.4990896  65.3027413  95.9827222  93.4067854  64.5951551
  87.1933589  87.4011697  61.9918240  87.4441627  88.2858707  62.2575816
  87.7293137  87.2216299  61.2193332 111.0165688  90.8325194  58.6593502
 110.2629397  90.2632592  58.5037506 111.1513229  90.7987859  59.6064136
  96.4064316  95.7038597  54.3348221  96.2709991  96.5490132  54.7633069
  96.9474129  95.9057874  53.5714155  92.8931656  81.7830176  70.9962576
  92.4998601  81.2296375  71.6710221  93.7097796  82.0940755  71.3869094
  89.8593714  93.2214035  54.9076146  90.3718234  94.0157285  55.0581711
  90.5116426  92.5240325  54.8409748  91.6688598  96.3379791  56.9898899
  91.8455227  97.2597756  56.8019883  92.4645432  96.0238210  57.4193279
  95.8099617  83.1988055  68.5882833  96.5509330  83.7995209  68.5087295
  96.0417540  82.4565693  68.0300875  90.9540955  88.3844423  66.8661063
  90.8394470  87.4829680  67.1668162  90.0985473  88.6308119  66.5145879
  98.0332793  96.3262163  68.4648563  97.5896647  95.5398542  68.1469468
  98.6950006  96.5141314  67.7992454  92.7919914  97.8557965  62.9909242
  93.3427339  97.7275028  62.2186236  91.9531390  98.1552854  62.6404135
 100.1314031  96.6064963  66.4929964 100.1132506  97.4273844  66.0010234
 101.0533951  96.4819038  66.7180106  96.5887085  94.1209092  67.3353473
  97.1215422  93.3597381  67.1052781  96.0601166  93.8282744  68.0777627
  99.7556780  79.2269158  62.8647115  99.4121049  80.1170800  62.7886225
 100.1235742  79.0370816  62.0016700  87.8242630  91.5502689  55.6835717
  88.6617852  91.9599697  55.4669424  88.0020898  90.6102131  55.6535911
  99.7207063  89.2177770  51.3719550  99.2053686  89.9882374  51.6107937
  99.4484371  88.5442906  51.9952611  97.3054174  84.0627470  56.4304788
  96.4495770  83.6734321  56.2510427  97.7181125  84.1419431  55.5704574
  98.8353320  81.5973814  60.8296348  98.3318116  81.5603949  60.0164153
  99.1283927  82.5066556  60.8893004  95.0796206  81.6812543  59.8362530
  95.9449203  81.4855352  59.4768419  95.1473715  81.4522895  60.7631886
 104.6941337  91.9710124  53.3072723 103.9170779  91.6321284  52.8627885
 105.3732818  91.9762747  52.6327688  99.5093366  87.0904862  53.1979331
  99.2043501  87.4051011  54.0489474 100.4623808  87.1686282  53.2406664
  97.9539798  93.2495085  54.8472285  97.4261159  92.5147845  54.5345522
  97.4527300  94.0269761  54.6012253 102.9332644  91.4444105  59.9639331
 102.2756318  92.1343367  60.0519460 103.7373043  91.8340537  60.3073318
  92.6858525  83.9114751  57.2078896  93.2602277  83.6889933  56.4752089
  93.2729508  83.9803446  57.9607498 101.7438102  89.7988478  58.0143273
 102.2569984  90.4318470  58.5164983 102.3939326  89.1989674  57.6486633
  93.0128112  85.9419212  51.2274782  92.1765425  86.2793899  51.5484056
  92.8732882  85.8068192  50.2901919  94.9881193  80.7856000  55.9353966
  94.3345605  80.4705017  55.3110581  94.9461667  80.1631741  56.6613789
  96.0992398  91.0675295  47.8507258  95.1919459  90.8364549  48.0498407
  96.5963430  90.2712914  48.0381239  99.0060477  99.7772802  50.7703944
  98.3322175 100.0804499  51.3788902  99.3926299 100.5801883  50.4209401
  98.2218933  87.2737934  60.2601613  97.3041495  87.4952881  60.1023301
  98.6379077  87.3484244  59.4013321  99.0053981  88.6729349  55.3904294
  99.7525800  89.1850747  55.0811416  99.2745571  88.3513402  56.2508687
  97.2780631  91.1687890  52.3731248  96.3691850  90.8846923  52.4703718
  97.3075715  91.5886969  51.5134555 102.5099899  94.7794480  56.1422416
 102.0562226  93.9385389  56.1987606 101.8793865  95.4155878  56.4797196
 101.4532818  85.7086466  57.3723083 100.7155575  85.1963852  57.7033326
 101.7059592  85.2686847  56.5606360 100.9532838  96.6170976  57.0772234
 101.2455812  97.1776033  56.3584599 101.4631458  96.9099537  57.8325393
 101.5544445  78.4862718  57.9664852 101.8603322  77.6260081  57.6790767
 102.2797050  79.0780338  57.7663846  87.8468802  88.8893404  56.3546450
  87.6493201  88.2962765  55.6297517  87.2915466  88.5845614  57.0722389
  95.8265525  88.7816511  58.4741043  95.8814135  87.8290347  58.3983520
  95.0156727  88.9375950  58.9582342  96.9756719  92.7096634  49.7119327
  96.5376149  91.9932493  49.2524964  97.7167160  92.9372749  49.1504418
  93.7657885  87.3993570  56.2331422  92.9525751  87.6987741  56.6396614
  94.2616879  87.0049259  56.9505904  95.9166463  97.3951327  58.1665687
  95.8742642  97.6212174  57.2374219  96.8329162  97.1614702  58.3151488
  99.3632097  87.8635395  65.0646316  99.7181485  88.0906868  65.9240782
 100.0104228  88.1953772  64.4423571 105.0929834  90.9853831  55.7695645
 104.9547732  91.1755427  54.8416834 104.7366053  91.7473214  56.2263696
  93.2571960  84.9711926  61.8492657  93.8971339  84.8300685  61.1515620
  92.4249490  84.6846439  61.4731259 105.1199213  93.0530358  60.7806917
 105.5535720  92.9605647  61.6289971 105.8330794  93.0287858  60.1426933
  94.0332264  94.2714356  57.9627650  94.8272862  93.7764676  57.7610225
  93.3223956  93.7432219  57.5995355  98.8527108  96.6532452  62.3140017
  98.9064131  97.2223388  63.0817733  97.9841890  96.8234337  61.9494054
  90.3415027  88.4157438  54.0387402  89.4112615  88.3541894  54.2557364
  90.4372499  87.8933391  53.2424044  90.2600576  84.9412251  56.6265644
  90.5207394  85.8557584  56.5174804  91.0817749  84.4736693  56.7762257
  91.7325502  86.3550008  63.7964468  92.4048555  86.1467370  63.1477117
  90.9055288  86.1572094  63.3569701 105.9814763  93.0954058  63.3139802
 106.1750653  93.9999869  63.5599077 105.8815381  92.6361478  64.1478387
  97.6351074  82.9811949  65.8130129  96.9878989  83.6801899  65.7194606
  98.4052089  83.4148093  66.1806378 101.0429872  93.2460801  68.8880683
 100.8915378  93.0171353  67.9710766 101.0334551  94.2031403  68.9012028
  97.8115208  90.8192714  63.8726949  98.7407268  90.9703874  63.6995916
  97.3906238  90.9076735  63.0175596  96.6103540  94.8443378  61.6425487
  96.4714625  94.4762163  62.5151425  95.8218136  95.3591018  61.4709445
  97.2051692  99.9452475  52.9851023  97.3803447  99.4740518  53.7996646
  96.5184480 100.5718241  53.2132284  98.1608755  94.2224981  59.0314324
  97.8258588  94.1825751  59.9271974  97.6612701  93.5569697  58.5584735
  92.1352999  89.6292611  64.5566906  91.9972797  88.8972850  65.1578445
  93.0457922  89.5401511  64.2751093 101.0967947  91.5681015  49.3051384
 100.4797117  90.8427844  49.2084437 100.6284435  92.3290376  48.9618458
  94.7635300  89.3412570  64.0450585  95.4734918  88.7005763  64.0037204
  94.7204608  89.5925465  64.9676766 102.7522078  96.2779924  66.9657165
 102.6934624  95.5939144  66.2987748 103.1541597  97.0198914  66.5137790
  93.4764234  86.3277788  65.8646225  92.9401591  85.8768527  66.5167821
  92.8880942  86.4623697  65.1216689  91.7712777 103.0941838  59.7590883
  92.0109375 103.7260362  60.4369902  90.9281974 102.7429878  60.0456243
  92.8866493  85.7866440  48.4272688  92.0095959  85.6655240  48.0634935
  93.3624246  84.9952518  48.1751577 102.7539486  94.2419508  65.1971144
 101.8666264  93.9045429  65.3197543 103.3238037  93.5102539  65.4339910
  84.4068633  90.5743599  58.5214196  85.0939672  90.2605329  57.9335211
  84.2516761  91.4784964  58.2481447  89.2103355  85.4633796  62.9499219
  89.1261544  84.8559466  62.2149629  88.3886061  85.9542814  62.9508716
  96.2840639  98.9020960  62.1632387  96.2110810  99.7075932  62.6751692
  95.8418032  99.1012926  61.3380409  96.0730419  98.1392730  55.6735209
  95.2897940  98.6814410  55.7673433  96.7723164  98.6566710  56.0729450
  99.3827069  83.9487360  58.3169414  99.8795768  83.1957322  57.9970485
  98.6114050  83.9851676  57.7512624 107.2356826  89.6527725  59.9587706
 107.2246702  90.5352440  59.5881639 106.3674205  89.2999276  59.7642243
  98.7439322  98.8007794  64.3190546  99.4567295  99.4355259  64.2466448
  98.2529351  98.8971660  63.5030548 100.4656849  92.7059047  55.8907838
  99.5313128  92.8260509  55.7212542 100.6433518  91.8031513  55.6267848
  95.9662037  86.0904742  58.0441099  95.5959825  85.5375783  58.7322004
  96.4621130  85.4862876  57.4916099 103.8529401  88.5476366  56.4257872
 104.3189853  89.3804358  56.3518175 104.3036901  88.0821348  57.1303130
  93.7951236  96.5502238  65.1396117  94.4960695  97.1838720  65.2925511
  93.3246351  96.8916969  64.3791756 101.9205632  94.8920187  53.4244024
 102.1965476  94.7776782  54.3337898 101.0510131  94.4937672  53.3856197
 101.8246063  80.9156953  60.4648773 100.9109143  81.1461180  60.6330980
 102.2539165  80.9995397  61.3162806 101.5952522  89.1046845  62.9648667
 100.9423972  89.3522752  62.3101120 101.9732902  88.2910983  62.6311145
  98.5559696  99.1406538  57.0676838  98.7382090  98.3228194  57.5304590
  99.3792682  99.3574230  56.6301728  98.8901861  98.0674723  54.3291886
  99.4189628  97.5567178  53.7162048  99.1530081  97.7517253  55.1937419
  97.6440095  89.8466656  69.4514704  96.9680732  89.7460785  70.1217080
  98.4667729  89.6905870  69.9150702  89.3918954  96.0838593  62.0727220
  89.9772391  95.3382280  62.2055124  89.1943792  96.3942549  62.9563883
  92.2457609  99.1189840  57.0889662  91.5767985  99.6035968  56.6053702
  92.1070479  99.3659060  58.0033040  83.9836609  88.6544193  60.7931663
  84.0220708  88.1207783  61.5868781  83.4776902  88.1279398  60.1742640
  96.3862878 101.1533583  63.6872320  96.9381186 101.3165205  64.4521406
  96.7269071 101.7438021  63.0152345  91.3627371  83.5008733  64.2894205
  91.4268698  84.3623564  63.8771603  91.2994491  82.8882735  63.5566564
  90.8379644  85.5731866  67.9367239  91.4651682  85.1908943  68.5504764
  89.9807562  85.3546068  68.3022932 101.2373752  95.9794841  69.5420975
 101.7813656  96.5924799  69.0475930 100.6560597  96.5374419  70.0587988
  87.6145186  87.3808295  53.8685594  87.9098627  86.4718973  53.8152648
  86.7133222  87.3596034  53.5466596  99.5231265  99.1015559  60.6736002
  99.3982405  98.3005299  60.1646948 100.1810356  99.5961752  60.1849972
  91.1439433  85.4564291  59.8513143  90.4226019  86.0700259  59.7120616
  91.9332689  85.9922056  59.7729789 101.5866173  96.9024579  62.3015553
 100.6396509  96.7829930  62.2293879 101.9348947  96.0147077  62.3841814
  93.9465747  82.7918718  66.1253794  94.4700149  83.0381015  66.8880104
  93.7278080  83.6238753  65.7056932  89.3433028  85.0622393  53.9924919
  89.0145734  84.1819771  53.8100025  89.6972399  85.0070061  54.8801308
  98.5912607  96.6977295  58.5019905  98.4437569  95.7694003  58.6827475
  99.4166100  96.7197386  58.0176980  92.4574851  85.3495362  54.3600397
  92.7970924  85.8781284  53.6379005  92.9046972  85.6875768  55.1358963
 102.1946729  97.5205854  59.5884778 103.1193276  97.3148715  59.4509229
 102.0262032  97.2722255  60.4974119  95.1518292  83.7332413  63.8103465
  94.8115112  82.9340226  64.2124145  94.4457298  84.0334124  63.2380298
  95.8034764  80.8181726  62.2630788  96.6260833  80.3442204  62.1409678
  96.0472827  81.5972209  62.7629474  94.4442998  83.8469984  52.5593690
  95.1651361  84.2251237  52.0557407  93.8208302  84.5658861  52.6628668
  98.5874121  84.5515133  53.4952022  98.8037735  85.4339771  53.1940850
  98.1068188  84.1601346  52.7657664  93.3273342  87.5100846  60.0722767
  93.1817923  87.8241149  60.9647048  92.8498546  88.1285746  59.5193665
  95.1869725  84.5003394  60.1203656  95.1731294  83.6044487  59.7835954
  95.9042153  84.5074058  60.7541942  97.0395856  84.9340734  62.1656784
  96.7813634  85.8557805  62.1641114  96.5080896  84.5371169  62.8557248
 101.9842045  98.0391521  54.9446869 102.1578922  97.4737944  54.1920721
 102.4770936  98.8392416  54.7626359  87.8019005  90.0506191  63.0110428
  87.2572473  90.8265999  63.1430702  88.6798355  90.3976995  62.8529549
  94.5906621  83.3817774  55.3891226  94.7122533  82.4534421  55.5882114
  94.3008664  83.3956460  54.4769542  97.4597812  81.0672685  58.5257946
  97.4819509  81.1312018  57.5709926  97.8765871  80.2277194  58.7198452
 107.8381436  90.8027944  56.5637169 108.2812582  90.0535270  56.1656292
 106.9607946  90.7938081  56.1810901 102.9717217  97.3558286  52.0443767
 103.6668122  97.9764979  52.2631082 103.3140367  96.5053637  52.3196145
  88.5885027  89.1776087  65.9040585  87.8466763  89.3258722  66.4905215
  88.2677771  89.4384352  65.0407334 104.8708640  94.8057991  53.5731098
 105.3959965  95.1445264  52.8480418 104.7830993  93.8705007  53.3894233
  96.5328689  98.7192065  65.7020975  96.8415816  98.4741212  66.5743674
  97.3304171  98.9238704  65.2139845  96.5549301 100.8729975  57.9326351
  96.1154291 100.3806353  58.6259208  97.3057418 100.3302942  57.6918426
  89.0341640  97.0641516  57.9350979  89.8599660  96.7645287  57.5549623
  88.6835692  96.2949138  58.3840768  94.0023173  96.4167984  60.0048653
  93.3803183  95.7538689  59.7050881  94.6728040  96.4429116  59.3222301
  87.2350245  94.9827842  58.8939913  86.3982154  94.5550016  58.7123914
  87.2073891  95.1760285  59.8310704  94.0747701  84.8949772  69.5981159
  94.1235856  85.7711895  69.2158929  94.6170215  84.3527165  69.0252802
 104.5602547  95.4390895  68.8782296 103.7698090  95.4215034  68.3386795
 104.3235901  95.9779189  69.6331333 104.6800422  92.2883361  66.1915025
 104.7298427  92.1233369  67.1330547 104.5714345  91.4210620  65.8012905
  93.5636680  94.9671907  53.4807113  93.7124801  95.6507372  52.8273786
  94.3703124  94.9476997  53.9956569 101.9704184  88.2714289  67.5074331
 102.8714047  88.1320754  67.2158329 102.0452158  88.4368744  68.4472509
  96.3046989  85.6481144  66.3527518  95.4350299  85.9414710  66.0810106
  96.5406470  86.2321589  67.0734781 106.1818618  94.7080303  66.4357046
 105.8903427  95.0710283  67.2720507 105.5690750  93.9947311  66.2570378
 107.3814301  92.2733183  58.9559616 108.2161192  92.7122987  59.1197177
 107.5173430  91.7971836  58.1367862 104.4305807  89.8312918  64.9037104
 104.9059928  90.0240564  64.0955955 103.5071372  89.8872103  64.6580488
  91.3189313  90.9937085  54.4868182  91.0735355  90.0899415  54.6848392
  91.4885228  90.9954235  53.5447660  99.0086023  81.8660761  63.8692938
  99.5267967  82.6021788  63.5439427  98.6541156  82.1724754  64.7039697
  90.5884961  86.7265442  51.9854344  89.8954206  86.8009797  51.3294380
  90.3436713  85.9625786  52.5075861  99.2598617  78.2861044  59.3893835
  99.5400371  77.6184233  60.0154261 100.0449224  78.4790139  58.8768498
  97.0632086  97.4620038  50.9518861  96.4906053  98.0810225  50.4989333
  97.6364879  98.0119399  51.4858783 103.1307476  86.7078678  63.1365410
 104.0824899  86.8076775  63.1577634 102.9610926  85.9156946  63.6463494
 101.1521855  83.7934261  63.3224811 100.5571787  84.0739274  62.6271299
 100.8671552  84.2828162  64.0941552 100.2829346  97.7457188  52.0827443
 101.2160019  97.6802749  52.2860319 100.1952558  98.5813455  51.6241976
 102.9117362  97.0623058  49.0431391 102.8330994  96.7282922  49.9367149
 103.7327029  97.5544826  49.0422863 105.6095553  89.9284797  62.2507709
 105.5771874  88.9900798  62.4367393 106.2196177  90.0068834  61.5173534
  97.4478884  88.7980850  48.2934913  98.3937989  88.6687058  48.3623331
  97.0693129  88.0595512  48.7704342 105.7590042  86.7195841  62.2965992
 105.2429091  85.9354297  62.1095921 106.6429990  86.3914557  62.4612512
 103.4200769  80.4636856  58.2561805 103.2225590  80.1551945  59.1405137
 104.0300474  81.1898495  58.3859735 111.4272103  90.9900804  61.3913746
 112.1575492  90.7286092  61.9521449 110.8179049  90.2529526  61.4315814
 109.5087400  89.1308667  61.9888197 108.7820564  88.9964632  61.3804689
 109.0934687  89.4385495  62.7944915  97.3317577  92.8498596  69.7535570
  98.2520586  93.0277195  69.9475617  97.2967160  91.9054642  69.6015270
  95.6321801  86.7230827  48.2289799  94.7253257  86.4263939  48.3052512
  95.9097782  86.4260645  47.3624085  86.5499742  88.0437190  58.6788845
  86.2302526  87.1902498  58.3863219  86.0033170  88.2585768  59.4346812
  90.3279649  90.7599631  62.3958351  90.5465659  91.6916739  62.4146385
  90.7405423  90.4007606  63.1813155  97.2483867  81.2667716  54.3834040
  96.4384595  80.9214801  54.7589286  97.9368284  80.9575260  54.9721651
  99.1774415  80.3445763  56.0058337  99.7305454  80.7641217  56.6648360
  99.4144502  79.4181511  56.0481293  95.2007515  86.3332837  71.7861100
  95.1004242  87.2827194  71.7173192  94.9829057  86.0051076  70.9137171
  94.4020586  83.5817762  48.3701778  95.2639750  83.9072660  48.6297595
  94.5870930  82.7949258  47.8574844  86.4188002  91.6640102  60.6481967
  85.7251473  91.2494054  60.1351921  87.1660993  91.7060638  60.0515385
 102.5553223  82.4546288  55.5137001 101.9751892  83.1131092  55.1315053
 102.2889155  81.6323633  55.1024418 101.0056789  81.8551346  57.7158321
 101.5056567  81.9667881  56.9072640 101.6492397  81.5512399  58.3559130
  95.0638785  89.7629976  70.6026162  94.5805866  90.5630336  70.8090051
  95.1499724  89.7737921  69.6493606  88.3324744  91.5958355  58.5247981
  88.3095432  91.6946043  57.5729865  88.6425381  92.4423506  58.8465148
  90.9912122  93.6534510  62.6394596  91.9455376  93.6218453  62.5724527
  90.7924646  93.1925134  63.4544822  91.5811504  92.2235626  65.2065394
  92.4004393  92.7179705  65.2300231  91.8548312  91.3067595  65.1782961
 101.3378101  84.6146379  54.5693349 100.4503956  84.8996029  54.3513544
 101.7532090  84.4540142  53.7220626 104.6892637  84.6392900  58.2847688
 105.4653027  85.1289352  58.5572305 103.9640771  85.0650954  58.7419558
 107.1265195  85.3520519  59.3421629 107.7209686  85.1116255  58.6314937
 107.1991779  84.6327650  59.9695165  89.3462351  99.1954130  59.6564794
  89.2116819  98.4354531  59.0902792  88.9294413  99.9195030  59.1893583
 100.4821314  94.3791053  48.6641369 101.1857164  94.5841056  49.2799025
  99.7583963  94.9467815  48.9290453 101.3119124  90.1300915  54.7843639
 101.2554326  90.5869466  53.9451272 101.8647467  89.3691599  54.6066482
 105.1223930  85.9190647  55.6093759 104.8660864  85.5187282  56.4401966
 104.4976798  86.6334441  55.4843898 109.4336268  88.6586720  58.1165050
 108.8735826  88.7279909  58.8896612 108.8279771  88.4827704  57.3964546
  92.5031477 100.0923447  59.8683236  92.3863861 101.0368879  59.7661927
  91.6823923  99.7897008  60.2569036 102.3908011  94.8173583  50.7139829
 103.2253615  94.3854781  50.5317304 102.2292354  94.6455596  51.6416724
 102.0453904  91.3205696  52.0796168 101.9902707  91.1549967  51.1384612
 101.4199959  92.0281729  52.2358358  86.8346419  86.5573760  65.9057591
  87.4805282  86.0472714  66.3944816  86.6263570  87.2942442  66.4801016
  99.3599811  93.6254608  71.4049731 100.2290970  93.7995260  71.0436366
  98.8806562  94.4449025  71.2825460  95.3550029  80.8213805  51.6581487
  95.3428699  81.7655645  51.8149758  96.2473451  80.6383950  51.3640948
  93.5285991 100.7451709  63.0839165  94.4313238 100.7775319  63.4005660
  93.3023361  99.8152160  63.0985501  95.2839593  99.4982695  59.7449243
  94.3335224  99.4984557  59.6313616  95.5872079  98.7515430  59.2285278
  99.1702149  77.4156582  55.9127424  98.4034544  76.8615068  56.0584106
  99.5812853  77.4878450  56.7741575  91.1743910  83.7041377  70.0032605
  92.0375371  83.3478182  70.2135929  90.6009320  83.3655272  70.6908009
 111.0192287 105.3343234  60.8095006 111.6570696 105.2149981  60.1058346
 110.9013129 106.2824078  60.8682958 107.8281993 105.2870662  60.7456531
 107.4900504 105.1711727  59.8577065 108.6971761 104.8861827  60.7257537
 103.6868808 107.1406138  56.7353421 103.1233674 107.0496075  55.9669709
 103.5721204 106.3206043  57.2155914 108.3101776 106.4405514  66.7042736
 108.2990417 106.0458312  65.8323240 108.4722415 105.7071586  67.2976507
 101.2333240 108.6357330  59.5737642 102.0254532 108.2948155  59.1583941
 101.4729891 108.7452305  60.4939795 103.1923994 107.8966243  52.4455021
 103.9654870 107.3495230  52.3067897 103.5449393 108.7610492  52.6569482
 105.0309037 109.2242625  65.6521920 104.7398903 110.1288256  65.5368586
 105.6666021 109.2659153  66.3665990 105.9565244 106.6019474  62.2423280
 106.5528816 106.3775496  61.5280243 106.0140215 105.8604219  62.8448728
 105.5290272 104.0558909  50.0773471 105.7815793 103.5340431  49.3156934
 104.5914831 103.8925055  50.1800154 110.5733555 103.0594688  57.8848214
 111.3596644 102.6414111  57.5338631 110.8372259 103.9640780  58.0529862
 105.2486561 105.9587015  52.2797846 105.1322819 105.2831919  52.9478930
 105.3588821 105.4719389  51.4629999 107.5918102 105.4197162  55.9844535
 107.2276309 104.8927783  56.6957456 108.4485218 105.0295631  55.8111020
 113.4967402  96.7091495  63.2475801 113.1650727  97.5786906  63.0237016
 112.9013016  96.3927779  63.9269831 107.2323589 100.4487062  50.9805883
 107.3997991 101.3167298  51.3476354 107.0420758 100.6114344  50.0567173
 103.4411403 105.3617838  58.6808418 102.5161900 105.2294052  58.8886110
 103.6895817 106.1412057  59.1778361 113.3896066 101.4286581  60.3269151
 112.4812943 101.3601990  60.0327912 113.3383662 101.9058526  61.1550977
 107.2112810 102.9044719  51.9652550 107.0912435 103.3501770  52.8038030
 106.5165398 103.2530037  51.4066088 100.8020215 105.0051111  59.5152207
 100.9312596 105.2585590  60.4291619 100.1217666 105.5978819  59.1956862
 107.4636932 102.8476227  68.2704048 106.6870266 103.4070147  68.2606913
 108.1027495 103.3333010  68.7918918 115.2557712  99.6303019  62.1047025
 114.6132092  99.9235553  61.4586820 114.7512641  99.5155940  62.9100222
 112.9097876 103.3766193  52.7932884 113.8215732 103.6093579  52.6180582
 112.4007523 103.9603237  52.2307963 105.7183304 105.6561680  67.8322015
 106.4597988 106.1946724  67.5556839 105.0120289 106.2827969  67.9893567
 107.5469714 102.7363427  63.8027734 108.3930909 103.1602841  63.9462383
 107.4868351 102.0797052  64.4966297 110.6969159 100.3967796  65.4608907
 110.4530091 101.1509856  64.9243183 110.9729089 100.7753143  66.2956154
 110.2533851  99.5524229  61.0422745 109.3918330  99.8505482  61.3339483
 110.2796285  99.7694628  60.1103778 107.0695420 108.0966419  57.4496551
 107.5333766 108.3754122  56.6601173 106.8052218 107.1949864  57.2669641
 103.9619501 107.6437901  60.3876314 104.5320858 108.0725169  59.7493799
 104.5527613 107.3620485  61.0860500 106.0064306 104.2189572  54.2586116
 106.7088349 104.6710615  54.7260042 105.6744935 103.5773390  54.8866009
 104.4544668 102.8101328  68.6337325 103.8243328 103.4917609  68.8672722
 104.3480756 102.6984410  67.6890464  99.7489640 102.4773124  59.5603249
  98.9588694 102.7330653  59.0843360 100.2400887 103.2921462  59.6655290
 101.7004385 102.8417703  56.5186726 100.9035549 102.9536398  57.0370222
 101.4729978 103.1804356  55.6527617  98.0327343 102.7303615  61.9918240
  98.2835381 103.6150625  62.2575816  98.5686891 102.5508216  61.2193332
 103.7325410  97.1122094  70.9962576 103.3392356  96.5588293  71.6710221
 104.5491551  97.4232673  71.3869094 100.6987468 108.5505952  54.9076146
 101.2111989 109.3449202  55.0581711 101.3510181 107.8532243  54.8409748
 106.6493371  98.5279973  68.5882833 107.3903085  99.1287126  68.5087295
 106.8811294  97.7857611  68.0300875 101.7934709 103.7136340  66.8661063
 101.6788225 102.8121598  67.1668162 100.9379227 103.9600037  66.5145879
 110.5950534  94.5561076  62.8647115 110.2514804  95.4462718  62.7886225
 110.9629497  94.3662734  62.0016700  98.6636385 106.8794607  55.6835717
  99.5011607 107.2891615  55.4669424  98.8414653 105.9394049  55.6535911
 110.5600817 104.5469687  51.3719550 110.0447440 105.3174292  51.6107937
 110.2878125 103.8734823  51.9952611 108.1447928  99.3919388  56.4304788
 107.2889524  99.0026238  56.2510427 108.5574880  99.4711349  55.5704574
 109.6747075  96.9265731  60.8296348 109.1711870  96.8895866  60.0164153
 109.9677682  97.8358474  60.8893004 105.9189961  97.0104461  59.8362530
 106.7842957  96.8147270  59.4768419 105.9867469  96.7814813  60.7631886
 110.3487120 102.4196779  53.1979331 110.0437256 102.7342928  54.0489474
 111.3017562 102.4978199  53.2406664 103.5252280  99.2406669  57.2078896
 104.0996032  99.0181850  56.4752089 104.1123262  99.3095363  57.9607498
 103.8521867 101.2711130  51.2274782 103.0159179 101.6085816  51.5484056
 103.7126636 101.1360110  50.2901919 105.8274947  96.1147918  55.9353966
 105.1739360  95.7996935  55.3110581 105.7855422  95.4923658  56.6613789
 106.9386152 106.3967213  47.8507258 106.0313214 106.1656466  48.0498407
 107.4357184 105.6004832  48.0381239 109.0612688 102.6029851  60.2601613
 108.1435249 102.8244798  60.1023301 109.4772831 102.6776162  59.4013321
 109.8447735 104.0021267  55.3904294 110.5919554 104.5142664  55.0811416
 110.1139325 103.6805320  56.2508687 108.1174386 106.4979808  52.3731248
 107.2085605 106.2138841  52.4703718 108.1469469 106.9178886  51.5134555
 112.2926573 101.0378383  57.3723083 111.5549329 100.5255769  57.7033326
 112.5453346 100.5978765  56.5606360 112.3938200  93.8154635  57.9664852
 112.6997077  92.9551999  57.6790767 113.1190805  94.4072255  57.7663846
  98.6862556 104.2185322  56.3546450  98.4886956 103.6254683  55.6297517
  98.1309220 103.9137532  57.0722389 106.6659280 104.1108428  58.4741043
 106.7207889 103.1582265  58.3983520 105.8550482 104.2667867  58.9582342
 104.6051640 102.7285488  56.2331422 103.7919505 103.0279659  56.6396614
 105.1010634 102.3341177  56.9505904 110.2025851 103.1927313  65.0646316
 110.5575239 103.4198786  65.9240782 110.8497983 103.5245689  64.4423571
 104.0965714 100.3003844  61.8492657 104.7365094 100.1592603  61.1515620
 103.2643245 100.0138357  61.4731259 104.8726018 109.6006274  57.9627650
 105.6666617 109.1056594  57.7610225 104.1617711 109.0724137  57.5995355
 101.1808782 103.7449356  54.0387402 100.2506370 103.6833811  54.2557364
 101.2766254 103.2225309  53.2424044 101.0994331 100.2704169  56.6265644
 101.3601148 101.1849502  56.5174804 101.9211503  99.8028611  56.7762257
 102.5719256 101.6841926  63.7964468 103.2442310 101.4759288  63.1477117
 101.7449043 101.4864012  63.3569701 108.4744828  98.3103867  65.8130129
 107.8272743  99.0093816  65.7194606 109.2445844  98.7440011  66.1806378
 108.6508962 106.1484632  63.8726949 109.5801022 106.2995791  63.6995916
 108.2299993 106.2368652  63.0175596 102.9746753 104.9584529  64.5566906
 102.8366551 104.2264768  65.1578445 103.8851677 104.8693429  64.2751093
 105.6029054 104.6704488  64.0450585 106.3128673 104.0297680  64.0037204
 105.5598362 104.9217383  64.9676766 104.3157988 101.6569706  65.8646225
 103.7795345 101.2060444  66.5167821 103.7274696 101.7915615  65.1216689
 103.7260247 101.1158357  48.4272688 102.8489713 100.9947158  48.0634935
 104.2018000 100.3244436  48.1751577  95.2462387 105.9035517  58.5214196
  95.9333427 105.5897247  57.9335211  95.0910516 106.8076882  58.2481447
 100.0497109 100.7925714  62.9499219  99.9655298 100.1851383  62.2149629
  99.2279816 101.2834732  62.9508716 110.2220823  99.2779277  58.3169414
 110.7189523  98.5249240  57.9970485 109.4507805  99.3143594  57.7512624
 106.8055792 101.4196660  58.0441099 106.4353579 100.8667701  58.7322004
 107.3014884 100.8154794  57.4916099 112.6639818  96.2448871  60.4648773
 111.7502898  96.4753098  60.6330980 113.0932919  96.3287315  61.3162806
 112.4346276 104.4338763  62.9648667 111.7817727 104.6814670  62.3101120
 112.8126656 103.6202901  62.6311145 108.4833849 105.1758574  69.4514704
 107.8074486 105.0752703  70.1217080 109.3061483 105.0197787  69.9150702
 100.2312709 111.4130510  62.0727220 100.8166145 110.6674198  62.2055124
 100.0337547 111.7234467  62.9563883  94.8230363 103.9836110  60.7931663
  94.8614463 103.4499701  61.5868781  94.3170656 103.4571316  60.1742640
 102.2021126  98.8300651  64.2894205 102.2662452  99.6915482  63.8771603
 102.1388246  98.2174653  63.5566564 101.6773398 100.9023783  67.9367239
 102.3045437 100.5200861  68.5504764 100.8201317 100.6837985  68.3022932
  98.4538941 102.7100213  53.8685594  98.7492382 101.8010891  53.8152648
  97.5526977 102.6887952  53.5466596 101.9833188 100.7856209  59.8513143
 101.2619774 101.3992177  59.7120616 102.7726444 101.3213974  59.7729789
 104.7859501  98.1210636  66.1253794 105.3093903  98.3672932  66.8880104
 104.5671835  98.9530670  65.7056932 100.1826782 100.3914310  53.9924919
  99.8539489  99.5111689  53.8100025 100.5366153 100.3361979  54.8801308
 103.2968606 100.6787280  54.3600397 103.6364678 101.2073201  53.6379005
 103.7440726 101.0167686  55.1358963 105.9912046  99.0624331  63.8103465
 105.6508867  98.2632144  64.2124145 105.2851053  99.3626042  63.2380298
 106.6428518  96.1473643  62.2630788 107.4654588  95.6734121  62.1409678
 106.8866582  96.9264127  62.7629474 105.2836753  99.1761902  52.5593690
 106.0045115  99.5543154  52.0557407 104.6602057  99.8950778  52.6628668
 109.4267876  99.8807051  53.4952022 109.6431490 100.7631688  53.1940850
 108.9461943  99.4893264  52.7657664 104.1667097 102.8392764  60.0722767
 104.0211678 103.1533067  60.9647048 103.6892301 103.4577664  59.5193665
 106.0263480  99.8295312  60.1203656 106.0125049  98.9336405  59.7835954
 106.7435908  99.8365976  60.7541942 107.8789611 100.2632652  62.1656784
 107.6207388 101.1849723  62.1641114 107.3474651  99.8663087  62.8557248
  98.6412759 105.3798108  63.0110428  98.0966227 106.1557916  63.1430702
  99.5192109 105.7268913  62.8529549 105.4300376  98.7109692  55.3891226
 105.5516287  97.7826338  55.5882114 105.1402418  98.7248378  54.4769542
 108.2991566  96.3964603  58.5257946 108.3213263  96.4603936  57.5709926
 108.7159625  95.5569111  58.7198452  99.4278781 104.5068005  65.9040585
  98.6860517 104.6550640  66.4905215  99.1071525 104.7676270  65.0407334
  99.8735395 112.3933433  57.9350979 100.6993415 112.0937205  57.5549623
  99.5229447 111.6241056  58.3840768  98.0744000 110.3119760  58.8939913
  97.2375908 109.8841934  58.7123914  98.0467645 110.5052203  59.8310704
 104.9141455 100.2241689  69.5981159 104.9629611 101.1003812  69.2158929
 105.4563970  99.6819083  69.0252802 112.8097938 103.6006207  67.5074331
 113.7107801 103.4612672  67.2158329 112.8845913 103.7660662  68.4472509
 107.1440744 100.9773062  66.3527518 106.2744053 101.2706628  66.0810106
 107.3800224 101.5613507  67.0734781 102.1583068 106.3229002  54.4868182
 101.9129110 105.4191332  54.6848392 102.3278982 106.3246153  53.5447660
 109.8479778  97.1952679  63.8692938 110.3661721  97.9313706  63.5439427
 109.4934910  97.5016672  64.7039697 101.4278715 102.0557360  51.9854344
 100.7347960 102.1301715  51.3294380 101.1830467 101.2917704  52.5075861
 110.0992372  93.6152961  59.3893835 110.3794126  92.9476150  60.0154261
 110.8842979  93.8082057  58.8768498 113.9701230 102.0370595  63.1365410
 114.9218653 102.1368693  63.1577634 113.8004681 101.2448864  63.6463494
 111.9915610  99.1226179  63.3224811 111.3965542  99.4031191  62.6271299
 111.7065306  99.6120079  64.0941552 108.2872639 104.1272768  48.2934913
 109.2331744 103.9978976  48.3623331 107.9086884 103.3887430  48.7704342
 116.5983796 102.0487758  62.2965992 116.0822845 101.2646215  62.1095921
 117.4823745 101.7206475  62.4612512 114.2594523  95.7928774  58.2561805
 114.0619344  95.4843862  59.1405137 114.8694229  96.5190413  58.3859735
 106.4715556 102.0522744  48.2289799 105.5647011 101.7555857  48.3052512
 106.7491537 101.7552562  47.3624085  97.3893496 103.3729108  58.6788845
  97.0696281 102.5194416  58.3863219  96.8426925 103.5877686  59.4346812
 101.1673404 106.0891549  62.3958351 101.3859414 107.0208657  62.4146385
 101.5799178 105.7299523  63.1813155 108.0877622  96.5959634  54.3834040
 107.2778350  96.2506719  54.7589286 108.7762039  96.2867178  54.9721651
 110.0168170  95.6737681  56.0058337 110.5699209  96.0933134  56.6648360
 110.2538256  94.7473429  56.0481293 106.0401269 101.6624755  71.7861100
 105.9397996 102.6119112  71.7173192 105.8222811 101.3342993  70.9137171
 105.2414341  98.9109680  48.3701778 106.1033505  99.2364578  48.6297595
 105.4264685  98.1241175  47.8574844  97.2581756 106.9932019  60.6481967
  96.5645228 106.5785972  60.1351921  98.0054747 107.0352556  60.0515385
 113.3946977  97.7838206  55.5137001 112.8145646  98.4423010  55.1315053
 113.1282910  96.9615551  55.1024418 111.8450543  97.1843264  57.7158321
 112.3450322  97.2959798  56.9072640 112.4886151  96.8804317  58.3559130
 105.9032539 105.0921893  70.6026162 105.4199621 105.8922253  70.8090051
 105.9893478 105.1029838  69.6493606  99.1718499 106.9250273  58.5247981
  99.1489187 107.0237960  57.5729865  99.4819135 107.7715424  58.8465148
 101.8305877 108.9826428  62.6394596 102.7849130 108.9510370  62.5724527
 101.6318400 108.5217052  63.4544822 102.4205259 107.5527544  65.2065394
 103.2398148 108.0471623  65.2300231 102.6942067 106.6359512  65.1782961
 112.1771855  99.9438296  54.5693349 111.2897710 100.2287947  54.3513544
 112.5925844  99.7832060  53.7220626 115.5286391  99.9684817  58.2847688
 116.3046781 100.4581270  58.5572305 114.8034525 100.3942872  58.7419558
 115.9617685 101.2482564  55.6093759 115.7054619 100.8479200  56.4401966
 115.3370553 101.9626358  55.4843898  97.6740173 101.8865678  65.9057591
  98.3199037 101.3764632  66.3944816  97.4657324 102.6234360  66.4801016
 106.1943784  96.1505723  51.6581487 106.1822453  97.0947563  51.8149758
 107.0867205  95.9675868  51.3640948 110.0095903  92.7448499  55.9127424
 109.2428299  92.1906986  56.0584106 110.4206608  92.8170368  56.7741575
 102.0137664  99.0333295  70.0032605 102.8769126  98.6770100  70.2135929
 101.4403075  98.6947190  70.6908009  38.6506283  -7.8283245  43.4598728
  38.0871148  -7.9193308  42.6915016  38.5358678  -8.6483341  43.9401221
  36.1970715  -6.3332054  46.2982949  36.9892007  -6.6741229  45.8829248
  36.4367365  -6.2237079  47.2185102  44.2305842  -4.1612278  38.7713193
  43.5793821  -3.5758197  38.3847207  45.0250204  -3.6306083  38.8308230
  38.1561469  -7.0723140  39.1700327  38.9292345  -7.6194153  39.0313203
  38.5086868  -6.2078891  39.3814789  39.9946511  -5.7446758  52.3767227
  39.7036377  -4.8401127  52.2613893  40.6303496  -5.7030230  53.0911296
  40.9202718  -8.3669910  48.9668586  41.5166290  -8.5913887  48.2525549
  40.9777690  -9.1085164  49.5694034  45.7081107  -6.4721846  39.3082177
  45.0726940  -6.3987219  40.0203082  45.3778513  -5.8828247  38.6301257
  40.2124035  -9.0102368  39.0043152  40.0960293  -9.6857465  39.6724237
  40.3226295  -9.4969994  38.1875305  44.9536396  -6.0585343  49.3717020
  44.6537119  -5.1560304  49.2632828  44.6087456  -6.3253159  50.2238173
  39.9357176   0.7058978  42.3387988  39.8581206   1.6566803  42.4176469
  39.3318820   0.3604850  42.9962914  40.6820778  -9.3127703  54.5567322
  41.4235463  -8.7742659  54.2802146  39.9757764  -8.6861415  54.7138874
  46.4804933  -6.6097372  46.9091772  45.8513795  -6.4451658  46.2067840
  46.0930595  -6.1955763  47.6802736  50.3594164  -5.6742934  44.2636136
  49.6745203  -5.2944033  43.7133169  50.4438014  -5.0647608  44.9968084
  42.0332894  -6.8722964  44.1741857  42.4971240  -6.5935261  43.3846480
  41.7689692  -7.7739520  43.9914948  38.9256975  -7.3251483  47.1121621
  39.4958333  -6.8964214  46.4739105  39.5165087  -7.6068898  47.8105806
  48.7290924  -5.1511020  49.0353837  49.5508368  -5.5530833  48.7536519
  48.7253327  -5.2542786  49.9869953  42.4947527  -5.6026977  51.1914547
  42.5591960  -5.1406570  52.0272719  41.7858451  -6.2329612  51.3196857
  42.2095545  -3.9358869  41.0593528  42.0741220  -3.0907334  41.4878376
  42.7505358  -3.7339592  40.2959462  35.6624942  -6.4183431  41.6321453
  36.1749463  -5.6240181  41.7827018  36.3147655  -7.1157141  41.5655054
  37.4719827  -3.3017675  43.7144206  37.6486455  -2.3799710  43.5265190
  38.2676661  -3.6159256  44.1438586  43.8364021  -3.3135303  55.1893870
  43.3927876  -4.0998924  54.8714774  44.4981235  -3.1256152  54.5237761
  38.5951143  -1.7839501  49.7154548  39.1458568  -1.9122438  48.9431542
  37.7562619  -1.4844612  49.3649441  45.9345260  -3.0332503  53.2175271
  45.9163735  -2.2123622  52.7255540  46.8565180  -3.1578428  53.4425412
  42.3918314  -5.5188373  54.0598779  42.9246650  -6.2800085  53.8298087
  41.8632395  -5.8114722  54.8022934  43.7571026  -6.3902381  41.5717591
  43.2292388  -7.1249621  41.2590829  43.2558529  -5.6127705  41.3257560
  44.8091705   0.1375337  37.4949251  44.1353404   0.4407033  38.1034209
  45.1957527   0.9404417  37.1454708  43.0811860  -8.4709576  39.0976555
  42.1723079  -8.7550543  39.1949024  43.1106944  -8.0510497  38.2379861
  48.3131127  -4.8602986  42.8667722  47.8593454  -5.7012076  42.9232913
  47.6825094  -4.2241588  43.2042502  46.7564067  -3.0226490  43.8017540
  47.0487041  -2.4621432  43.0829906  47.2662687  -2.7297929  44.5570699
  42.7787948  -6.9300832  36.4364633  42.3407378  -7.6464973  35.9770271
  43.5198389  -6.7024717  35.8749725  41.7197692  -2.2446138  44.8910994
  41.6773871  -2.0185292  43.9619526  42.6360391  -2.4782764  45.0396795
  39.8363493  -5.3683109  44.6872956  40.6304091  -5.8632789  44.4855531
  39.1255185  -5.8965246  44.3240662  44.6558337  -2.9865014  49.0385324
  44.7095359  -2.4174078  49.8063040  43.7873118  -2.8163129  48.6739361
  46.8461100  -6.3936665  55.6125989  46.6946607  -6.6226113  54.6956073
  46.8365780  -5.4366063  55.6257334  42.4134769  -4.7954087  48.3670793
  42.2745854  -5.1635303  49.2396731  41.6249365  -4.2806448  48.1954751
  43.0082921   0.3055009  39.7096330  43.1834676  -0.1656948  40.5241953
  42.3215709   0.9320775  39.9377591  43.9639984  -5.4172485  45.7559631
  43.6289816  -5.4571715  46.6517281  43.4643929  -6.0827769  45.2830041
  48.5553307  -3.3617542  53.6902471  48.4965853  -4.0458322  53.0233054
  48.9572825  -2.6198552  53.2383097  37.5744006   3.4544372  46.4836190
  37.8140604   4.0862896  47.1615209  36.7313202   3.1032412  46.7701549
  48.5570714  -5.3977958  51.9216451  47.6697493  -5.7352036  52.0442850
  49.1269265  -6.1294927  52.1585216  42.0871868  -0.7376506  48.8877694
  42.0142039   0.0678466  49.3996999  41.6449261  -0.5384540  48.0625715
  41.8761647  -1.5004736  42.3980516  41.0929169  -0.9583056  42.4918740
  42.5754393  -0.9830756  42.7974757  44.5470551  -0.8389672  51.0435853
  45.2598523  -0.2042207  50.9711754  44.0560580  -0.7425806  50.2275855
  39.5982465  -3.0895228  51.8641424  40.2991924  -2.4558745  52.0170818
  39.1277580  -2.7480497  51.1037063  47.7236861  -4.7477278  40.1489331
  47.9996705  -4.8620684  41.0583205  46.8541359  -5.1459794  40.1101504
  44.3590925  -0.4990928  43.7922144  44.5413319  -1.3169272  44.2549896
  45.1823911  -0.2823235  43.3547034  44.6933090  -1.5722743  41.0537193
  45.2220857  -2.0830288  40.4407355  44.9561310  -1.8880212  41.9182726
  35.1950183  -3.5558873  48.7972526  35.7803620  -4.3015185  48.9300430
  34.9975021  -3.2454917  49.6809190  38.0488838  -0.5207626  43.8134969
  37.3799213  -0.0361498  43.3299009  37.9101708  -0.2738405  44.7278347
  42.1894107   1.5136118  50.4117627  42.7412415   1.6767739  51.1766712
  42.5300300   2.1040556  49.7397652  47.0404981  -3.6602625  56.2666281
  47.5844885  -3.0472667  55.7721236  46.4591826  -3.1023046  56.7833294
  45.3262494  -0.5381907  47.3981309  45.2013633  -1.3392167  46.8892255
  45.9841585  -0.0435713  46.9095279  47.3897402  -2.7372887  49.0260859
  46.4427738  -2.8567536  48.9539186  47.7380175  -3.6250389  49.1087121
  44.3943836  -2.9420170  45.2265211  44.2468798  -3.8703463  45.4072781
  45.2197329  -2.9200080  44.7422287  47.9977957  -2.1191612  46.3130084
  48.9224505  -2.3248750  46.1754535  47.8293261  -2.3675211  47.2219426
  47.7873274  -1.6005944  41.6692176  47.9610151  -2.1659522  40.9166028
  48.2802165  -0.8005049  41.4871666  48.7748446  -2.2839180  38.7689074
  49.4699351  -1.6632487  38.9876389  49.1171596  -3.1343829  39.0441452
  50.6739869  -4.8339474  40.2976405  51.1991193  -4.4952202  39.5725725
  50.5862222  -5.7692459  40.1139539  42.3359918  -0.9205401  52.4266281
  42.6447044  -1.1656254  53.2988981  43.1335400  -0.7158762  51.9385152
  42.3580530   1.2332509  44.6571658  41.9185520   0.7408888  45.3504515
  43.1088647   0.6905477  44.4163733  34.8372869  -2.5755950  44.6596286
  35.6630889  -2.8752178  44.2794929  34.4866921  -3.3448328  45.1086075
  39.8054402  -3.2229482  46.7293960  39.1834411  -3.8858777  46.4296187
  40.4759269  -3.1968350  46.0467607  50.3633775  -4.2006571  55.6027603
  49.5729319  -4.2182432  55.0632102  50.1267130  -3.6618277  56.3576639
  39.3667909  -4.6725559  40.2052420  39.5156029  -3.9890094  39.5519093
  40.1734353  -4.6920469  40.7201876  51.9849847  -4.9317163  53.1602353
  51.6934656  -4.5687182  53.9965814  51.3721978  -5.6450155  52.9815685
  42.8663315  -2.1777428  37.6764167  42.2937282  -1.5587241  37.2234639
  43.4396108  -1.6278067  38.2104089  46.0860574  -1.8940278  38.8072750
  47.0191248  -1.9594716  39.0105625  45.9983787  -1.0584011  38.3487282
  48.7148591  -2.5774408  35.7676697  48.6362223  -2.9114544  36.6612455
  49.5358258  -2.0852640  35.7668170  43.1348806  -6.7898869  56.4780877
  44.0551815  -6.6120270  56.6720923  43.0998389  -7.7342824  56.3260576
  36.7943351  -5.9862955  49.3639902  37.7486605  -6.0179013  49.2969834
  36.5955875  -6.4472332  50.1790128  37.3842733  -7.4161839  51.9310700
  38.2035622  -6.9217761  51.9545537  37.6579541  -8.3329871  51.9028268
  35.1493580  -0.4443336  46.3810100  35.0148048  -1.2042935  45.8148098
  34.7325642   0.2797564  45.9138889  46.2852543  -5.2606412  35.3886676
  46.9888393  -5.0556410  36.0044331  45.5615192  -4.6929650  35.6535759
  38.3062706   0.4525981  46.5928543  38.1895090   1.3971414  46.4907233
  37.4855152   0.1499543  46.9814342  48.1939240  -4.8223883  37.4385136
  49.0284844  -5.2542685  37.2562610  48.0323583  -4.9941869  38.3662030
  45.1631040  -6.0142858  58.1295038  46.0322199  -5.8402206  57.7681673
  44.6837791  -5.1948441  58.0070767  39.3317220   1.1054243  49.8084471
  40.2344467   1.1377853  50.1250966  39.1054590   0.1754694  49.8230807
  41.0870822  -0.1414770  46.4694550  40.1366453  -0.1412909  46.3558922
  41.3903308  -0.8882036  45.9530585  56.8223515   5.6945768  47.5340312
  57.4601925   5.5752515  46.8303653  56.7044358   6.6426612  47.5928265
  53.6313222   5.6473196  47.4701837  53.2931733   5.5314261  46.5822372
  54.5002990   5.2464361  47.4502843  49.4900037   7.5008672  43.4598728
  48.9264902   7.4098609  42.6915016  49.3752432   6.6808577  43.9401221
  54.1133005   6.8008048  53.4288043  54.1021645   6.4060846  52.5568546
  54.2753644   6.0674120  54.0221814  47.0364469   8.9959864  46.2982949
  47.8285761   8.6550689  45.8829248  47.2761119   9.1054839  47.2185102
  55.0699596  11.1679640  38.7713193  54.4187576  11.7533721  38.3847207
  55.8643959  11.6985835  38.8308230  48.9955223   8.2568777  39.1700327
  49.7686099   7.7097764  39.0313203  49.3480622   9.1213027  39.3814789
  50.8340266   9.5845160  52.3767227  50.5430132  10.4890790  52.2613893
  51.4697250   9.6261687  53.0911296  51.7596473   6.9622008  48.9668586
  52.3560045   6.7378031  48.2525549  51.8171444   6.2206754  49.5694034
  51.3321501   4.4161443  36.8018777  51.5847022   3.8942965  36.0402240
  50.3946060   4.2527589  36.9045461  56.3764784   3.4197222  44.6093520
  57.1627873   3.0016645  44.2583938  56.6403488   4.3243314  44.7775169
  56.5474861   8.8570072  39.3082177  55.9120694   8.9304699  40.0203082
  56.2172268   9.4463671  38.6301257  61.7773211   3.3572455  45.5126499
  62.5098383   2.7871672  45.7464328  61.0212567   2.9694055  45.9533005
  51.0517790   6.3189549  39.0043152  50.9354048   5.6434453  39.6724237
  51.1620050   5.8321923  38.1875305  53.3949331   5.7799697  42.7089841
  53.0307538   5.2530317  43.4202763  54.2516447   5.3898166  42.5356327
  59.2998631  -2.9305971  49.9721108  58.9681956  -2.0610560  49.7482323
  58.7044245  -3.2469687  50.6515138  53.0354818   0.8089596  37.7051190
  53.2029220   1.6769833  38.0721661  52.8451987   0.9716878  36.7812479
  55.7930151   9.2706575  49.3717020  55.4930874  10.1731614  49.2632828
  55.4481210   9.0038758  50.2238173  49.2442632   5.7220372  45.4053725
  48.3193129   5.5896586  45.6131417  49.4927046   6.5014591  45.9023667
  59.1927295   1.7889115  47.0514458  58.2844172   1.7204524  46.7573219
  59.1414890   2.2661060  47.8796283  53.0144039   3.2647254  38.6897857
  52.8943664   3.7104304  39.5283337  52.3196627   3.6132571  38.1311395
  46.6051443   5.3653645  46.2397514  46.7343825   5.6188124  47.1536926
  45.9248895   5.9581354  45.9202169  50.7750931  16.0350895  42.3387988
  50.6974960  16.9858721  42.4176469  50.1712574  15.6896768  42.9962914
  53.2668160   3.2078761  54.9949355  52.4901494   3.7672681  54.9852220
  53.9058723   3.6935544  55.5164225  61.0588941  -0.0094446  48.8292332
  60.4163321   0.2838087  48.1832126  60.5543870  -0.1241526  49.6345528
  58.7129105   3.7368727  39.5178191  59.6246961   3.9696114  39.3425888
  58.2038752   4.3205771  38.9553269  51.5214533   6.0164214  54.5567322
  52.2629217   6.5549258  54.2802146  50.8151518   6.6430503  54.7138874
  56.9969872   8.1593355  53.1539483  57.4053228   7.7175765  52.4094116
  56.2747134   7.5845982  53.4073676  53.3500942   3.0965961  50.5273040
  54.1962138   3.5205375  50.6707689  53.2899580   2.4399586  51.2211603
  57.3198687   8.7194545  46.9091772  56.6907549   8.8840259  46.2067840
  56.9324349   9.1336155  47.6802736  61.1987919   9.6548983  44.2636136
  60.5138957  10.0347885  43.7133169  61.2831768  10.2644310  44.9968084
  56.5000388   0.7570330  52.1854214  56.2561320   1.5112390  51.6488490
  56.7760318   1.1355677  53.0201461  58.4538850   7.3008942  50.8631480
  58.6655746   7.9440702  50.1865861  58.4068599   6.4671259  50.3953410
  56.0565079  -0.0873237  47.7668052  55.1949558   0.2108016  48.0584789
  56.0827514   0.1297162  46.8349084  52.8726649   8.4568953  44.1741857
  53.3364994   8.7356656  43.3846480  52.6083447   7.5552398  43.9914948
  49.7650730   8.0040435  47.1121621  50.3352087   8.4327703  46.4739105
  50.3558842   7.7223020  47.8105806  51.8095535   4.5792106  40.9831423
  52.5119578   5.0313149  41.4505349  51.4776163   3.9375925  41.6111316
  50.2575896   3.1703862  55.3582632  49.6274557   3.8520143  55.5918029
  50.1511984   3.0586944  54.4135770  45.5520869   2.8375658  46.2848556
  44.7619923   3.0933187  45.8088667  46.0432116   3.6523996  46.3900597
  59.5684678  10.1780898  49.0353837  60.3902122   9.7761085  48.7536519
  59.5647081  10.0749132  49.9869953  47.5035614   3.2020238  43.2432033
  46.7066778   3.3138932  43.7615528  47.2761206   3.5406890  42.3772923
  53.3341282   9.7264941  51.1914547  53.3985714  10.1885348  52.0272719
  52.6252206   9.0962306  51.3196857  43.8358572   3.0906149  48.7163547
  44.0866610   3.9753159  48.9821123  44.3718120   2.9110750  47.9438639
  67.6590671   6.5219646  45.3838808  66.9054380   5.9527044  45.2282813
  67.7938213   6.4882311  46.3309443  53.0489300  11.3933048  41.0593528
  52.9134974  12.2384584  41.4878376  53.5899112  11.5952326  40.2959462
  49.5356639  -2.5275372  57.7207883  49.1423585  -3.0809173  58.3955527
  50.3522780  -2.2164793  58.1114401  46.5018697   8.9108486  41.6321453
  47.0143218   9.7051737  41.7827018  47.1541410   8.2134777  41.5655054
  48.3113582  12.0274243  43.7144206  48.4880210  12.9492207  43.5265190
  49.1070415  11.7132662  44.1438586  52.4524600  -1.1117493  55.3128140
  53.1934314  -0.5110340  55.2332602  52.6842523  -1.8539855  54.7546182
  47.5965938   4.0738875  53.5906369  47.4819453   3.1724132  53.8913468
  46.7410456   4.3202571  53.2391186  54.6757776  12.0156615  55.1893870
  54.2321630  11.2292993  54.8714774  55.3374990  12.2035765  54.5237761
  49.4344897  13.5452417  49.7154548  49.9852322  13.4169480  48.9431542
  48.5956373  13.8447306  49.3649441  56.7739014  12.2959415  53.2175271
  56.7557489  13.1168296  52.7255540  57.6958934  12.1713490  53.4425412
  53.2312068   9.8103544  54.0598779  53.7640405   9.0491833  53.8298087
  52.7026149   9.5177196  54.8022934  44.4667614   7.2397141  42.4081023
  45.3042836   7.6494149  42.1914731  44.6445881   6.2996583  42.3781217
  56.3632046   4.9072221  38.0964856  55.8478669   5.6776826  38.3353244
  56.0909354   4.2337358  38.7197918  53.9479157  -0.2478078  43.1550095
  53.0920753  -0.6371227  42.9755733  54.3606109  -0.1686117  42.2949880
  55.4778304  -2.7131735  47.5541654  54.9743099  -2.7501599  46.7409460
  55.7708910  -1.8038992  47.6138311  51.7221189  -2.6293005  46.5607836
  52.5874186  -2.8250196  46.2013726  51.7898698  -2.8582653  47.4877193
  61.3366320   7.6604576  40.0318030  60.5595763   7.3215736  39.5873192
  62.0157801   7.6657199  39.3572995  56.1518349   2.7799314  39.9224638
  55.8468485   3.0945463  40.7734781  57.1048791   2.8580733  39.9651971
  54.5964781   8.9389537  41.5717591  54.0686142   8.2042296  41.2590829
  54.0952284   9.7164213  41.3257560  59.5757627   7.1338557  46.6884638
  58.9181301   7.8237819  46.7764766  60.3798026   7.5234989  47.0318624
  49.3283508  -0.3990797  43.9324203  49.9027260  -0.6215615  43.1997396
  49.9154491  -0.3302102  44.6852804  58.3863086   5.4882930  44.7388580
  58.8994967   6.1212922  45.2410289  59.0364310   4.8884126  44.3731940
  49.6553096   1.6313664  37.9520088  48.8190408   1.9688351  38.2729363
  49.5157865   1.4962644  37.0147225  51.6306176  -3.5249548  42.6599272
  50.9770589  -3.8400531  42.0355887  51.5886650  -4.1473808  43.3859095
  52.7417381   6.7569747  34.5752565  51.8344443   6.5259001  34.7743713
  53.2388413   5.9607366  34.7626546  55.6485460  15.4667254  37.4949251
  54.9747159  15.7698951  38.1034209  56.0351282  16.2696335  37.1454708
  54.8643917   2.9632386  46.9846920  53.9466478   3.1847333  46.8268608
  55.2804060   3.0378696  46.1258627  55.6478964   4.3623801  42.1149600
  56.3950783   4.8745198  41.8056722  55.9170554   4.0407854  42.9753994
  53.9205614   6.8582342  39.0976555  53.0116834   6.5741375  39.1949024
  53.9500698   7.2781421  38.2379861  59.1524882  10.4688931  42.8667722
  58.6987209   9.6279841  42.9232913  58.5218849  11.1050330  43.2042502
  58.0957801   1.3980917  44.0968390  57.3580558   0.8858304  44.4278632
  58.3484575   0.9581299  43.2851666  57.5957821  12.3065428  43.8017540
  57.8880796  12.8670485  43.0829906  58.1056442  12.5993989  44.5570699
  44.4893785   4.5787856  43.0791757  44.2918185   3.9857217  42.3542823
  43.9340449   4.2740066  43.7967696  52.4690509   4.4710963  45.1986350
  52.5239118   3.5184799  45.1228827  51.6581711   4.6270402  45.6827648
  53.6181702   8.3991086  36.4364633  53.1801132   7.6826945  35.9770271
  54.3592143   8.6267200  35.8749725  50.4082868   3.0888022  42.9576729
  49.5950734   3.3882193  43.3641921  50.9041863   2.6943711  43.6751211
  52.5591446  13.0845779  44.8910994  52.5167625  13.3106626  43.9619526
  53.4754145  12.8509154  45.0396795  56.0057080   3.5529847  51.7891623
  56.3606468   3.7801320  52.6486088  56.6529211   3.8848224  51.1668878
  61.7354817   6.6748283  42.4940952  61.5972716   6.8649879  41.5662141
  61.3791036   7.4367665  42.9509003  49.8996943   0.6606378  48.5737964
  50.5396323   0.5195137  47.8760927  49.0674474   0.3740891  48.1976566
  61.7624197   8.7424810  47.5052223  62.1960703   8.6500099  48.3535277
  62.4755777   8.7182310  46.8672239  50.6757247   9.9608808  44.6872956
  51.4697846   9.4659128  44.4855531  49.9648939   9.4326671  44.3240662
  55.4952092  12.3426904  49.0385324  55.5489114  12.9117840  49.8063040
  54.6266873  12.5128789  48.6739361  46.9840011   4.1051890  40.7632709
  46.0537599   4.0436345  40.9802671  47.0797483   3.5827843  39.9669350
  46.9025560   0.6306703  43.3510951  47.1632377   1.5452036  43.2420111
  47.7242732   0.1631145  43.5007563  48.3750485   2.0444460  50.5209775
  49.0473538   1.8361822  49.8722424  47.5480271   1.8466546  50.0815007
  62.6239746   8.7848510  50.0385109  62.8175636   9.6894321  50.2844384
  62.5240364   8.3255929  50.8723694  54.2776057  -1.3293599  52.5375436
  53.6303972  -0.6303649  52.4439912  55.0477072  -0.8957455  52.9051684
  57.6854855   8.9355253  55.6125989  57.5340361   8.7065805  54.6956073
  57.6759534   9.8925854  55.6257334  54.4540191   6.5087166  50.5972256
  55.3832251   6.6598325  50.4241223  54.0331221   6.5971187  49.7420902
  53.2528523  10.5337830  48.3670793  53.1139609  10.1656615  49.2396731
  52.4643119  11.0485470  48.1954751  53.8476675  15.6346927  39.7096330
  54.0228431  15.1634970  40.5241953  53.1609463  16.2612693  39.9377591
  54.8033738   9.9119433  45.7559631  54.4683571   9.8720203  46.6517281
  54.3037684   9.2464149  45.2830041  48.7777982   5.3187063  51.2812212
  48.6397780   4.5867302  51.8823751  49.6882906   5.2295963  50.9996400
  57.7392930   7.2575467  36.0296691  57.1222101   6.5322295  35.9329743
  57.2709418   8.0184828  35.6863765  51.4060283   5.0307022  50.7695892
  52.1159901   4.3900214  50.7282510  51.3629591   5.2819917  51.6922073
  59.3947062  11.9674376  53.6902471  59.3359608  11.2833596  53.0233054
  59.7966580  12.7093366  53.2383097  50.1189217   2.0172240  52.5891531
  49.5826574   1.5662979  53.2413128  49.5305925   2.1518149  51.8461996
  48.4137760  18.7836289  46.4836190  48.6534359  19.4154814  47.1615209
  47.5706957  18.4324329  46.7701549  49.5291476   1.4760892  35.1517995
  48.6520942   1.3549692  34.7880242  50.0049229   0.6846970  34.8996884
  59.3964469   9.9313960  51.9216451  58.5091248   9.5939881  52.0442850
  59.9663020   9.1996991  52.1585216  41.0493616   6.2638051  45.2459502
  41.7364656   5.9499781  44.6580518  40.8941745   7.1679416  44.9726754
  45.8528338   1.1528248  49.6744526  45.7686527   0.5453917  48.9394936
  45.0311044   1.6437266  49.6754022  52.9265622  14.5915412  48.8877694
  52.8535794  15.3970383  49.3996999  52.4843015  14.7907378  48.0625715
  52.7155402  13.8287182  42.3980516  51.9322924  14.3708862  42.4918740
  53.4148147  14.3461162  42.7974757  56.0252052  -0.3618189  45.0414721
  56.5220751  -1.1148226  44.7215791  55.2539033  -0.3253872  44.4757930
  63.8781809   5.3422177  46.6833012  63.8671686   6.2246892  46.3126946
  63.0099189   4.9893728  46.4887550  55.3864306  14.4902246  51.0435853
  56.0992278  15.1249711  50.9711754  54.8954334  14.5866112  50.2275855
  57.1081833   8.3953499  42.6153144  56.1738111   8.5154961  42.4457849
  57.2858501   7.4925965  42.3513154  52.6087021   1.7799194  44.7686406
  52.2384808   1.2270235  45.4567311  53.1046113   1.1757328  44.2161406
  60.4954384   4.2370818  43.1503178  60.9614836   5.0698809  43.0763481
  60.9461884   3.7715799  43.8548437  50.4376219  12.2396689  51.8641424
  51.1385679  12.8733172  52.0170818  49.9671334  12.5811421  51.1037063
  58.5630615  10.5814639  40.1489331  58.8390459  10.4671234  41.0583205
  57.6935114  10.1832124  40.1101504  58.2377505   4.7941297  49.6893974
  57.5848955   5.0417204  49.0346427  58.6157885   3.9805435  49.3556451
  55.1984679  14.8300990  43.7922144  55.3807074  14.0122646  44.2549896
  56.0217665  15.0468682  43.3547034  55.5326845  13.7569175  41.0537193
  56.0614611  13.2461630  40.4407355  55.7955064  13.4411705  41.9182726
  54.2865078   5.5361108  56.1760011  53.6105715   5.4355237  56.8462386
  55.1092712   5.3800322  56.6396008  46.0343937  11.7733044  48.7972526
  46.6197374  11.0276732  48.9300430  45.8368776  12.0837001  49.6809190
  48.8882593  14.8084292  43.8134969  48.2192968  15.2930419  43.3299009
  48.7495462  15.0553512  44.7278347  40.6261592   4.3438645  47.5176969
  40.6645692   3.8102235  48.3114087  40.1201885   3.8173850  46.8987947
  53.0287861  16.8428035  50.4117627  53.5806169  17.0059657  51.1766712
  53.3694055  17.4332473  49.7397652  48.0052354  -0.8096815  51.0139512
  48.0693681   0.0518016  50.6016909  47.9419475  -1.4222813  50.2811870
  47.4804627   1.2626318  54.6612546  48.1076666   0.8803395  55.2750070
  46.6232546   1.0440520  55.0268238  57.8798735  11.6689293  56.2666281
  58.4238639  12.2819251  55.7721236  57.2985580  12.2268871  56.7833294
  44.2570170   3.0702747  40.5930901  44.5523611   2.1613425  40.5397954
  43.3558205   3.0490486  40.2711903  56.1656248  14.7910011  47.3981309
  56.0407388  13.9899751  46.8892255  56.8235340  15.2856204  46.9095279
  47.7864417   1.1458743  46.5758449  47.0651002   1.7594711  46.4365923
  48.5757672   1.6816508  46.4975095  58.2291157  12.5919031  49.0260859
  57.2821492  12.4724382  48.9539186  58.5773930  11.7041529  49.1087121
  50.5890730  -1.5186830  52.8499101  51.1125132  -1.2724534  53.6125410
  50.3703063  -0.6866795  52.4302238  45.9858011   0.7516844  40.7170226
  45.6570717  -0.1285777  40.5345332  46.3397382   0.6964513  41.6046615
  55.2337590  12.3871747  45.2265211  55.0862553  11.4588455  45.4072781
  56.0591084  12.4091838  44.7422287  49.0999834   1.0389814  41.0845704
  49.4395907   1.5675736  40.3624312  49.5471955   1.3770220  41.8604270
  58.8371712  13.2100306  46.3130084  59.7618259  13.0043167  46.1754535
  58.6687015  12.9616707  47.2219426  51.7943275  -0.5773135  50.5348772
  51.4540096  -1.3765322  50.9369451  51.0882281  -0.2771424  49.9625605
  52.4459747  -3.4923823  48.9876095  53.2685816  -3.9663344  48.8654985
  52.6897811  -2.7133339  49.4874781  51.0867982  -0.4635564  39.2838996
  51.8076344  -0.0854311  38.7802713  50.4633286   0.2553313  39.3873974
  55.2299104   0.2409585  40.2197329  55.4462719   1.1234223  39.9186157
  54.7493172  -0.1504202  39.4902971  49.9698326   3.1995298  46.7968073
  49.8242907   3.5135601  47.6892355  49.4923529   3.8180198  46.2438972
  51.8294709   0.1897846  46.8448963  51.8156277  -0.7061061  46.5081261
  52.5467137   0.1968510  47.4787249  53.6820839   0.6235186  48.8902090
  53.4238617   1.5452257  48.8886421  53.1505880   0.2265621  49.5802554
  58.6267028  13.7285973  41.6692176  58.8003906  13.1632396  40.9166028
  59.1195919  14.5286868  41.4871666  44.4443988   5.7400642  49.7355734
  43.8997456   6.5160450  49.8676009  45.3223338   6.0871447  49.5774856
  51.2331605  -0.9287774  42.1136533  51.3547516  -1.8571128  42.3127420
  50.9433647  -0.9149088  41.2014848  54.1022795  -3.2432863  45.2503253
  54.1244492  -3.1793530  44.2955232  54.5190854  -4.0828355  45.4443759
  64.4806419   6.4922396  43.2882475  64.9237565   5.7429722  42.8901599
  63.6032930   6.4832533  42.9056207  59.6142201  13.0452738  38.7689074
  60.3093105  13.6659430  38.9876389  59.9565351  12.1948089  39.0441452
  45.2310010   4.8670539  52.6285891  44.4891746   5.0153174  53.2150522
  44.9102754   5.1278804  51.7652641  61.5133624  10.4952443  40.2976405
  62.0384948  10.8339716  39.5725725  61.4255976   9.5599459  40.1139539
  53.1753672  14.4086517  52.4266281  53.4840799  14.1635664  53.2988981
  53.9729154  14.6133155  51.9385152  53.1974285  16.5624427  44.6571658
  52.7579275  16.0700805  45.3504515  53.9482401  16.0197394  44.4163733
  45.6766623  12.7535967  44.6596286  46.5024643  12.4539739  44.2794929
  45.3260675  11.9843590  45.1086075  50.6448157  12.1062436  46.7293960
  50.0228166  11.4433141  46.4296187  51.3153024  12.1323568  46.0467607
  43.8775229  10.6722294  45.6185220  43.0407137  10.2444468  45.4369221
  43.8498874  10.8654737  46.5556011  50.7172684   0.5844224  56.3226466
  50.7660840   1.4606346  55.9404235  51.2595198   0.0421617  55.7498109
  61.2027530  11.1285347  55.6027603  60.4123074  11.1109486  55.0632102
  60.9660884  11.6673641  56.3576639  61.3225405   7.9777813  52.9160331
  61.3723410   7.8127821  53.8575854  61.2139328   7.1105072  52.5258212
  50.2061664  10.6566359  40.2052420  50.3549784  11.3401823  39.5519093
  51.0128107  10.6371449  40.7201876  58.6129167   3.9608741  54.2319638
  59.5139030   3.8215206  53.9403636  58.6877142   4.1263196  55.1717815
  52.9471973   1.3375596  53.0772824  52.0775282   1.6309162  52.8055413
  53.1831453   1.9216041  53.7980088  62.8243602  10.3974755  53.1602353
  62.5328410  10.7604735  53.9965814  62.2115733   9.6841763  52.9815685
  64.0239284   7.9627635  45.6804923  64.8586175   8.4017439  45.8442483
  64.1598413   7.4866288  44.8613169  61.0730790   5.5207369  51.6282411
  61.5484912   5.7135016  50.8201262  60.1496355   5.5766555  51.3825794
  47.9614297   6.6831537  41.2113489  47.7160338   5.7793867  41.4093699
  48.1310211   6.6848687  40.2692967  55.6511006  -2.4444787  50.5938245
  56.1692950  -1.7083760  50.2684733  55.2966139  -2.1380794  51.4285004
  47.2309944   2.4159894  38.7099650  46.5379189   2.4904249  38.0539686
  46.9861696   1.6520238  39.2321167  53.7057069  13.1514489  37.6764167
  53.1331036  13.7704677  37.2234639  54.2789863  13.7013851  38.2104089
  59.7732459   2.3973130  49.8610716  60.7249882   2.4971227  49.8822940
  59.6035909   1.6051398  50.3708801  57.7946838  -0.5171287  50.0470117
  57.1996771  -0.2366275  49.3516606  57.5096535  -0.0277386  50.8186858
  56.9254329  13.4351640  38.8072750  57.8585002  13.3697201  39.0105625
  56.8377542  14.2707906  38.3487282  59.5542346  12.7517510  35.7676697
  59.4755977  12.4177374  36.6612455  60.3752012  13.2439278  35.7668170
  62.2520537   5.6179249  48.9753016  62.2196857   4.6795250  49.1612700
  62.8621160   5.6963286  48.2418841  54.0903868   4.4875302  35.0180220
  55.0362972   4.3581510  35.0868638  53.7118113   3.7489964  35.4949648
  62.4015025   2.4090293  49.0211299  61.8854074   1.6248749  48.8341228
  63.2854974   2.0809009  49.1857819  68.0697087   6.6795256  48.1159053
  68.8000475   6.4180544  48.6766756  67.4604032   5.9423978  48.1561121
  66.1512384   4.8203119  48.7133504  65.4245547   4.6859084  48.1049996
  65.7359671   5.1279947  49.5190222  53.9742560   8.5393048  56.4780877
  54.8945570   8.7171647  56.6720923  53.9392143   7.5949094  56.3260576
  52.2746785   2.4125279  34.9535105  51.3678240   2.1158391  35.0297819
  52.5522766   2.1155097  34.0869391  43.1924725   3.7331642  45.4034152
  42.8727509   2.8796950  45.1108526  42.6458153   3.9480220  46.1592119
  46.9704633   6.4494083  49.1203658  47.1890642   7.3811191  49.1391692
  47.3830406   6.0902057  49.9058462  53.8908850  -3.0437832  41.1079347
  53.0809579  -3.3890747  41.4834593  54.5793267  -3.3530288  41.6966958
  51.8432498   2.0227289  58.5106407  51.7429225   2.9721646  58.4418498
  51.6254040   1.6945528  57.6382477  51.0445569  -0.7287786  35.0947084
  51.9064733  -0.4032888  35.3542902  51.2295914  -1.5156290  34.5820150
  43.0612985   7.3534553  47.3727273  42.3676457   6.9388506  46.8597228
  43.8085976   7.3955090  46.7760692  59.1978206  -1.8559260  42.2382307
  58.6176875  -1.1974456  41.8560360  58.9314139  -2.6781915  41.8269725
  57.6481772  -2.4554202  44.4403628  58.1481551  -2.3437667  43.6317947
  58.2917380  -2.7593149  45.0804436  51.7063768   5.4524428  57.3271469
  51.2230850   6.2524788  57.5335358  51.7924707   5.4632372  56.3738913
  44.9749728   7.2852807  45.2493288  44.9520416   7.3840495  44.2975171
  45.2850364   8.1317958  45.5710454  47.6337106   9.3428962  49.3639902
  48.5880359   9.3112905  49.2969834  47.4349629   8.8819586  50.1790128
  48.2236488   7.9130078  51.9310700  49.0429377   8.4074157  51.9545537
  48.4973295   6.9962046  51.9028268  57.9803084   0.3040831  41.2938656
  57.0928939   0.5890481  41.0758850  58.3957073   0.1434594  40.4465933
  61.3317620   0.3287352  45.0092995  62.1078010   0.8183804  45.2817612
  60.6065754   0.7545406  45.4664864  63.7690179   1.0414971  46.0666936
  64.3634669   0.8010707  45.3560244  63.8416762   0.3222101  46.6940472
  45.9887334  14.8848582  46.3810100  45.8541802  14.1248983  45.8148098
  45.5719397  15.6089482  45.9138889  57.1246297  10.0685505  35.3886676
  57.8282147  10.2735508  36.0044331  56.4008946  10.6362267  35.6535759
  57.9544108   5.8195367  41.5088946  57.8979309   6.2763918  40.6696578
  58.5072450   5.0586051  41.3311789  61.7648914   1.6085098  42.3339065
  61.5085848   1.2081734  43.1647273  61.1401782   2.3228892  42.2089204
  66.0761251   4.3481172  44.8410357  65.5160809   4.4174361  45.6141919
  65.4704755   4.1722156  44.1209853  49.1456460  15.7817899  46.5928543
  49.0288844  16.7263331  46.4907233  48.3248906  15.4791460  46.9814342
  59.0332995  10.5068035  37.4385136  59.8678599  10.0749233  37.2562610
  58.8717338  10.3350048  38.3662030  58.6878887   7.0100148  38.8041475
  58.6327691   6.8444419  37.8629919  58.0624942   7.7176181  38.9603665
  43.4771402   2.2468212  52.6302897  44.1230266   1.7367166  53.1190122
  43.2688553   2.9836894  53.2046322  56.0024794   9.3149060  58.1295038
  56.8715954   9.4889712  57.7681673  55.5231546  10.1343477  58.0070767
  51.9975012  -3.4891743  38.3826793  51.9853682  -2.5449903  38.5395064
  52.8898434  -3.6721598  38.0886255  50.1710974  16.4346161  49.8084471
  51.0738221  16.4669771  50.1250966  49.9448344  15.5046612  49.8230807
  51.9264576  15.1877147  46.4694550  50.9760207  15.1879009  46.3558922
  52.2297062  14.4409882  45.9530585  47.8168893  -0.6064171  56.7277911
  48.6800354  -0.9627366  56.9381236  47.2434304  -0.9450276  57.4153316
  67.6617270  21.0237686  47.5340312  68.2995680  20.9044433  46.8303653
  67.5438113  21.9718530  47.5928265  64.4706976  20.9765114  47.4701837
  64.1325488  20.8606178  46.5822372  65.3396744  20.5756279  47.4502843
  60.3293792  22.8300590  43.4598728  59.7658657  22.7390527  42.6915016
  60.2146187  22.0100495  43.9401221  64.9526759  22.1299965  53.4288043
  64.9415400  21.7352764  52.5568546  65.1147399  21.3966038  54.0221814
  57.8758224  24.3251782  46.2982949  58.6679516  23.9842606  45.8829248
  58.1154874  24.4346757  47.2185102  65.9093351  26.4971558  38.7713193
  65.2581330  27.0825638  38.3847207  66.7037713  27.0277753  38.8308230
  59.8348978  23.5860695  39.1700327  60.6079854  23.0389682  39.0313203
  60.1874377  24.4504944  39.3814789  61.6734020  24.9137077  52.3767227
  61.3823886  25.8182708  52.2613893  62.3091005  24.9553605  53.0911296
  62.5990227  22.2913926  48.9668586  63.1953799  22.0669948  48.2525549
  62.6565199  21.5498671  49.5694034  62.1715255  19.7453361  36.8018777
  62.4240776  19.2234882  36.0402240  61.2339815  19.5819507  36.9045461
  67.2158538  18.7489139  44.6093520  68.0021628  18.3308563  44.2583938
  67.4797243  19.6535232  44.7775169  67.3868616  24.1861990  39.3082177
  66.7514449  24.2596616  40.0203082  67.0566022  24.7755589  38.6301257
  72.6166965  18.6864373  45.5126499  73.3492137  18.1163589  45.7464328
  71.8606321  18.2985973  45.9533005  61.8911544  21.6481467  39.0043152
  61.7747802  20.9726370  39.6724237  62.0013804  21.1613841  38.1875305
  64.2343085  21.1091614  42.7089841  63.8701292  20.5822235  43.4202763
  65.0910201  20.7190083  42.5356327  70.1392386  12.3985947  49.9721108
  69.8075711  13.2681358  49.7482323  69.5437999  12.0822231  50.6515138
  63.8748572  16.1381514  37.7051190  64.0422974  17.0061750  38.0721661
  63.6845741  16.3008796  36.7812479  66.6323905  24.5998493  49.3717020
  66.3324628  25.5023532  49.2632828  66.2874965  24.3330676  50.2238173
  60.0836387  21.0512290  45.4053725  59.1586883  20.9188504  45.6131417
  60.3320800  21.8306509  45.9023667  70.0321049  17.1181033  47.0514458
  69.1237926  17.0496441  46.7573219  69.9808645  17.5952978  47.8796283
  63.8537793  18.5939171  38.6897857  63.7337418  19.0396222  39.5283337
  63.1590381  18.9424489  38.1311395  57.4445198  20.6945563  46.2397514
  57.5737579  20.9480042  47.1536926  56.7642649  21.2873271  45.9202169
  61.6144685  31.3642813  42.3387988  61.5368715  32.3150638  42.4176469
  61.0106329  31.0188686  42.9962914  64.1061915  18.5370679  54.9949355
  63.3295249  19.0964599  54.9852220  64.7452478  19.0227462  55.5164225
  71.8982696  15.3197471  48.8292332  71.2557076  15.6130005  48.1832126
  71.3937624  15.2050392  49.6345528  69.5522859  19.0660645  39.5178191
  70.4640715  19.2988031  39.3425888  69.0432506  19.6497689  38.9553269
  62.3608287  21.3456132  54.5567322  63.1022972  21.8841176  54.2802146
  61.6545273  21.9722421  54.7138874  67.8363627  23.4885272  53.1539483
  68.2446983  23.0467683  52.4094116  67.1140888  22.9137900  53.4073676
  64.1894697  18.4257879  50.5273040  65.0355892  18.8497293  50.6707689
  64.1293335  17.7691503  51.2211603  68.1592441  24.0486463  46.9091772
  67.5301304  24.2132177  46.2067840  67.7718104  24.4628073  47.6802736
  72.0381673  24.9840901  44.2636136  71.3532712  25.3639802  43.7133169
  72.1225523  25.5936228  44.9968084  67.3394142  16.0862248  52.1854214
  67.0955074  16.8404308  51.6488490  67.6154073  16.4647595  53.0201461
  69.2932605  22.6300860  50.8631480  69.5049500  23.2732620  50.1865861
  69.2462353  21.7963176  50.3953410  66.8958834  15.2418681  47.7668052
  66.0343313  15.5399934  48.0584789  66.9221269  15.4589079  46.8349084
  63.7120403  23.7860871  44.1741857  64.1758749  24.0648574  43.3846480
  63.4477201  22.8844316  43.9914948  60.6044484  23.3332353  47.1121621
  61.1745841  23.7619621  46.4739105  61.1952596  23.0514937  47.8105806
  62.6489289  19.9084023  40.9831423  63.3513333  20.3605067  41.4505349
  62.3169918  19.2667842  41.6111316  61.0969651  18.4995780  55.3582632
  60.4668312  19.1812061  55.5918029  60.9905739  18.3878862  54.4135770
  56.3914623  18.1667576  46.2848556  55.6013677  18.4225105  45.8088667
  56.8825871  18.9815914  46.3900597  70.4078433  25.5072815  49.0353837
  71.2295877  25.1053003  48.7536519  70.4040836  25.4041049  49.9869953
  58.3429369  18.5312155  43.2432033  57.5460532  18.6430850  43.7615528
  58.1154961  18.8698808  42.3772923  64.1735036  25.0556859  51.1914547
  64.2379469  25.5177266  52.0272719  63.4645960  24.4254224  51.3196857
  54.6752326  18.4198067  48.7163547  54.9260365  19.3045076  48.9821123
  55.2111875  18.2402668  47.9438639  78.4984426  21.8511564  45.3838808
  77.7448134  21.2818962  45.2282813  78.6331967  21.8174228  46.3309443
  63.8883054  26.7224966  41.0593528  63.7528729  27.5676502  41.4878376
  64.4292867  26.9244244  40.2959462  60.3750394  12.8016546  57.7207883
  59.9817339  12.2482744  58.3955527  61.1916534  13.1127124  58.1114401
  57.3412451  24.2400404  41.6321453  57.8536972  25.0343654  41.7827018
  57.9935164  23.5426695  41.5655054  59.1507336  27.3566160  43.7144206
  59.3273964  28.2784125  43.5265190  59.9464170  27.0424580  44.1438586
  63.2918355  14.2174425  55.3128140  64.0328068  14.8181578  55.2332602
  63.5236277  13.4752063  54.7546182  58.4359693  19.4030792  53.5906369
  58.3213208  18.5016050  53.8913468  57.5804210  19.6494489  53.2391186
  65.5151530  27.3448533  55.1893870  65.0715385  26.5584911  54.8714774
  66.1768744  27.5327683  54.5237761  60.2738652  28.8744334  49.7154548
  60.8246077  28.7461398  48.9431542  59.4350127  29.1739223  49.3649441
  67.6132768  27.6251333  53.2175271  67.5951244  28.4460214  52.7255540
  68.5352689  27.5005408  53.4425412  64.0705823  25.1395462  54.0598779
  64.6034159  24.3783750  53.8298087  63.5419904  24.8469114  54.8022934
  67.2375518  10.2455528  49.5892421  66.8939787  11.1357170  49.5131532
  67.6054480  10.0557186  48.7262006  55.3061368  22.5689058  42.4081023
  56.1436590  22.9786067  42.1914731  55.4839636  21.6288501  42.3781217
  67.2025800  20.2364139  38.0964856  66.6872424  21.0068744  38.3353244
  66.9303109  19.5629275  38.7197918  64.7872911  15.0813840  43.1550095
  63.9314508  14.6920690  42.9755733  65.1999863  15.1605801  42.2949880
  66.3172058  12.6160183  47.5541654  65.8136854  12.5790318  46.7409460
  66.6102665  13.5252926  47.6138311  62.5614944  12.6998913  46.5607836
  63.4267941  12.5041722  46.2013726  62.6292453  12.4709265  47.4877193
  72.1760074  22.9896494  40.0318030  71.3989517  22.6507653  39.5873192
  72.8551555  22.9949117  39.3572995  66.9912103  18.1091231  39.9224638
  66.6862239  18.4237380  40.7734781  67.9442546  18.1872651  39.9651971
  65.4358535  24.2681454  41.5717591  64.9079897  23.5334214  41.2590829
  64.9346038  25.0456131  41.3257560  70.4151381  22.4630475  46.6884638
  69.7575056  23.1529736  46.7764766  71.2191781  22.8526907  47.0318624
  60.1677263  14.9301121  43.9324203  60.7421015  14.7076302  43.1997396
  60.7548245  14.9989815  44.6852804  69.2256840  20.8174848  44.7388580
  69.7388722  21.4504840  45.2410289  69.8758064  20.2176043  44.3731940
  60.4946850  16.9605582  37.9520088  59.6584162  17.2980268  38.2729363
  60.3551620  16.8254562  37.0147225  62.4699931  11.8042370  42.6599272
  61.8164343  11.4891387  42.0355887  62.4280405  11.1818110  43.3859095
  63.5811136  22.0861665  34.5752565  62.6738197  21.8550918  34.7743713
  64.0782168  21.2899284  34.7626546  66.4879214  30.7959172  37.4949251
  65.8140913  31.0990869  38.1034209  66.8745036  31.5988252  37.1454708
  65.7037671  18.2924303  46.9846920  64.7860232  18.5139250  46.8268608
  66.1197815  18.3670614  46.1258627  66.4872719  19.6915719  42.1149600
  67.2344538  20.2037116  41.8056722  66.7564308  19.3699772  42.9753994
  64.7599369  22.1874260  39.0976555  63.8510588  21.9033292  39.1949024
  64.7894453  22.6073338  38.2379861  69.9918636  25.7980849  42.8667722
  69.5380963  24.9571759  42.9232913  69.3612603  26.4342247  43.2042502
  68.9351556  16.7272835  44.0968390  68.1974313  16.2150221  44.4278632
  69.1878329  16.2873217  43.2851666  68.4351576  27.6357346  43.8017540
  68.7274550  28.1962403  43.0829906  68.9450196  27.9285907  44.5570699
  69.0363183   9.5049087  44.6910159  69.3422060   8.6446451  44.4036074
  69.7615788  10.0966707  44.4909153  55.3287539  19.9079774  43.0791757
  55.1311939  19.3149134  42.3542823  54.7734203  19.6031984  43.7967696
  63.3084263  19.8002880  45.1986350  63.3632873  18.8476717  45.1228827
  62.4975465  19.9562319  45.6827648  64.4575457  23.7283003  36.4364633
  64.0194887  23.0118862  35.9770271  65.1985898  23.9559118  35.8749725
  61.2476623  18.4179940  42.9576729  60.4344488  18.7174111  43.3641921
  61.7435617  18.0235629  43.6751211  63.3985201  28.4137697  44.8910994
  63.3561380  28.6398543  43.9619526  64.3147900  28.1801071  45.0396795
  66.8450835  18.8821764  51.7891623  67.2000222  19.1093238  52.6486088
  67.4922966  19.2140141  51.1668878  72.5748572  22.0040200  42.4940952
  72.4366470  22.1941796  41.5662141  72.2184790  22.7659583  42.9509003
  60.7390698  15.9898295  48.5737964  61.3790077  15.8487055  47.8760927
  59.9068228  15.7032809  48.1976566  72.6017951  24.0716727  47.5052223
  73.0354458  23.9792016  48.3535277  73.3149532  24.0474228  46.8672239
  61.5151002  25.2900726  44.6872956  62.3091600  24.7951046  44.4855531
  60.8042694  24.7618589  44.3240662  66.3345846  27.6718821  49.0385324
  66.3882868  28.2409758  49.8063040  65.4660627  27.8420706  48.6739361
  57.8233765  19.4343808  40.7632709  56.8931353  19.3728263  40.9802671
  57.9191237  18.9119760  39.9669350  57.7419314  15.9598620  43.3510951
  58.0026131  16.8743954  43.2420111  58.5636486  15.4923063  43.5007563
  59.2144239  17.3736378  50.5209775  59.8867293  17.1653740  49.8722424
  58.3874026  17.1758464  50.0815007  73.4633501  24.1140428  50.0385109
  73.6569391  25.0186238  50.2844384  73.3634119  23.6547847  50.8723694
  65.1169811  13.9998319  52.5375436  64.4697726  14.6988268  52.4439912
  65.8870827  14.4334462  52.9051684  68.5248609  24.2647171  55.6125989
  68.3734116  24.0357722  54.6956073  68.5153289  25.2217772  55.6257334
  65.2933946  21.8379083  50.5972256  66.2226006  21.9890243  50.4241223
  64.8724976  21.9263104  49.7420902  64.0922278  25.8629748  48.3670793
  63.9533363  25.4948532  49.2396731  63.3036874  26.3777387  48.1954751
  64.6870430  30.9638844  39.7096330  64.8622185  30.4926888  40.5241953
  64.0003218  31.5904611  39.9377591  65.6427493  25.2411351  45.7559631
  65.3077325  25.2012121  46.6517281  65.1431438  24.5756067  45.2830041
  59.6171737  20.6478981  51.2812212  59.4791535  19.9159219  51.8823751
  60.5276660  20.5587881  50.9996400  68.5786684  22.5867385  36.0296691
  67.9615855  21.8614213  35.9329743  68.1103173  23.3476745  35.6863765
  62.2454037  20.3598940  50.7695892  62.9553656  19.7192132  50.7282510
  62.2023346  20.6111835  51.6922073  70.2340816  27.2966293  53.6902471
  70.1753362  26.6125513  53.0233054  70.6360334  28.0385283  53.2383097
  60.9582971  17.3464158  52.5891531  60.4220328  16.8954896  53.2413128
  60.3699680  17.4810067  51.8461996  59.2531515  34.1128207  46.4836190
  59.4928113  34.7446731  47.1615209  58.4100711  33.7616247  46.7701549
  60.3685230  16.8052809  35.1517995  59.4914697  16.6841610  34.7880242
  60.8442983  16.0138888  34.8996884  70.2358223  25.2605877  51.9216451
  69.3485002  24.9231799  52.0442850  70.8056774  24.5288908  52.1585216
  51.8887370  21.5929969  45.2459502  52.5758410  21.2791699  44.6580518
  51.7335499  22.4971334  44.9726754  56.6922093  16.4820166  49.6744526
  56.6080281  15.8745835  48.9394936  55.8704799  16.9729184  49.6754022
  63.7659377  29.9207330  48.8877694  63.6929548  30.7262301  49.3996999
  63.3236770  30.1199295  48.0625715  63.5549156  29.1579100  42.3980516
  62.7716678  29.7000780  42.4918740  64.2541901  29.6753079  42.7974757
  66.8645806  14.9673729  45.0414721  67.3614506  14.2143691  44.7215791
  66.0932788  15.0038046  44.4757930  74.7175564  20.6714095  46.6833012
  74.7065440  21.5538810  46.3126946  73.8492943  20.3185645  46.4887550
  66.2258060  29.8194164  51.0435853  66.9386032  30.4541628  50.9711754
  65.7348089  29.9158030  50.2275855  67.9475587  23.7245416  42.6153144
  67.0131866  23.8446879  42.4457849  68.1252256  22.8217883  42.3513154
  63.4480775  17.1091112  44.7686406  63.0778563  16.5562152  45.4567311
  63.9439868  16.5049246  44.2161406  71.3348138  19.5662736  43.1503178
  71.8008591  20.3990727  43.0763481  71.7855639  19.1007717  43.8548437
  61.2769974  27.5688607  51.8641424  61.9779433  28.2025090  52.0170818
  60.8065089  27.9103339  51.1037063  69.4024370  25.9106557  40.1489331
  69.6784213  25.7963151  41.0583205  68.5328868  25.5124042  40.1101504
  69.3064801  11.9343323  47.1894080  68.3927881  12.1647549  47.3576287
  69.7357903  12.0181767  48.0408112  69.0771260  20.1233215  49.6893974
  68.4242710  20.3709122  49.0346427  69.4551640  19.3097353  49.3556451
  66.0378434  30.1592908  43.7922144  66.2200828  29.3414564  44.2549896
  66.8611420  30.3760600  43.3547034  66.3720599  29.0861093  41.0537193
  66.9008366  28.5753547  40.4407355  66.6348819  28.7703623  41.9182726
  65.1258833  20.8653026  56.1760011  64.4499470  20.7647155  56.8462386
  65.9486467  20.7092239  56.6396008  56.8737692  27.1024962  48.7972526
  57.4591129  26.3568650  48.9300430  56.6762530  27.4128919  49.6809190
  59.7276347  30.1376210  43.8134969  59.0586722  30.6222337  43.3299009
  59.5889217  30.3845430  44.7278347  51.4655347  19.6730562  47.5176969
  51.5039446  19.1394153  48.3114087  50.9595639  19.1465768  46.8987947
  63.8681616  32.1719953  50.4117627  64.4199924  32.3351575  51.1766712
  64.2087809  32.7624391  49.7397652  58.8446109  14.5195103  51.0139512
  58.9087435  15.3809934  50.6016909  58.7813229  13.9069104  50.2811870
  58.3198381  16.5918235  54.6612546  58.9470420  16.2095313  55.2750070
  57.4626300  16.3732437  55.0268238  68.7192490  26.9981211  56.2666281
  69.2632394  27.6111169  55.7721236  68.1379335  27.5560789  56.7833294
  55.0963924  18.3994664  40.5930901  55.3917365  17.4905343  40.5397954
  54.1951960  18.3782404  40.2711903  67.0050003  30.1201929  47.3981309
  66.8801142  29.3191668  46.8892255  67.6629094  30.6148122  46.9095279
  58.6258171  16.4750661  46.5758449  57.9044757  17.0886629  46.4365923
  59.4151427  17.0108426  46.4975095  69.0684911  27.9210949  49.0260859
  68.1215247  27.8016300  48.9539186  69.4167684  27.0333447  49.1087121
  61.4284485  13.8105088  52.8499101  61.9518886  14.0567384  53.6125410
  61.2096818  14.6425122  52.4302238  56.8251766  16.0808762  40.7170226
  56.4964472  15.2006141  40.5345332  57.1791136  16.0256431  41.6046615
  66.0731345  27.7163665  45.2265211  65.9256307  26.7880372  45.4072781
  66.8984838  27.7383756  44.7422287  59.9393589  16.3681732  41.0845704
  60.2789661  16.8967653  40.3624312  60.3865709  16.7062138  41.8604270
  69.6765466  28.5392224  46.3130084  70.6012014  28.3335085  46.1754535
  69.5080770  28.2908625  47.2219426  62.6337030  14.7518783  50.5348772
  62.2933850  13.9526596  50.9369451  61.9276036  15.0520494  49.9625605
  63.2853502  11.8368095  48.9876095  64.1079571  11.3628573  48.8654985
  63.5291565  12.6158579  49.4874781  61.9261736  14.8656354  39.2838996
  62.6470099  15.2437606  38.7802713  61.3027040  15.5845230  39.3873974
  66.0692859  15.5701503  40.2197329  66.2856473  16.4526140  39.9186157
  65.5886926  15.1787716  39.4902971  60.8092080  18.5287216  46.7968073
  60.6636661  18.8427519  47.6892355  60.3317284  19.1472116  46.2438972
  62.6688463  15.5189764  46.8448963  62.6550032  14.6230857  46.5081261
  63.3860891  15.5260427  47.4787249  64.5214594  15.9527104  48.8902090
  64.2632372  16.8744175  48.8886421  63.9899634  15.5557538  49.5802554
  69.4660783  29.0577891  41.6692176  69.6397660  28.4924314  40.9166028
  69.9589674  29.8578786  41.4871666  55.2837742  21.0692560  49.7355734
  54.7391211  21.8452368  49.8676009  56.1617092  21.4163365  49.5774856
  62.0725359  14.4004144  42.1136533  62.1941270  13.4720790  42.3127420
  61.7827401  14.4142830  41.2014848  64.9416549  12.0859054  45.2503253
  64.9638246  12.1498388  44.2955232  65.3584608  11.2463563  45.4443759
  75.3200174  21.8214314  43.2882475  75.7631320  21.0721639  42.8901599
  74.4426684  21.8124450  42.9056207  70.4535955  28.3744655  38.7689074
  71.1486860  28.9951348  38.9876389  70.7959105  27.5240007  39.0441452
  56.0703764  20.1962456  52.6285891  55.3285500  20.3445092  53.2150522
  55.7496509  20.4570722  51.7652641  72.3527378  25.8244361  40.2976405
  72.8778702  26.1631634  39.5725725  72.2649731  24.8891376  40.1139539
  64.0147427  29.7378435  52.4266281  64.3234553  29.4927581  53.2988981
  64.8122909  29.9425073  51.9385152  64.0368039  31.8916344  44.6571658
  63.5973029  31.3992723  45.3504515  64.7876156  31.3489312  44.4163733
  56.5160378  28.0827885  44.6596286  57.3418398  27.7831657  44.2794929
  56.1654430  27.3135508  45.1086075  61.4841911  27.4354353  46.7293960
  60.8621920  26.7725058  46.4296187  62.1546778  27.4615485  46.0467607
  54.7168983  26.0014212  45.6185220  53.8800891  25.5736386  45.4369221
  54.6892628  26.1946655  46.5556011  61.5566439  15.9136141  56.3226466
  61.6054594  16.7898264  55.9404235  62.0988953  15.3713534  55.7498109
  72.0421284  26.4577265  55.6027603  71.2516828  26.4401403  55.0632102
  71.8054639  26.9965558  56.3576639  72.1619159  23.3069731  52.9160331
  72.2117164  23.1419738  53.8575854  72.0533083  22.4396990  52.5258212
  61.0455418  25.9858277  40.2052420  61.1943538  26.6693741  39.5519093
  61.8521862  25.9663367  40.7201876  69.4522922  19.2900659  54.2319638
  70.3532785  19.1507124  53.9403636  69.5270896  19.4555114  55.1717815
  63.7865727  16.6667514  53.0772824  62.9169036  16.9601080  52.8055413
  64.0225207  17.2507959  53.7980088  73.6637356  25.7266673  53.1602353
  73.3722164  26.0896653  53.9965814  73.0509487  25.0133681  52.9815685
  74.8633039  23.2919552  45.6804923  75.6979930  23.7309356  45.8442483
  74.9992167  22.8158205  44.8613169  71.9124544  20.8499287  51.6282411
  72.3878666  21.0426933  50.8201262  70.9890110  20.9058473  51.3825794
  58.8008051  22.0123454  41.2113489  58.5554093  21.1085784  41.4093699
  58.9703966  22.0140605  40.2692967  66.4904761  12.8847131  50.5938245
  67.0086705  13.6208158  50.2684733  66.1359894  13.1911124  51.4285004
  58.0703699  17.7451812  38.7099650  57.3772944  17.8196167  38.0539686
  57.8255450  16.9812156  39.2321167  66.7417355   9.3047413  46.1139141
  67.0219109   8.6370602  46.7399568  67.5267962   9.4976509  45.6013805
  64.5450824  28.4806407  37.6764167  63.9724791  29.0996594  37.2234639
  65.1183617  29.0305769  38.2104089  70.6126213  17.7265047  49.8610716
  71.5643636  17.8263145  49.8822940  70.4429664  16.9343316  50.3708801
  68.6340593  14.8120630  50.0470117  68.0390525  15.0925643  49.3516606
  68.3490290  15.3014531  50.8186858  67.7648083  28.7643557  38.8072750
  68.6978757  28.6989119  39.0105625  67.6771296  29.5999824  38.3487282
  70.3936100  28.0809428  35.7676697  70.3149732  27.7469291  36.6612455
  71.2145767  28.5731196  35.7668170  73.0914291  20.9471167  48.9753016
  73.0590611  20.0087168  49.1612700  73.7014915  21.0255204  48.2418841
  64.9297622  19.8167220  35.0180220  65.8756727  19.6873428  35.0868638
  64.5511867  19.0781882  35.4949648  73.2408780  17.7382210  49.0211299
  72.7247828  16.9540667  48.8341228  74.1248728  17.4100927  49.1857819
  70.9019507  11.4823226  44.9807112  70.7044328  11.1738314  45.8650444
  71.5119212  12.2084865  45.1105042  78.9090841  22.0087174  48.1159053
  79.6394230  21.7472462  48.6766756  78.2997787  21.2715896  48.1561121
  76.9906138  20.1495036  48.7133504  76.2639302  20.0151001  48.1049996
  76.5753425  20.4571865  49.5190222  64.8136315  23.8684966  56.4780877
  65.7339324  24.0463565  56.6720923  64.7785898  22.9241011  56.3260576
  63.1140539  17.7417196  34.9535105  62.2071995  17.4450309  35.0297819
  63.3916520  17.4447014  34.0869391  54.0318480  19.0623560  45.4034152
  53.7121264  18.2088868  45.1108526  53.4851908  19.2772138  46.1592119
  57.8098387  21.7786001  49.1203658  58.0284397  22.7103108  49.1391692
  58.2224161  21.4193975  49.9058462  64.7302605  12.2854086  41.1079347
  63.9203333  11.9401171  41.4834593  65.4187022  11.9761630  41.6966958
  66.6593153  11.3632133  42.7303643  67.2124192  11.7827586  43.3893666
  66.8963240  10.4367881  42.7726599  62.6826252  17.3519206  58.5106407
  62.5822979  18.3013563  58.4418498  62.4647795  17.0237445  57.6382477
  61.8839324  14.6004131  35.0947084  62.7458488  14.9259030  35.3542902
  62.0689668  13.8135627  34.5820150  53.9006740  22.6826471  47.3727273
  53.2070211  22.2680424  46.8597228  54.6479731  22.7247008  46.7760692
  70.0371960  13.4732658  42.2382307  69.4570629  14.1317462  41.8560360
  69.7707893  12.6510003  41.8269725  68.4875527  12.8737716  44.4403628
  68.9875305  12.9854250  43.6317947  69.1311135  12.5698769  45.0804436
  62.5457523  20.7816345  57.3271469  62.0624604  21.5816705  57.5335358
  62.6318462  20.7924290  56.3738913  55.8143482  22.6144725  45.2493288
  55.7914170  22.7132412  44.2975171  56.1244119  23.4609876  45.5710454
  58.4730860  24.6720880  49.3639902  59.4274114  24.6404822  49.2969834
  58.2743384  24.2111504  50.1790128  59.0630242  23.2421996  51.9310700
  59.8823131  23.7366075  51.9545537  59.3367050  22.3253964  51.9028268
  68.8196838  15.6332748  41.2938656  67.9322693  15.9182399  41.0758850
  69.2350827  15.4726512  40.4465933  72.1711374  15.6579269  45.0092995
  72.9471765  16.1475722  45.2817612  71.4459509  16.0837324  45.4664864
  74.6083933  16.3706889  46.0666936  75.2028424  16.1302624  45.3560244
  74.6810517  15.6514019  46.6940472  56.8281089  30.2140499  46.3810100
  56.6935557  29.4540900  45.8148098  56.4113151  30.9381399  45.9138889
  67.9640052  25.3977423  35.3886676  68.6675902  25.6027426  36.0044331
  67.2402701  25.9654185  35.6535759  68.7937862  21.1487284  41.5088946
  68.7373063  21.6055836  40.6696578  69.3466205  20.3877969  41.3311789
  72.6042668  16.9377016  42.3339065  72.3479602  16.5373652  43.1647273
  71.9795536  17.6520810  42.2089204  76.9155006  19.6773089  44.8410357
  76.3554564  19.7466279  45.6141919  76.3098509  19.5014074  44.1209853
  59.9850215  31.1109816  46.5928543  59.8682599  32.0555249  46.4907233
  59.1642661  30.8083378  46.9814342  69.8726749  25.8359952  37.4385136
  70.7072353  25.4041151  37.2562610  69.7111092  25.6641966  38.3662030
  69.5272641  22.3392066  38.8041475  69.4721445  22.1736337  37.8629919
  68.9018697  23.0468098  38.9603665  54.3165156  17.5760130  52.6302897
  54.9624020  17.0659084  53.1190122  54.1082308  18.3128812  53.2046322
  66.8418549  24.6440977  58.1295038  67.7109708  24.8181630  57.7681673
  66.3625300  25.4635394  58.0070767  62.8368767  11.8400175  38.3826793
  62.8247437  12.7842014  38.5395064  63.7292189  11.6570320  38.0886255
  61.0104729  31.7638078  49.8084471  61.9131976  31.7961689  50.1250966
  60.7842099  30.8338529  49.8230807  62.7658331  30.5169065  46.4694550
  61.8153962  30.5170927  46.3558922  63.0690817  29.7701799  45.9530585
  66.6520886   8.4342951  42.6372730  65.8853282   7.8801438  42.7829413
  67.0631591   8.5064820  43.4986882  58.6562647  14.7227747  56.7277911
  59.5194109  14.3664552  56.9381236  58.0828058  14.3841642  57.4153316
  78.5011024  36.3529603  47.5340312  79.1389434  36.2336351  46.8303653
  78.3831867  37.3010447  47.5928265  75.3100731  36.3057031  47.4701837
  74.9719242  36.1898096  46.5822372  76.1790499  35.9048197  47.4502843
  71.1687546  38.1592508  43.4598728  70.6052411  38.0682445  42.6915016
  71.0539941  37.3392412  43.9401221  75.7920514  37.4591883  53.4288043
  75.7809154  37.0644681  52.5568546  75.9541153  36.7257956  54.0221814
  68.7151978  39.6543699  46.2982949  69.5073270  39.3134524  45.8829248
  68.9548628  39.7638674  47.2185102  76.7487105  41.8263476  38.7713193
  76.0975085  42.4117556  38.3847207  77.5431468  42.3569670  38.8308230
  70.6742732  38.9152613  39.1700327  71.4473608  38.3681600  39.0313203
  71.0268131  39.7796862  39.3814789  72.5127775  40.2428995  52.3767227
  72.2217641  41.1474626  52.2613893  73.1484759  40.2845523  53.0911296
  73.4383982  37.6205843  48.9668586  74.0347554  37.3961866  48.2525549
  73.4958953  36.8790589  49.5694034  73.0109010  35.0745279  36.8018777
  73.2634531  34.5526800  36.0402240  72.0733569  34.9111424  36.9045461
  78.0552293  34.0781057  44.6093520  78.8415382  33.6600480  44.2583938
  78.3190997  34.9827149  44.7775169  78.2262370  39.5153907  39.3082177
  77.5908203  39.5888534  40.0203082  77.8959777  40.1047506  38.6301257
  83.4560720  34.0156290  45.5126499  84.1885892  33.4455507  45.7464328
  82.7000076  33.6277891  45.9533005  72.7305299  36.9773385  39.0043152
  72.6141557  36.3018288  39.6724237  72.8407559  36.4905759  38.1875305
  75.0736840  36.4383532  42.7089841  74.7095047  35.9114153  43.4202763
  75.9303956  36.0482001  42.5356327  80.9786140  27.7277864  49.9721108
  80.6469465  28.5973275  49.7482323  80.3831754  27.4114148  50.6515138
  74.7142327  31.4673432  37.7051190  74.8816729  32.3353668  38.0721661
  74.5239496  31.6300713  36.7812479  77.4717660  39.9290410  49.3717020
  77.1718383  40.8315449  49.2632828  77.1268719  39.6622594  50.2238173
  70.9230141  36.3804207  45.4053725  69.9980638  36.2480421  45.6131417
  71.1714554  37.1598427  45.9023667  80.8714804  32.4472951  47.0514458
  79.9631681  32.3788359  46.7573219  80.8202399  32.9244896  47.8796283
  74.6931548  33.9231089  38.6897857  74.5731173  34.3688140  39.5283337
  73.9984136  34.2716407  38.1311395  68.2838952  36.0237481  46.2397514
  68.4131333  36.2771960  47.1536926  67.6036404  36.6165189  45.9202169
  72.4538440  46.6934731  42.3387988  72.3762469  47.6442556  42.4176469
  71.8500083  46.3480603  42.9962914  74.9455669  33.8662596  54.9949355
  74.1689003  34.4256516  54.9852220  75.5846232  34.3519379  55.5164225
  82.7376450  30.6489389  48.8292332  82.0950830  30.9421922  48.1832126
  82.2331379  30.5342309  49.6345528  80.3916614  34.3952562  39.5178191
  81.3034470  34.6279949  39.3425888  79.8826261  34.9789606  38.9553269
  73.2002042  36.6748050  54.5567322  73.9416726  37.2133094  54.2802146
  72.4939027  37.3014338  54.7138874  78.6757381  38.8177190  53.1539483
  79.0840737  38.3759601  52.4094116  77.9534643  38.2429818  53.4073676
  75.0288451  33.7549797  50.5273040  75.8749647  34.1789210  50.6707689
  74.9687089  33.0983421  51.2211603  78.9986196  39.3778381  46.9091772
  78.3695058  39.5424095  46.2067840  78.6111858  39.7919990  47.6802736
  82.8775428  40.3132819  44.2636136  82.1926466  40.6931720  43.7133169
  82.9619277  40.9228145  44.9968084  78.1787897  31.4154165  52.1854214
  77.9348829  32.1696226  51.6488490  78.4547827  31.7939513  53.0201461
  80.1326359  37.9592778  50.8631480  80.3443255  38.6024537  50.1865861
  80.0856108  37.1255094  50.3953410  77.7352588  30.5710598  47.7668052
  76.8737067  30.8691852  48.0584789  77.7615023  30.7880997  46.8349084
  74.5514158  39.1152789  44.1741857  75.0152503  39.3940492  43.3846480
  74.2870956  38.2136233  43.9914948  71.4438239  38.6624270  47.1121621
  72.0139596  39.0911539  46.4739105  72.0346351  38.3806855  47.8105806
  73.4883044  35.2375941  40.9831423  74.1907087  35.6896985  41.4505349
  73.1563672  34.5959760  41.6111316  71.9363405  33.8287698  55.3582632
  71.3062066  34.5103979  55.5918029  71.8299493  33.7170779  54.4135770
  67.2308378  33.4959494  46.2848556  66.4407432  33.7517022  45.8088667
  67.7219625  34.3107832  46.3900597  81.2472187  40.8364733  49.0353837
  82.0689631  40.4344920  48.7536519  81.2434590  40.7332967  49.9869953
  69.1823123  33.8604073  43.2432033  68.3854287  33.9722767  43.7615528
  68.9548715  34.1990725  42.3772923  75.0128791  40.3848776  51.1914547
  75.0773223  40.8469184  52.0272719  74.3039715  39.7546141  51.3196857
  65.5146081  33.7489984  48.7163547  65.7654119  34.6336994  48.9821123
  66.0505629  33.5694586  47.9438639  89.3378180  37.1803481  45.3838808
  88.5841889  36.6110880  45.2282813  89.4725722  37.1466146  46.3309443
  74.7276809  42.0516884  41.0593528  74.5922483  42.8968419  41.4878376
  75.2686621  42.2536161  40.2959462  71.2144148  28.1308464  57.7207883
  70.8211094  27.5774662  58.3955527  72.0310288  28.4419042  58.1114401
  68.1806206  39.5692322  41.6321453  68.6930726  40.3635572  41.7827018
  68.8328919  38.8718612  41.5655054  69.9901091  42.6858078  43.7144206
  70.1667719  43.6076043  43.5265190  70.7857924  42.3716497  44.1438586
  74.1312109  29.5466343  55.3128140  74.8721823  30.1473496  55.2332602
  74.3630032  28.8043981  54.7546182  69.2753447  34.7322710  53.5906369
  69.1606962  33.8307967  53.8913468  68.4197965  34.9786407  53.2391186
  76.3545285  42.6740450  55.1893870  75.9109139  41.8876829  54.8714774
  77.0162498  42.8619601  54.5237761  71.1132406  44.2036252  49.7154548
  71.6639831  44.0753315  48.9431542  70.2743882  44.5031141  49.3649441
  78.4526523  42.9543250  53.2175271  78.4344998  43.7752131  52.7255540
  79.3746443  42.8297325  53.4425412  74.9099577  40.4687380  54.0598779
  75.4427914  39.7075668  53.8298087  74.3813658  40.1761032  54.8022934
  78.0769272  25.5747446  49.5892421  77.7333541  26.4649087  49.5131532
  78.4448235  25.3849103  48.7262006  66.1455123  37.8980976  42.4081023
  66.9830345  38.3077984  42.1914731  66.3233390  36.9580418  42.3781217
  78.0419555  35.5656057  38.0964856  77.5266178  36.3360661  38.3353244
  77.7696863  34.8921193  38.7197918  75.6266666  30.4105758  43.1550095
  74.7708262  30.0212608  42.9755733  76.0393618  30.4897718  42.2949880
  77.1565812  27.9452101  47.5541654  76.6530608  27.9082236  46.7409460
  77.4496419  28.8544844  47.6138311  73.4008698  28.0290831  46.5607836
  74.2661695  27.8333639  46.2013726  73.4686207  27.8001182  47.4877193
  83.0153829  38.3188411  40.0318030  82.2383272  37.9799571  39.5873192
  83.6945310  38.3241035  39.3572995  77.8305858  33.4383149  39.9224638
  77.5255994  33.7529298  40.7734781  78.7836300  33.5164569  39.9651971
  76.2752290  39.5973372  41.5717591  75.7473651  38.8626132  41.2590829
  75.7739793  40.3748049  41.3257560  81.2545136  37.7922393  46.6884638
  80.5968810  38.4821654  46.7764766  82.0585535  38.1818825  47.0318624
  71.0071017  30.2593038  43.9324203  71.5814769  30.0368220  43.1997396
  71.5942000  30.3281733  44.6852804  80.0650595  36.1466765  44.7388580
  80.5782476  36.7796757  45.2410289  80.7151819  35.5467961  44.3731940
  71.3340605  32.2897499  37.9520088  70.4977917  32.6272186  38.2729363
  71.1945374  32.1546479  37.0147225  73.3093685  27.1334287  42.6599272
  72.6558097  26.8183305  42.0355887  73.2674159  26.5110028  43.3859095
  74.4204890  37.4153582  34.5752565  73.5131952  37.1842836  34.7743713
  74.9175922  36.6191202  34.7626546  77.3272969  46.1251090  37.4949251
  76.6534668  46.4282786  38.1034209  77.7138791  46.9280170  37.1454708
  76.5431426  33.6216221  46.9846920  75.6253987  33.8431168  46.8268608
  76.9591569  33.6962531  46.1258627  77.3266473  35.0207637  42.1149600
  78.0738292  35.5329034  41.8056722  77.5958063  34.6991689  42.9753994
  75.5993123  37.5166177  39.0976555  74.6904343  37.2325210  39.1949024
  75.6288207  37.9365256  38.2379861  80.8312391  41.1272767  42.8667722
  80.3774718  40.2863677  42.9232913  80.2006358  41.7634165  43.2042502
  79.7745310  32.0564753  44.0968390  79.0368067  31.5442139  44.4278632
  80.0272084  31.6165134  43.2851666  79.2745330  42.9649263  43.8017540
  79.5668304  43.5254321  43.0829906  79.7843951  43.2577824  44.5570699
  79.8756938  24.8341005  44.6910159  80.1815815  23.9738368  44.4036074
  80.6009543  25.4258625  44.4909153  66.1681294  35.2371691  43.0791757
  65.9705694  34.6441052  42.3542823  65.6127958  34.9323902  43.7967696
  74.1478017  35.1294798  45.1986350  74.2026627  34.1768634  45.1228827
  73.3369220  35.2854237  45.6827648  75.2969211  39.0574921  36.4364633
  74.8588641  38.3410780  35.9770271  76.0379652  39.2851036  35.8749725
  72.0870377  33.7471858  42.9576729  71.2738243  34.0466028  43.3641921
  72.5829372  33.3527546  43.6751211  74.2378955  43.7429615  44.8910994
  74.1955134  43.9690461  43.9619526  75.1541654  43.5092989  45.0396795
  77.6844589  34.2113682  51.7891623  78.0393977  34.4385155  52.6486088
  78.3316720  34.5432059  51.1668878  83.4142326  37.3332118  42.4940952
  83.2760225  37.5233714  41.5662141  83.0578545  38.0951501  42.9509003
  71.5784452  31.3190213  48.5737964  72.2183831  31.1778972  47.8760927
  70.7461983  31.0324727  48.1976566  83.4411706  39.4008645  47.5052223
  83.8748212  39.3083934  48.3535277  84.1543286  39.3766145  46.8672239
  72.3544756  40.6192644  44.6872956  73.1485355  40.1242964  44.4855531
  71.6436448  40.0910507  44.3240662  77.1739601  43.0010739  49.0385324
  77.2276623  43.5701675  49.8063040  76.3054382  43.1712624  48.6739361
  68.6627520  34.7635725  40.7632709  67.7325108  34.7020181  40.9802671
  68.7584992  34.2411678  39.9669350  68.5813069  31.2890538  43.3510951
  68.8419886  32.2035871  43.2420111  69.4030241  30.8214981  43.5007563
  70.0537994  32.7028295  50.5209775  70.7261047  32.4945657  49.8722424
  69.2267780  32.5050381  50.0815007  84.3027255  39.4432346  50.0385109
  84.4963145  40.3478156  50.2844384  84.2027873  38.9839765  50.8723694
  75.9563566  29.3290236  52.5375436  75.3091481  30.0280186  52.4439912
  76.7264581  29.7626380  52.9051684  79.3642364  39.5939088  55.6125989
  79.2127870  39.3649640  54.6956073  79.3547043  40.5509690  55.6257334
  76.1327700  37.1671001  50.5972256  77.0619760  37.3182161  50.4241223
  75.7118730  37.2555022  49.7420902  74.9316032  41.1921666  48.3670793
  74.7927118  40.8240450  49.2396731  74.1430628  41.7069305  48.1954751
  75.5264184  46.2930762  39.7096330  75.7015940  45.8218805  40.5241953
  74.8396972  46.9196528  39.9377591  76.4821247  40.5703268  45.7559631
  76.1471080  40.5304038  46.6517281  75.9825193  39.9047984  45.2830041
  70.4565491  35.9770898  51.2812212  70.3185289  35.2451137  51.8823751
  71.3670415  35.8879798  50.9996400  79.4180439  37.9159303  36.0296691
  78.8009610  37.1906131  35.9329743  78.9496927  38.6768663  35.6863765
  73.0847792  35.6890858  50.7695892  73.7947410  35.0484050  50.7282510
  73.0417100  35.9403752  51.6922073  81.0734571  42.6258211  53.6902471
  81.0147117  41.9417431  53.0233054  81.4754089  43.3677201  53.2383097
  71.7976726  32.6756076  52.5891531  71.2614083  32.2246814  53.2413128
  71.2093434  32.8101984  51.8461996  71.2078985  32.1344727  35.1517995
  70.3308451  32.0133528  34.7880242  71.6836738  31.3430805  34.8996884
  81.0751978  40.5897795  51.9216451  80.1878757  40.2523717  52.0442850
  81.6450529  39.8580826  52.1585216  62.7281125  36.9221887  45.2459502
  63.4152165  36.6083617  44.6580518  62.5729254  37.8263251  44.9726754
  67.5315847  31.8112083  49.6744526  67.4474036  31.2037753  48.9394936
  66.7098553  32.3021102  49.6754022  74.6053131  45.2499247  48.8877694
  74.5323303  46.0554219  49.3996999  74.1630524  45.4491213  48.0625715
  74.3942911  44.4871017  42.3980516  73.6110433  45.0292697  42.4918740
  75.0935656  45.0044997  42.7974757  77.7039561  30.2965647  45.0414721
  78.2008260  29.5435609  44.7215791  76.9326542  30.3329963  44.4757930
  85.5569318  36.0006012  46.6833012  85.5459195  36.8830728  46.3126946
  84.6886698  35.6477563  46.4887550  77.0651815  45.1486081  51.0435853
  77.7779787  45.7833546  50.9711754  76.5741843  45.2449947  50.2275855
  78.7869342  39.0537334  42.6153144  77.8525620  39.1738796  42.4457849
  78.9646010  38.1509801  42.3513154  74.2874530  32.4383030  44.7686406
  73.9172317  31.8854070  45.4567311  74.7833622  31.8341163  44.2161406
  82.1741893  34.8954653  43.1503178  82.6402345  35.7282645  43.0763481
  82.6249393  34.4299635  43.8548437  72.1163728  42.8980525  51.8641424
  72.8173188  43.5317008  52.0170818  71.6458843  43.2395256  51.1037063
  80.2418124  41.2398475  40.1489331  80.5177968  41.1255069  41.0583205
  79.3722623  40.8415959  40.1101504  80.1458556  27.2635240  47.1894080
  79.2321636  27.4939467  47.3576287  80.5751657  27.3473684  48.0408112
  79.9165014  35.4525132  49.6893974  79.2636464  35.7001040  49.0346427
  80.2945394  34.6389270  49.3556451  76.8772188  45.4884825  43.7922144
  77.0594583  44.6706481  44.2549896  77.7005174  45.7052518  43.3547034
  77.2114354  44.4153011  41.0537193  77.7402120  43.9045465  40.4407355
  77.4742573  44.0995541  41.9182726  75.9652587  36.1944943  56.1760011
  75.2893224  36.0939073  56.8462386  76.7880221  36.0384157  56.6396008
  70.5670102  45.4668127  43.8134969  69.8980477  45.9514255  43.3299009
  70.4282971  45.7137348  44.7278347  62.3049101  35.0022480  47.5176969
  62.3433201  34.4686071  48.3114087  61.7989394  34.4757686  46.8987947
  74.7075370  47.5011871  50.4117627  75.2593678  47.6643492  51.1766712
  75.0481564  48.0916309  49.7397652  69.6839863  29.8487021  51.0139512
  69.7481190  30.7101851  50.6016909  69.6206984  29.2361022  50.2811870
  69.1592136  31.9210153  54.6612546  69.7864175  31.5387230  55.2750070
  68.3020055  31.7024355  55.0268238  79.5586244  42.3273128  56.2666281
  80.1026148  42.9403086  55.7721236  78.9773089  42.8852707  56.7833294
  65.9357679  33.7286582  40.5930901  66.2311120  32.8197261  40.5397954
  65.0345714  33.7074322  40.2711903  77.8443757  45.4493846  47.3981309
  77.7194897  44.6483586  46.8892255  78.5022849  45.9440040  46.9095279
  69.4651926  31.8042579  46.5758449  68.7438511  32.4178546  46.4365923
  70.2545181  32.3400344  46.4975095  79.9078666  43.2502866  49.0260859
  78.9609001  43.1308218  48.9539186  80.2561439  42.3625364  49.1087121
  72.2678239  29.1397005  52.8499101  72.7912641  29.3859302  53.6125410
  72.0490572  29.9717040  52.4302238  67.6645520  31.4100680  40.7170226
  67.3358226  30.5298059  40.5345332  68.0184891  31.3548349  41.6046615
  76.9125099  43.0455583  45.2265211  76.7650062  42.1172290  45.4072781
  77.7378593  43.0675673  44.7422287  70.7787343  31.6973650  41.0845704
  71.1183416  32.2259571  40.3624312  71.2259464  32.0354056  41.8604270
  80.5159221  43.8684141  46.3130084  81.4405768  43.6627003  46.1754535
  80.3474524  43.6200542  47.2219426  73.4730784  30.0810700  50.5348772
  73.1327605  29.2818513  50.9369451  72.7669790  30.3812411  49.9625605
  74.1247256  27.1660013  48.9876095  74.9473325  26.6920491  48.8654985
  74.3685320  27.9450497  49.4874781  72.7655491  30.1948271  39.2838996
  73.4863853  30.5729524  38.7802713  72.1420795  30.9137148  39.3873974
  76.9086613  30.8993420  40.2197329  77.1250228  31.7818058  39.9186157
  76.4280681  30.5079634  39.4902971  71.6485835  33.8579133  46.7968073
  71.5030415  34.1719436  47.6892355  71.1711038  34.4764034  46.2438972
  73.5082218  30.8481681  46.8448963  73.4943786  29.9522775  46.5081261
  74.2254646  30.8552345  47.4787249  75.3608348  31.2819022  48.8902090
  75.1026126  32.2036092  48.8886421  74.8293389  30.8849456  49.5802554
  80.3054537  44.3869809  41.6692176  80.4791415  43.8216231  40.9166028
  80.7983428  45.1870704  41.4871666  66.1231497  36.3984478  49.7355734
  65.5784965  37.1744286  49.8676009  67.0010847  36.7455282  49.5774856
  72.9119114  29.7296062  42.1136533  73.0335025  28.8012708  42.3127420
  72.6221156  29.7434748  41.2014848  75.7810304  27.4150972  45.2503253
  75.8032001  27.4790305  44.2955232  76.1978363  26.5755481  45.4443759
  86.1593928  37.1506232  43.2882475  86.6025074  36.4013557  42.8901599
  85.2820439  37.1416368  42.9056207  81.2929710  43.7036573  38.7689074
  81.9880614  44.3243266  38.9876389  81.6352860  42.8531924  39.0441452
  66.9097519  35.5254374  52.6285891  66.1679255  35.6737009  53.2150522
  66.5890263  35.7862640  51.7652641  83.1921133  41.1536279  40.2976405
  83.7172457  41.4923551  39.5725725  83.1043485  40.2183294  40.1139539
  74.8761793  47.2208262  44.6571658  74.4366784  46.7284641  45.3504515
  75.6269910  46.6781230  44.4163733  72.3235666  42.7646271  46.7293960
  71.7015675  42.1016976  46.4296187  72.9940533  42.7907403  46.0467607
  72.3960193  31.2428059  56.3226466  72.4448349  32.1190182  55.9404235
  72.9382707  30.7005452  55.7498109  82.8815039  41.7869182  55.6027603
  82.0910583  41.7693321  55.0632102  82.6448393  42.3257476  56.3576639
  83.0012914  38.6361649  52.9160331  83.0510919  38.4711656  53.8575854
  82.8926837  37.7688908  52.5258212  71.8849173  41.3150194  40.2052420
  72.0337293  41.9985659  39.5519093  72.6915616  41.2955284  40.7201876
  80.2916676  34.6192577  54.2319638  81.1926539  34.4799042  53.9403636
  80.3664651  34.7847032  55.1717815  74.6259482  31.9959431  53.0772824
  73.7562791  32.2892997  52.8055413  74.8618962  32.5799876  53.7980088
  84.5031111  41.0558590  53.1602353  84.2115919  41.4188571  53.9965814
  83.8903242  40.3425598  52.9815685  85.7026793  38.6211470  45.6804923
  86.5373684  39.0601274  45.8442483  85.8385922  38.1450123  44.8613169
  82.7518299  36.1791205  51.6282411  83.2272421  36.3718851  50.8201262
  81.8283864  36.2350391  51.3825794  69.6401806  37.3415372  41.2113489
  69.3947847  36.4377702  41.4093699  69.8097720  37.3432522  40.2692967
  77.3298515  28.2139048  50.5938245  77.8480459  28.9500075  50.2684733
  76.9753648  28.5203042  51.4285004  68.9097453  33.0743730  38.7099650
  68.2166698  33.1488085  38.0539686  68.6649205  32.3104073  39.2321167
  77.5811110  24.6339331  46.1139141  77.8612863  23.9662520  46.7399568
  78.3661716  24.8268427  45.6013805  75.3844578  43.8098325  37.6764167
  74.8118545  44.4288512  37.2234639  75.9577372  44.3597686  38.2104089
  81.4519968  33.0556965  49.8610716  82.4037391  33.1555063  49.8822940
  81.2823418  32.2635233  50.3708801  79.4734347  30.1412548  50.0470117
  78.8784280  30.4217561  49.3516606  79.1884044  30.6306449  50.8186858
  78.6041838  44.0935475  38.8072750  79.5372511  44.0281037  39.0105625
  78.5165051  44.9291742  38.3487282  81.2329855  43.4101345  35.7676697
  81.1543486  43.0761209  36.6612455  82.0539521  43.9023113  35.7668170
  83.9308046  36.2763085  48.9753016  83.8984366  35.3379085  49.1612700
  84.5408669  36.3547121  48.2418841  75.7691377  35.1459138  35.0180220
  76.7150481  35.0165346  35.0868638  75.3905622  34.4073799  35.4949648
  84.0802534  33.0674128  49.0211299  83.5641583  32.2832585  48.8341228
  84.9642483  32.7392845  49.1857819  81.7413261  26.8115144  44.9807112
  81.5438082  26.5030232  45.8650444  82.3512967  27.5376782  45.1105042
  89.7484596  37.3379091  48.1159053  90.4787984  37.0764380  48.6766756
  89.1391541  36.6007813  48.1561121  87.8299893  35.4786954  48.7133504
  87.1033056  35.3442919  48.1049996  87.4147180  35.7863783  49.5190222
  75.6530069  39.1976884  56.4780877  76.5733079  39.3755483  56.6720923
  75.6179652  38.2532929  56.3260576  73.9534294  33.0709114  34.9535105
  73.0465749  32.7742227  35.0297819  74.2310275  32.7738932  34.0869391
  64.8712234  34.3915477  45.4034152  64.5515018  33.5380786  45.1108526
  64.3245662  34.6064056  46.1592119  68.6492142  37.1077918  49.1203658
  68.8678151  38.0395026  49.1391692  69.0617915  36.7485893  49.9058462
  75.5696359  27.6146004  41.1079347  74.7597088  27.2693089  41.4834593
  76.2580776  27.3053547  41.6966958  77.4986908  26.6924050  42.7303643
  78.0517946  27.1119504  43.3893666  77.7356994  25.7659799  42.7726599
  73.5220007  32.6811124  58.5106407  73.4216734  33.6305481  58.4418498
  73.3041549  32.3529363  57.6382477  72.7233078  29.9296049  35.0947084
  73.5852242  30.2550947  35.3542902  72.9083423  29.1427545  34.5820150
  64.7400494  38.0118389  47.3727273  64.0463966  37.5972342  46.8597228
  65.4873485  38.0538925  46.7760692  80.8765715  28.8024576  42.2382307
  80.2964384  29.4609380  41.8560360  80.6101648  27.9801920  41.8269725
  79.3269281  28.2029633  44.4403628  79.8269060  28.3146168  43.6317947
  79.9704889  27.8990686  45.0804436  73.3851277  36.1108263  57.3271469
  72.9018359  36.9108623  57.5335358  73.4712216  36.1216208  56.3738913
  66.6537237  37.9436643  45.2493288  66.6307925  38.0424330  44.2975171
  66.9637873  38.7901793  45.5710454  69.3124615  40.0012798  49.3639902
  70.2667868  39.9696740  49.2969834  69.1137138  39.5403421  50.1790128
  69.9023997  38.5713914  51.9310700  70.7216886  39.0657992  51.9545537
  70.1760804  37.6545882  51.9028268  79.6590593  30.9624666  41.2938656
  78.7716448  31.2474317  41.0758850  80.0744582  30.8018429  40.4465933
  83.0105129  30.9871187  45.0092995  83.7865519  31.4767639  45.2817612
  82.2853263  31.4129241  45.4664864  85.4477688  31.6998806  46.0666936
  86.0422178  31.4594542  45.3560244  85.5204271  30.9805937  46.6940472
  78.8033806  40.7269341  35.3886676  79.5069656  40.9319343  36.0044331
  78.0796455  41.2946103  35.6535759  79.6331617  36.4779202  41.5088946
  79.5766818  36.9347753  40.6696578  80.1859959  35.7169887  41.3311789
  83.4436423  32.2668934  42.3339065  83.1873357  31.8665569  43.1647273
  82.8189291  32.9812728  42.2089204  87.7548760  35.0065007  44.8410357
  87.1948318  35.0758196  45.6141919  87.1492264  34.8305992  44.1209853
  70.8243969  46.4401734  46.5928543  70.7076353  47.3847167  46.4907233
  70.0036415  46.1375296  46.9814342  80.7120504  41.1651870  37.4385136
  81.5466108  40.7333068  37.2562610  80.5504847  40.9933884  38.3662030
  80.3666396  37.6683983  38.8041475  80.3115200  37.5028255  37.8629919
  79.7412451  38.3760016  38.9603665  65.1558911  32.9052048  52.6302897
  65.8017774  32.3951002  53.1190122  64.9476062  33.6420729  53.2046322
  77.6812303  39.9732895  58.1295038  78.5503463  40.1473547  57.7681673
  77.2019055  40.7927312  58.0070767  73.6762521  27.1692092  38.3826793
  73.6641191  28.1133932  38.5395064  74.5685943  26.9862238  38.0886255
  71.8498483  47.0929996  49.8084471  72.7525730  47.1253606  50.1250966
  71.6235853  46.1630447  49.8230807  73.6052085  45.8460983  46.4694550
  72.6547716  45.8462844  46.3558922  73.9084571  45.0993717  45.9530585
  77.4914641  23.7634869  42.6372730  76.7247037  23.2093356  42.7829413
  77.9025346  23.8356738  43.4986882  69.4956402  30.0519665  56.7277911
  70.3587863  29.6956469  56.9381236  68.9221813  29.7133559  57.4153316
  89.3404779  51.6821521  47.5340312  89.9783189  51.5628268  46.8303653
  89.2225622  52.6302365  47.5928265  86.1494485  51.6348949  47.4701837
  85.8112997  51.5190014  46.5822372  87.0184253  51.2340114  47.4502843
  82.0081301  53.4884426  43.4598728  81.4446166  53.3974362  42.6915016
  81.8933696  52.6684330  43.9401221  86.6314268  52.7883801  53.4288043
  86.6202909  52.3936599  52.5568546  86.7934908  52.0549873  54.0221814
  79.5545733  54.9835617  46.2982949  80.3467025  54.6426442  45.8829248
  79.7942383  55.0930592  47.2185102  87.5880860  57.1555393  38.7713193
  86.9368839  57.7409474  38.3847207  88.3825222  57.6861588  38.8308230
  81.5136487  54.2444530  39.1700327  82.2867363  53.6973517  39.0313203
  81.8661886  55.1088780  39.3814789  83.3521529  55.5720913  52.3767227
  83.0611395  56.4766543  52.2613893  83.9878514  55.6137440  53.0911296
  84.2777736  52.9497761  48.9668586  84.8741308  52.7253784  48.2525549
  84.3352708  52.2082507  49.5694034  83.8502764  50.4037196  36.8018777
  84.1028285  49.8818718  36.0402240  82.9127324  50.2403342  36.9045461
  88.8946047  49.4072975  44.6093520  89.6809137  48.9892398  44.2583938
  89.1584752  50.3119067  44.7775169  89.0656125  54.8445825  39.3082177
  88.4301958  54.9180452  40.0203082  88.7353531  55.4339424  38.6301257
  94.2954474  49.3448208  45.5126499  95.0279646  48.7747425  45.7464328
  93.5393830  48.9569808  45.9533005  83.5699053  52.3065302  39.0043152
  83.4535311  51.6310206  39.6724237  83.6801313  51.8197676  38.1875305
  85.9130594  51.7675450  42.7089841  85.5488801  51.2406071  43.4202763
  86.7697710  51.3773919  42.5356327  91.8179895  43.0569782  49.9721108
  91.4863220  43.9265193  49.7482323  91.2225508  42.7406066  50.6515138
  85.5536081  46.7965349  37.7051190  85.7210483  47.6645586  38.0721661
  85.3633250  46.9592631  36.7812479  88.3111414  55.2582328  49.3717020
  88.0112137  56.1607367  49.2632828  87.9662474  54.9914511  50.2238173
  81.7623896  51.7096125  45.4053725  80.8374392  51.5772339  45.6131417
  82.0108309  52.4890344  45.9023667  91.7108558  47.7764868  47.0514458
  90.8025435  47.7080277  46.7573219  91.6596154  48.2536813  47.8796283
  85.5325302  49.2523007  38.6897857  85.4124927  49.6980057  39.5283337
  84.8377890  49.6008324  38.1311395  79.1232707  51.3529399  46.2397514
  79.2525088  51.6063877  47.1536926  78.4430158  51.9457107  45.9202169
  83.2932194  62.0226648  42.3387988  83.2156224  62.9734474  42.4176469
  82.6893838  61.6772521  42.9962914  85.7849424  49.1954514  54.9949355
  85.0082758  49.7548434  54.9852220  86.4239987  49.6811297  55.5164225
  93.5770204  45.9781307  48.8292332  92.9344585  46.2713840  48.1832126
  93.0725133  45.8634227  49.6345528  91.2310368  49.7244480  39.5178191
  92.1428224  49.9571867  39.3425888  90.7220015  50.3081524  38.9553269
  84.0395796  52.0039967  54.5567322  84.7810481  52.5425011  54.2802146
  83.3332782  52.6306256  54.7138874  89.5151136  54.1469108  53.1539483
  89.9234492  53.7051518  52.4094116  88.7928397  53.5721735  53.4073676
  85.8682206  49.0841715  50.5273040  86.7143401  49.5081128  50.6707689
  85.8080844  48.4275339  51.2211603  89.8379950  54.7070298  46.9091772
  89.2088813  54.8716012  46.2067840  89.4505613  55.1211908  47.6802736
  93.7169182  55.6424736  44.2636136  93.0320221  56.0223638  43.7133169
  93.8013032  56.2520063  44.9968084  89.0181651  46.7446083  52.1854214
  88.7742583  47.4988143  51.6488490  89.2941582  47.1231430  53.0201461
  90.9720114  53.2884695  50.8631480  91.1837009  53.9316455  50.1865861
  90.9249862  52.4547012  50.3953410  88.5746343  45.9002516  47.7668052
  87.7130822  46.1983769  48.0584789  88.6008778  46.1172915  46.8349084
  85.3907912  54.4444706  44.1741857  85.8546258  54.7232409  43.3846480
  85.1264710  53.5428151  43.9914948  82.2831993  53.9916188  47.1121621
  82.8533350  54.4203456  46.4739105  82.8740105  53.7098773  47.8105806
  84.3276798  50.5667859  40.9831423  85.0300842  51.0188902  41.4505349
  83.9957427  49.9251678  41.6111316  82.7757160  49.1579615  55.3582632
  82.1455821  49.8395896  55.5918029  82.6693248  49.0462697  54.4135770
  78.0702132  48.8251411  46.2848556  77.2801186  49.0808940  45.8088667
  78.5613380  49.6399749  46.3900597  92.0865942  56.1656651  49.0353837
  92.9083386  55.7636838  48.7536519  92.0828345  56.0624885  49.9869953
  80.0216878  49.1895991  43.2432033  79.2248041  49.3014685  43.7615528
  79.7942470  49.5282643  42.3772923  85.8522545  55.7140694  51.1914547
  85.9166978  56.1761101  52.0272719  85.1433469  55.0838059  51.3196857
  76.3539835  49.0781902  48.7163547  76.6047874  49.9628912  48.9821123
  76.8899384  48.8986503  47.9438639 100.1771935  52.5095399  45.3838808
  99.4235643  51.9402797  45.2282813 100.3119476  52.4758064  46.3309443
  85.5670563  57.3808801  41.0593528  85.4316238  58.2260337  41.4878376
  86.1080376  57.5828079  40.2959462  82.0537903  43.4600381  57.7207883
  81.6604848  42.9066580  58.3955527  82.8704043  43.7710960  58.1114401
  79.0199960  54.8984239  41.6321453  79.5324481  55.6927490  41.7827018
  79.6722673  54.2010530  41.5655054  80.8294845  58.0149996  43.7144206
  81.0061473  58.9367960  43.5265190  81.6251679  57.7008415  44.1438586
  84.9705864  44.8758260  55.3128140  85.7115577  45.4765414  55.2332602
  85.2023786  44.1335898  54.7546182  80.1147202  50.0614628  53.5906369
  80.0000717  49.1599885  53.8913468  79.2591719  50.3078324  53.2391186
  87.1939039  58.0032368  55.1893870  86.7502894  57.2168747  54.8714774
  87.8556253  58.1911518  54.5237761  81.9526161  59.5328170  49.7154548
  82.5033586  59.4045233  48.9431542  81.1137636  59.8323059  49.3649441
  89.2920277  58.2835168  53.2175271  89.2738753  59.1044049  52.7255540
  90.2140198  58.1589243  53.4425412  85.7493332  55.7979297  54.0598779
  86.2821668  55.0367586  53.8298087  85.2207413  55.5052949  54.8022934
  88.9163027  40.9039363  49.5892421  88.5727296  41.7941005  49.5131532
  89.2841989  40.7141021  48.7262006  76.9848877  53.2272894  42.4081023
  77.8224099  53.6369902  42.1914731  77.1627145  52.2872336  42.3781217
  88.8813309  50.8947974  38.0964856  88.3659933  51.6652579  38.3353244
  88.6090618  50.2213111  38.7197918  86.4660420  45.7397675  43.1550095
  85.6102017  45.3504526  42.9755733  86.8787372  45.8189636  42.2949880
  87.9959567  43.2744018  47.5541654  87.4924363  43.2374154  46.7409460
  88.2890174  44.1836761  47.6138311  84.2402453  43.3582748  46.5607836
  85.1055450  43.1625557  46.2013726  84.3079962  43.1293100  47.4877193
  93.8547583  53.6480329  40.0318030  93.0777026  53.3091489  39.5873192
  94.5339064  53.6532952  39.3572995  88.6699612  48.7675067  39.9224638
  88.3649748  49.0821216  40.7734781  89.6230055  48.8456486  39.9651971
  87.1146044  54.9265290  41.5717591  86.5867406  54.1918049  41.2590829
  86.6133547  55.7039966  41.3257560  92.0938890  53.1214310  46.6884638
  91.4362565  53.8113572  46.7764766  92.8979290  53.5110742  47.0318624
  81.8464772  45.5884956  43.9324203  82.4208524  45.3660138  43.1997396
  82.4335754  45.6573651  44.6852804  90.9044349  51.4758683  44.7388580
  91.4176231  52.1088675  45.2410289  91.5545573  50.8759879  44.3731940
  82.1734359  47.6189417  37.9520088  81.3371671  47.9564104  38.2729363
  82.0339129  47.4838397  37.0147225  84.1487440  42.4626205  42.6599272
  83.4951852  42.1475222  42.0355887  84.1067914  41.8401945  43.3859095
  85.2598644  52.7445500  34.5752565  84.3525706  52.5134754  34.7743713
  85.7569676  51.9483119  34.7626546  88.1666723  61.4543007  37.4949251
  87.4928422  61.7574704  38.1034209  88.5532545  62.2572088  37.1454708
  87.3825180  48.9508139  46.9846920  86.4647741  49.1723086  46.8268608
  87.7985324  49.0254449  46.1258627  88.1660228  50.3499554  42.1149600
  88.9132047  50.8620951  41.8056722  88.4351817  50.0283607  42.9753994
  86.4386878  52.8458095  39.0976555  85.5298097  52.5617128  39.1949024
  86.4681962  53.2657174  38.2379861  91.6706145  56.4564684  42.8667722
  91.2168472  55.6155594  42.9232913  91.0400112  57.0926083  43.2042502
  90.6139065  47.3856671  44.0968390  89.8761822  46.8734057  44.4278632
  90.8665838  46.9457052  43.2851666  90.1139085  58.2941181  43.8017540
  90.4062059  58.8546238  43.0829906  90.6237705  58.5869742  44.5570699
  90.7150692  40.1632923  44.6910159  91.0209569  39.3030286  44.4036074
  91.4403297  40.7550543  44.4909153  77.0075048  50.5663609  43.0791757
  76.8099448  49.9732970  42.3542823  76.4521712  50.2615819  43.7967696
  84.9871772  50.4586716  45.1986350  85.0420382  49.5060552  45.1228827
  84.1762974  50.6146155  45.6827648  86.1362966  54.3866839  36.4364633
  85.6982396  53.6702698  35.9770271  86.8773407  54.6142953  35.8749725
  82.9264132  49.0763775  42.9576729  82.1131997  49.3757946  43.3641921
  83.4223126  48.6819464  43.6751211  85.0772710  59.0721532  44.8910994
  85.0348889  59.2982379  43.9619526  85.9935409  58.8384907  45.0396795
  88.5238344  49.5405600  51.7891623  88.8787731  49.7677073  52.6486088
  89.1710475  49.8723977  51.1668878  94.2536081  52.6624036  42.4940952
  94.1153979  52.8525632  41.5662141  93.8972299  53.4243419  42.9509003
  82.4178207  46.6482131  48.5737964  83.0577586  46.5070890  47.8760927
  81.5855737  46.3616644  48.1976566  94.2805460  54.7300563  47.5052223
  94.7141967  54.6375852  48.3535277  94.9937041  54.7058063  46.8672239
  83.1938511  55.9484561  44.6872956  83.9879109  55.4534881  44.4855531
  82.4830203  55.4202424  44.3240662  88.0133355  58.3302657  49.0385324
  88.0670377  58.8993593  49.8063040  87.1448136  58.5004542  48.6739361
  79.5021274  50.0927643  40.7632709  78.5718862  50.0312098  40.9802671
  79.5978746  49.5703596  39.9669350  79.4206823  46.6182456  43.3510951
  79.6813640  47.5327789  43.2420111  80.2423995  46.1506898  43.5007563
  80.8931748  48.0320213  50.5209775  81.5654802  47.8237575  49.8722424
  80.0661535  47.8342299  50.0815007  95.1421010  54.7724263  50.0385109
  95.3356900  55.6770074  50.2844384  95.0421628  54.3131682  50.8723694
  86.7957320  44.6582154  52.5375436  86.1485235  45.3572104  52.4439912
  87.5658336  45.0918298  52.9051684  90.2036118  54.9231006  55.6125989
  90.0521625  54.6941558  54.6956073  90.1940798  55.8801608  55.6257334
  86.9721455  52.4962919  50.5972256  87.9013515  52.6474078  50.4241223
  86.5512485  52.5846940  49.7420902  85.7709787  56.5213583  48.3670793
  85.6320872  56.1532368  49.2396731  84.9824383  57.0361223  48.1954751
  86.3657939  61.6222680  39.7096330  86.5409694  61.1510723  40.5241953
  85.6790727  62.2488446  39.9377591  87.3215002  55.8995186  45.7559631
  86.9864834  55.8595956  46.6517281  86.8218947  55.2339902  45.2830041
  81.2959246  51.3062816  51.2812212  81.1579044  50.5743055  51.8823751
  82.2064169  51.2171716  50.9996400  90.2574193  53.2451220  36.0296691
  89.6403364  52.5198048  35.9329743  89.7890682  54.0060581  35.6863765
  83.9241546  51.0182775  50.7695892  84.6341165  50.3775967  50.7282510
  83.8810854  51.2695670  51.6922073  91.9128325  57.9550129  53.6902471
  91.8540871  57.2709349  53.0233054  92.3147843  58.6969119  53.2383097
  82.6370480  48.0047993  52.5891531  82.1007837  47.5538732  53.2413128
  82.0487189  48.1393902  51.8461996  82.0472739  47.4636645  35.1517995
  81.1702206  47.3425445  34.7880242  82.5230492  46.6722723  34.8996884
  91.9145732  55.9189713  51.9216451  91.0272511  55.5815634  52.0442850
  92.4844283  55.1872744  52.1585216  73.5674879  52.2513804  45.2459502
  74.2545919  51.9375534  44.6580518  73.4123008  53.1555169  44.9726754
  78.3709602  47.1404001  49.6744526  78.2867790  46.5329670  48.9394936
  77.5492308  47.6313019  49.6754022  85.4446886  60.5791165  48.8877694
  85.3717057  61.3846136  49.3996999  85.0024279  60.7783131  48.0625715
  85.2336665  59.8162935  42.3980516  84.4504187  60.3584615  42.4918740
  85.9329410  60.3336915  42.7974757  88.5433315  45.6257564  45.0414721
  89.0402015  44.8727527  44.7215791  87.7720297  45.6621881  44.4757930
  96.3963073  51.3297930  46.6833012  96.3852949  52.2122645  46.3126946
  95.5280452  50.9769481  46.4887550  87.9045569  60.4777999  51.0435853
  88.6173541  61.1125464  50.9711754  87.4135598  60.5741865  50.2275855
  89.6263096  54.3829252  42.6153144  88.6919375  54.5030714  42.4457849
  89.8039765  53.4801718  42.3513154  85.1268284  47.7674947  44.7686406
  84.7566072  47.2145988  45.4567311  85.6227377  47.1633081  44.2161406
  93.0135647  50.2246571  43.1503178  93.4796100  51.0574563  43.0763481
  93.4643148  49.7591552  43.8548437  82.9557483  58.2272442  51.8641424
  83.6566942  58.8608925  52.0170818  82.4852598  58.5687174  51.1037063
  91.0811879  56.5690392  40.1489331  91.3571722  56.4546987  41.0583205
  90.2116377  56.1707877  40.1101504  90.9852310  42.5927158  47.1894080
  90.0715390  42.8231385  47.3576287  91.4145412  42.6765602  48.0408112
  90.7558769  50.7817050  49.6893974  90.1030219  51.0292957  49.0346427
  91.1339149  49.9681188  49.3556451  87.7165943  60.8176743  43.7922144
  87.8988337  59.9998399  44.2549896  88.5398929  61.0344435  43.3547034
  88.0508108  59.7444928  41.0537193  88.5795874  59.2337383  40.4407355
  88.3136328  59.4287458  41.9182726  86.8046342  51.5236861  56.1760011
  86.1286979  51.4230990  56.8462386  87.6273976  51.3676075  56.6396008
  81.4063856  60.7960045  43.8134969  80.7374231  61.2806172  43.3299009
  81.2676726  61.0429265  44.7278347  73.1442856  50.3314398  47.5176969
  73.1826955  49.7977988  48.3114087  72.6383148  49.8049603  46.8987947
  85.5469125  62.8303788  50.4117627  86.0987433  62.9935410  51.1766712
  85.8875318  63.4208226  49.7397652  80.5233618  45.1778938  51.0139512
  80.5874944  46.0393769  50.6016909  80.4600738  44.5652940  50.2811870
  90.3979999  57.6565046  56.2666281  90.9419903  58.2695004  55.7721236
  89.8166844  58.2144624  56.7833294  76.7751433  49.0578500  40.5930901
  77.0704874  48.1489178  40.5397954  75.8739469  49.0366239  40.2711903
  88.6837512  60.7785764  47.3981309  88.5588651  59.9775504  46.8892255
  89.3416603  61.2731957  46.9095279  80.3045680  47.1334496  46.5758449
  79.5832266  47.7470464  46.4365923  81.0938936  47.6692261  46.4975095
  90.7472420  58.5794784  49.0260859  89.8002756  58.4600135  48.9539186
  91.0955193  57.6917282  49.1087121  83.1071994  44.4688923  52.8499101
  83.6306395  44.7151219  53.6125410  82.8884327  45.3008958  52.4302238
  78.5039275  46.7392597  40.7170226  78.1751981  45.8589976  40.5345332
  78.8578645  46.6840266  41.6046615  87.7518854  58.3747500  45.2265211
  87.6043816  57.4464208  45.4072781  88.5772347  58.3967591  44.7422287
  81.6181098  47.0265567  41.0845704  81.9577170  47.5551489  40.3624312
  82.0653218  47.3645973  41.8604270  91.3552975  59.1976059  46.3130084
  92.2799523  58.9918920  46.1754535  91.1868279  58.9492460  47.2219426
  84.3124539  45.4102618  50.5348772  83.9721359  44.6110431  50.9369451
  83.6063545  45.7104329  49.9625605  84.9641010  42.4951930  48.9876095
  85.7867080  42.0212409  48.8654985  85.2079074  43.2742414  49.4874781
  83.6049245  45.5240189  39.2838996  84.3257607  45.9021442  38.7802713
  82.9814549  46.2429066  39.3873974  87.7480368  46.2285338  40.2197329
  87.9643982  47.1109976  39.9186157  87.2674435  45.8371551  39.4902971
  82.4879589  49.1871051  46.7968073  82.3424170  49.5011354  47.6892355
  82.0104793  49.8055951  46.2438972  84.3475972  46.1773599  46.8448963
  84.3337541  45.2814692  46.5081261  85.0648400  46.1844263  47.4787249
  86.2002103  46.6110939  48.8902090  85.9419881  47.5328010  48.8886421
  85.6687143  46.2141374  49.5802554  91.1448292  59.7161726  41.6692176
  91.3185169  59.1508149  40.9166028  91.6377183  60.5162621  41.4871666
  76.9625251  51.7276395  49.7355734  76.4178719  52.5036203  49.8676009
  77.8404601  52.0747200  49.5774856  83.7512868  45.0587979  42.1136533
  83.8728779  44.1304626  42.3127420  83.4614910  45.0726665  41.2014848
  86.6204058  42.7442890  45.2503253  86.6425755  42.8082223  44.2955232
  87.0372117  41.9047398  45.4443759  96.9987683  52.4798149  43.2882475
  97.4418829  51.7305475  42.8901599  96.1214193  52.4708286  42.9056207
  92.1323464  59.0328491  38.7689074  92.8274369  59.6535183  38.9876389
  92.4746614  58.1823842  39.0441452  94.0314887  56.4828196  40.2976405
  94.5566211  56.8215469  39.5725725  93.9437240  55.5475212  40.1139539
  85.6934936  60.3962270  52.4266281  86.0022062  60.1511417  53.2988981
  86.4910418  60.6008908  51.9385152  85.7155548  62.5500180  44.6571658
  85.2760538  62.0576558  45.3504515  86.4663665  62.0073147  44.4163733
  78.1947887  58.7411720  44.6596286  79.0205907  58.4415492  44.2794929
  77.8441939  57.9719343  45.1086075  83.1629420  58.0938189  46.7293960
  82.5409429  57.4308894  46.4296187  83.8334287  58.1199321  46.0467607
  83.2353948  46.5719977  56.3226466  83.2842103  47.4482100  55.9404235
  83.7776462  46.0297370  55.7498109  93.7208793  57.1161100  55.6027603
  92.9304337  57.0985239  55.0632102  93.4842148  57.6549394  56.3576639
  93.8406668  53.9653566  52.9160331  93.8904673  53.8003574  53.8575854
  93.7320592  53.0980825  52.5258212  82.7242927  56.6442112  40.2052420
  82.8731047  57.3277576  39.5519093  83.5309370  56.6247202  40.7201876
  91.1310431  49.9484494  54.2319638  92.0320293  49.8090959  53.9403636
  91.2058405  50.1138949  55.1717815  85.4653236  47.3251349  53.0772824
  84.5956545  47.6184915  52.8055413  85.7012716  47.9091794  53.7980088
  95.3424865  56.3850508  53.1602353  95.0509673  56.7480488  53.9965814
  94.7296996  55.6717516  52.9815685  96.5420547  53.9503388  45.6804923
  97.3767439  54.3893192  45.8442483  96.6779676  53.4742041  44.8613169
  93.5912053  51.5083122  51.6282411  94.0666175  51.7010769  50.8201262
  92.6677619  51.5642308  51.3825794  80.4795560  52.6707290  41.2113489
  80.2341602  51.7669620  41.4093699  80.6491475  52.6724440  40.2692967
  88.1692270  43.5430966  50.5938245  88.6874214  44.2791993  50.2684733
  87.8147403  43.8494959  51.4285004  79.7491208  48.4035647  38.7099650
  79.0560452  48.4780002  38.0539686  79.5042959  47.6395991  39.2321167
  88.4204864  39.9631249  46.1139141  88.7006618  39.2954438  46.7399568
  89.2055471  40.1560344  45.6013805  86.2238333  59.1390242  37.6764167
  85.6512300  59.7580430  37.2234639  86.7971126  59.6889604  38.2104089
  92.2913722  48.3848883  49.8610716  93.2431145  48.4846980  49.8822940
  92.1217173  47.5927151  50.3708801  90.3128102  45.4704466  50.0470117
  89.7178034  45.7509479  49.3516606  90.0277799  45.9598367  50.8186858
  89.4435592  59.4227393  38.8072750  90.3766265  59.3572954  39.0105625
  89.3558805  60.2583659  38.3487282  92.0723609  58.7393263  35.7676697
  91.9937241  58.4053127  36.6612455  92.8933276  59.2315031  35.7668170
  94.7701800  51.6055002  48.9753016  94.7378120  50.6671003  49.1612700
  95.3802424  51.6839039  48.2418841  86.6085131  50.4751055  35.0180220
  87.5544236  50.3457263  35.0868638  86.2299376  49.7365717  35.4949648
  94.9196289  48.3966046  49.0211299  94.4035337  47.6124502  48.8341228
  95.8036237  48.0684762  49.1857819  92.5807016  42.1407061  44.9807112
  92.3831837  41.8322149  45.8650444  93.1906721  42.8668700  45.1105042
 100.5878350  52.6671009  48.1159053 101.3181739  52.4056297  48.6766756
  99.9785296  51.9299731  48.1561121  98.6693647  50.8078872  48.7133504
  97.9426811  50.6734837  48.1049996  98.2540934  51.1155700  49.5190222
  86.4923824  54.5268801  56.4780877  87.4126833  54.7047400  56.6720923
  86.4573407  53.5824847  56.3260576  84.7928048  48.4001032  34.9535105
  83.8859504  48.1034144  35.0297819  85.0704029  48.1030850  34.0869391
  75.7105989  49.7207395  45.4034152  75.3908773  48.8672703  45.1108526
  75.1639417  49.9355973  46.1592119  79.4885896  52.4369836  49.1203658
  79.7071906  53.3686944  49.1391692  79.9011670  52.0777810  49.9058462
  86.4090114  42.9437921  41.1079347  85.5990842  42.5985006  41.4834593
  87.0974531  42.6345465  41.6966958  88.3380662  42.0215968  42.7303643
  88.8911701  42.4411422  43.3893666  88.5750749  41.0951716  42.7726599
  84.3613761  48.0103042  58.5106407  84.2610488  48.9597399  58.4418498
  84.1435304  47.6821281  57.6382477  83.5626833  45.2587967  35.0947084
  84.4245997  45.5842865  35.3542902  83.7477177  44.4719463  34.5820150
  75.5794249  53.3410307  47.3727273  74.8857720  52.9264259  46.8597228
  76.3267240  53.3830843  46.7760692  91.7159469  44.1316493  42.2382307
  91.1358138  44.7901297  41.8560360  91.4495402  43.3093838  41.8269725
  90.1663036  43.5321551  44.4403628  90.6662814  43.6438086  43.6317947
  90.8098644  43.2282604  45.0804436  84.2245032  51.4400181  57.3271469
  83.7412113  52.2400541  57.5335358  84.3105971  51.4508125  56.3738913
  77.4930991  53.2728560  45.2493288  77.4701679  53.3716248  44.2975171
  77.8031628  54.1193711  45.5710454  80.1518369  55.3304715  49.3639902
  81.1061623  55.2988658  49.2969834  79.9530893  54.8695339  50.1790128
  80.7417751  53.9005831  51.9310700  81.5610640  54.3949910  51.9545537
  81.0154559  52.9837800  51.9028268  90.4984347  46.2916584  41.2938656
  89.6110202  46.5766234  41.0758850  90.9138336  46.1310347  40.4465933
  93.8498883  46.3163105  45.0092995  94.6259274  46.8059557  45.2817612
  93.1247018  46.7421159  45.4664864  96.2871442  47.0290724  46.0666936
  96.8815933  46.7886460  45.3560244  96.3598026  46.3097854  46.6940472
  89.6427561  56.0561258  35.3886676  90.3463411  56.2611261  36.0044331
  88.9190210  56.6238020  35.6535759  90.4725371  51.8071120  41.5088946
  90.4160572  52.2639671  40.6696578  91.0253714  51.0461804  41.3311789
  94.2830177  47.5960851  42.3339065  94.0267111  47.1957487  43.1647273
  93.6583045  48.3104645  42.2089204  98.5942515  50.3356925  44.8410357
  98.0342073  50.4050114  45.6141919  97.9886018  50.1597909  44.1209853
  81.6637724  61.7693652  46.5928543  81.5470108  62.7139084  46.4907233
  80.8430170  61.4667213  46.9814342  91.5514258  56.4943788  37.4385136
  92.3859862  56.0624986  37.2562610  91.3898601  56.3225801  38.3662030
  91.2060150  52.9975901  38.8041475  91.1508954  52.8320172  37.8629919
  90.5806206  53.7051934  38.9603665  88.5206058  55.3024813  58.1295038
  89.3897217  55.4765465  57.7681673  88.0412809  56.1219230  58.0070767
  84.5156276  42.4984010  38.3826793  84.5034946  43.4425850  38.5395064
  85.4079698  42.3154155  38.0886255  82.6892238  62.4221914  49.8084471
  83.5919484  62.4545524  50.1250966  82.4629608  61.4922365  49.8230807
  84.4445840  61.1752900  46.4694550  83.4941471  61.1754762  46.3558922
  84.7478326  60.4285635  45.9530585  88.3308395  39.0926787  42.6372730
  87.5640791  38.5385273  42.7829413  88.7419100  39.1648655  43.4986882
  80.3350156  45.3811582  56.7277911  81.1981618  45.0248387  56.9381236
  79.7615567  45.0425477  57.4153316 100.1798533  67.0113439  47.5340312
 100.8176943  66.8920186  46.8303653 100.0619376  67.9594283  47.5928265
  96.9888240  66.9640867  47.4701837  96.6506751  66.8481931  46.5822372
  97.8578008  66.5632032  47.4502843  92.8475055  68.8176343  43.4598728
  92.2839920  68.7266280  42.6915016  92.7327450  67.9976248  43.9401221
  97.4708023  68.1175718  53.4288043  97.4596663  67.7228517  52.5568546
  97.6328662  67.3841791  54.0221814  90.3939487  70.3127535  46.2982949
  91.1860779  69.9718359  45.8829248  90.6336137  70.4222510  47.2185102
  98.4274614  72.4847311  38.7713193  97.7762594  73.0701391  38.3847207
  99.2218977  73.0153506  38.8308230  92.3530241  69.5736448  39.1700327
  93.1261117  69.0265435  39.0313203  92.7055640  70.4380697  39.3814789
  94.1915284  70.9012830  52.3767227  93.9005150  71.8058461  52.2613893
  94.8272268  70.9429358  53.0911296  95.1171491  68.2789679  48.9668586
  95.7135063  68.0545701  48.2525549  95.1746462  67.5374424  49.5694034
  94.6896519  65.7329114  36.8018777  94.9422040  65.2110635  36.0402240
  93.7521078  65.5695260  36.9045461  99.7339802  64.7364893  44.6093520
 100.5202891  64.3184316  44.2583938  99.9978506  65.6410985  44.7775169
  99.9049879  70.1737743  39.3082177  99.2695712  70.2472369  40.0203082
  99.5747286  70.7631342  38.6301257 105.1348229  64.6740126  45.5126499
 105.8673401  64.1039343  45.7464328 104.3787585  64.2861726  45.9533005
  94.4092808  67.6357220  39.0043152  94.2929066  66.9602123  39.6724237
  94.5195068  67.1489594  38.1875305  96.7524349  67.0967367  42.7089841
  96.3882556  66.5697988  43.4202763  97.6091465  66.7065836  42.5356327
 102.6573649  58.3861700  49.9721108 102.3256974  59.2557111  49.7482323
 102.0619263  58.0697984  50.6515138  96.3929836  62.1257267  37.7051190
  96.5604238  62.9937503  38.0721661  96.2027005  62.2884549  36.7812479
  99.1505169  70.5874246  49.3717020  98.8505892  71.4899285  49.2632828
  98.8056228  70.3206429  50.2238173  92.6017650  67.0388043  45.4053725
  91.6768147  66.9064257  45.6131417  92.8502063  67.8182262  45.9023667
 102.5502313  63.1056786  47.0514458 101.6419190  63.0372194  46.7573219
 102.4989908  63.5828731  47.8796283  96.3719056  64.5814924  38.6897857
  96.2518682  65.0271975  39.5283337  95.6771645  64.9300242  38.1311395
  89.9626461  66.6821316  46.2397514  90.0918842  66.9355795  47.1536926
  89.2823913  67.2749024  45.9202169  94.1325949  77.3518566  42.3387988
  94.0549978  78.3026391  42.4176469  93.5287592  77.0064439  42.9962914
  96.6243178  64.5246432  54.9949355  95.8476512  65.0840352  54.9852220
  97.2633741  65.0103215  55.5164225 104.4163959  61.3073224  48.8292332
 103.7738339  61.6005758  48.1832126 103.9118888  61.1926145  49.6345528
 102.0704123  65.0536398  39.5178191 102.9821979  65.2863784  39.3425888
 101.5613770  65.6373442  38.9553269  94.8789551  67.3331885  54.5567322
  95.6204235  67.8716929  54.2802146  94.1726536  67.9598174  54.7138874
 100.3544890  69.4761025  53.1539483 100.7628246  69.0343436  52.4094116
  99.6322152  68.9013653  53.4073676  96.7075960  64.4133632  50.5273040
  97.5537156  64.8373046  50.6707689  96.6474598  63.7567257  51.2211603
 100.6773705  70.0362216  46.9091772 100.0482567  70.2007930  46.2067840
 100.2899367  70.4503826  47.6802736 104.5562937  70.9716654  44.2636136
 103.8713975  71.3515555  43.7133169 104.6406786  71.5811981  44.9968084
  99.8575406  62.0738001  52.1854214  99.6136338  62.8280061  51.6488490
 100.1335336  62.4523348  53.0201461 101.8113868  68.6176613  50.8631480
 102.0230764  69.2608373  50.1865861 101.7643617  67.7838929  50.3953410
  99.4140097  61.2294434  47.7668052  98.5524576  61.5275687  48.0584789
  99.4402532  61.4464832  46.8349084  96.2301667  69.7736624  44.1741857
  96.6940012  70.0524327  43.3846480  95.9658465  68.8720069  43.9914948
  93.1225748  69.3208106  47.1121621  93.6927105  69.7495374  46.4739105
  93.7133860  69.0390690  47.8105806  95.1670553  65.8959777  40.9831423
  95.8694596  66.3480820  41.4505349  94.8351181  65.2543595  41.6111316
  93.6150914  64.4871533  55.3582632  92.9849575  65.1687814  55.5918029
  93.5087002  64.3754615  54.4135770  88.9095887  64.1543329  46.2848556
  88.1194941  64.4100858  45.8088667  89.4007134  64.9691667  46.3900597
 102.9259696  71.4948568  49.0353837 103.7477140  71.0928756  48.7536519
 102.9222099  71.3916803  49.9869953  90.8610632  64.5187908  43.2432033
  90.0641795  64.6306603  43.7615528  90.6336224  64.8574561  42.3772923
  96.6916300  71.0432612  51.1914547  96.7560732  71.5053019  52.0272719
  95.9827224  70.4129977  51.3196857  87.1933590  64.4073820  48.7163547
  87.4441628  65.2920830  48.9821123  87.7293138  64.2278421  47.9438639
 111.0165689  67.8387317  45.3838808 110.2629398  67.2694715  45.2282813
 111.1513231  67.8049981  46.3309443  96.4064317  72.7100719  41.0593528
  96.2709992  73.5552255  41.4878376  96.9474130  72.9119997  40.2959462
  92.8931657  58.7892299  57.7207883  92.4998603  58.2358498  58.3955527
  93.7097797  59.1002877  58.1114401  89.8593715  70.2276157  41.6321453
  90.3718235  71.0219407  41.7827018  90.5116428  69.5302448  41.5655054
  91.6688600  73.3441913  43.7144206  91.8455228  74.2659878  43.5265190
  92.4645433  73.0300333  44.1438586  95.8099618  60.2050178  55.3128140
  96.5509332  60.8057331  55.2332602  96.0417541  59.4627816  54.7546182
  90.9540956  65.3906545  53.5906369  90.8394471  64.4891803  53.8913468
  90.0985474  65.6370242  53.2391186  98.0332794  73.3324286  55.1893870
  97.5896648  72.5460664  54.8714774  98.6950007  73.5203436  54.5237761
  92.7919915  74.8620087  49.7154548  93.3427340  74.7337151  48.9431542
  91.9531391  75.1614976  49.3649441 100.1314032  73.6127086  53.2175271
 100.1132507  74.4335967  52.7255540 101.0533952  73.4881161  53.4425412
  96.5887086  71.1271215  54.0598779  97.1215423  70.3659503  53.8298087
  96.0601167  70.8344867  54.8022934  99.7556781  56.2331281  49.5892421
  99.4121050  57.1232923  49.5131532 100.1235744  56.0432939  48.7262006
  87.8242632  68.5564811  42.4081023  88.6617854  68.9661820  42.1914731
  88.0020899  67.6164254  42.3781217  99.7207064  66.2239892  38.0964856
  99.2053687  66.9944497  38.3353244  99.4484372  65.5505028  38.7197918
  97.3054175  61.0689593  43.1550095  96.4495771  60.6796443  42.9755733
  97.7181127  61.1481554  42.2949880  98.8353321  58.6035936  47.5541654
  98.3318117  58.5666071  46.7409460  99.1283928  59.5128679  47.6138311
  95.0796207  58.6874666  46.5607836  95.9449204  58.4917475  46.2013726
  95.1473716  58.4585018  47.4877193 104.6941338  68.9772247  40.0318030
 103.9170781  68.6383406  39.5873192 105.3732819  68.9824870  39.3572995
  99.5093367  64.0966984  39.9224638  99.2043503  64.4113133  40.7734781
 100.4623809  64.1748404  39.9651971  97.9539799  70.2557208  41.5717591
  97.4261160  69.5209967  41.2590829  97.4527302  71.0331884  41.3257560
 102.9332645  68.4506228  46.6884638 102.2756319  69.1405489  46.7764766
 103.7373044  68.8402660  47.0318624  92.6858526  60.9176874  43.9324203
  93.2602278  60.6952055  43.1997396  93.2729509  60.9865568  44.6852804
 101.7438104  66.8050601  44.7388580 102.2569985  67.4380593  45.2410289
 102.3939328  66.2051796  44.3731940  93.0128114  62.9481335  37.9520088
  92.1765426  63.2856021  38.2729363  92.8732883  62.8130315  37.0147225
  94.9881194  57.7918123  42.6599272  94.3345606  57.4767140  42.0355887
  94.9461668  57.1693863  43.3859095  96.0992399  68.0737418  34.5752565
  95.1919461  67.8426671  34.7743713  96.5963431  67.2775037  34.7626546
  99.0060478  76.7834925  37.4949251  98.3322177  77.0866622  38.1034209
  99.3926300  77.5864005  37.1454708  98.2218934  64.2800056  46.9846920
  97.3041496  64.5015003  46.8268608  98.6379078  64.3546367  46.1258627
  99.0053982  65.6791472  42.1149600  99.7525801  66.1912869  41.8056722
  99.2745572  65.3575525  42.9753994  97.2780632  68.1750013  39.0976555
  96.3691852  67.8909045  39.1949024  97.3075716  68.5949091  38.2379861
 102.5099900  71.7856602  42.8667722 102.0562227  70.9447512  42.9232913
 101.8793867  72.4218001  43.2042502 101.4532819  62.7148588  44.0968390
 100.7155576  62.2025974  44.4278632 101.7059593  62.2748970  43.2851666
 100.9532839  73.6233099  43.8017540 101.2455813  74.1838156  43.0829906
 101.4631460  73.9161660  44.5570699 101.5544447  55.4924840  44.6910159
 101.8603324  54.6322204  44.4036074 102.2797052  56.0842460  44.4909153
  87.8468803  65.8955527  43.0791757  87.6493203  65.3024887  42.3542823
  87.2915467  65.5907737  43.7967696  95.8265526  65.7878633  45.1986350
  95.8814136  64.8352470  45.1228827  95.0156728  65.9438072  45.6827648
  96.9756720  69.7158756  36.4364633  96.5376150  68.9994615  35.9770271
  97.7167161  69.9434871  35.8749725  93.7657886  64.4055693  42.9576729
  92.9525752  64.7049864  43.3641921  94.2616881  64.0111382  43.6751211
  95.9166464  74.4013450  44.8910994  95.8742643  74.6274296  43.9619526
  96.8329163  74.1676825  45.0396795  99.3632098  64.8697517  51.7891623
  99.7181486  65.0968991  52.6486088 100.0104229  65.2015894  51.1668878
 105.0929835  67.9915953  42.4940952 104.9547734  68.1817549  41.5662141
 104.7366054  68.7535336  42.9509003  93.2571961  61.9774049  48.5737964
  93.8971340  61.8362808  47.8760927  92.4249492  61.6908562  48.1976566
 105.1199215  70.0592480  47.5052223 105.5535721  69.9667769  48.3535277
 105.8330795  70.0349981  46.8672239  94.0332265  71.2776479  44.6872956
  94.8272864  70.7826799  44.4855531  93.3223957  70.7494342  44.3240662
  98.8527110  73.6594574  49.0385324  98.9064132  74.2285511  49.8063040
  97.9841891  73.8296460  48.6739361  90.3415029  65.4219561  40.7632709
  89.4112617  65.3604016  40.9802671  90.4372501  64.8995513  39.9669350
  90.2600578  61.9474374  43.3510951  90.5207395  62.8619707  43.2420111
  91.0817750  61.4798816  43.5007563  91.7325503  63.3612131  50.5209775
  92.4048556  63.1529493  49.8722424  90.9055289  63.1634217  50.0815007
 105.9814764  70.1016181  50.0385109 106.1750654  71.0061992  50.2844384
 105.8815382  69.6423600  50.8723694  97.6351075  59.9874072  52.5375436
  96.9878990  60.6864021  52.4439912  98.4052090  60.4210216  52.9051684
 101.0429873  70.2522924  55.6125989 100.8915379  70.0233475  54.6956073
 101.0334552  71.2093525  55.6257334  97.8115209  67.8254837  50.5972256
  98.7407269  67.9765996  50.4241223  97.3906239  67.9138857  49.7420902
  96.6103541  71.8505501  48.3670793  96.4714627  71.4824285  49.2396731
  95.8218137  72.3653140  48.1954751  97.2051693  76.9514597  39.7096330
  97.3803449  76.4802641  40.5241953  96.5184481  77.5780364  39.9377591
  98.1608756  71.2287104  45.7559631  97.8258589  71.1887874  46.6517281
  97.6612702  70.5631820  45.2830041  92.1353000  66.6354734  51.2812212
  91.9972798  65.9034972  51.8823751  93.0457924  66.5463634  50.9996400
 101.0967948  68.5743138  36.0296691 100.4797118  67.8489966  35.9329743
 100.6284436  69.3352498  35.6863765  94.7635301  66.3474693  50.7695892
  95.4734919  65.7067885  50.7282510  94.7204609  66.5987588  51.6922073
 102.7522080  73.2842046  53.6902471 102.6934626  72.6001266  53.0233054
 103.1541598  74.0261036  53.2383097  93.4764235  63.3339911  52.5891531
  92.9401592  62.8830649  53.2413128  92.8880943  63.4685820  51.8461996
  91.7712778  80.1003960  46.4836190  92.0109377  80.7322484  47.1615209
  90.9281975  79.7492000  46.7701549  92.8866494  62.7928562  35.1517995
  92.0095960  62.6717363  34.7880242  93.3624247  62.0014641  34.8996884
 102.7539487  71.2481630  51.9216451 101.8666266  70.9107552  52.0442850
 103.3238038  70.5164661  52.1585216  84.4068634  67.5805722  45.2459502
  85.0939674  67.2667452  44.6580518  84.2516763  68.4847087  44.9726754
  89.2103356  62.4695919  49.6744526  89.1261545  61.8621588  48.9394936
  88.3886062  62.9604937  49.6754022  96.2840640  75.9083083  48.8877694
  96.2110812  76.7138054  49.3996999  95.8418033  76.1075048  48.0625715
  96.0730420  75.1454853  42.3980516  95.2897942  75.6876533  42.4918740
  96.7723165  75.6628832  42.7974757  99.3827070  60.9549482  45.0414721
  99.8795769  60.2019444  44.7215791  98.6114051  60.9913799  44.4757930
 107.2356827  66.6589848  46.6833012 107.2246704  67.5414563  46.3126946
 106.3674207  66.3061398  46.4887550  98.7439324  75.8069917  51.0435853
  99.4567296  76.4417381  50.9711754  98.2529352  75.9033783  50.2275855
 100.4656851  69.7121169  42.6153144  99.5313129  69.8322632  42.4457849
 100.6433519  68.8093636  42.3513154  95.9662039  63.0966865  44.7686406
  95.5959826  62.5437905  45.4567311  96.4621131  62.4924999  44.2161406
 103.8529402  65.5538489  43.1503178 104.3189854  66.3866480  43.0763481
 104.3036902  65.0883470  43.8548437  93.7951237  73.5564360  51.8641424
  94.4960697  74.1900843  52.0170818  93.3246352  73.8979092  51.1037063
 101.9205633  71.8982310  40.1489331 102.1965477  71.7838904  41.0583205
 101.0510132  71.4999795  40.1101504 101.8246065  57.9219076  47.1894080
 100.9109144  58.1523302  47.3576287 102.2539166  58.0057520  48.0408112
 101.5952523  66.1108968  49.6893974 100.9423973  66.3584875  49.0346427
 101.9732903  65.2973106  49.3556451  98.5559697  76.1468661  43.7922144
  98.7382092  75.3290317  44.2549896  99.3792683  76.3636353  43.3547034
  98.8901863  75.0736846  41.0537193  99.4189629  74.5629300  40.4407355
  99.1530082  74.7579376  41.9182726  97.6440096  66.8528779  56.1760011
  96.9680733  66.7522908  56.8462386  98.4667730  66.6967992  56.6396008
  89.3918955  73.0900715  48.7972526  89.9772392  72.3444403  48.9300430
  89.1943794  73.4004672  49.6809190  92.2457611  76.1251963  43.8134969
  91.5767986  76.6098090  43.3299009  92.1070480  76.3721183  44.7278347
  83.9836610  65.6606315  47.5176969  84.0220710  65.1269906  48.3114087
  83.4776903  65.1341521  46.8987947  96.3862879  78.1595706  50.4117627
  96.9381187  78.3227328  51.1766712  96.7269073  78.7500144  49.7397652
  91.3627372  60.5070856  51.0139512  91.4268699  61.3685687  50.6016909
  91.2994493  59.8944858  50.2811870  90.8379645  62.5793988  54.6612546
  91.4651684  62.1971066  55.2750070  89.9807564  62.3608190  55.0268238
 101.2373753  72.9856964  56.2666281 101.7813657  73.5986922  55.7721236
 100.6560598  73.5436542  56.7833294  87.6145188  64.3870418  40.5930901
  87.9098629  63.4781096  40.5397954  86.7133223  64.3658157  40.2711903
  99.5231266  76.1077682  47.3981309  99.3982406  75.3067421  46.8892255
 100.1810357  76.6023875  46.9095279  91.1439435  62.4626414  46.5758449
  90.4226020  63.0762382  46.4365923  91.9332690  62.9984179  46.4975095
 101.5866175  73.9086702  49.0260859 100.6396510  73.7892053  48.9539186
 101.9348948  73.0209200  49.1087121  93.9465748  59.7980841  52.8499101
  94.4700150  60.0443137  53.6125410  93.7278081  60.6300875  52.4302238
  89.3433029  62.0684515  40.7170226  89.0145735  61.1881894  40.5345332
  89.6972400  62.0132184  41.6046615  98.5912608  73.7039418  45.2265211
  98.4437570  72.7756125  45.4072781  99.4166102  73.7259509  44.7422287
  92.4574852  62.3557485  41.0845704  92.7970925  62.8843406  40.3624312
  92.9046973  62.6937891  41.8604270 102.1946730  74.5267977  46.3130084
 103.1193277  74.3210838  46.1754535 102.0262033  74.2784378  47.2219426
  95.1518293  60.7394536  50.5348772  94.8115114  59.9402349  50.9369451
  94.4457299  61.0396247  49.9625605  95.8034765  57.8243848  48.9876095
  96.6260834  57.3504326  48.8654985  96.0472829  58.6034332  49.4874781
  94.4442999  60.8532107  39.2838996  95.1651362  61.2313359  38.7802713
  93.8208304  61.5720983  39.3873974  98.5874122  61.5577256  40.2197329
  98.8037737  62.4401893  39.9186157  98.1068190  61.1663469  39.4902971
  93.3273344  64.5162969  46.7968073  93.1817924  64.8303272  47.6892355
  92.8498547  65.1347869  46.2438972  95.1869727  61.5065517  46.8448963
  95.1731295  60.6106610  46.5081261  95.9042155  61.5136180  47.4787249
  97.0395857  61.9402857  48.8902090  96.7813635  62.8619928  48.8886421
  96.5080898  61.5433291  49.5802554 101.9842046  75.0453644  41.6692176
 102.1578924  74.4800067  40.9166028 102.4770937  75.8454539  41.4871666
  87.8019006  67.0568313  49.7355734  87.2572474  67.8328121  49.8676009
  88.6798356  67.4039118  49.5774856  94.5906623  60.3879897  42.1136533
  94.7122534  59.4596543  42.3127420  94.3008665  60.4018583  41.2014848
  97.4597813  58.0734807  45.2503253  97.4819510  58.1374141  44.2955232
  97.8765872  57.2339316  45.4443759 107.8381437  67.8090067  43.2882475
 108.2812583  67.0597392  42.8901599 106.9607948  67.8000203  42.9056207
 102.9717219  74.3620408  38.7689074 103.6668123  74.9827101  38.9876389
 103.3140369  73.5115760  39.0441452  88.5885028  66.1838209  52.6285891
  87.8466764  66.3320845  53.2150522  88.2677772  66.4446475  51.7652641
 104.8708642  71.8120114  40.2976405 105.3959966  72.1507387  39.5725725
 104.7830994  70.8767129  40.1139539  96.5328690  75.7254188  52.4266281
  96.8415817  75.4803334  53.2988981  97.3304172  75.9300826  51.9385152
  96.5549302  77.8792097  44.6571658  96.1154293  77.3868476  45.3504515
  97.3057419  77.3365065  44.4163733  89.0341641  74.0703638  44.6596286
  89.8599661  73.7707410  44.2794929  88.6835693  73.3011261  45.1086075
  94.0023175  73.4230106  46.7293960  93.3803184  72.7600811  46.4296187
  94.6728042  73.4491238  46.0467607  87.2350246  71.9889965  45.6185220
  86.3982155  71.5612139  45.4369221  87.2073892  72.1822408  46.5556011
  94.0747702  61.9011894  56.3226466  94.1235858  62.7774017  55.9404235
  94.6170216  61.3589287  55.7498109 104.5602548  72.4453018  55.6027603
 103.7698091  72.4277156  55.0632102 104.3235902  72.9841311  56.3576639
 104.6800423  69.2945484  52.9160331 104.7298428  69.1295491  53.8575854
 104.5714346  68.4272743  52.5258212  93.5636682  71.9734030  40.2052420
  93.7124802  72.6569494  39.5519093  94.3703125  71.9539120  40.7201876
 101.9704185  65.2776412  54.2319638 102.8714048  65.1382877  53.9403636
 102.0452160  65.4430867  55.1717815  96.3046991  62.6543267  53.0772824
  95.4350300  62.9476833  52.8055413  96.5406471  63.2383712  53.7980088
 106.1818620  71.7142426  53.1602353 105.8903428  72.0772406  53.9965814
 105.5690751  71.0009434  52.9815685 107.3814302  69.2795305  45.6804923
 108.2161193  69.7185109  45.8442483 107.5173431  68.8033959  44.8613169
 104.4305808  66.8375040  51.6282411 104.9059929  67.0302686  50.8201262
 103.5071373  66.8934226  51.3825794  91.3189314  67.9999207  41.2113489
  91.0735356  67.0961537  41.4093699  91.4885229  68.0016358  40.2692967
  99.0086024  58.8722884  50.5938245  99.5267968  59.6083911  50.2684733
  98.6541157  59.1786877  51.4285004  90.5884962  63.7327565  38.7099650
  89.8954207  63.8071920  38.0539686  90.3436714  62.9687909  39.2321167
  99.2598619  55.2923166  46.1139141  99.5400372  54.6246355  46.7399568
 100.0449225  55.4852262  45.6013805  97.0632087  74.4682160  37.6764167
  96.4906054  75.0872347  37.2234639  97.6364881  75.0181522  38.2104089
 103.1307477  63.7140800  49.8610716 104.0824900  63.8138898  49.8822940
 102.9610927  62.9219069  50.3708801 101.1521856  60.7996383  50.0470117
 100.5571788  61.0801396  49.3516606 100.8671553  61.2890284  50.8186858
 100.2829347  74.7519310  38.8072750 101.2160020  74.6864872  39.0105625
 100.1952560  75.5875577  38.3487282 102.9117364  74.0685181  35.7676697
 102.8330995  73.7345044  36.6612455 103.7327030  74.5606949  35.7668170
 105.6095555  66.9346920  48.9753016 105.5771875  65.9962921  49.1612700
 106.2196178  67.0130957  48.2418841  97.4478886  65.8042973  35.0180220
  98.3937990  65.6749181  35.0868638  97.0693130  65.0657635  35.4949648
 105.7590043  63.7257963  49.0211299 105.2429092  62.9416420  48.8341228
 106.6429992  63.3976680  49.1857819 103.4200770  57.4698979  44.9807112
 103.2225591  57.1614067  45.8650444 104.0300476  58.1960618  45.1105042
 111.4272105  67.9962927  48.1159053 112.1575493  67.7348215  48.6766756
 110.8179050  67.2591649  48.1561121 109.5087402  66.1370789  48.7133504
 108.7820565  66.0026754  48.1049996 109.0934689  66.4447618  49.5190222
  97.3317578  69.8560719  56.4780877  98.2520588  70.0339318  56.6720923
  97.2967161  68.9116764  56.3260576  95.6321803  63.7292949  34.9535105
  94.7253258  63.4326062  35.0297819  95.9097784  63.4322767  34.0869391
  86.5499743  65.0499313  45.4034152  86.2302527  64.1964621  45.1108526
  86.0033171  65.2647891  46.1592119  90.3279651  67.7661754  49.1203658
  90.5465660  68.6978862  49.1391692  90.7405424  67.4069728  49.9058462
  97.2483868  58.2729839  41.1079347  96.4384597  57.9276924  41.4834593
  97.9368285  57.9637383  41.6966958  99.1774417  57.3507886  42.7303643
  99.7305455  57.7703339  43.3893666  99.4144503  56.4243634  42.7726599
  95.2007516  63.3394959  58.5106407  95.1004243  64.2889316  58.4418498
  94.9829058  63.0113198  57.6382477  94.4020587  60.5879885  35.0947084
  95.2639751  60.9134783  35.3542902  94.5870931  59.8011380  34.5820150
  86.4188003  68.6702224  47.3727273  85.7251475  68.2556177  46.8597228
  87.1660994  68.7122761  46.7760692 102.5553224  59.4608411  42.2382307
 101.9751893  60.1193215  41.8560360 102.2889156  58.6385756  41.8269725
 101.0056790  58.8613469  44.4403628 101.5056569  58.9730003  43.6317947
 101.6492398  58.5574522  45.0804436  95.0638786  66.7692098  57.3271469
  94.5805868  67.5692458  57.5335358  95.1499725  66.7800043  56.3738913
  88.3324746  68.6020478  45.2493288  88.3095434  68.7008165  44.2975171
  88.6425382  69.4485629  45.5710454  90.9912123  70.6596633  49.3639902
  91.9455377  70.6280575  49.2969834  90.7924647  70.1987257  50.1790128
  91.5811506  69.2297749  51.9310700  92.4004395  69.7241828  51.9545537
  91.8548313  68.3129717  51.9028268 101.3378102  61.6208501  41.2938656
 100.4503957  61.9058152  41.0758850 101.7532091  61.4602265  40.4465933
 104.6892638  61.6455022  45.0092995 105.4653028  62.1351475  45.2817612
 103.9640772  62.0713077  45.4664864 107.1265197  62.3582642  46.0666936
 107.7209687  62.1178378  45.3560244 107.1991780  61.6389772  46.6940472
  89.3462352  76.2016253  46.3810100  89.2116820  75.4416653  45.8148098
  88.9294415  76.9257152  45.9138889 100.4821315  71.3853176  35.3886676
 101.1857165  71.5903179  36.0044331  99.7583964  71.9529938  35.6535759
 101.3119126  67.1363037  41.5088946 101.2554327  67.5931589  40.6696578
 101.8647468  66.3753722  41.3311789 105.1223931  62.9252769  42.3339065
 104.8660866  62.5249405  43.1647273 104.4976800  63.6396563  42.2089204
 109.4336269  65.6648842  44.8410357 108.8735827  65.7342032  45.6141919
 108.8279773  65.4889827  44.1209853  92.5031478  77.0985570  46.5928543
  92.3863862  78.0431002  46.4907233  91.6823924  76.7959131  46.9814342
 102.3908013  71.8235705  37.4385136 103.2253617  71.3916904  37.2562610
 102.2292356  71.6517719  38.3662030 102.0453905  68.3267819  38.8041475
 101.9902709  68.1612090  37.8629919 101.4199960  69.0343851  38.9603665
  86.8346420  63.5635883  52.6302897  87.4805283  63.0534837  53.1190122
  86.6263571  64.3004565  53.2046322  99.3599812  70.6316730  58.1295038
 100.2290972  70.8057383  57.7681673  98.8806564  71.4511147  58.0070767
  95.3550030  57.8275928  38.3826793  95.3428700  58.7717767  38.5395064
  96.2473452  57.6446073  38.0886255  93.5285992  77.7513831  49.8084471
  94.4313239  77.7837442  50.1250966  93.3023362  76.8214282  49.8230807
  95.2839594  76.5044818  46.4694550  94.3335225  76.5046680  46.3558922
  95.5872080  75.7577553  45.9530585  99.1702150  54.4218704  42.6372730
  98.4034546  53.8677191  42.7829413  99.5812855  54.4940573  43.4986882
  91.1743911  60.7103500  56.7277911  92.0375372  60.3540305  56.9381236
  90.6009322  60.3717395  57.4153316 111.0192288  82.3405356  47.5340312
 111.6570698  82.2212104  46.8303653 110.9013131  83.2886200  47.5928265
 107.8281994  82.2932784  47.4701837 107.4900506  82.1773849  46.5822372
 108.6971762  81.8923950  47.4502843 103.6868810  84.1468261  43.4598728
 103.1233675  84.0558198  42.6915016 103.5721205  83.3268165  43.9401221
 108.3101777  83.4467636  53.4288043 108.2990418  83.0520434  52.5568546
 108.4722417  82.7133709  54.0221814 101.2333242  85.6419452  46.2982949
 102.0254534  85.3010277  45.8829248 101.4729892  85.7514428  47.2185102
 109.2668368  87.8139229  38.7713193 108.6156348  88.3993309  38.3847207
 110.0612731  88.3445423  38.8308230 103.1923996  84.9028366  39.1700327
 103.9654872  84.3557353  39.0313203 103.5449395  85.7672615  39.3814789
 105.0309038  86.2304748  52.3767227 104.7398904  87.1350379  52.2613893
 105.6666023  86.2721276  53.0911296 105.9565245  83.6081597  48.9668586
 106.5528817  83.3837619  48.2525549 106.0140217  82.8666342  49.5694034
 105.5290273  81.0621032  36.8018777 105.7815794  80.5402553  36.0402240
 104.5914833  80.8987177  36.9045461 110.5733556  80.0656810  44.6093520
 111.3596645  79.6476233  44.2583938 110.8372261  80.9702902  44.7775169
 110.7443634  85.5029661  39.3082177 110.1089467  85.5764287  40.0203082
 110.4141040  86.0923259  38.6301257 115.9741983  80.0032043  45.5126499
 116.7067155  79.4331260  45.7464328 115.2181339  79.6153644  45.9533005
 105.2486562  82.9649138  39.0043152 105.1322820  82.2894041  39.6724237
 105.3588822  82.4781512  38.1875305 107.5918103  82.4259285  42.7089841
 107.2276310  81.8989906  43.4202763 108.4485219  82.0357754  42.5356327
 113.4967404  73.7153618  49.9721108 113.1650729  74.5849028  49.7482323
 112.9013017  73.3989902  50.6515138 107.2323590  77.4549185  37.7051190
 107.3997992  78.3229421  38.0721661 107.0420759  77.6176466  36.7812479
 109.9898923  85.9166163  49.3717020 109.6899646  86.8191202  49.2632828
 109.6449983  85.6498347  50.2238173 103.4411405  82.3679960  45.4053725
 102.5161901  82.2356174  45.6131417 103.6895818  83.1474180  45.9023667
 113.3896067  78.4348704  47.0514458 112.4812944  78.3664112  46.7573219
 113.3383663  78.9120649  47.8796283 107.2112811  79.9106842  38.6897857
 107.0912436  80.3563893  39.5283337 106.5165399  80.2592160  38.1311395
 100.8020216  82.0113234  46.2397514 100.9312597  82.2647713  47.1536926
 100.1217667  82.6040942  45.9202169 104.9719703  92.6810484  42.3387988
 104.8943733  93.6318309  42.4176469 104.3681347  92.3356356  42.9962914
 107.4636933  79.8538349  54.9949355 106.6870267  80.4132269  54.9852220
 108.1027496  80.3395132  55.5164225 115.2557713  76.6365142  48.8292332
 114.6132094  76.9297675  48.1832126 114.7512642  76.5218062  49.6345528
 112.9097877  80.3828315  39.5178191 113.8215733  80.6155702  39.3425888
 112.4007524  80.9665359  38.9553269 105.7183305  82.6623803  54.5567322
 106.4597990  83.2008847  54.2802146 105.0120291  83.2890091  54.7138874
 111.1938645  84.8052943  53.1539483 111.6022001  84.3635354  52.4094116
 110.4715906  84.2305571  53.4073676 107.5469715  79.7425550  50.5273040
 108.3930910  80.1664963  50.6707689 107.4868353  79.0859174  51.2211603
 111.5167459  85.3654134  46.9091772 110.8876322  85.5299848  46.2067840
 111.1293122  85.7795743  47.6802736 115.3956691  86.3008572  44.2636136
 114.7107729  86.6807473  43.7133169 115.4800541  86.9103898  44.9968084
 110.6969160  77.4029918  52.1854214 110.4530092  78.1571979  51.6488490
 110.9729091  77.7815266  53.0201461 112.6507623  83.9468531  50.8631480
 112.8624518  84.5900290  50.1865861 112.6037371  83.1130847  50.3953410
 110.2533852  76.5586351  47.7668052 109.3918331  76.8567605  48.0584789
 110.2796287  76.7756750  46.8349084 107.0695421  85.1028542  44.1741857
 107.5333767  85.3816245  43.3846480 106.8052219  84.2011986  43.9914948
 103.9619502  84.6500023  47.1121621 104.5320859  85.0787292  46.4739105
 104.5527614  84.3682608  47.8105806 106.0064307  81.2251694  40.9831423
 106.7088351  81.6772738  41.4505349 105.6744936  80.5835513  41.6111316
 104.4544669  79.8163451  55.3582632 103.8243329  80.4979732  55.5918029
 104.3480757  79.7046532  54.4135770  99.7489641  79.4835247  46.2848556
  98.9588695  79.7392775  45.8088667 100.2400889  80.2983585  46.3900597
 113.7653451  86.8240486  49.0353837 114.5870895  86.4220673  48.7536519
 113.7615854  86.7208720  49.9869953 101.7004387  79.8479826  43.2432033
 100.9035550  79.9598520  43.7615528 101.4729979  80.1866478  42.3772923
 107.5310054  86.3724529  51.1914547 107.5954487  86.8344937  52.0272719
 106.8220978  85.7421894  51.3196857  98.0327344  79.7365737  48.7163547
  98.2835383  80.6212747  48.9821123  98.5686893  79.5570339  47.9438639
 107.2458072  88.0392637  41.0593528 107.1103747  88.8844173  41.4878376
 107.7867884  88.2411914  40.2959462 103.7325412  74.1184217  57.7207883
 103.3392357  73.5650415  58.3955527 104.5491552  74.4294795  58.1114401
 100.6987469  85.5568075  41.6321453 101.2111990  86.3511325  41.7827018
 101.3510182  84.8594365  41.5655054 102.5082354  88.6733831  43.7144206
 102.6848982  89.5951796  43.5265190 103.3039188  88.3592250  44.1438586
 106.6493373  75.5342096  55.3128140 107.3903086  76.1349249  55.2332602
 106.8811295  74.7919734  54.7546182 101.7934711  80.7198463  53.5906369
 101.6788226  79.8183720  53.8913468 100.9379228  80.9662160  53.2391186
 108.8726548  88.6616203  55.1893870 108.4290403  87.8752582  54.8714774
 109.5343762  88.8495354  54.5237761 103.6313670  90.1912005  49.7154548
 104.1821095  90.0629068  48.9431542 102.7925145  90.4906894  49.3649441
 110.9707786  88.9419003  53.2175271 110.9526262  89.7627884  52.7255540
 111.8927706  88.8173078  53.4425412 107.4280841  86.4563133  54.0598779
 107.9609177  85.6951421  53.8298087 106.8994922  86.1636785  54.8022934
 110.5950536  71.5623199  49.5892421 110.2514805  72.4524840  49.5131532
 110.9629498  71.3724856  48.7262006  98.6636386  83.8856729  42.4081023
  99.5011608  84.2953738  42.1914731  98.8414654  82.9456171  42.3781217
 110.5600818  81.5531810  38.0964856 110.0447442  82.3236414  38.3353244
 110.2878127  80.8796946  38.7197918 108.1447929  76.3981511  43.1550095
 107.2889526  76.0088361  42.9755733 108.5574881  76.4773471  42.2949880
 109.6747076  73.9327854  47.5541654 109.1711872  73.8957989  46.7409460
 109.9677683  74.8420597  47.6138311 105.9189962  74.0166584  46.5607836
 106.7842959  73.8209392  46.2013726 105.9867471  73.7876935  47.4877193
 115.5335092  84.3064164  40.0318030 114.7564535  83.9675324  39.5873192
 116.2126573  84.3116788  39.3572995 110.3487121  79.4258902  39.9224638
 110.0437257  79.7405051  40.7734781 111.3017564  79.5040322  39.9651971
 108.7933553  85.5849125  41.5717591 108.2654915  84.8501885  41.2590829
 108.2921056  86.3623802  41.3257560 113.7726399  83.7798146  46.6884638
 113.1150074  84.4697407  46.7764766 114.5766799  84.1694578  47.0318624
 103.5252281  76.2468791  43.9324203 104.0996033  76.0243973  43.1997396
 104.1123263  76.3157486  44.6852804 112.5831858  82.1342518  44.7388580
 113.0963740  82.7672510  45.2410289 113.2333082  81.5343714  44.3731940
 103.8521868  78.2773253  37.9520088 103.0159180  78.6147939  38.2729363
 103.7126638  78.1422232  37.0147225 105.8274949  73.1210040  42.6599272
 105.1739361  72.8059058  42.0355887 105.7855423  72.4985781  43.3859095
 106.9386153  83.4029335  34.5752565 106.0313215  83.1718589  34.7743713
 107.4357185  82.6066955  34.7626546 109.8454232  92.1126843  37.4949251
 109.1715931  92.4158539  38.1034209 110.2320054  92.9155923  37.1454708
 109.0612689  79.6091974  46.9846920 108.1435250  79.8306921  46.8268608
 109.4772833  79.6838284  46.1258627 109.8447737  81.0083390  42.1149600
 110.5919556  81.5204787  41.8056722 110.1139326  80.6867442  42.9753994
 108.1174387  83.5041930  39.0976555 107.2085606  83.2200963  39.1949024
 108.1469471  83.9241009  38.2379861 113.3493654  87.1148520  42.8667722
 112.8955981  86.2739430  42.9232913 112.7187621  87.7509918  43.2042502
 112.2926574  78.0440506  44.0968390 111.5549331  77.5317892  44.4278632
 112.5453347  77.6040887  43.2851666 111.7926594  88.9525017  43.8017540
 112.0849568  89.5130074  43.0829906 112.3025214  89.2453578  44.5570699
 112.3938201  70.8216758  44.6910159 112.6997078  69.9614121  44.4036074
 113.1190806  71.4134378  44.4909153  98.6862557  81.2247444  43.0791757
  98.4886957  80.6316805  42.3542823  98.1309221  80.9199655  43.7967696
 106.6659281  81.1170551  45.1986350 106.7207891  80.1644387  45.1228827
 105.8550483  81.2729990  45.6827648 107.8150475  85.0450674  36.4364633
 107.3769905  84.3286533  35.9770271 108.5560916  85.2726789  35.8749725
 104.6051641  79.7347611  42.9576729 103.7919506  80.0341781  43.3641921
 105.1010635  79.3403299  43.6751211 106.7560219  89.7305368  44.8910994
 106.7136398  89.9566214  43.9619526 107.6722918  89.4968742  45.0396795
 110.2025853  80.1989435  51.7891623 110.5575240  80.4260908  52.6486088
 110.8497984  80.5307812  51.1668878 115.9323590  83.3207871  42.4940952
 115.7941488  83.5109467  41.5662141 115.5759808  84.0827254  42.9509003
 104.0965716  77.3065966  48.5737964 104.7365095  77.1654725  47.8760927
 103.2643246  77.0200480  48.1976566 115.9592969  85.3884398  47.5052223
 116.3929476  85.2959687  48.3535277 116.6724550  85.3641899  46.8672239
 104.8726020  86.6068397  44.6872956 105.6666618  86.1118717  44.4855531
 104.1617712  86.0786260  44.3240662 109.6920864  88.9886492  49.0385324
 109.7457886  89.5577428  49.8063040 108.8235645  89.1588377  48.6739361
 101.1808783  80.7511478  40.7632709 100.2506371  80.6895934  40.9802671
 101.2766255  80.2287431  39.9669350 101.0994332  77.2766291  43.3510951
 101.3601149  78.1911624  43.2420111 101.9211504  76.8090734  43.5007563
 102.5719257  78.6904048  50.5209775 103.2442311  78.4821410  49.8722424
 101.7449044  78.4926134  50.0815007 116.8208519  85.4308099  50.0385109
 117.0144409  86.3353909  50.2844384 116.7209137  84.9715518  50.8723694
 108.4744829  75.3165989  52.5375436 107.8272744  76.0155939  52.4439912
 109.2445845  75.7502133  52.9051684 111.8823627  85.5814841  55.6125989
 111.7309134  85.3525393  54.6956073 111.8728307  86.5385443  55.6257334
 108.6508964  83.1546754  50.5972256 109.5801024  83.3057914  50.4241223
 108.2299994  83.2430775  49.7420902 107.4497296  87.1797419  48.3670793
 107.3108381  86.8116203  49.2396731 106.6611892  87.6945058  48.1954751
 108.0445448  92.2806515  39.7096330 108.2197203  91.8094558  40.5241953
 107.3578236  92.9072281  39.9377591 109.0002511  86.5579021  45.7559631
 108.6652343  86.5179791  46.6517281 108.5006456  85.8923737  45.2830041
 102.9746755  81.9646651  51.2812212 102.8366553  81.2326890  51.8823751
 103.8851678  81.8755551  50.9996400 111.9361702  83.9035056  36.0296691
 111.3190873  83.1781884  35.9329743 111.4678191  84.6644416  35.6863765
 105.6029055  81.6766611  50.7695892 106.3128674  81.0359803  50.7282510
 105.5598363  81.9279506  51.6922073 113.5915834  88.6133964  53.6902471
 113.5328380  87.9293184  53.0233054 113.9935352  89.3552954  53.2383097
 104.3157989  78.6631829  52.5891531 103.7795346  78.2122567  53.2413128
 103.7274698  78.7977737  51.8461996 102.6106533  95.4295878  46.4836190
 102.8503131  96.0614402  47.1615209 101.7675729  95.0783918  46.7701549
 103.7260248  78.1220480  35.1517995 102.8489715  78.0009281  34.7880242
 104.2018001  77.3306558  34.8996884 113.5933241  86.5773548  51.9216451
 112.7060020  86.2399470  52.0442850 114.1631792  85.8456579  52.1585216
  95.2462388  82.9097640  45.2459502  95.9333428  82.5959370  44.6580518
  95.0910517  83.8139004  44.9726754 100.0497111  77.7987836  49.6744526
  99.9655299  77.1913506  48.9394936  99.2279817  78.2896855  49.6754022
 107.1234395  91.2375000  48.8877694 107.0504566  92.0429972  49.3996999
 106.6811788  91.4366966  48.0625715 106.9124174  90.4746770  42.3980516
 106.1291696  91.0168450  42.4918740 107.6116919  90.9920750  42.7974757
 110.2220824  76.2841400  45.0414721 110.7189524  75.5311362  44.7215791
 109.4507806  76.3205716  44.4757930 118.0750582  81.9881765  46.6833012
 118.0640458  82.8706481  46.3126946 117.2067961  81.6353316  46.4887550
 109.5833078  91.1361834  51.0435853 110.2961050  91.7709299  50.9711754
 109.0923107  91.2325700  50.2275855 111.3050605  85.0413087  42.6153144
 110.3706884  85.1614549  42.4457849 111.4827274  84.1385554  42.3513154
 106.8055793  78.4258783  44.7686406 106.4353581  77.8729823  45.4567311
 107.3014886  77.8216916  44.2161406 114.6923156  80.8830406  43.1503178
 115.1583609  81.7158398  43.0763481 115.1430657  80.4175388  43.8548437
 104.6344992  88.8856278  51.8641424 105.3354451  89.5192761  52.0170818
 104.1640107  89.2271009  51.1037063 112.7599388  87.2274228  40.1489331
 113.0359231  87.1130822  41.0583205 111.8903886  86.8291712  40.1101504
 112.6639819  73.2510993  47.1894080 111.7502899  73.4815220  47.3576287
 113.0932921  73.3349437  48.0408112 112.4346278  81.4400885  49.6893974
 111.7817728  81.6876793  49.0346427 112.8126658  80.6265023  49.3556451
 109.3953452  91.4760578  43.7922144 109.5775846  90.6582234  44.2549896
 110.2186438  91.6928271  43.3547034 109.7295617  90.4028764  41.0537193
 110.2583383  89.8921218  40.4407355 109.9923837  90.0871294  41.9182726
 108.4833851  82.1820696  56.1760011 107.8074488  82.0814826  56.8462386
 109.3061485  82.0259910  56.6396008 100.2312710  88.4192633  48.7972526
 100.8166147  87.6736321  48.9300430 100.0337548  88.7296590  49.6809190
 103.0851365  91.4543880  43.8134969 102.4161740  91.9390008  43.3299009
 102.9464235  91.7013101  44.7278347  94.8230365  80.9898233  47.5176969
  94.8614464  80.4561824  48.3114087  94.3170657  80.4633439  46.8987947
 107.2256634  93.4887624  50.4117627 107.7774942  93.6519245  51.1766712
 107.5662827  94.0792062  49.7397652 102.2021127  75.8362774  51.0139512
 102.2662453  76.6977604  50.6016909 102.1388247  75.2236775  50.2811870
 101.6773399  77.9085906  54.6612546 102.3045438  77.5262983  55.2750070
 100.8201318  77.6900108  55.0268238 112.0767508  88.3148881  56.2666281
 112.6207412  88.9278840  55.7721236 111.4954353  88.8728460  56.7833294
  98.4538942  79.7162335  40.5930901  98.7492383  78.8073014  40.5397954
  97.5526978  79.6950075  40.2711903 110.3625021  91.4369599  47.3981309
 110.2376160  90.6359339  46.8892255 111.0204112  91.9315793  46.9095279
 101.9833189  77.7918332  46.5758449 101.2619775  78.4054299  46.4365923
 102.7726445  78.3276097  46.4975095 112.4259929  89.2378619  49.0260859
 111.4790265  89.1183971  48.9539186 112.7742702  88.3501117  49.1087121
 104.7859503  75.1272758  52.8499101 105.3093904  75.3735055  53.6125410
 104.5671836  75.9592793  52.4302238 100.1826784  77.3976433  40.7170226
  99.8539490  76.5173812  40.5345332 100.5366154  77.3424102  41.6046615
 109.4306363  89.0331336  45.2265211 109.2831325  88.1048043  45.4072781
 110.2559856  89.0551426  44.7422287 103.2968607  77.6849403  41.0845704
 103.6364679  78.2135324  40.3624312 103.7440727  78.0229809  41.8604270
 113.0340484  89.8559894  46.3130084 113.9587032  89.6502756  46.1754535
 112.8655788  89.6076295  47.2219426 105.9912048  76.0686453  50.5348772
 105.6508868  75.2694266  50.9369451 105.2851054  76.3688164  49.9625605
 106.6428519  73.1535766  48.9876095 107.4654589  72.6796244  48.8654985
 106.8866583  73.9326250  49.4874781 105.2836754  76.1824024  39.2838996
 106.0045116  76.5605277  38.7802713 104.6602058  76.9012901  39.3873974
 109.4267877  76.8869173  40.2197329 109.6431491  77.7693811  39.9186157
 108.9461944  76.4955387  39.4902971 104.1667098  79.8454886  46.7968073
 104.0211679  80.1595190  47.6892355 103.6892302  80.4639787  46.2438972
 106.0263481  76.8357434  46.8448963 106.0125050  75.9398528  46.5081261
 106.7435909  76.8428098  47.4787249 107.8789612  77.2694775  48.8902090
 107.6207390  78.1911845  48.8886421 107.3474652  76.8725209  49.5802554
 112.8235801  90.3745562  41.6692176 112.9972678  89.8091984  40.9166028
 113.3164692  91.1746457  41.4871666  98.6412760  82.3860231  49.7355734
  98.0966228  83.1620039  49.8676009  99.5192110  82.7331035  49.5774856
 105.4300377  75.7171815  42.1136533 105.5516288  74.7888461  42.3127420
 105.1402419  75.7310501  41.2014848 108.2991567  73.4026725  45.2503253
 108.3213264  73.4666058  44.2955232 108.7159626  72.5631234  45.4443759
 113.8110973  89.6912326  38.7689074 114.5061878  90.3119019  38.9876389
 114.1534123  88.8407677  39.0441452  99.4278782  81.5130127  52.6285891
  98.6860518  81.6612762  53.2150522  99.1071527  81.7738393  51.7652641
 115.7102396  87.1412032  40.2976405 116.2353720  87.4799304  39.5725725
 115.6224749  86.2059047  40.1139539 107.3722445  91.0546105  52.4266281
 107.6809571  90.8095252  53.2988981 108.1697927  91.2592744  51.9385152
 107.3943057  93.2084015  44.6571658 106.9548047  92.7160394  45.3504515
 108.1451174  92.6656983  44.4163733  99.8735396  89.3995556  44.6596286
 100.6993416  89.0999328  44.2794929  99.5229448  88.6303178  45.1086075
 104.8416929  88.7522024  46.7293960 104.2196938  88.0892729  46.4296187
 105.5121796  88.7783156  46.0467607  98.0744001  87.3181882  45.6185220
  97.2375909  86.8904057  45.4369221  98.0467646  87.5114326  46.5556011
 104.9141457  77.2303812  56.3226466 104.9629612  78.1065935  55.9404235
 105.4563971  76.6881205  55.7498109 115.3996302  87.7744935  55.6027603
 114.6091846  87.7569074  55.0632102 115.1629657  88.3133229  56.3576639
 115.5194177  84.6237402  52.9160331 115.5692182  84.4587409  53.8575854
 115.4108101  83.7564661  52.5258212 104.4030436  87.3025947  40.2052420
 104.5518556  87.9861412  39.5519093 105.2096879  87.2831037  40.7201876
 112.8097940  80.6068330  54.2319638 113.7107802  80.4674795  53.9403636
 112.8845914  80.7722785  55.1717815 107.1440745  77.9835184  53.0772824
 106.2744054  78.2768751  52.8055413 107.3800225  78.5675629  53.7980088
 117.0212374  87.0434343  53.1602353 116.7297182  87.4064324  53.9965814
 116.4084505  86.3301351  52.9815685 115.2699562  82.1666958  51.6282411
 115.7453684  82.3594604  50.8201262 114.3465128  82.2226144  51.3825794
 102.1583069  83.3291125  41.2113489 101.9129111  82.4253455  41.4093699
 102.3278984  83.3308275  40.2692967 109.8479779  74.2014801  50.5938245
 110.3661723  74.9375828  50.2684733 109.4934912  74.5078795  51.4285004
 101.4278717  79.0619483  38.7099650 100.7347961  79.1363838  38.0539686
 101.1830468  78.2979826  39.2321167 110.0992373  70.6215084  46.1139141
 110.3794127  69.9538273  46.7399568 110.8842980  70.8144180  45.6013805
 107.9025842  89.7974078  37.6764167 107.3299809  90.4164265  37.2234639
 108.4758635  90.3473440  38.2104089 113.9701231  79.0432718  49.8610716
 114.9218654  79.1430816  49.8822940 113.8004682  78.2510986  50.3708801
 111.9915611  76.1288301  50.0470117 111.3965543  76.4093314  49.3516606
 111.7065308  76.6182202  50.8186858 111.1223101  90.0811228  38.8072750
 112.0553774  90.0156790  39.0105625 111.0346314  90.9167495  38.3487282
 113.7511118  89.3977098  35.7676697 113.6724750  89.0636962  36.6612455
 114.5720785  89.8898866  35.7668170 116.4489309  82.2638838  48.9753016
 116.4165629  81.3254838  49.1612700 117.0589933  82.3422874  48.2418841
 108.2872640  81.1334891  35.0180220 109.2331745  81.0041099  35.0868638
 107.9086885  80.3949552  35.4949648 116.5983798  79.0549881  49.0211299
 116.0822846  78.2708338  48.8341228 117.4823746  78.7268598  49.1857819
 114.2594525  72.7990897  44.9807112 114.0619346  72.4905985  45.8650444
 114.8694230  73.5252536  45.1105042 108.1711333  85.1852637  56.4780877
 109.0914342  85.3631236  56.6720923 108.1360916  84.2408682  56.3260576
 106.4715557  79.0584867  34.9535105 105.5647013  78.7617980  35.0297819
 106.7491538  78.7614685  34.0869391  97.3893498  80.3791230  45.4034152
  97.0696282  79.5256539  45.1108526  96.8426926  80.5939809  46.1592119
 101.1673405  83.0953671  49.1203658 101.3859415  84.0270779  49.1391692
 101.5799179  82.7361646  49.9058462 108.0877623  73.6021757  41.1079347
 107.2778351  73.2568842  41.4834593 108.7762040  73.2929300  41.6966958
 110.0168171  72.6799804  42.7303643 110.5699210  73.0995257  43.3893666
 110.2538258  71.7535552  42.7726599 106.0401270  78.6686877  58.5106407
 105.9397997  79.6181234  58.4418498 105.8222812  78.3405116  57.6382477
 105.2414342  75.9171802  35.0947084 106.1033506  76.2426701  35.3542902
 105.4264686  75.1303298  34.5820150  97.2581758  83.9994142  47.3727273
  96.5645229  83.5848095  46.8597228  98.0054749  84.0414678  46.7760692
 113.3946978  74.7900329  42.2382307 112.8145647  75.4485133  41.8560360
 113.1282911  73.9677673  41.8269725 111.8450545  74.1905386  44.4403628
 112.3450323  74.3021921  43.6317947 112.4886153  73.8866439  45.0804436
 105.9032540  82.0984016  57.3271469 105.4199622  82.8984376  57.5335358
 105.9893480  82.1091961  56.3738913  99.1718500  83.9312396  45.2493288
  99.1489188  84.0300083  44.2975171  99.4819137  84.7777546  45.5710454
 101.8305878  85.9888551  49.3639902 102.7849132  85.9572493  49.2969834
 101.6318402  85.5279174  50.1790128 102.4205260  84.5589667  51.9310700
 103.2398149  85.0533745  51.9545537 102.6942068  83.6421635  51.9028268
 112.1771856  76.9500419  41.2938656 111.2897711  77.2350070  41.0758850
 112.5925845  76.7894182  40.4465933 115.5286392  76.9746940  45.0092995
 116.3046783  77.4643392  45.2817612 114.8034527  77.4004994  45.4664864
 100.1856107  91.5308170  46.3810100 100.0510575  90.7708571  45.8148098
  99.7688169  92.2549070  45.9138889 111.3215070  86.7145094  35.3886676
 112.0250920  86.9195096  36.0044331 110.5977719  87.2821856  35.6535759
 112.1512880  82.4654955  41.5088946 112.0948081  82.9223506  40.6696578
 112.7041223  81.7045640  41.3311789 115.9617686  78.2544687  42.3339065
 115.7054620  77.8541323  43.1647273 115.3370554  78.9688481  42.2089204
 103.3425233  92.4277487  46.5928543 103.2257617  93.3722920  46.4907233
 102.5217679  92.1251049  46.9814342 113.2301767  87.1527623  37.4385136
 114.0647371  86.7208821  37.2562610 113.0686110  86.9809637  38.3662030
 112.8847659  83.6559736  38.8041475 112.8296463  83.4904008  37.8629919
 112.2593715  84.3635769  38.9603665  97.6740174  78.8927801  52.6302897
  98.3199038  78.3826755  53.1190122  97.4657325  79.6296482  53.2046322
 110.1993567  85.9608648  58.1295038 111.0684726  86.1349300  57.7681673
 109.7200318  86.7803065  58.0070767 106.1943785  73.1567845  38.3826793
 106.1822455  74.1009685  38.5395064 107.0867207  72.9737991  38.0886255
 104.3679747  93.0805749  49.8084471 105.2706993  93.1129359  50.1250966
 104.1417117  92.1506200  49.8230807 106.1233349  91.8336736  46.4694550
 105.1728980  91.8338597  46.3558922 106.4265835  91.0869470  45.9530585
 110.0095904  69.7510622  42.6372730 109.2428300  69.1969109  42.7829413
 110.4206609  69.8232491  43.4986882 102.0137665  76.0395418  56.7277911
 102.8769127  75.6832223  56.9381236 101.4403076  75.7009312  57.4153316
 114.5262564  99.4760179  43.4598728 113.9627429  99.3850115  42.6915016
 114.4114959  98.6560083  43.9401221 112.0726996 100.9711370  46.2982949
 112.8648288 100.6302195  45.8829248 112.3123646 101.0806345  47.2185102
 114.0317750 100.2320283  39.1700327 114.8048626  99.6849270  39.0313203
 114.3843149 101.0964533  39.3814789 115.8702793 101.5596666  52.3767227
 115.5792659 102.4642297  52.2613893 116.5059777 101.6013193  53.0911296
 116.7959000  98.9373514  48.9668586 117.3922572  98.7129537  48.2525549
 116.8533971  98.1958260  49.5694034 116.3684028  96.3912950  36.8018777
 116.6209549  95.8694471  36.0402240 115.4308587  96.2279095  36.9045461
 116.0880317  98.2941055  39.0043152 115.9716575  97.6185959  39.6724237
 116.1982577  97.8073429  38.1875305 118.0717345  92.7841102  37.7051190
 118.2391747  93.6521339  38.0721661 117.8814514  92.9468384  36.7812479
 114.2805159  97.6971878  45.4053725 113.3555656  97.5648092  45.6131417
 114.5289572  98.4766097  45.9023667 118.0506565  95.2398760  38.6897857
 117.9306191  95.6855811  39.5283337 117.3559154  95.5884077  38.1311395
 111.6413970  97.3405152  46.2397514 111.7706351  97.5939630  47.1536926
 110.9611422  97.9332860  45.9202169 116.5577060  97.9915720  54.5567322
 117.2991744  98.5300764  54.2802146 115.8514045  98.6182009  54.7138874
 114.8013257  99.9791941  47.1121621 115.3714614 100.4079209  46.4739105
 115.3921369  99.6974526  47.8105806 116.8458062  96.5543612  40.9831423
 117.5482105  97.0064656  41.4505349 116.5138690  95.9127431  41.6111316
 115.2938423  95.1455368  55.3582632 114.6637084  95.8271649  55.5918029
 115.1874511  95.0338450  54.4135770 110.5883396  94.8127165  46.2848556
 109.7982450  95.0684693  45.8088667 111.0794643  95.6275502  46.3900597
 112.5398141  95.1771744  43.2432033 111.7429304  95.2890438  43.7615528
 112.3123733  95.5158396  42.3772923 108.8721099  95.0657655  48.7163547
 109.1229137  95.9504665  48.9821123 109.4080647  94.8862256  47.9438639
 114.5719166  89.4476134  57.7207883 114.1786112  88.8942333  58.3955527
 115.3885306  89.7586713  58.1114401 111.5381224 100.8859993  41.6321453
 112.0505744 101.6803243  41.7827018 112.1903937 100.1886283  41.5655054
 117.4887127  90.8634013  55.3128140 118.2296840  91.4641167  55.2332602
 117.7205050  90.1211651  54.7546182 112.6328465  96.0490381  53.5906369
 112.5181980  95.1475638  53.8913468 111.7772983  96.2954077  53.2391186
 109.5030141  99.2148647  42.4081023 110.3405363  99.6245655  42.1914731
 109.6808408  98.2748089  42.3781217 116.7583716  89.3458501  46.5607836
 117.6236713  89.1501310  46.2013726 116.8261225  89.1168853  47.4877193
 114.3646035  91.5760709  43.9324203 114.9389787  91.3535891  43.1997396
 114.9517018  91.6449404  44.6852804 114.6915623  93.6065170  37.9520088
 113.8552935  93.9439857  38.2729363 114.5520392  93.4714150  37.0147225
 116.6668703  88.4501958  42.6599272 116.0133115  88.1350975  42.0355887
 116.6249177  87.8277699  43.3859095 109.5256312  96.5539362  43.0791757
 109.3280712  95.9608723  42.3542823 108.9702976  96.2491572  43.7967696
 117.5053035  96.4462469  45.1986350 117.5601645  95.4936305  45.1228827
 116.6944237  96.6021908  45.6827648 115.4445395  95.0639528  42.9576729
 114.6313261  95.3633699  43.3641921 115.9404390  94.6695217  43.6751211
 114.9359470  92.6357884  48.5737964 115.5758849  92.4946643  47.8760927
 114.1037001  92.3492397  48.1976566 115.7119774 101.9360314  44.6872956
 116.5060373 101.4410634  44.4855531 115.0011466 101.4078177  44.3240662
 112.0202537  96.0803396  40.7632709 111.0900126  96.0187852  40.9802671
 112.1160009  95.5579349  39.9669350 111.9388087  92.6058209  43.3510951
 112.1994904  93.5203542  43.2420111 112.7605259  92.1382651  43.5007563
 113.4113012  94.0195966  50.5209775 114.0836065  93.8113328  49.8722424
 112.5842798  93.8218052  50.0815007 113.8140509  97.2938569  51.2812212
 113.6760307  96.5618808  51.8823751 114.7245433  97.2047469  50.9996400
 116.4422810  97.0058528  50.7695892 117.1522428  96.3651721  50.7282510
 116.3992118  97.2571423  51.6922073 115.1551744  93.9923746  52.5891531
 114.6189101  93.5414485  53.2413128 114.5668452  94.1269655  51.8461996
 114.5654003  93.4512398  35.1517995 113.6883469  93.3301198  34.7880242
 115.0411756  92.6598476  34.8996884 106.0856143  98.2389557  45.2459502
 106.7727183  97.9251287  44.6580518 105.9304272  99.1430922  44.9726754
 110.8890865  93.1279754  49.6744526 110.8049054  92.5205423  48.9394936
 110.0673571  93.6188772  49.6754022 117.6449548  93.7550700  44.7686406
 117.2747335  93.2021741  45.4567311 118.1408640  93.1508834  44.2161406
 111.0706464 103.7484550  48.7972526 111.6559901 103.0028238  48.9300430
 110.8731303 104.0588507  49.6809190 105.6624119  96.3190151  47.5176969
 105.7008219  95.7853741  48.3114087 105.1564412  95.7925356  46.8987947
 113.0414881  91.1654691  51.0139512 113.1056208  92.0269522  50.6016909
 112.9782002  90.5528693  50.2811870 112.5167154  93.2377824  54.6612546
 113.1439193  92.8554901  55.2750070 111.6595073  93.0192026  55.0268238
 109.2932697  95.0454253  40.5930901 109.5886138  94.1364931  40.5397954
 108.3920732  95.0241992  40.2711903 112.8226944  93.1210249  46.5758449
 112.1013529  93.7346217  46.4365923 113.6120199  93.6568014  46.4975095
 115.6253257  90.4564676  52.8499101 116.1487659  90.7026972  53.6125410
 115.4065590  91.2884711  52.4302238 111.0220538  92.7268351  40.7170226
 110.6933244  91.8465729  40.5345332 111.3759909  92.6716019  41.6046615
 114.1362361  93.0141320  41.0845704 114.4758434  93.5427242  40.3624312
 114.5834482  93.3521726  41.8604270 116.8305802  91.3978371  50.5348772
 116.4902623  90.5986184  50.9369451 116.1244808  91.6980082  49.9625605
 116.1230508  91.5115942  39.2838996 116.8438871  91.8897195  38.7802713
 115.4995813  92.2304819  39.3873974 115.0060853  95.1746804  46.7968073
 114.8605433  95.4887107  47.6892355 114.5286056  95.7931704  46.2438972
 116.8657236  92.1649352  46.8448963 116.8518804  91.2690445  46.5081261
 117.5829664  92.1720016  47.4787249 109.4806515  97.7152148  49.7355734
 108.9359983  98.4911956  49.8676009 110.3585865  98.0622953  49.5774856
 116.2694132  91.0463732  42.1136533 116.3910043  90.1180379  42.3127420
 115.9796174  91.0602418  41.2014848 110.2672537  96.8422045  52.6285891
 109.5254273  96.9904680  53.2150522 109.9465281  97.1030310  51.7652641
 110.7129150 104.7287473  44.6596286 111.5387170 104.4291245  44.2794929
 110.3623202 103.9595096  45.1086075 108.9137755 102.6473800  45.6185220
 108.0769664 102.2195974  45.4369221 108.8861401 102.8406243  46.5556011
 115.7535211  92.5595730  56.3226466 115.8023367  93.4357853  55.9404235
 116.2957725  92.0173123  55.7498109 117.9834500  93.3127102  53.0772824
 117.1137809  93.6060668  52.8055413 118.2193980  93.8967547  53.7980088
 112.9976823  98.6583043  41.2113489 112.7522865  97.7545373  41.4093699
 113.1672738  98.6600193  40.2692967 112.2672471  94.3911400  38.7099650
 111.5741716  94.4655755  38.0539686 112.0224223  93.6271744  39.2321167
 117.3109312  94.3876785  34.9535105 116.4040767  94.0909897  35.0297819
 117.5885293  94.0906603  34.0869391 108.2287252  95.7083148  45.4034152
 107.9090036  94.8548456  45.1108526 107.6820680  95.9231726  46.1592119
 112.0067160  98.4245589  49.1203658 112.2253169  99.3562697  49.1391692
 112.4192933  98.0653563  49.9058462 116.8795025  93.9978795  58.5106407
 116.7791752  94.9473152  58.4418498 116.6616567  93.6697034  57.6382477
 116.0808096  91.2463720  35.0947084 116.9427260  91.5718618  35.3542902
 116.2658440  90.4595216  34.5820150 108.0975512  99.3286060  47.3727273
 107.4038983  98.9140012  46.8597228 108.8448503  99.3706596  46.7760692
 116.7426295  97.4275934  57.3271469 116.2593377  98.2276294  57.5335358
 116.8287234  97.4383879  56.3738913 110.0112255  99.2604313  45.2493288
 109.9882943  99.3592001  44.2975171 110.3212891 100.1069464  45.5710454
 112.6699632 101.3180468  49.3639902 113.6242886 101.2864411  49.2969834
 112.4712156 100.8571092  50.1790128 113.2599015  99.8881584  51.9310700
 114.0791904 100.3825663  51.9545537 113.5335822  98.9713553  51.9028268
 108.5133929  94.2219718  52.6302897 109.1592792  93.7118672  53.1190122
 108.3051080  94.9588400  53.2046322 117.0337539  88.4859763  38.3826793
 117.0216209  89.4301603  38.5395064 117.9260961  88.3029908  38.0886255
 112.8531420  91.3687335  56.7277911 113.7162881  91.0124140  56.9381236
 112.2796830  91.0301230  57.4153316  48.4137762  -4.2101588  33.2081497
  48.6534360  -3.5783064  33.8860515  47.5706958  -4.5613548  33.4946856
  60.3293793  -0.1637287  30.1844035  59.7658658  -0.2547350  29.4160322
  60.2146188  -0.9837383  30.6646527  57.8758225   1.3313904  33.0228255
  58.6679517   0.9904729  32.6074554  58.1154875   1.4408879  33.9430409
  65.9093352   3.5033680  25.4958500  65.2581332   4.0887761  25.1092513
  66.7037715   4.0339875  25.5553537  59.8348979   0.5922818  25.8945634
  60.6079855   0.0451805  25.7558510  60.1874378   1.4567067  26.1060095
  61.6734021   1.9199200  39.1012533  61.3823887   2.8244831  38.9859200
  62.3091006   1.9615727  39.8156603  62.5990228  -0.7023952  35.6913893
  63.1953801  -0.9267929  34.9770856  62.6565200  -1.4439206  36.2939341
  67.3868617   1.1924112  26.0327484  66.7514450   1.2658739  26.7448389
  67.0566023   1.7817711  25.3546563  61.8911545  -1.3456410  25.7288459
  61.7747804  -2.0211507  26.3969543  62.0013805  -1.8324036  24.9120612
  66.6323907   1.6060615  36.0962327  66.3324630   2.5085654  35.9878134
  66.2874966   1.3392799  36.9483480  60.0836388  -1.9425588  32.1299031
  59.1586885  -2.0749374  32.3376723  60.3320801  -1.1631369  32.6268974
  57.4445199  -2.2992314  32.9642820  57.5737580  -2.0457835  33.8782232
  56.7642650  -1.7064606  32.6447476  61.6144686   8.3704936  29.0633295
  61.5368716   9.3212761  29.1421775  61.0106330   8.0250808  29.7208221
  62.3608288  -1.6481745  41.2812629  63.1022973  -1.1096702  41.0047452
  61.6545274  -1.0215457  41.4384180  68.1592443   1.0548586  33.6337079
  67.5301305   1.2194300  32.9313147  67.7718105   1.4690195  34.4048043
  72.0381675   1.9903023  30.9881443  71.3532713   2.3701925  30.4378476
  72.1225524   2.5998350  31.7213390  63.7120405   0.7922994  30.8987164
  64.1758750   1.0710697  30.1091787  63.4477203  -0.1093562  30.7160255
  60.6044486   0.3394475  33.8366927  61.1745843   0.7681744  33.1984412
  61.1952598   0.0577060  34.5351113  70.4078434   2.5134938  35.7599144
  71.2295878   2.1115125  35.4781825  70.4040837   2.4103172  36.7115259
  64.1735038   2.0618981  37.9159854  64.2379470   2.5239388  38.7518026
  63.4645962   1.4316346  38.0442164  63.8883055   3.7287089  27.7838834
  63.7528730   4.5738624  28.2123682  64.4292868   3.9306366  27.0204768
  57.3412453   1.2462527  28.3566759  57.8536973   2.0405777  28.5072324
  57.9935166   0.5488817  28.2900361  59.1507337   4.3628283  30.4389513
  59.3273966   5.2846248  30.2510497  59.9464171   4.0486702  30.8683892
  65.5151532   4.3510655  41.9139176  65.0715386   3.5647034  41.5960081
  66.1768745   4.5389806  41.2483067  60.2738653   5.8806457  36.4399855
  60.8246078   5.7523520  35.6676849  59.4350129   6.1801346  36.0894748
  67.6132770   4.6313455  39.9420578  67.5951245   5.4522336  39.4500847
  68.5352690   4.5067530  40.1670719  64.0705824   2.1457585  40.7844086
  64.6034161   1.3845873  40.5543394  63.5419905   1.8531236  41.5268241
  55.3061369  -0.4248819  29.1326330  56.1436591  -0.0151811  28.9160038
  55.4839637  -1.3649377  29.1026524  65.4358537   1.2743577  28.2962898
  64.9079898   0.5396337  27.9836136  64.9346039   2.0518253  28.0502866
  66.4879216   7.8021295  24.2194557  65.8140914   8.1052991  24.8279515
  66.8745038   8.6050375  23.8700014  64.7599370  -0.8063618  25.8221861
  63.8510589  -1.0904585  25.9194331  64.7894454  -0.3864539  24.9625168
  69.9918638   2.8042972  29.5913029  69.5380965   1.9633882  29.6478219
  69.3612604   3.4404370  29.9287809  68.4351577   4.6419468  30.5262847
  68.7274551   5.2024526  29.8075213  68.9450197   4.9348029  31.2816006
  55.3287541  -3.0858104  29.8037063  55.1311940  -3.6788743  29.0788130
  54.7734205  -3.3905893  30.5213002  64.4575458   0.7345126  23.1609940
  64.0194888   0.0180985  22.7015577  65.1985899   0.9621241  22.5995031
  63.3985202   5.4199819  31.6156300  63.3561381   5.6460666  30.6864832
  64.3147901   5.1863194  31.7642101  61.5151003   2.2962849  31.4118263
  62.3091601   1.8013169  31.2100838  60.8042695   1.7680712  31.0485968
  66.3345847   4.6780944  35.7630631  66.3882870   5.2471880  36.5308346
  65.4660629   4.8482829  35.3984668  68.5248611   1.2709293  42.3371296
  68.3734117   1.0419845  41.4201380  68.5153290   2.2279895  42.3502641
  64.0922279   2.8691870  35.0916100  63.9533365   2.5010655  35.9642038
  63.3036875   3.3839510  34.9200058  64.6870431   7.9700967  26.4341637
  64.8622186   7.4989010  27.2487259  64.0003219   8.5966733  26.6622897
  65.6427494   2.2473473  32.4804938  65.3077327   2.2074243  33.3762588
  65.1431440   1.5818189  32.0075348  70.2340817   4.3028416  40.4147778
  70.1753363   3.6187636  39.7478361  70.6360336   5.0447406  39.9628404
  59.2531516  11.1190330  33.2081497  59.4928114  11.7508854  33.8860515
  58.4100713  10.7678370  33.4946856  70.2358225   2.2668000  38.6461757
  69.3485003   1.9293922  38.7688156  70.8056776   1.5351031  38.8830523
  51.8887372  -1.4007908  31.9704809  52.5758412  -1.7146178  31.3825824
  51.7335500  -0.4966544  31.6972060  63.7659378   6.9269452  35.6123001
  63.6929549   7.7324424  36.1242305  63.3236771   7.1261418  34.7871022
  63.5549158   6.1641222  29.1225822  62.7716679   6.7062902  29.2164047
  64.2541903   6.6815202  29.5220063  66.2258061   6.8256286  37.7681159
  66.9386034   7.4603751  37.6957061  65.7348090   6.9220152  36.9521161
  61.2769975   4.5750730  38.5886730  61.9779435   5.2087213  38.7416124
  60.8065090   4.9165461  37.8282369  69.4024371   2.9168679  26.8734637
  69.6784215   2.8025274  27.7828511  68.5328870   2.5186164  26.8346810
  66.0378435   7.1655030  30.5167451  66.2200829   6.3476686  30.9795203
  66.8611421   7.3822723  30.0792341  66.3720600   6.0923215  27.7782499
  66.9008367   5.5815670  27.1652661  66.6348820   5.7765746  28.6428032
  56.8737693   4.1087085  35.5217833  57.4591130   3.3630773  35.6545737
  56.6762532   4.4191041  36.4054497  59.7276348   7.1438332  30.5380275
  59.0586724   7.6284460  30.0544315  59.5889218   7.3907553  31.4523654
  51.4655348  -3.3207315  34.2422276  51.5039447  -3.8543724  35.0359394
  50.9595641  -3.8472110  33.6233253  63.8681617   9.1782076  37.1362934
  64.4199925   9.3413697  37.9012019  64.2087810   9.7686513  36.4642958
  68.7192491   4.0043333  42.9911588  69.2632395   4.6173291  42.4966543
  68.1379336   4.5622912  43.5078601  67.0050004   7.1264051  34.1226616
  66.8801144   6.3253791  33.6137561  67.6629095   7.6210245  33.6340586
  69.0684913   4.9273071  35.7506166  68.1215248   4.8078422  35.6784493
  69.4167686   4.0395569  35.8332427  66.0731346   4.7225787  31.9510518
  65.9256308   3.7942495  32.1318088  66.8984839   4.7445878  31.4667593
  69.6765468   5.5454346  33.0375391  70.6012015   5.3397208  32.8999842
  69.5080771   5.2970747  33.9464732  69.4660784   6.0640014  28.3937482
  69.6397661   5.4986436  27.6411335  69.9589675   6.8640909  28.2116972
  55.2837744  -1.9245317  36.4601041  54.7391212  -1.1485509  36.5921315
  56.1617094  -1.5774513  36.3020162  70.4535956   5.3806778  25.4934381
  71.1486861   6.0013471  25.7121695  70.7959107   4.5302129  25.7686758
  56.0703766  -2.7975421  39.3531198  55.3285502  -2.6492786  39.9395828
  55.7496510  -2.5367155  38.4897947  72.3527380   2.8306484  27.0221711
  72.8778704   3.1693756  26.2971031  72.2649732   1.8953499  26.8384846
  64.0147428   6.7440557  39.1511588  64.3234555   6.4989704  40.0234288
  64.8122910   6.9487196  38.6630458  64.0368040   8.8978467  31.3816964
  63.5973031   8.4054846  32.0749821  64.7876157   8.3551435  31.1409040
  56.5160379   5.0890008  31.3841593  57.3418399   4.7893780  31.0040236
  56.1654431   4.3197630  31.8331381  61.4841912   4.4416476  33.4539266
  60.8621922   3.7787181  33.1541494  62.1546779   4.4677608  32.7712914
  54.7168984   3.0076334  32.3430526  53.8800893   2.5798509  32.1614527
  54.6892630   3.2008778  33.2801317  72.0421286   3.4639387  42.3272909
  71.2516829   3.4463526  41.7877409  71.8054640   4.0027681  43.0821946
  61.0455419   2.9920399  26.9297727  61.1943540   3.6755864  26.2764399
  61.8521863   2.9725489  27.4447182  73.6637357   2.7328795  39.8847659
  73.3722166   3.0958776  40.7211120  73.0509489   2.0195803  39.7060991
  58.8008052  -0.9814423  27.9358796  58.5554094  -1.8852093  28.1339006
  58.9703967  -0.9797273  26.9938274  64.5450825   5.4868530  24.4009474
  63.9724792   6.1058717  23.9479946  65.1183619   6.0367891  24.9349396
  67.7648085   5.7705680  25.5318056  68.6978758   5.7051242  25.7350932
  67.6771297   6.6061947  25.0732589  70.3936101   5.0871550  22.4922004
  70.3149733   4.7531414  23.3857762  71.2145768   5.5793318  22.4913476
  64.8136316   0.8747089  43.2026184  65.7339325   1.0525688  43.3966230
  64.7785899  -0.0696866  43.0505883  54.0318481  -3.9314318  32.1279458
  53.7121265  -4.7849010  31.8353832  53.4851909  -3.7165740  32.8837426
  57.8098388  -1.2151877  35.8448965  58.0284398  -0.2834769  35.8636999
  58.2224162  -1.5743902  36.6303769  53.9006741  -0.3111406  34.0972580
  53.2070212  -0.7257453  33.5842534  54.6479732  -0.2690870  33.5005999
  55.8143483  -0.3793152  31.9738595  55.7914172  -0.2805465  31.0220478
  56.1244120   0.4671998  32.2955761  58.4730861   1.6783003  36.0885209
  59.4274115   1.6466945  36.0215141  58.2743385   1.2173626  36.9035435
  59.0630243   0.2484119  38.6556007  59.8823132   0.7428197  38.6790844
  59.3367051  -0.6683913  38.6273574  56.8281090   7.2202622  33.1055407
  56.6935558   6.4603023  32.5393405  56.4113152   7.9443522  32.6384196
  67.9640053   2.4039546  22.1131982  68.6675903   2.6089548  22.7289638
  67.2402702   2.9716307  22.3781066  59.9850216   8.1171939  33.3173850
  59.8682600   9.0617372  33.2152540  59.1642662   7.8145501  33.7059649
  69.8726750   2.8422075  24.1630442  70.7072354   2.4103273  23.9807917
  69.7111093   2.6704088  25.0907337  66.8418550   1.6503100  44.8540344
  67.7109709   1.8243752  44.4926979  66.3625301   2.4697517  44.7316074
  61.0104730   8.7700201  36.5329778  61.9131977   8.8023811  36.8496273
  60.7842100   7.8400652  36.5476114  62.7658332   7.5231188  33.1939857
  61.8153963   7.5233049  33.0804229  63.0690818   6.7763922  32.6775891
  78.5011026  13.3591726  34.2585619  79.1389436  13.2398473  33.5548959
  78.3831868  14.3072570  34.3173571  75.3100732  13.3119154  34.1947144
  74.9719243  13.1960219  33.3067679  76.1790500  12.9110319  34.1748150
  71.1687548  15.1654630  30.1844035  70.6052413  15.0744567  29.4160322
  71.0539943  14.3454535  30.6646527  75.7920515  14.4654006  40.1533349
  75.7809156  14.0706804  39.2813853  75.9541154  13.7320078  40.7467121
  68.7151979  16.6605822  33.0228255  69.5073271  16.3196647  32.6074554
  68.9548630  16.7700797  33.9430409  76.7487106  18.8325598  25.4958500
  76.0975086  19.4179679  25.1092513  77.5431469  19.3631793  25.5553537
  70.6742733  15.9214735  25.8945634  71.4473609  15.3743722  25.7558510
  71.0268132  16.7858985  26.1060095  72.5127776  17.2491118  39.1012533
  72.2217642  18.1536748  38.9859200  73.1484760  17.2907645  39.8156603
  73.4383983  14.6267966  35.6913893  74.0347555  14.4023988  34.9770856
  73.4958954  13.8852712  36.2939341  73.0109011  12.0807401  23.5264084
  73.2634532  11.5588923  22.7647547  72.0733570  11.9173547  23.6290767
  78.0552294  11.0843180  31.3338827  78.8415383  10.6662603  30.9829244
  78.3190998  11.9889272  31.5020476  78.2262371  16.5216030  26.0327484
  77.5908204  16.5950657  26.7448389  77.8959778  17.1109629  25.3546563
  83.4560721  11.0218413  32.2371806  84.1885893  10.4517630  32.4709635
  82.7000077  10.6340013  32.6778311  72.7305300  13.9835507  25.7288459
  72.6141558  13.3080411  26.3969543  72.8407560  13.4967881  24.9120612
  75.0736841  13.4445654  29.4335148  74.7095048  12.9176275  30.1448070
  75.9303957  13.0544124  29.2601634  80.9786142   4.7339987  36.6966414
  80.6469466   5.6035398  36.4727629  80.3831755   4.4176271  37.3760445
  74.7142328   8.4735554  24.4296497  74.8816730   9.3415791  24.7966968
  74.5239497   8.6362836  23.5057786  77.4717661  16.9352533  36.0962327
  77.1718384  17.8377572  35.9878134  77.1268721  16.6684716  36.9483480
  70.9230143  13.3866330  32.1299031  69.9980639  13.2542544  32.3376723
  71.1714556  14.1660549  32.6268974  80.8714805   9.4535073  33.7759764
  79.9631682   9.3850482  33.4818525  80.8202401   9.9307018  34.6041590
  74.6931549  10.9293212  25.4143163  74.5731174  11.3750262  26.2528644
  73.9984137  11.2778529  24.8556702  68.2838954  13.0299603  32.9642820
  68.4131335  13.2834082  33.8782232  67.6036405  13.6227311  32.6447476
  72.4538441  23.6996853  29.0633295  72.3762471  24.6504678  29.1421775
  71.8500084  23.3542726  29.7208221  74.9455671  10.8724719  41.7194662
  74.1689005  11.4318639  41.7097526  75.5846234  11.3581502  42.2409532
  82.7376451   7.6551512  35.5537638  82.0950832   7.9484045  34.9077433
  82.2331380   7.5404432  36.3590835  80.3916615  11.4014685  26.2423497
  81.3034471  11.6342072  26.0671195  79.8826262  11.9851729  25.6798576
  73.2002043  13.6810172  41.2812629  73.9416727  14.2195216  41.0047452
  72.4939028  14.3076461  41.4384180  78.6757383  15.8239313  39.8784790
  79.0840739  15.3821723  39.1339422  77.9534644  15.2491940  40.1318983
  75.0288453  10.7611919  37.2518347  75.8749648  11.1851333  37.3952996
  74.9687090  10.1045544  37.9456910  78.9986197  16.3840503  33.6337079
  78.3695060  16.5486217  32.9313147  78.6111859  16.7982113  34.4048043
  82.8775429  17.3194941  30.9881443  82.1926467  17.6993842  30.4378476
  82.9619278  17.9290268  31.7213390  78.1787898   8.4216288  38.9099521
  77.9348830   9.1758348  38.3733796  78.4547828   8.8001635  39.7446768
  80.1326361  14.9654900  37.5876786  80.3443256  15.6086660  36.9111167
  80.0856109  14.1317217  37.1198716  77.7352590   7.5772721  34.4913358
  76.8737069   7.8753974  34.7830096  77.7615024   7.7943120  33.5594391
  74.5514159  16.1214911  30.8987164  75.0152505  16.4002614  30.1091787
  74.2870957  15.2198356  30.7160255  71.4438240  15.6686393  33.8366927
  72.0139597  16.0973661  33.1984412  72.0346352  15.3868978  34.5351113
  73.4883045  12.2438064  27.7076729  74.1907089  12.6959107  28.1750656
  73.1563674  11.6021883  28.3356622  71.9363407  10.8349820  42.0827939
  71.3062067  11.5166101  42.3163335  71.8299495  10.7232902  41.1381077
  67.2308379  10.5021616  33.0093863  66.4407433  10.7579145  32.5333973
  67.7219626  11.3169954  33.1145903  81.2472189  17.8426856  35.7599144
  82.0689632  17.4407043  35.4781825  81.2434592  17.7395090  36.7115259
  69.1823125  10.8666196  29.9677339  68.3854288  10.9784890  30.4860835
  68.9548717  11.2052848  29.1018230  75.0128792  17.3910899  37.9159854
  75.0773225  17.8531306  38.7518026  74.3039716  16.7608264  38.0442164
  65.5146082  10.7552107  35.4408854  65.7654121  11.6399117  35.7066429
  66.0505631  10.5756708  34.6683945  89.3378182  14.1865604  32.1084115
  88.5841890  13.6173002  31.9528119  89.4725723  14.1528269  33.0554750
  74.7276810  19.0579006  27.7838834  74.5922485  19.9030542  28.2123682
  75.2686622  19.2598284  27.0204768  71.2144149   5.1370586  44.4453190
  70.8211095   4.5836785  45.1200834  72.0310290   5.4481165  44.8359707
  68.1806207  16.5754444  28.3566759  68.6930728  17.3697695  28.5072324
  68.8328920  15.8780735  28.2900361  69.9901092  19.6920201  30.4389513
  70.1667720  20.6138165  30.2510497  70.7857925  19.3778620  30.8683892
  74.1312110   6.5528465  42.0373446  74.8721824   7.1535618  41.9577909
  74.3630033   5.8106103  41.4791489  69.2753448  11.7384833  40.3151676
  69.1606964  10.8370090  40.6158775  68.4197966  11.9848529  39.9636492
  76.3545286  19.6802573  41.9139176  75.9109140  18.8938951  41.5960081
  77.0162500  19.8681723  41.2483067  71.1132407  21.2098374  36.4399855
  71.6639832  21.0815438  35.6676849  70.2743883  21.5093263  36.0894748
  78.4526524  19.9605373  39.9420578  78.4345000  20.7814254  39.4500847
  79.3746444  19.8359448  40.1670719  74.9099578  17.4749502  40.7844086
  75.4427915  16.7137790  40.5543394  74.3813659  17.1823154  41.5268241
  66.1455124  14.9043099  29.1326330  66.9830346  15.3140107  28.9160038
  66.3233392  13.9642541  29.1026524  78.0419556  12.5718179  24.8210163
  77.5266180  13.3422784  25.0598550  77.7696865  11.8983316  25.4443224
  75.6266667   7.4167880  29.8795401  74.7708263   7.0274731  29.7001040
  76.0393619   7.4959841  29.0195187  77.1565814   4.9514223  34.2786961
  76.6530609   4.9144359  33.4654766  77.4496421   5.8606966  34.3383618
  73.4008700   5.0352953  33.2853143  74.2661696   4.8395762  32.9259032
  73.4686209   4.8063305  34.2122500  83.0153830  15.3250534  26.7563336
  82.2383273  14.9861693  26.3118499  83.6945311  15.3303157  26.0818301
  77.8305859  10.4445271  26.6469944  77.5255995  10.7591421  27.4980087
  78.7836301  10.5226691  26.6897277  76.2752291  16.6035495  28.2962898
  75.7473653  15.8688254  27.9836136  75.7739794  17.3810171  28.0502866
  81.2545137  14.7984515  33.4129944  80.5968812  15.4883777  33.5010073
  82.0585536  15.1880947  33.7563931  71.0071019   7.2655161  30.6569510
  71.5814771   7.0430343  29.9242703  71.5942001   7.3343856  31.4098111
  80.0650596  13.1528888  31.4633886  80.5782478  13.7858880  31.9655596
  80.7151820  12.5530083  31.0977246  71.3340606   9.2959622  24.6765395
  70.4977918   9.6334309  24.9974670  71.1945375   9.1608602  23.7392532
  73.3093686   4.1396410  29.3844579  72.6558099   3.8245427  28.7601194
  73.2674161   3.5172150  30.1104402  74.4204891  14.4215705  21.2997871
  73.5131953  14.1904958  21.4989020  74.9175923  13.6253324  21.4871853
  77.3272970  23.1313212  24.2194557  76.6534669  23.4344909  24.8279515
  77.7138792  23.9342293  23.8700014  76.5431427  10.6278343  33.7092227
  75.6253988  10.8493290  33.5513915  76.9591570  10.7024654  32.8503934
  77.3266475  12.0269759  28.8394907  78.0738293  12.5391156  28.5302029
  77.5958064  11.7053812  29.6999301  75.5993125  14.5228300  25.8221861
  74.6904344  14.2387333  25.9194331  75.6288209  14.9427378  24.9625168
  80.8312392  18.1334889  29.5913029  80.3774719  17.2925799  29.6478219
  80.2006359  18.7696288  29.9287809  79.7745312   9.0626875  30.8213696
  79.0368068   8.5504262  31.1523939  80.0272085   8.6227257  30.0096973
  79.2745331  19.9711386  30.5262847  79.5668306  20.5316443  29.8075213
  79.7843952  20.2639947  31.2816006  66.1681295  12.2433814  29.8037063
  65.9705695  11.6503175  29.0788130  65.6127959  11.9386024  30.5213002
  74.1478019  12.1356920  31.9231657  74.2026629  11.1830757  31.8474133
  73.3369221  12.2916360  32.4072955  75.2969213  16.0637044  23.1609940
  74.8588642  15.3472902  22.7015577  76.0379653  16.2913158  22.5995031
  72.0870379  10.7533980  29.6822035  71.2738244  11.0528151  30.0887228
  72.5829373  10.3589669  30.3996518  74.2378957  20.7491737  31.6156300
  74.1955135  20.9752583  30.6864832  75.1541655  20.5155112  31.7642101
  77.6844590  11.2175805  38.5136929  78.0393978  11.4447278  39.3731395
  78.3316722  11.5494182  37.8914185  83.4142327  14.3394241  29.2186258
  83.2760226  14.5295837  28.2907448  83.0578546  15.1013623  29.6754310
  71.5784453   8.3252336  35.2983270  72.2183833   8.1841095  34.6006234
  70.7461984   8.0386849  34.9221872  83.4411707  16.4070768  34.2297530
  83.8748214  16.3146057  35.0780584  84.1543288  16.3828268  33.5917546
  72.3544757  17.6254766  31.4118263  73.1485356  17.1305086  31.2100838
  71.6436450  17.0972629  31.0485968  77.1739602  20.0072862  35.7630631
  77.2276624  20.5763798  36.5308346  76.3054383  20.1774747  35.3984668
  68.6627521  11.7697848  27.4878016  67.7325109  11.7082303  27.7047978
  68.7584993  11.2473801  26.6914657  68.5813070   8.2952661  30.0756257
  68.8419887   9.2097994  29.9665418  69.4030242   7.8277103  30.2252870
  70.0537995   9.7090418  37.2455082  70.7261049   9.5007780  36.5967731
  69.2267782   9.5112504  36.8060314  84.3027256  16.4494468  36.7630415
  84.4963147  17.3540279  37.0089690  84.2027875  15.9901887  37.5969000
  75.9563567   6.3352359  39.2620743  75.3091482   7.0342308  39.1685219
  76.7264583   6.7688503  39.6296991  79.3642365  16.6001211  42.3371296
  79.2127872  16.3711763  41.4201380  79.3547045  17.5571812  42.3502641
  76.1327702  14.1733124  37.3217562  77.0619762  14.3244283  37.1486530
  75.7118732  14.2617145  36.4666209  74.9316033  18.1983788  35.0916100
  74.7927119  17.8302573  35.9642038  74.1430630  18.7131428  34.9200058
  75.5264185  23.2992885  26.4341637  75.7015941  22.8280928  27.2487259
  74.8396973  23.9258651  26.6622897  76.4821248  17.5765391  32.4804938
  76.1471081  17.5366161  33.3762588  75.9825194  16.9110107  32.0075348
  70.4565492  12.9833021  38.0057519  70.3185290  12.2513260  38.6069058
  71.3670416  12.8941921  37.7241707  79.4180440  14.9221425  22.7541997
  78.8009611  14.1968253  22.6575050  78.9496929  15.6830785  22.4109072
  73.0847793  12.6952980  37.4941199  73.7947412  12.0546172  37.4527817
  73.0417101  12.9465875  38.4167379  81.0734572  19.6320334  40.4147778
  81.0147118  18.9479554  39.7478361  81.4754090  20.3739324  39.9628404
  71.7976727   9.6818198  39.3136838  71.2614084   9.2308937  39.9658434
  71.2093436   9.8164107  38.5707302  70.0925271  26.4482247  33.2081497
  70.3321869  27.0800772  33.8860515  69.2494467  26.0970287  33.4946856
  71.2078986   9.1406850  21.8763302  70.3308452   9.0195650  21.5125548
  71.6836739   8.3492928  21.6242190  81.0751979  17.5959918  38.6461757
  80.1878758  17.2585839  38.7688156  81.6450530  16.8642949  38.8830523
  62.7281126  13.9284009  31.9704809  63.4152166  13.6145739  31.3825824
  62.5729255  14.8325374  31.6972060  67.5315848   8.8174206  36.3989833
  67.4474037   8.2099875  35.6640242  66.7098555   9.3083224  36.3999329
  74.6053132  22.2561370  35.6123001  74.5323304  23.0616341  36.1242305
  74.1630526  22.4553336  34.7871022  74.3942912  21.4933140  29.1225822
  73.6110434  22.0354820  29.2164047  75.0935657  22.0107120  29.5220063
  77.7039562   7.3027769  31.7660028  78.2008262   6.5497732  31.4461098
  76.9326544   7.3392086  31.2003237  85.5569320  13.0068135  33.4078319
  85.5459196  13.8892850  33.0372252  84.6886699  12.6539686  33.2132856
  77.0651816  22.1548204  37.7681159  77.7779788  22.7895669  37.6957061
  76.5741845  22.2512070  36.9521161  78.7869343  16.0599457  29.3398451
  77.8525622  16.1800919  29.1703155  78.9646011  15.1571923  29.0758461
  74.2874531   9.4445152  31.4931712  73.9172318   8.8916193  32.1812618
  74.7833623   8.8403286  30.9406712  82.1741894  11.9016776  29.8748485
  82.6402346  12.7344767  29.8008788  82.6249395  11.4361757  30.5793744
  72.1163730  19.9042647  38.5886730  72.8173189  20.5379130  38.7416124
  71.6458844  20.2457379  37.8282369  80.2418125  18.2460597  26.8734637
  80.5177969  18.1317192  27.7828511  79.3722624  17.8478082  26.8346810
  79.9165015  12.4587255  36.4139280  79.2636466  12.7063162  35.7591733
  80.2945395  11.6451393  36.0801758  76.8772189  22.4946948  30.5167451
  77.0594584  21.6768604  30.9795203  77.7005175  22.7114640  30.0792341
  77.2114355  21.4215133  27.7782499  77.7402121  20.9107588  27.1652661
  77.4742574  21.1057663  28.6428032  75.9652588  13.2007066  42.9005318
  75.2893226  13.1001195  43.5707693  76.7880222  13.0446280  43.3641315
  67.7131448  19.4379002  35.5217833  68.2984884  18.6922690  35.6545737
  67.5156286  19.7482959  36.4054497  70.5670103  22.4730250  30.5380275
  69.8980478  22.9576377  30.0544315  70.4282972  22.7199470  31.4523654
  62.3049102  12.0084603  34.2422276  62.3433202  11.4748193  35.0359394
  61.7989395  11.4819808  33.6233253  74.7075371  24.5073993  37.1362934
  75.2593679  24.6705615  37.9012019  75.0481565  25.0978431  36.4642958
  69.6839865   6.8549143  37.7384818  69.7481191   7.7163974  37.3262216
  69.6206985   6.2423145  37.0057177  69.1592137   8.9272276  41.3857853
  69.7864176   8.5449353  41.9995377  68.3020056   8.7086478  41.7513545
  79.5586246  19.3335251  42.9911588  80.1026150  19.9465209  42.4966543
  78.9773091  19.8914829  43.5078601  65.9357680  10.7348705  27.3176207
  66.2311121   9.8259383  27.2643261  65.0345716  10.7136444  26.9957210
  77.8443759  22.4555969  34.1226616  77.7194898  21.6545709  33.6137561
  78.5022850  22.9502162  33.6340586  69.4651927   8.8104701  33.3003756
  68.7438513   9.4240669  33.1611229  70.2545183   9.3462466  33.2220402
  79.9078667  20.2564989  35.7506166  78.9609003  20.1370340  35.6784493
  80.2561440  19.3687487  35.8332427  72.2678240   6.1459128  39.5744408
  72.7912642   6.3921424  40.3370717  72.0490574   6.9779163  39.1547545
  67.6645521   8.4162802  27.4415533  67.3358228   7.5360181  27.2590638
  68.0184892   8.3610471  28.3291922  76.9125100  20.0517705  31.9510518
  76.7650063  19.1234413  32.1318088  77.7378594  20.0737796  31.4667593
  70.7787345   8.7035772  27.8091010  71.1183417   9.2321693  27.0869619
  71.2259465   9.0416178  28.5849577  80.5159222  20.8746264  33.0375391
  81.4405770  20.6689125  32.8999842  80.3474526  20.6262665  33.9464732
  73.4730785   7.0872823  37.2594078  73.1327606   6.2880636  37.6614758
  72.7669792   7.3874534  36.6870911  74.1247257   4.1722135  35.7121401
  74.9473327   3.6982614  35.5900292  74.3685321   4.9512619  36.2120088
  72.7655492   7.2010394  26.0084303  73.4863854   7.5791647  25.5048020
  72.1420796   7.9199271  26.1119281  76.9086615   7.9055543  26.9442635
  77.1250229   8.7880181  26.6431463  76.4280682   7.5141756  26.2148277
  71.6485836  10.8641256  33.5213380  71.5030417  11.1781559  34.4137661
  71.1711040  11.4826156  32.9684279  73.5082219   7.8543804  33.5694269
  73.4943788   6.9584897  33.2326567  74.2254647   7.8614468  34.2032555
  75.3608350   8.2881144  35.6147397  75.1026127   9.2098215  35.6131727
  74.8293390   7.8911579  36.3047861  80.3054538  21.3931931  28.3937482
  80.4791416  20.8278354  27.6411335  80.7983430  22.1932826  28.2116972
  66.1231498  13.4046600  36.4601041  65.5784966  14.1806408  36.5921315
  67.0010848  13.7517405  36.3020162  72.9119115   6.7358184  28.8381840
  73.0335026   5.8074830  29.0372727  72.6221157   6.7496870  27.9260155
  75.7810305   4.4213095  31.9748559  75.8032002   4.4852428  31.0200539
  76.1978364   3.5817603  32.1689066  86.1593930  14.1568354  30.0127782
  86.6025076  13.4075679  29.6146905  85.2820440  14.1478491  29.6301514
  81.2929711  20.7098696  25.4934381  81.9880615  21.3305388  25.7121695
  81.6352861  19.8594047  25.7686758  66.9097520  12.5316497  39.3531198
  66.1679256  12.6799132  39.9395828  66.5890264  12.7924762  38.4897947
  83.1921134  18.1598401  27.0221711  83.7172458  18.4985674  26.2971031
  83.1043487  17.2245417  26.8384846  74.8541183  22.0732475  39.1511588
  75.1628309  21.8281622  40.0234288  75.6516665  22.2779113  38.6630458
  74.8761795  24.2270385  31.3816964  74.4366785  23.7346763  32.0749821
  75.6269912  23.6843352  31.1409040  67.3554134  20.4181925  31.3841593
  68.1812154  20.1185697  31.0040236  67.0048186  19.6489548  31.8331381
  72.3235667  19.7708394  33.4539266  71.7015676  19.1079099  33.1541494
  72.9940534  19.7969526  32.7712914  65.5562739  18.3368252  32.3430526
  64.7194647  17.9090426  32.1614527  65.5286384  18.5300695  33.2801317
  72.3960194   8.2490182  43.0471772  72.4448350   9.1252304  42.6649542
  72.9382709   7.7067575  42.4743415  82.8815040  18.7931305  42.3272909
  82.0910584  18.7755444  41.7877409  82.6448395  19.3319599  43.0821946
  83.0012915  15.6423771  39.6405638  83.0510920  15.4773779  40.5821161
  82.8926838  14.7751030  39.2503519  71.8849174  18.3212317  26.9297727
  72.0337294  19.0047781  26.2764399  72.6915617  18.3017407  27.4447182
  80.2916678  11.6254699  40.9564945  81.1926540  11.4861164  40.6648942
  80.3664652  11.7909154  41.8963122  74.6259483   9.0021554  39.8018131
  73.7562792   9.2955120  39.5300719  74.8618963   9.5861999  40.5225394
  84.5031112  18.0620713  39.8847659  84.2115920  18.4250693  40.7211120
  83.8903243  17.3487721  39.7060991  85.7026794  15.6273593  32.4050230
  86.5373686  16.0663397  32.5687790  85.8385923  15.1512246  31.5858475
  82.7518300  13.1853327  38.3527717  83.2272422  13.3780974  37.5446569
  81.8283866  13.2412513  38.1071101  69.6401807  14.3477495  27.9358796
  69.3947849  13.4439825  28.1339006  69.8097721  14.3494645  26.9938274
  77.3298517   5.2201171  37.3183551  77.8480461   5.9562198  36.9930040
  76.9753649   5.5265164  38.1530310  68.9097454  10.0805852  25.4344957
  68.2166699  10.1550207  24.7784993  68.6649206   9.3166196  25.9566474
  75.3844579  20.8160447  24.4009474  74.8118546  21.4350635  23.9479946
  75.9577373  21.3659809  24.9349396  81.4519969  10.0619087  36.5856023
  82.4037392  10.1617185  36.6068247  81.2823420   9.2697356  37.0954107
  79.4734349   7.1474671  36.7715424  78.8784281   7.4279683  36.0761912
  79.1884045   7.6368572  37.5432165  78.6041839  21.0997598  25.5318056
  79.5372512  21.0343159  25.7350932  78.5165052  21.9353864  25.0732589
  81.2329856  20.4163468  22.4922004  81.1543487  20.0823331  23.3857762
  82.0539523  20.9085236  22.4913476  83.9308047  13.2825207  35.6998323
  83.8984367  12.3441208  35.8858006  84.5408671  13.3609244  34.9664147
  75.7691378  12.1521260  21.7425527  76.7150483  12.0227468  21.8113945
  75.3905623  11.4135922  22.2194955  84.0802535  10.0736251  35.7456606
  83.5641584   9.2894707  35.5586535  84.9642484   9.7454967  35.9103125
  89.7484597  14.3441214  34.8404359  90.4787985  14.0826502  35.4012063
  89.1391542  13.6069936  34.8806427  87.8299894  12.4849077  35.4378811
  87.1033058  12.3505042  34.8295302  87.4147181  12.7925905  36.2435529
  75.6530070  16.2039006  43.2026184  76.5733080  16.3817605  43.3966230
  75.6179653  15.2595052  43.0505883  73.9534295  10.0771237  21.6780412
  73.0465750   9.7804349  21.7543125  74.2310276   9.7801055  20.8114698
  64.8712235  11.3977600  32.1279458  64.5515020  10.5442908  31.8353832
  64.3245664  11.6126178  32.8837426  68.6492143  14.1140041  35.8448965
  68.8678153  15.0457149  35.8636999  69.0617917  13.7548015  36.6303769
  75.5696361   4.6208126  27.8324653  74.7597089   4.2755211  28.2079899
  76.2580778   4.3115670  28.4212265  73.5220008   9.6873247  45.2351714
  73.4216735  10.6367604  45.1663805  73.3041550   9.3591486  44.3627784
  72.7233080   6.9358172  21.8192391  73.5852244   7.2613070  22.0788208
  72.9083424   6.1489668  21.3065457  64.7400495  15.0180511  34.0972580
  64.0463967  14.6034464  33.5842534  65.4873486  15.0601048  33.5005999
  80.8765716   5.8086698  28.9627614  80.2964385   6.4671502  28.5805666
  80.6101649   4.9864043  28.5515032  79.3269282   5.2091756  31.1648934
  79.8269061   5.3208290  30.3563253  79.9704890   4.9052809  31.8049743
  73.3851278  13.1170386  44.0516775  72.9018360  13.9170746  44.2580664
  73.4712217  13.1278330  43.0984219  66.6537238  14.9498765  31.9738595
  66.6307926  15.0486452  31.0220478  66.9637874  15.7963916  32.2955761
  69.3124616  17.0074920  36.0885209  70.2667869  16.9758863  36.0215141
  69.1137139  16.5465544  36.9035435  69.9023998  15.5776036  38.6556007
  70.7216887  16.0720115  38.6790844  70.1760806  14.6608004  38.6273574
  79.6590594   7.9686789  28.0183962  78.7716449   8.2536439  27.8004157
  80.0744583   7.8080552  27.1711239  83.0105130   7.9933310  31.7338302
  83.7865520   8.4829762  32.0062918  82.2853264   8.4191364  32.1910171
  85.4477689   8.7060929  32.7912242  86.0422180   8.4656665  32.0805550
  85.5204273   7.9868059  33.4185778  67.6674845  22.5494540  33.1055407
  67.5329312  21.7894941  32.5393405  67.2506907  23.2735440  32.6384196
  78.8033808  17.7331463  22.1131982  79.5069658  17.9381466  22.7289638
  78.0796456  18.3008225  22.3781066  79.6331618  13.4841325  28.2334252
  79.5766819  13.9409876  27.3941885  80.1859960  12.7232009  28.0557095
  83.4436424   9.2731056  29.0584372  83.1873358   8.8727692  29.8892580
  82.8189292   9.9874850  28.9334511  87.7548762  12.0127130  31.5655663
  87.1948320  12.0820319  32.3387225  87.1492265  11.8368114  30.8455160
  70.8243970  23.4463857  33.3173850  70.7076355  24.3909289  33.2152540
  70.0036417  23.1437418  33.7059649  80.7120505  18.1713992  24.1630442
  81.5466109  17.7395191  23.9807917  80.5504848  17.9996006  25.0907337
  80.3666397  14.6746106  25.5286782  80.3115201  14.5090377  24.5875226
  79.7412452  15.3822139  25.6848971  65.1558912   9.9114170  39.3548204
  65.8017776   9.4013124  39.8435429  64.9476063  10.6482852  39.9291629
  77.6812304  16.9795018  44.8540344  78.5503464  17.1535670  44.4926979
  77.2019056  17.7989434  44.7316074  73.6762523   4.1754215  25.1072100
  73.6641192   5.1196055  25.2640371  74.5685944   3.9924360  24.8131561
  71.8498485  24.0992119  36.5329778  72.7525731  24.1315729  36.8496273
  71.6235855  23.1692570  36.5476114  73.6052087  22.8523105  33.1939857
  72.6547718  22.8524967  33.0804229  73.9084573  22.1055840  32.6775891
  69.4956403   7.0581787  43.4523218  70.3587865   6.7018592  43.6626543
  68.9221814   6.7195682  44.1398622  89.3404780  28.6883644  34.2585619
  89.9783190  28.5690391  33.5548959  89.2225623  29.6364488  34.3173571
  86.1494486  28.6411072  34.1947144  85.8112998  28.5252136  33.3067679
  87.0184255  28.2402237  34.1748150  82.0081302  30.4946548  30.1844035
  81.4446167  30.4036485  29.4160322  81.8933697  29.6746453  30.6646527
  86.6314269  29.7945923  40.1533349  86.6202910  29.3998722  39.2813853
  86.7934909  29.0611996  40.7467121  79.5545734  31.9897740  33.0228255
  80.3467026  31.6488564  32.6074554  79.7942384  32.0992715  33.9430409
  87.5880861  34.1617516  25.4958500  86.9368841  34.7471596  25.1092513
  88.3825224  34.6923711  25.5553537  81.5136488  31.2506653  25.8945634
  82.2867364  30.7035640  25.7558510  81.8661887  32.1150902  26.1060095
  83.3521530  32.5783035  39.1012533  83.0611396  33.4828666  38.9859200
  83.9878515  32.6199563  39.8156603  84.2777737  29.9559884  35.6913893
  84.8741310  29.7315906  34.9770856  84.3352709  29.2144629  36.2939341
  83.8502766  27.4099319  23.5264084  84.1028286  26.8880840  22.7647547
  82.9127325  27.2465465  23.6290767  88.8946049  26.4135097  31.3338827
  89.6809138  25.9954521  30.9829244  89.1584753  27.3181190  31.5020476
  89.0656126  31.8507948  26.0327484  88.4301959  31.9242574  26.7448389
  88.7353532  32.4401547  25.3546563  94.2954476  26.3510331  32.2371806
  95.0279648  25.7809547  32.4709635  93.5393831  25.9631931  32.6778311
  83.5699054  29.3127425  25.7288459  83.4535313  28.6372328  26.3969543
  83.6801314  28.8259799  24.9120612  85.9130595  28.7737572  29.4335148
  85.5488803  28.2468193  30.1448070  86.7697711  28.3836041  29.2601634
  91.8179896  20.0631905  36.6966414  91.4863221  20.9327316  36.4727629
  91.2225509  19.7468189  37.3760445  85.5536082  23.8027472  24.4296497
  85.7210485  24.6707708  24.7966968  85.3633251  23.9654754  23.5057786
  88.3111416  32.2644451  36.0962327  88.0112139  33.1669490  35.9878134
  87.9662475  31.9976634  36.9483480  81.7623897  28.7158248  32.1299031
  80.8374394  28.5834462  32.3376723  82.0108310  29.4952467  32.6268974
  91.7108559  24.7826991  33.7759764  90.8025437  24.7142399  33.4818525
  91.6596155  25.2598936  34.6041590  85.5325303  26.2585129  25.4143163
  85.4124928  26.7042180  26.2528644  84.8377892  26.6070447  24.8556702
  79.1232708  28.3591521  32.9642820  79.2525089  28.6126000  33.8782232
  78.4430159  28.9519229  32.6447476  83.2932195  39.0288771  29.0633295
  83.2156225  39.9796596  29.1421775  82.6893839  38.6834644  29.7208221
  85.7849425  26.2016637  41.7194662  85.0082759  26.7610557  41.7097526
  86.4239988  26.6873419  42.2409532  93.5770206  22.9843429  35.5537638
  92.9344586  23.2775962  34.9077433  93.0725134  22.8696350  36.3590835
  91.2310369  26.7306603  26.2423497  92.1428226  26.9633989  26.0671195
  90.7220016  27.3143647  25.6798576  84.0395797  29.0102090  41.2812629
  84.7810482  29.5487134  41.0047452  83.3332783  29.6368379  41.4384180
  89.5151137  31.1531230  39.8784790  89.9234493  30.7113641  39.1339422
  88.7928399  30.5783858  40.1318983  85.8682207  26.0903837  37.2518347
  86.7143402  26.5143251  37.3952996  85.8080845  25.4337461  37.9456910
  89.8379952  31.7132421  33.6337079  89.2088814  31.8778135  32.9313147
  89.4505614  32.1274031  34.4048043  93.7169184  32.6486859  30.9881443
  93.0320222  33.0285760  30.4378476  93.8013033  33.2582185  31.7213390
  89.0181652  23.7508205  38.9099521  88.7742584  24.5050266  38.3733796
  89.2941583  24.1293553  39.7446768  90.9720115  30.2946818  37.5876786
  91.1837010  30.9378578  36.9111167  90.9249863  29.4609134  37.1198716
  88.5746344  22.9064638  34.4913358  87.7130823  23.2045892  34.7830096
  88.6008779  23.1235037  33.5594391  85.3907914  31.4506829  30.8987164
  85.8546259  31.7294532  30.1091787  85.1264712  30.5490274  30.7160255
  82.2831995  30.9978311  33.8366927  82.8533352  31.4265579  33.1984412
  82.8740107  30.7160895  34.5351113  84.3276800  27.5729981  27.7076729
  85.0300843  28.0251025  28.1750656  83.9957428  26.9313800  28.3356622
  82.7757161  26.1641738  42.0827939  82.1455822  26.8458019  42.3163335
  82.6693249  26.0524820  41.1381077  78.0702134  25.8313534  33.0093863
  77.2801188  26.0871063  32.5333973  78.5613381  26.6461872  33.1145903
  92.0865943  33.1718773  35.7599144  92.9083387  32.7698961  35.4781825
  92.0828346  33.0687007  36.7115259  80.0216879  26.1958113  29.9677339
  79.2248042  26.3076808  30.4860835  79.7942471  26.5344766  29.1018230
  85.8522547  32.7202817  37.9159854  85.9166979  33.1823224  38.7518026
  85.1433470  32.0900181  38.0442164  76.3539837  26.0844025  35.4408854
  76.6047875  26.9691034  35.7066429  76.8899385  25.9048626  34.6683945
 100.1771936  29.5157522  32.1084115  99.4235645  28.9464920  31.9528119
 100.3119477  29.4820186  33.0554750  85.5670564  34.3870924  27.7838834
  85.4316239  35.2322460  28.2123682  86.1080377  34.5890202  27.0204768
  82.0537904  20.4662504  44.4453190  81.6604849  19.9128702  45.1200834
  82.8704044  20.7773082  44.8359707  79.0199962  31.9046362  28.3566759
  79.5324482  32.6989612  28.5072324  79.6722674  31.2072653  28.2900361
  80.8294846  35.0212118  30.4389513  81.0061475  35.9430083  30.2510497
  81.6251680  34.7070538  30.8683892  84.9705865  21.8820383  42.0373446
  85.7115578  22.4827536  41.9577909  85.2023788  21.1398021  41.4791489
  80.1147203  27.0676750  40.3151676  80.0000718  26.1662007  40.6158775
  79.2591721  27.3140447  39.9636492  87.1939041  35.0094491  41.9139176
  86.7502895  34.2230869  41.5960081  87.8556254  35.1973641  41.2483067
  81.9526162  36.5390292  36.4399855  82.5033587  36.4107356  35.6676849
  81.1137638  36.8385181  36.0894748  89.2920279  35.2897290  39.9420578
  89.2738754  36.1106172  39.4500847  90.2140199  35.1651366  40.1670719
  85.7493333  32.8041420  40.7844086  86.2821670  32.0429708  40.5543394
  85.2207414  32.5115072  41.5268241  88.9163028  17.9101486  36.3137728
  88.5727297  18.8003128  36.2376838  89.2841990  17.7203144  35.4507313
  76.9848878  30.2335016  29.1326330  77.8224100  30.6432025  28.9160038
  77.1627146  29.2934459  29.1026524  88.8813311  27.9010097  24.8210163
  88.3659934  28.6714702  25.0598550  88.6090619  27.2275233  25.4443224
  86.4660422  22.7459798  29.8795401  85.6102018  22.3566648  29.7001040
  86.8787373  22.8251759  29.0195187  87.9959568  20.2806141  34.2786961
  87.4924364  20.2436276  33.4654766  88.2890175  21.1898884  34.3383618
  84.2402454  20.3644871  33.2853143  85.1055451  20.1687679  32.9259032
  84.3079963  20.1355223  34.2122500  93.8547585  30.6542452  26.7563336
  93.0777027  30.3153611  26.3118499  94.5339066  30.6595075  26.0818301
  88.6699614  25.7737189  26.6469944  88.3649749  26.0883338  27.4980087
  89.6230056  25.8518609  26.6897277  87.1146046  31.9327412  28.2962898
  86.5867407  31.1980172  27.9836136  86.6133548  32.7102089  28.0502866
  92.0938892  30.1276433  33.4129944  91.4362566  30.8175694  33.5010073
  92.8979291  30.5172865  33.7563931  81.8464773  22.5947079  30.6569510
  82.4208525  22.3722260  29.9242703  82.4335756  22.6635773  31.4098111
  90.9044350  28.4820806  31.4633886  91.4176232  29.1150797  31.9655596
  91.5545574  27.8822001  31.0977246  82.1734360  24.6251540  24.6765395
  81.3371673  24.9626226  24.9974670  82.0339130  24.4900520  23.7392532
  84.1487441  19.4688328  29.3844579  83.4951853  19.1537345  28.7601194
  84.1067915  18.8464068  30.1104402  85.2598646  29.7507623  21.2997871
  84.3525707  29.5196876  21.4989020  85.7569678  28.9545242  21.4871853
  88.1666725  38.4605130  24.2194557  87.4928423  38.7636827  24.8279515
  88.5532547  39.2634210  23.8700014  87.3825181  25.9570261  33.7092227
  86.4647743  26.1785208  33.5513915  87.7985325  26.0316572  32.8503934
  88.1660229  27.3561677  28.8394907  88.9132048  27.8683074  28.5302029
  88.4351819  27.0345730  29.6999301  86.4386879  29.8520218  25.8221861
  85.5298098  29.5679250  25.9194331  86.4681963  30.2719296  24.9625168
  91.6706147  33.4626807  29.5913029  91.2168474  32.6217717  29.6478219
  91.0400113  34.0988205  29.9287809  90.6139066  24.3918793  30.8213696
  89.8761823  23.8796179  31.1523939  90.8665840  23.9519175  30.0096973
  90.1139086  35.3003304  30.5262847  90.4062060  35.8608361  29.8075213
  90.6237706  35.5931865  31.2816006  90.7150693  17.1695045  31.4155466
  91.0209570  16.3092409  31.1281381  91.4403298  17.7612665  31.2154459
  77.0075050  27.5725732  29.8037063  76.8099449  26.9795092  29.0788130
  76.4521714  27.2677942  30.5213002  84.9871773  27.4648838  31.9231657
  85.0420383  26.5122675  31.8474133  84.1762975  27.6208277  32.4072955
  86.1362967  31.3928961  23.1609940  85.6982397  30.6764820  22.7015577
  86.8773408  31.6205076  22.5995031  82.9264133  26.0825898  29.6822035
  82.1131999  26.3820068  30.0887228  83.4223127  25.6881587  30.3996518
  85.0772711  36.0783655  31.6156300  85.0348890  36.3044501  30.6864832
  85.9935410  35.8447029  31.7642101  88.5238345  26.5467722  38.5136929
  88.8787733  26.7739196  39.3731395  89.1710476  26.8786099  37.8914185
  94.2536082  29.6686158  29.2186258  94.1153980  29.8587754  28.2907448
  93.8972301  30.4305541  29.6754310  82.4178208  23.6544253  35.2983270
  83.0577587  23.5133013  34.6006234  81.5855738  23.3678767  34.9221872
  94.2805461  31.7362685  34.2297530  94.7141968  31.6437974  35.0780584
  94.9937042  31.7120186  33.5917546  83.1938512  32.9546684  31.4118263
  83.9879110  32.4597004  31.2100838  82.4830204  32.4264547  31.0485968
  88.0133356  35.3364779  35.7630631  88.0670379  35.9055716  36.5308346
  87.1448138  35.5066664  35.3984668  79.5021275  27.0989766  27.4878016
  78.5718863  27.0374221  27.7047978  79.5978747  26.5765718  26.6914657
  79.4206824  23.6244578  30.0756257  79.6813642  24.5389912  29.9665418
  80.2423997  23.1569021  30.2252870  80.8931750  25.0382336  37.2455082
  81.5654803  24.8299698  36.5967731  80.0661536  24.8404422  36.8060314
  95.1421011  31.7786386  36.7630415  95.3356901  32.6832196  37.0089690
  95.0421629  31.3193805  37.5969000  86.7957322  21.6644277  39.2620743
  86.1485237  22.3634226  39.1685219  87.5658337  22.0980420  39.6296991
  90.2036120  31.9293129  42.3371296  90.0521626  31.7003680  41.4201380
  90.1940799  32.8863730  42.3502641  86.9721456  29.5025041  37.3217562
  87.9013516  29.6536201  37.1486530  86.5512486  29.5909062  36.4666209
  85.7709788  33.5275706  35.0916100  85.6320874  33.1594490  35.9642038
  84.9824384  34.0423345  34.9200058  86.3657940  38.6284802  26.4341637
  86.5409695  38.1572846  27.2487259  85.6790728  39.2550569  26.6622897
  87.3215003  32.9057309  32.4804938  86.9864836  32.8658079  33.3762588
  86.8218949  32.2402024  32.0075348  81.2959247  28.3124939  38.0057519
  81.1579045  27.5805177  38.6069058  82.2064170  28.2233839  37.7241707
  90.2574195  30.2513343  22.7541997  89.6403365  29.5260171  22.6575050
  89.7890683  31.0122703  22.4109072  83.9241548  28.0244898  37.4941199
  84.6341166  27.3838090  37.4527817  83.8810856  28.2757793  38.4167379
  91.9128326  34.9612251  40.4147778  91.8540872  34.2771471  39.7478361
  92.3147845  35.7031241  39.9628404  82.6370482  25.0110116  39.3136838
  82.1007839  24.5600854  39.9658434  82.0487190  25.1456025  38.5707302
  80.9319025  41.7774165  33.2081497  81.1715623  42.4092689  33.8860515
  80.0888222  41.4262205  33.4946856  82.0472741  24.4698767  21.8763302
  81.1702207  24.3487568  21.5125548  82.5230494  23.6784845  21.6242190
  91.9145734  32.9251835  38.6461757  91.0272512  32.5877757  38.7688156
  92.4844285  32.1934866  38.8830523  73.5674881  29.2575927  31.9704809
  74.2545920  28.9437657  31.3825824  73.4123009  30.1617292  31.6972060
  78.3709603  24.1466123  36.3989833  78.2867792  23.5391793  35.6640242
  77.5492309  24.6375142  36.3999329  85.4446887  37.5853288  35.6123001
  85.3717058  38.3908259  36.1242305  85.0024280  37.7845253  34.7871022
  85.2336667  36.8225058  29.1225822  84.4504188  37.3646738  29.2164047
  85.9329412  37.3399037  29.5220063  88.5433317  22.6319687  31.7660028
  89.0402016  21.8789649  31.4461098  87.7720298  22.6684004  31.2003237
  96.3963074  28.3360053  33.4078319  96.3852950  29.2184768  33.0372252
  95.5280454  27.9831603  33.2132856  87.9045570  37.4840122  37.7681159
  88.6173543  38.1187586  37.6957061  87.4135599  37.5803988  36.9521161
  89.6263097  31.3891374  29.3398451  88.6919376  31.5092837  29.1703155
  89.8039766  30.4863841  29.0758461  85.1268285  24.7737070  31.4931712
  84.7566073  24.2208110  32.1812618  85.6227378  24.1695203  30.9406712
  93.0135649  27.2308694  29.8748485  93.4796101  28.0636685  29.8008788
  93.4643149  26.7653675  30.5793744  82.9557484  35.2334565  38.5886730
  83.6566943  35.8671048  38.7416124  82.4852599  35.5749297  37.8282369
  91.0811880  33.5752515  26.8734637  91.3571724  33.4609109  27.7828511
  90.2116379  33.1770000  26.8346810  90.9852311  19.5989281  33.9139386
  90.0715391  19.8293507  34.0821593  91.4145413  19.6827725  34.7653419
  90.7558770  27.7879172  36.4139280  90.1030220  28.0355080  35.7591733
  91.1339150  26.9743311  36.0801758  87.7165944  37.8238866  30.5167451
  87.8988338  37.0060522  30.9795203  88.5398930  38.0406558  30.0792341
  88.0508109  36.7507051  27.7782499  88.5795876  36.2399505  27.1652661
  88.3136329  36.4349581  28.6428032  86.8046343  28.5298984  42.9005318
  86.1286980  28.4293113  43.5707693  87.6273977  28.3738197  43.3641315
  78.5525202  34.7670920  35.5217833  79.1378639  34.0214608  35.6545737
  78.3550041  35.0774877  36.4054497  81.4063857  37.8022167  30.5380275
  80.7374233  38.2868295  30.0544315  81.2676727  38.0491388  31.4523654
  73.1442857  27.3376520  34.2422276  73.1826956  26.8040111  35.0359394
  72.6383150  26.8111726  33.6233253  85.5469126  39.8365911  37.1362934
  86.0987434  39.9997532  37.9012019  85.8875319  40.4270349  36.4642958
  80.5233619  22.1841061  37.7384818  80.5874946  23.0455892  37.3262216
  80.4600739  21.5715062  37.0057177  79.9985892  24.2564193  41.3857853
  80.6257930  23.8741271  41.9995377  79.1413810  24.0378395  41.7513545
  90.3980000  34.6627168  42.9911588  90.9419904  35.2757127  42.4966543
  89.8166845  35.2206747  43.5078601  76.7751434  26.0640622  27.3176207
  77.0704875  25.1551301  27.2643261  75.8739470  26.0428362  26.9957210
  88.6837513  37.7847887  34.1226616  88.5588653  36.9837626  33.6137561
  89.3416604  38.2794080  33.6340586  80.3045681  24.1396619  33.3003756
  79.5832267  24.7532587  33.1611229  81.0938937  24.6754384  33.2220402
  90.7472422  35.5856907  35.7506166  89.8002757  35.4662258  35.6784493
  91.0955195  34.6979405  35.8332427  83.1071995  21.4751046  39.5744408
  83.6306397  21.7213342  40.3370717  82.8884328  22.3071080  39.1547545
  78.5039276  23.7454720  27.4415533  78.1751982  22.8652099  27.2590638
  78.8578647  23.6902389  28.3291922  87.7518855  35.3809623  31.9510518
  87.6043817  34.4526330  32.1318088  88.5772348  35.4029714  31.4667593
  81.6181099  24.0327690  27.8091010  81.9577172  24.5613611  27.0869619
  82.0653220  24.3708096  28.5849577  91.3552977  36.2038182  33.0375391
  92.2799524  35.9981043  32.8999842  91.1868280  35.9554583  33.9464732
  84.3124540  22.4164741  37.2594078  83.9721360  21.6172554  37.6614758
  83.6063546  22.7166451  36.6870911  84.9641012  19.5014053  35.7121401
  85.7867081  19.0274531  35.5900292  85.2079075  20.2804537  36.2120088
  83.6049246  22.5302311  26.0084303  84.3257609  22.9083564  25.5048020
  82.9814550  23.2491188  26.1119281  87.7480369  23.2347460  26.9442635
  87.9643984  24.1172098  26.6431463  87.2674436  22.8433674  26.2148277
  82.4879591  26.1933174  33.5213380  82.3424171  26.5073477  34.4137661
  82.0104794  26.8118074  32.9684279  84.3475973  23.1835722  33.5694269
  84.3337542  22.2876815  33.2326567  85.0648402  23.1906385  34.2032555
  86.2002104  23.6173062  35.6147397  85.9419882  24.5390133  35.6131727
  85.6687144  23.2203496  36.3047861  91.1448293  36.7223849  28.3937482
  91.3185170  36.1570271  27.6411335  91.6377184  37.5224744  28.2116972
  76.9625253  28.7338518  36.4601041  76.4178721  29.5098326  36.5921315
  77.8404603  29.0809323  36.3020162  83.7512869  22.0650102  28.8381840
  83.8728781  21.1366748  29.0372727  83.4614912  22.0788788  27.9260155
  86.6204060  19.7505012  31.9748559  86.6425757  19.8144345  31.0200539
  87.0372119  18.9109521  32.1689066  96.9987684  29.4860272  30.0127782
  97.4418830  28.7367597  29.6146905  96.1214194  29.4770408  29.6301514
  92.1323465  36.0390613  25.4934381  92.8274370  36.6597306  25.7121695
  92.4746616  35.1885965  25.7686758  77.7491275  27.8608414  39.3531198
  77.0073011  28.0091050  39.9395828  77.4284019  28.1216680  38.4897947
  94.0314888  33.4890319  27.0221711  94.5566213  33.8277592  26.2971031
  93.9437241  32.5537334  26.8384846  85.6934937  37.4024393  39.1511588
  86.0022064  37.1573539  40.0234288  86.4910419  37.6071031  38.6630458
  85.7155549  39.5562302  31.3816964  85.2760540  39.0638681  32.0749821
  86.4663666  39.0135270  31.1409040  78.1947888  35.7473843  31.3841593
  79.0205908  35.4477615  31.0040236  77.8441940  34.9781465  31.8331381
  83.1629421  35.1000311  33.4539266  82.5409431  34.4371016  33.1541494
  83.8334288  35.1261443  32.7712914  76.3956493  33.6660170  32.3430526
  75.5588402  33.2382344  32.1614527  76.3680139  33.8592613  33.2801317
  83.2353949  23.5782099  43.0471772  83.2842104  24.4544222  42.6649542
  83.7776463  23.0359492  42.4743415  93.7208795  34.1223223  42.3272909
  92.9304338  34.1047361  41.7877409  93.4842149  34.6611516  43.0821946
  93.8406670  30.9715689  39.6405638  93.8904675  30.8065696  40.5821161
  93.7320593  30.1042948  39.2503519  82.7242928  33.6504235  26.9297727
  82.8731049  34.3339699  26.2764399  83.5309372  33.6309325  27.4447182
  91.1310432  26.9546617  40.9564945  92.0320295  26.8153082  40.6648942
  91.2058407  27.1201072  41.8963122  85.4653237  24.3313472  39.8018131
  84.5956547  24.6247038  39.5300719  85.7012718  24.9153917  40.5225394
  95.3424866  33.3912630  39.8847659  95.0509675  33.7542611  40.7211120
  94.7296998  32.6779639  39.7060991  96.5420549  30.9565510  32.4050230
  97.3767440  31.3955314  32.5687790  96.6779678  30.4804163  31.5858475
  93.5912055  28.5145245  38.3527717  94.0666176  28.7072891  37.5446569
  92.6677620  28.5704431  38.1071101  80.4795561  29.6769412  27.9358796
  80.2341603  28.7731742  28.1339006  80.6491476  29.6786563  26.9938274
  88.1692271  20.5493089  37.3183551  88.6874215  21.2854116  36.9930040
  87.8147404  20.8557082  38.1530310  79.7491209  25.4097770  25.4344957
  79.0560454  25.4842125  24.7784993  79.5042961  24.6458113  25.9566474
  88.4204865  16.9693371  32.8384448  88.7006619  16.3016560  33.4644874
  89.2055472  17.1622467  32.3259112  86.2238334  36.1452365  24.4009474
  85.6512301  36.7642552  23.9479946  86.7971127  36.6951727  24.9349396
  92.2913724  25.3911005  36.5856023  93.2431147  25.4909103  36.6068247
  92.1217174  24.5989274  37.0954107  90.3128103  22.4766588  36.7715424
  89.7178035  22.7571601  36.0761912  90.0277800  22.9660489  37.5432165
  89.4435594  36.4289515  25.5318056  90.3766267  36.3635077  25.7350932
  89.3558806  37.2645782  25.0732589  92.0723610  35.7455386  22.4922004
  91.9937242  35.4115249  23.3857762  92.8933277  36.2377153  22.4913476
  94.7701801  28.6117125  35.6998323  94.7378122  27.6733126  35.8858006
  95.3802425  28.6901162  34.9664147  86.6085132  27.4813178  21.7425527
  87.5544237  27.3519386  21.8113945  86.2299377  26.7427840  22.2194955
  94.9196290  25.4028168  35.7456606  94.4035339  24.6186625  35.5586535
  95.8036238  25.0746885  35.9103125  92.5807017  19.1469184  31.7052418
  92.3831838  18.8384272  32.5895750  93.1906722  19.8730823  31.8350348
 100.5878351  29.6733132  34.8404359 101.3181740  29.4118420  35.4012063
  99.9785297  28.9361854  34.8806427  98.6693648  27.8140994  35.4378811
  97.9426812  27.6796959  34.8295302  98.2540935  28.1217823  36.2435529
  86.4923825  31.5330924  43.2026184  87.4126834  31.7109523  43.3966230
  86.4573408  30.5886969  43.0505883  84.7928049  25.4063154  21.6780412
  83.8859505  25.1096267  21.7543125  85.0704030  25.1092972  20.8114698
  75.7105990  26.7269518  32.1279458  75.3908774  25.8734826  31.8353832
  75.1639418  26.9418096  32.8837426  79.4885897  29.4431959  35.8448965
  79.7071907  30.3749066  35.8636999  79.9011671  29.0839933  36.6303769
  86.4090115  19.9500044  27.8324653  85.5990844  19.6047129  28.2079899
  87.0974532  19.6407588  28.4212265  88.3380663  19.0278091  29.4548950
  88.8911702  19.4473544  30.1138973  88.5750750  18.1013839  29.4971906
  84.3613763  25.0165164  45.2351714  84.2610490  25.9659521  45.1663805
  84.1435305  24.6883403  44.3627784  83.5626834  22.2650089  21.8192391
  84.4245998  22.5904988  22.0788208  83.7477178  21.4781585  21.3065457
  75.5794250  30.3472429  34.0972580  74.8857721  29.9326382  33.5842534
  76.3267241  30.3892966  33.5005999  91.7159471  21.1378616  28.9627614
  91.1358140  21.7963420  28.5805666  91.4495403  20.3155960  28.5515032
  90.1663037  20.5383674  31.1648934  90.6662815  20.6500208  30.3563253
  90.8098645  20.2344726  31.8049743  84.2245033  28.4462303  44.0516775
  83.7412114  29.2462663  44.2580664  84.3105972  28.4570248  43.0984219
  77.4930992  30.2790683  31.9738595  77.4701680  30.3778370  31.0220478
  77.8031629  31.1255834  32.2955761  80.1518370  32.3366838  36.0885209
  81.1061624  32.3050780  36.0215141  79.9530894  31.8757462  36.9035435
  80.7417752  30.9067954  38.6556007  81.5610641  31.4012033  38.6790844
  81.0154560  29.9899922  38.6273574  90.4984349  23.2978706  28.0183962
  89.6110204  23.5828357  27.8004157  90.9138338  23.1372470  27.1711239
  93.8498885  23.3225227  31.7338302  94.6259275  23.8121680  32.0062918
  93.1247019  23.7483281  32.1910171  96.2871443  24.0352846  32.7912242
  96.8815934  23.7948582  32.0805550  96.3598027  23.3159977  33.4185778
  78.5068599  37.8786457  33.1055407  78.3723067  37.1186858  32.5393405
  78.0900661  38.6027357  32.6384196  89.6427562  33.0623381  22.1131982
  90.3463412  33.2673383  22.7289638  88.9190211  33.6300143  22.3781066
  90.4725372  28.8133242  28.2334252  90.4160574  29.2701794  27.3941885
  91.0253715  28.0523927  28.0557095  94.2830178  24.6022974  29.0584372
  94.0267112  24.2019610  29.8892580  93.6583046  25.3166768  28.9334511
  98.5942516  27.3419047  31.5655663  98.0342074  27.4112237  32.3387225
  97.9886019  27.1660032  30.8455160  81.6637725  38.7755774  33.3173850
  81.5470109  39.7201207  33.2152540  80.8430171  38.4729336  33.7059649
  91.5514259  33.5005910  24.1630442  92.3859863  33.0687109  23.9807917
  91.3898602  33.3287924  25.0907337  91.2060152  30.0038023  25.5286782
  91.1508955  29.8382295  24.5875226  90.5806207  30.7114056  25.6848971
  75.9952667  25.2406088  39.3548204  76.6411530  24.7305042  39.8435429
  75.7869818  25.9774769  39.9291629  88.5206059  32.3086935  44.8540344
  89.3897218  32.4827588  44.4926979  88.0412810  33.1281352  44.7316074
  84.5156277  19.5046132  25.1072100  84.5034947  20.4487972  25.2640371
  85.4079699  19.3216278  24.8131561  82.6892239  39.4284036  36.5329778
  83.5919486  39.4607647  36.8496273  82.4629609  38.4984487  36.5476114
  84.4445841  38.1815023  33.1939857  83.4941472  38.1816884  33.0804229
  84.7478327  37.4347757  32.6775891  88.3308397  16.0988909  29.3618037
  87.5640792  15.5447396  29.5074719  88.7419102  16.1710778  30.2232188
  80.3350158  22.3873705  43.4523218  81.1981619  22.0310510  43.6626543
  79.7615568  22.0487600  44.1398622 100.1798535  44.0175561  34.2585619
 100.8176945  43.8982309  33.5548959 100.0619377  44.9656405  34.3173571
  96.9888241  43.9702989  34.1947144  96.6506752  43.8544054  33.3067679
  97.8578009  43.5694154  34.1748150  92.8475057  45.8238466  30.1844035
  92.2839922  45.7328403  29.4160322  92.7327452  45.0038370  30.6646527
  97.4708024  45.1237841  40.1533349  97.4596665  44.7290639  39.2813853
  97.6328663  44.3903914  40.7467121  90.3939488  47.3189657  33.0228255
  91.1860780  46.9780482  32.6074554  90.6336139  47.4284632  33.9430409
  98.4274615  49.4909433  25.4958500  97.7762595  50.0763514  25.1092513
  99.2218978  50.0215628  25.5553537  92.3530242  46.5798571  25.8945634
  93.1261118  46.0327558  25.7558510  92.7055641  47.4442820  26.1060095
  94.1915285  47.9074953  39.1012533  93.9005151  48.8120584  38.9859200
  94.8272269  47.9491481  39.8156603  95.1171492  45.2851801  35.6913893
  95.7135064  45.0607824  34.9770856  95.1746463  44.5436547  36.2939341
  94.6896520  42.7391237  23.5264084  94.9422041  42.2172758  22.7647547
  93.7521079  42.5757382  23.6290767  99.7339803  41.7427015  31.3338827
 100.5202892  41.3246438  30.9829244  99.9978507  42.6473107  31.5020476
  99.9049880  47.1799865  26.0327484  99.2695713  47.2534492  26.7448389
  99.5747287  47.7693464  25.3546563 105.1348230  41.6802248  32.2371806
 105.8673402  41.1101465  32.4709635 104.3787586  41.2923849  32.6778311
  94.4092809  44.6419343  25.7288459  94.2929067  43.9664246  26.3969543
  94.5195069  44.1551717  24.9120612  96.7524350  44.1029490  29.4335148
  96.3882557  43.5760111  30.1448070  97.6091466  43.7127959  29.2601634
 102.6573651  35.3923822  36.6966414 102.3256975  36.2619233  36.4727629
 102.0619264  35.0760106  37.3760445  96.3929837  39.1319390  24.4296497
  96.5604239  39.9999626  24.7966968  96.2027006  39.2946671  23.5057786
  99.1505170  47.5936368  36.0962327  98.8505893  48.4961407  35.9878134
  98.8056230  47.3268552  36.9483480  92.6017652  44.0450165  32.1299031
  91.6768148  43.9126379  32.3376723  92.8502065  44.8244384  32.6268974
 102.5502314  40.1118909  33.7759764 101.6419191  40.0434317  33.4818525
 102.4989910  40.5890854  34.6041590  96.3719058  41.5877047  25.4143163
  96.2518683  42.0334098  26.2528644  95.6771646  41.9362365  24.8556702
  89.9626463  43.6883439  32.9642820  90.0918844  43.9417918  33.8782232
  89.2823914  44.2811147  32.6447476  94.1325950  54.3580689  29.0633295
  94.0549980  55.3088514  29.1421775  93.5287593  54.0126561  29.7208221
  96.6243180  41.5308554  41.7194662  95.8476514  42.0902474  41.7097526
  97.2633743  42.0165337  42.2409532 104.4163960  38.3135347  35.5537638
 103.7738340  38.6067880  34.9077433 103.9118889  38.1988267  36.3590835
 102.0704124  42.0598520  26.2423497 102.9821980  42.2925907  26.0671195
 101.5613771  42.6435564  25.6798576  94.8789552  44.3394008  41.2812629
  95.6204236  44.8779052  41.0047452  94.1726537  44.9660296  41.4384180
 100.3544892  46.4823148  39.8784790 100.7628248  46.0405559  39.1339422
  99.6322153  45.9075776  40.1318983  96.7075962  41.4195755  37.2518347
  97.5537157  41.8435168  37.3952996  96.6474599  40.7629379  37.9456910
 100.6773706  47.0424339  33.6337079 100.0482569  47.2070053  32.9313147
 100.2899368  47.4565948  34.4048043 104.5562938  47.9778776  30.9881443
 103.8713976  48.3577678  30.4378476 104.6406787  48.5874103  31.7213390
  99.8575407  39.0800123  38.9099521  99.6136339  39.8342184  38.3733796
 100.1335337  39.4585471  39.7446768 101.8113870  45.6238736  37.5876786
 102.0230765  46.2670495  36.9111167 101.7643618  44.7901052  37.1198716
  99.4140099  38.2356556  34.4913358  98.5524578  38.5337810  34.7830096
  99.4402533  38.4526955  33.5594391  96.2301668  46.7798747  30.8987164
  96.6940014  47.0586450  30.1091787  95.9658466  45.8782191  30.7160255
  93.1225749  46.3270228  33.8366927  93.6927106  46.7557497  33.1984412
  93.7133861  46.0452813  34.5351113  95.1670554  42.9021899  27.7076729
  95.8694597  43.3542943  28.1750656  94.8351183  42.2605718  28.3356622
  93.6150916  41.4933656  42.0827939  92.9849576  42.1749937  42.3163335
  93.5087004  41.3816737  41.1381077  88.9095888  41.1605452  33.0093863
  88.1194942  41.4162980  32.5333973  89.4007135  41.9753790  33.1145903
 102.9259698  48.5010691  35.7599144 103.7477141  48.0990878  35.4781825
 102.9222101  48.3978925  36.7115259  90.8610633  41.5250031  29.9677339
  90.0641797  41.6368725  30.4860835  90.6336226  41.8636683  29.1018230
  96.6916301  48.0494734  37.9159854  96.7560734  48.5115141  38.7518026
  95.9827225  47.4192099  38.0442164  87.1933591  41.4135942  35.4408854
  87.4441629  42.2982952  35.7066429  87.7293139  41.2340544  34.6683945
 111.0165691  44.8449439  32.1084115 110.2629399  44.2756837  31.9528119
 111.1513232  44.8112104  33.0554750  96.4064319  49.7162842  27.7838834
  96.2709994  50.5614377  28.2123682  96.9474131  49.9182119  27.0204768
  92.8931658  35.7954422  44.4453190  92.4998604  35.2420620  45.1200834
  93.7097799  36.1065000  44.8359707  89.8593716  47.2338280  28.3566759
  90.3718237  48.0281530  28.5072324  90.5116429  46.5364570  28.2900361
  91.6688601  50.3504036  30.4389513  91.8455229  51.2722001  30.2510497
  92.4645434  50.0362455  30.8683892  95.8099619  37.2112301  42.0373446
  96.5509333  37.8119454  41.9577909  96.0417542  36.4689938  41.4791489
  90.9540957  42.3968668  40.3151676  90.8394473  41.4953925  40.6158775
  90.0985475  42.6432365  39.9636492  98.0332795  50.3386408  41.9139176
  97.5896649  49.5522787  41.5960081  98.6950009  50.5265559  41.2483067
  92.7919916  51.8682210  36.4399855  93.3427341  51.7399273  35.6676849
  91.9531392  52.1677099  36.0894748 100.1314033  50.6189208  39.9420578
 100.1132509  51.4398089  39.4500847 101.0533953  50.4943283  40.1670719
  96.5887087  48.1333338  40.7844086  97.1215424  47.3721626  40.5543394
  96.0601168  47.8406989  41.5268241  99.7556782  33.2393404  36.3137728
  99.4121052  34.1295045  36.2376838 100.1235745  33.0495061  35.4507313
  87.8242633  45.5626934  29.1326330  88.6617855  45.9723942  28.9160038
  88.0020901  44.6226376  29.1026524  99.7207065  43.2302015  24.8210163
  99.2053688  44.0006619  25.0598550  99.4484373  42.5567151  25.4443224
  97.3054176  38.0751715  29.8795401  96.4495772  37.6858566  29.7001040
  97.7181128  38.1543676  29.0195187  98.8353323  35.6098059  34.2786961
  98.3318118  35.5728194  33.4654766  99.1283930  36.5190801  34.3383618
  95.0796209  35.6936788  33.2853143  95.9449205  35.4979597  32.9259032
  95.1473718  35.4647140  34.2122500 104.6941339  45.9834369  26.7563336
 103.9170782  45.6445529  26.3118499 105.3732820  45.9886993  26.0818301
  99.5093368  41.1029107  26.6469944  99.2043504  41.4175256  27.4980087
 100.4623810  41.1810527  26.6897277  97.9539800  47.2619330  28.2962898
  97.4261162  46.5272090  27.9836136  97.4527303  48.0394006  28.0502866
 102.9332646  45.4568351  33.4129944 102.2756321  46.1467612  33.5010073
 103.7373045  45.8464783  33.7563931  92.6858528  37.9238996  30.6569510
  93.2602280  37.7014178  29.9242703  93.2729510  37.9927691  31.4098111
 101.7438105  43.8112723  31.4633886 102.2569987  44.4442715  31.9655596
 102.3939329  43.2113919  31.0977246  93.0128115  39.9543457  24.6765395
  92.1765427  40.2918144  24.9974670  92.8732884  39.8192437  23.7392532
  94.9881195  34.7980245  29.3844579  94.3345608  34.4829262  28.7601194
  94.9461670  34.1755986  30.1104402  96.0992400  45.0799540  21.2997871
  95.1919462  44.8488794  21.4989020  96.5963432  44.2837160  21.4871853
  99.0060479  53.7897048  24.2194557  98.3322178  54.0928744  24.8279515
  99.3926301  54.5926128  23.8700014  98.2218936  41.2862179  33.7092227
  97.3041497  41.5077126  33.5513915  98.6379079  41.3608489  32.8503934
  99.0053984  42.6853595  28.8394907  99.7525802  43.1974992  28.5302029
  99.2745573  42.3637647  29.6999301  97.2780634  45.1812135  25.8221861
  96.3691853  44.8971168  25.9194331  97.3075717  45.6011214  24.9625168
 102.5099901  48.7918725  29.5913029 102.0562228  47.9509635  29.6478219
 101.8793868  49.4280123  29.9287809 101.4532821  39.7210711  30.8213696
 100.7155577  39.2088097  31.1523939 101.7059594  39.2811092  30.0096973
 100.9532840  50.6295221  30.5262847 101.2455815  51.1900279  29.8075213
 101.4631461  50.9223782  31.2816006 101.5544448  32.4986963  31.4155466
 101.8603325  31.6384326  31.1281381 102.2797053  33.0904583  31.2154459
  87.8468804  42.9017649  29.8037063  87.6493204  42.3087010  29.0788130
  87.2915468  42.5969860  30.5213002  95.8265528  42.7940756  31.9231657
  95.8814138  41.8414592  31.8474133  95.0156730  42.9500195  32.4072955
  96.9756721  46.7220879  23.1609940  96.5376151  46.0056738  22.7015577
  97.7167162  46.9496994  22.5995031  93.7657888  41.4117816  29.6822035
  92.9525753  41.7111986  30.0887228  94.2616882  41.0173504  30.3996518
  95.9166466  51.4075573  31.6156300  95.8742644  51.6336419  30.6864832
  96.8329164  51.1738947  31.7642101  99.3632099  41.8759640  38.5136929
  99.7181487  42.1031113  39.3731395 100.0104231  42.2078017  37.8914185
 105.0929836  44.9978076  29.2186258 104.9547735  45.1879672  28.2907448
 104.7366055  45.7597459  29.6754310  93.2571962  38.9836171  35.2983270
  93.8971342  38.8424930  34.6006234  92.4249493  38.6970685  34.9221872
 105.1199216  47.0654603  34.2297530 105.5535723  46.9729892  35.0780584
 105.8330797  47.0412103  33.5917546  94.0332266  48.2838602  31.4118263
  94.8272865  47.7888922  31.2100838  93.3223959  47.7556465  31.0485968
  98.8527111  50.6656697  35.7630631  98.9064133  51.2347633  36.5308346
  97.9841892  50.8358582  35.3984668  90.3415030  42.4281683  27.4878016
  89.4112618  42.3666139  27.7047978  90.4372502  41.9057636  26.6914657
  90.2600579  38.9536496  30.0756257  90.5207396  39.8681829  29.9665418
  91.0817751  38.4860939  30.2252870  91.7325504  40.3674253  37.2455082
  92.4048558  40.1591615  36.5967731  90.9055291  40.1696339  36.8060314
 105.9814765  47.1078304  36.7630415 106.1750656  48.0124114  37.0089690
 105.8815384  46.6485723  37.5969000  97.6351076  36.9936194  39.2620743
  96.9878991  37.6926144  39.1685219  98.4052092  37.4272338  39.6296991
 101.0429874  47.2585046  42.3371296 100.8915381  47.0295598  41.4201380
 101.0334554  48.2155648  42.3502641  97.8115211  44.8316959  37.3217562
  98.7407271  44.9828119  37.1486530  97.3906241  44.9200980  36.4666209
  96.6103542  48.8567624  35.0916100  96.4714628  48.4886408  35.9642038
  95.8218139  49.3715263  34.9200058  97.2051694  53.9576720  26.4341637
  97.3803450  53.4864763  27.2487259  96.5184482  54.5842486  26.6622897
  98.1608757  48.2349226  32.4804938  97.8258590  48.1949996  33.3762588
  97.6612703  47.5693942  32.0075348  92.1353001  43.6416856  38.0057519
  91.9972799  42.9097095  38.6069058  93.0457925  43.5525756  37.7241707
 101.0967949  45.5805261  22.7541997 100.4797120  44.8552089  22.6575050
 100.6284438  46.3414621  22.4109072  94.7635302  43.3536816  37.4941199
  95.4734921  42.7130008  37.4527817  94.7204610  43.6049710  38.4167379
 102.7522081  50.2904169  40.4147778 102.6934627  49.6063389  39.7478361
 103.1541599  51.0323159  39.9628404  93.4764236  40.3402033  39.3136838
  92.9401593  39.8892772  39.9658434  92.8880945  40.4747942  38.5707302
  91.7712780  57.1066083  33.2081497  92.0109378  57.7384607  33.8860515
  90.9281976  56.7554123  33.4946856  92.8866495  39.7990685  21.8763302
  92.0095961  39.6779486  21.5125548  93.3624248  39.0076763  21.6242190
 102.7539488  48.2543753  38.6461757 101.8666267  47.9169675  38.7688156
 103.3238039  47.5226784  38.8830523  84.4068635  44.5867845  31.9704809
  85.0939675  44.2729575  31.3825824  84.2516764  45.4909209  31.6972060
  89.2103357  39.4758041  36.3989833  89.1261546  38.8683711  35.6640242
  88.3886064  39.9667059  36.3999329  96.2840641  52.9145205  35.6123001
  96.2110813  53.7200177  36.1242305  95.8418035  53.1137171  34.7871022
  96.0730421  52.1516975  29.1225822  95.2897943  52.6938655  29.2164047
  96.7723166  52.6690955  29.5220063  99.3827071  37.9611605  31.7660028
  99.8795771  37.2081567  31.4461098  98.6114053  37.9975921  31.2003237
 107.2356829  43.6651970  33.4078319 107.2246705  44.5476686  33.0372252
 106.3674208  43.3123521  33.2132856  98.7439325  52.8132039  37.7681159
  99.4567297  53.4479504  37.6957061  98.2529354  52.9095905  36.9521161
 100.4656852  46.7183292  29.3398451  99.5313131  46.8384754  29.1703155
 100.6433520  45.8155759  29.0758461  95.9662040  40.1028988  31.4931712
  95.5959827  39.5500028  32.1812618  96.4621132  39.4987121  30.9406712
 103.8529403  42.5600611  29.8748485 104.3189855  43.3928603  29.8008788
 104.3036904  42.0945593  30.5793744  93.7951238  50.5626483  38.5886730
  94.4960698  51.1962966  38.7416124  93.3246353  50.9041214  37.8282369
 101.9205634  48.9044432  26.8734637 102.1965478  48.7901027  27.7828511
 101.0510133  48.5061917  26.8346810 101.8246066  34.9281198  33.9139386
 100.9109146  35.1585425  34.0821593 102.2539167  35.0119642  34.7653419
 101.5952524  43.1171090  36.4139280 100.9423975  43.3646998  35.7591733
 101.9732904  42.3035228  36.0801758  98.5559698  53.1530783  30.5167451
  98.7382093  52.3352439  30.9795203  99.3792684  53.3698476  30.0792341
  98.8901864  52.0798968  27.7782499  99.4189630  51.5691423  27.1652661
  99.1530083  51.7641499  28.6428032  97.6440097  43.8590901  42.9005318
  96.9680734  43.7585031  43.5707693  98.4667731  43.7030115  43.3641315
  89.3918957  50.0962838  35.5217833  89.9772393  49.3506526  35.6545737
  89.1943795  50.4066794  36.4054497  92.2457612  53.1314085  30.5380275
  91.5767987  53.6160213  30.0544315  92.1070481  53.3783306  31.4523654
  83.9836611  42.6668438  34.2422276  84.0220711  42.1332029  35.0359394
  83.4776904  42.1403643  33.6233253  96.3862880  55.1657829  37.1362934
  96.9381188  55.3289450  37.9012019  96.7269074  55.7562266  36.4642958
  91.3627374  37.5132978  37.7384818  91.4268700  38.3747809  37.3262216
  91.2994494  36.9006980  37.0057177  90.8379646  39.5856111  41.3857853
  91.4651685  39.2033188  41.9995377  89.9807565  39.3670313  41.7513545
 101.2373755  49.9919086  42.9911588 101.7813659  50.6049044  42.4966543
 100.6560600  50.5498665  43.5078601  87.6145189  41.3932540  27.3176207
  87.9098630  40.4843219  27.2643261  86.7133225  41.3720280  26.9957210
  99.5231268  53.1139804  34.1226616  99.3982407  52.3129544  33.6137561
 100.1810359  53.6085998  33.6340586  91.1439436  39.4688537  33.3003756
  90.4226022  40.0824504  33.1611229  91.9332692  40.0046302  33.2220402
 101.5866176  50.9148824  35.7506166 100.6396512  50.7954175  35.6784493
 101.9348949  50.0271322  35.8332427  93.9465749  36.8042963  39.5744408
  94.4700151  37.0505260  40.3370717  93.7278083  37.6362998  39.1547545
  89.3433030  39.0746638  27.4415533  89.0145737  38.1944017  27.2590638
  89.6972401  39.0194306  28.3291922  98.5912609  50.7101540  31.9510518
  98.4437572  49.7818248  32.1318088  99.4166103  50.7321631  31.4667593
  92.4574854  39.3619608  27.8091010  92.7970926  39.8905529  27.0869619
  92.9046974  39.7000014  28.5849577 102.1946731  51.5330099  33.0375391
 103.1193279  51.3272961  32.8999842 102.0262035  51.2846500  33.9464732
  95.1518294  37.7456658  37.2594078  94.8115115  36.9464471  37.6614758
  94.4457301  38.0458369  36.6870911  95.8034766  34.8305971  35.7121401
  96.6260836  34.3566449  35.5900292  96.0472830  35.6096454  36.2120088
  94.4443001  37.8594229  26.0084303  95.1651363  38.2375482  25.5048020
  93.8208305  38.5783106  26.1119281  98.5874124  38.5639378  26.9442635
  98.8037738  39.4464016  26.6431463  98.1068191  38.1725592  26.2148277
  93.3273345  41.5225091  33.5213380  93.1817926  41.8365394  34.4137661
  92.8498549  42.1409992  32.9684279  95.1869728  38.5127639  33.5694269
  95.1731297  37.6168733  33.2326567  95.9042156  38.5198303  34.2032555
  97.0395859  38.9464980  35.6147397  96.7813636  39.8682050  35.6131727
  96.5080899  38.5495414  36.3047861 101.9842047  52.0515767  28.3937482
 102.1578925  51.4862189  27.6411335 102.4770939  52.8516662  28.2116972
  87.8019007  44.0630436  36.4601041  87.2572475  44.8390244  36.5921315
  88.6798357  44.4101240  36.3020162  94.5906624  37.3942020  28.8381840
  94.7122535  36.4658666  29.0372727  94.3008666  37.4080706  27.9260155
  97.4597814  35.0796930  31.9748559  97.4819511  35.1436263  31.0200539
  97.8765873  34.2401439  32.1689066 107.8381439  44.8152190  30.0127782
 108.2812585  44.0659515  29.6146905 106.9607949  44.8062326  29.6301514
 102.9717220  51.3682531  25.4934381 103.6668124  51.9889224  25.7121695
 103.3140370  50.5177882  25.7686758  88.5885029  43.1900332  39.3531198
  87.8466765  43.3382967  39.9395828  88.2677773  43.4508598  38.4897947
 104.8708643  48.8182237  27.0221711 105.3959967  49.1569509  26.2971031
 104.7830996  47.8829252  26.8384846  96.5328692  52.7316310  39.1511588
  96.8415818  52.4865457  40.0234288  97.3304174  52.9362949  38.6630458
  96.5549304  54.8854220  31.3816964  96.1154294  54.3930599  32.0749821
  97.3057421  54.3427188  31.1409040  89.0341643  51.0765761  31.3841593
  89.8599663  50.7769533  31.0040236  88.6835695  50.3073383  31.8331381
  94.0023176  50.4292229  33.4539266  93.3803185  49.7662934  33.1541494
  94.6728043  50.4553361  32.7712914  87.2350248  48.9952087  32.3430526
  86.3982156  48.5674262  32.1614527  87.2073893  49.1884531  33.2801317
  94.0747703  38.9074017  43.0471772  94.1235859  39.7836140  42.6649542
  94.6170218  38.3651410  42.4743415 104.5602549  49.4515140  42.3272909
 103.7698093  49.4339279  41.7877409 104.3235904  49.9903434  43.0821946
 104.6800424  46.3007607  39.6405638 104.7298429  46.1357614  40.5821161
 104.5714347  45.4334866  39.2503519  93.5636683  48.9796152  26.9297727
  93.7124803  49.6631617  26.2764399  94.3703126  48.9601242  27.4447182
 101.9704186  42.2838535  40.9564945 102.8714049  42.1444999  40.6648942
 102.0452161  42.4492989  41.8963122  96.3046992  39.6605389  39.8018131
  95.4350301  39.9538955  39.5300719  96.5406472  40.2445834  40.5225394
 106.1818621  48.7204548  39.8847659 105.8903429  49.0834529  40.7211120
 105.5690752  48.0071556  39.7060991 107.3814303  46.2857428  32.4050230
 108.2161195  46.7247232  32.5687790 107.5173432  45.8096081  31.5858475
 104.4305809  43.8437163  38.3527717 104.9059931  44.0364809  37.5446569
 103.5071375  43.8996349  38.1071101  91.3189316  45.0061330  27.9358796
  91.0735358  44.1023660  28.1339006  91.4885230  45.0078480  26.9938274
  99.0086026  35.8785006  37.3183551  99.5267970  36.6146033  36.9930040
  98.6541158  36.1849000  38.1530310  90.5884963  40.7389688  25.4344957
  89.8954208  40.8134043  24.7784993  90.3436715  39.9750031  25.9566474
  99.2598620  32.2985289  32.8384448  99.5400374  31.6308478  33.4644874
 100.0449227  32.4914384  32.3259112  97.0632088  51.4744283  24.4009474
  96.4906055  52.0934470  23.9479946  97.6364882  52.0243644  24.9349396
 103.1307478  40.7202923  36.5856023 104.0824901  40.8201021  36.6068247
 102.9610929  39.9281191  37.0954107 101.1521858  37.8058506  36.7715424
 100.5571790  38.0863519  36.0761912 100.8671554  38.2952407  37.5432165
 100.2829348  51.7581433  25.5318056 101.2160021  51.6926995  25.7350932
 100.1952561  52.5937700  25.0732589 102.9117365  51.0747303  22.4922004
 102.8330996  50.7407167  23.3857762 103.7327032  51.5669071  22.4913476
 105.6095556  43.9409043  35.6998323 105.5771876  43.0025043  35.8858006
 106.2196180  44.0193079  34.9664147  97.4478887  42.8105096  21.7425527
  98.3937992  42.6811304  21.8113945  97.0693132  42.0719757  22.2194955
 105.7590044  40.7320086  35.7456606 105.2429093  39.9478543  35.5586535
 106.6429993  40.4038803  35.9103125 103.4200771  34.4761102  31.7052418
 103.2225592  34.1676190  32.5895750 104.0300477  35.2022740  31.8350348
 111.4272106  45.0025049  34.8404359 112.1575494  44.7410338  35.4012063
 110.8179051  44.2653771  34.8806427 109.5087403  43.1432912  35.4378811
 108.7820566  43.0088877  34.8295302 109.0934690  43.4509741  36.2435529
  97.3317579  46.8622842  43.2026184  98.2520589  47.0401441  43.3966230
  97.2967162  45.9178887  43.0505883  95.6321804  40.7355072  21.6780412
  94.7253259  40.4388185  21.7543125  95.9097785  40.4384890  20.8114698
  86.5499744  42.0561435  32.1279458  86.2302529  41.2026743  31.8353832
  86.0033173  42.2710013  32.8837426  90.3279652  44.7723876  35.8448965
  90.5465662  45.7040984  35.8636999  90.7405426  44.4131851  36.6303769
  97.2483870  35.2791962  27.8324653  96.4384598  34.9339047  28.2079899
  97.9368287  34.9699505  28.4212265  99.1774418  34.3570008  29.4548950
  99.7305457  34.7765462  30.1138973  99.4144504  33.4305757  29.4971906
  95.2007517  40.3457082  45.2351714  95.1004244  41.2951439  45.1663805
  94.9829059  40.0175321  44.3627784  94.4020589  37.5942007  21.8192391
  95.2639753  37.9196905  22.0788208  94.5870933  36.8073503  21.3065457
  86.4188004  45.6764347  34.0972580  85.7251476  45.2618300  33.5842534
  87.1660995  45.7184883  33.5005999 102.5553225  36.4670534  28.9627614
 101.9751894  37.1255338  28.5805666 102.2889158  35.6447878  28.5515032
 101.0056791  35.8675591  31.1648934 101.5056570  35.9792126  30.3563253
 101.6492399  35.5636644  31.8049743  95.0638787  43.7754221  44.0516775
  94.5805869  44.5754581  44.2580664  95.1499726  43.7862166  43.0984219
  88.3324747  45.6082601  31.9738595  88.3095435  45.7070288  31.0220478
  88.6425383  46.4547751  32.2955761  90.9912125  47.6658756  36.0885209
  91.9455378  47.6342698  36.0215141  90.7924648  47.2049379  36.9035435
  91.5811507  46.2359872  38.6556007  92.4004396  46.7303950  38.6790844
  91.8548315  45.3191840  38.6273574 101.3378103  38.6270624  28.0183962
 100.4503958  38.9120275  27.8004157 101.7532092  38.4664387  27.1711239
 104.6892639  38.6517145  31.7338302 105.4653029  39.1413597  32.0062918
 103.9640773  39.0775199  32.1910171 107.1265198  39.3644764  32.7912242
 107.7209689  39.1240500  32.0805550 107.1991782  38.6451895  33.4185778
  89.3462354  53.2078375  33.1055407  89.2116821  52.4478776  32.5393405
  88.9294416  53.9319275  32.6384196 100.4821317  48.3915299  22.1131982
 101.1857167  48.5965301  22.7289638  99.7583965  48.9592061  22.3781066
 101.3119127  44.1425160  28.2334252 101.2554328  44.5993711  27.3941885
 101.8647469  43.3815844  28.0557095 105.1223933  39.9314892  29.0584372
 104.8660867  39.5311527  29.8892580 104.4976801  40.6458686  28.9334511
 109.4336271  42.6710965  31.5655663 108.8735829  42.7404154  32.3387225
 108.8279774  42.4951950  30.8455160  92.5031479  54.1047692  33.3173850
  92.3863864  55.0493125  33.2152540  91.6823926  53.8021254  33.7059649
 102.3908014  48.8297828  24.1630442 103.2253618  48.3979026  23.9807917
 102.2292357  48.6579842  25.0907337 102.0453906  45.3329941  25.5286782
 101.9902710  45.1674213  24.5875226 101.4199961  46.0405974  25.6848971
  86.8346421  40.5698006  39.3548204  87.4805285  40.0596959  39.8435429
  86.6263572  41.3066687  39.9291629  99.3599813  47.6378853  44.8540344
 100.2290973  47.8119505  44.4926979  98.8806565  48.4573270  44.7316074
  95.3550032  34.8338050  25.1072100  95.3428701  35.7779890  25.2640371
  96.2473453  34.6508196  24.8131561  93.5285994  54.7575954  36.5329778
  94.4313240  54.7899564  36.8496273  93.3023364  53.8276405  36.5476114
  95.2839596  53.5106941  33.1939857  94.3335227  53.5108802  33.0804229
  95.5872082  52.7639675  32.6775891  99.1702151  31.4280827  29.3618037
  98.4034547  30.8739313  29.5074719  99.5812856  31.5002696  30.2232188
  91.1743912  37.7165623  43.4523218  92.0375374  37.3602427  43.6626543
  90.6009323  37.3779517  44.1398622 111.0192289  59.3467479  34.2585619
 111.6570699  59.2274226  33.5548959 110.9013132  60.2948323  34.3173571
 107.8281995  59.2994907  34.1947144 107.4900507  59.1835972  33.3067679
 108.6971764  58.8986072  34.1748150 103.6868811  61.1530383  30.1844035
 103.1233676  61.0620320  29.4160322 103.5721206  60.3330288  30.6646527
 108.3101778  60.4529759  40.1533349 108.2990419  60.0582557  39.2813853
 108.4722418  59.7195831  40.7467121 101.2333243  62.6481575  33.0228255
 102.0254535  62.3072400  32.6074554 101.4729893  62.7576550  33.9430409
 109.2668370  64.8201351  25.4958500 108.6156349  65.4055432  25.1092513
 110.0612733  65.3507546  25.5553537 103.1923997  61.9090488  25.8945634
 103.9654873  61.3619475  25.7558510 103.5449396  62.7734738  26.1060095
 105.0309039  63.2366871  39.1012533 104.7398905  64.1412501  38.9859200
 105.6666024  63.2783398  39.8156603 105.9565246  60.6143719  35.6913893
 106.5528819  60.3899741  34.9770856 106.0140218  59.8728465  36.2939341
 105.5290275  58.0683154  23.5264084 105.7815795  57.5464676  22.7647547
 104.5914834  57.9049300  23.6290767 110.5733558  57.0718933  31.3338827
 111.3596647  56.6538356  30.9829244 110.8372262  57.9765025  31.5020476
 110.7443635  62.5091783  26.0327484 110.1089468  62.5826410  26.7448389
 110.4141041  63.0985382  25.3546563 115.9741985  57.0094166  32.2371806
 116.7067157  56.4393383  32.4709635 115.2181340  56.6215766  32.6778311
 105.2486563  59.9711260  25.7288459 105.1322822  59.2956164  26.3969543
 105.3588823  59.4843634  24.9120612 107.5918104  59.4321407  29.4335148
 107.2276312  58.9052028  30.1448070 108.4485220  59.0419877  29.2601634
 113.4967405  50.7215740  36.6966414 113.1650730  51.5911151  36.4727629
 112.9013018  50.4052024  37.3760445 107.2323591  54.4611307  24.4296497
 107.3997994  55.3291544  24.7966968 107.0420760  54.6238589  23.5057786
 109.9898925  62.9228286  36.0962327 109.6899648  63.8253325  35.9878134
 109.6449984  62.6560469  36.9483480 103.4411406  59.3742083  32.1299031
 102.5161902  59.2418297  32.3376723 103.6895819  60.1536302  32.6268974
 113.3896068  55.4410826  33.7759764 112.4812946  55.3726235  33.4818525
 113.3383664  55.9182771  34.6041590 107.2112812  56.9168965  25.4143163
 107.0912437  57.3626015  26.2528644 106.5165401  57.2654282  24.8556702
 100.8020217  59.0175356  32.9642820 100.9312598  59.2709835  33.8782232
 100.1217668  59.6103064  32.6447476 104.9719704  69.6872606  29.0633295
 104.8943734  70.6380432  29.1421775 104.3681348  69.3418479  29.7208221
 107.4636934  56.8600472  41.7194662 106.6870268  57.4194392  41.7097526
 108.1027497  57.3457255  42.2409532 115.2557715  53.6427265  35.5537638
 114.6132095  53.9359798  34.9077433 114.7512643  53.5280185  36.3590835
 112.9097878  57.3890438  26.2423497 113.8215734  57.6217825  26.0671195
 112.4007525  57.9727482  25.6798576 105.7183306  59.6685925  41.2812629
 106.4597991  60.2070969  41.0047452 105.0120292  60.2952214  41.4384180
 111.1938646  61.8115066  39.8784790 111.6022002  61.3697476  39.1339422
 110.4715908  61.2367693  40.1318983 107.5469716  56.7487672  37.2518347
 108.3930911  57.1727086  37.3952996 107.4868354  56.0921297  37.9456910
 111.5167461  62.3716256  33.6337079 110.8876323  62.5361970  32.9313147
 111.1293123  62.7857866  34.4048043 115.3956693  63.3070694  30.9881443
 114.7107731  63.6869596  30.4378476 115.4800542  63.9166021  31.7213390
 110.6969161  54.4092041  38.9099521 110.4530093  55.1634101  38.3733796
 110.9729092  54.7877388  39.7446768 112.6507624  60.9530653  37.5876786
 112.8624519  61.5962413  36.9111167 112.6037372  60.1192970  37.1198716
 110.2533853  53.5648474  34.4913358 109.3918332  53.8629727  34.7830096
 110.2796288  53.7818873  33.5594391 107.0695423  62.1090664  30.8987164
 107.5333768  62.3878367  30.1091787 106.8052221  61.2074109  30.7160255
 103.9619504  61.6562146  33.8366927 104.5320861  62.0849414  33.1984412
 104.5527615  61.3744731  34.5351113 106.0064309  58.2313817  27.7076729
 106.7088352  58.6834860  28.1750656 105.6744937  57.5897636  28.3356622
 104.4544670  56.8225573  42.0827939 103.8243331  57.5041854  42.3163335
 104.3480758  56.7108655  41.1381077  99.7489643  56.4897369  33.0093863
  98.9588697  56.7454898  32.5333973 100.2400890  57.3045707  33.1145903
 113.7653452  63.8302609  35.7599144 114.5870896  63.4282796  35.4781825
 113.7615855  63.7270843  36.7115259 101.7004388  56.8541949  29.9677339
 100.9035551  56.9660643  30.4860835 101.4729980  57.1928601  29.1018230
 107.5310056  63.3786652  37.9159854 107.5954488  63.8407059  38.7518026
 106.8220979  62.7484017  38.0442164  98.0327346  56.7427860  35.4408854
  98.2835384  57.6274870  35.7066429  98.5686894  56.5632461  34.6683945
 107.2458073  65.0454759  27.7838834 107.1103748  65.8906295  28.2123682
 107.7867886  65.2474037  27.0204768 103.7325413  51.1246339  44.4453190
 103.3392358  50.5712538  45.1200834 104.5491553  51.4356918  44.8359707
 100.6987471  62.5630197  28.3566759 101.2111991  63.3573448  28.5072324
 101.3510183  61.8656488  28.2900361 102.5082355  65.6795954  30.4389513
 102.6848984  66.6013918  30.2510497 103.3039189  65.3654373  30.8683892
 106.6493374  52.5404218  42.0373446 107.3903087  53.1411371  41.9577909
 106.8811297  51.7981856  41.4791489 101.7934712  57.7260586  40.3151676
 101.6788227  56.8245843  40.6158775 100.9379230  57.9724282  39.9636492
 108.8726550  65.6678326  41.9139176 108.4290404  64.8814704  41.5960081
 109.5343763  65.8557476  41.2483067 103.6313671  67.1974127  36.4399855
 104.1821096  67.0691191  35.6676849 102.7925147  67.4969017  36.0894748
 110.9707788  65.9481126  39.9420578 110.9526263  66.7690007  39.4500847
 111.8927708  65.8235201  40.1670719 107.4280842  63.4625255  40.7844086
 107.9609179  62.7013543  40.5543394 106.8994923  63.1698907  41.5268241
 110.5950537  48.5685321  36.3137728 110.2514806  49.4586963  36.2376838
 110.9629499  48.3786979  35.4507313  98.6636387  60.8918852  29.1326330
  99.5011609  61.3015860  28.9160038  98.8414655  59.9518294  29.1026524
 110.5600820  58.5593932  24.8210163 110.0447443  59.3298537  25.0598550
 110.2878128  57.8859069  25.4443224 108.1447931  53.4043633  29.8795401
 107.2889527  53.0150484  29.7001040 108.5574882  53.4835594  29.0195187
 109.6747077  50.9389976  34.2786961 109.1711873  50.9020112  33.4654766
 109.9677684  51.8482719  34.3383618 105.9189963  51.0228706  33.2853143
 106.7842960  50.8271515  32.9259032 105.9867472  50.7939058  34.2122500
 115.5335094  61.3126287  26.7563336 114.7564536  60.9737447  26.3118499
 116.2126575  61.3178910  26.0818301 110.3487123  56.4321024  26.6469944
 110.0437258  56.7467174  27.4980087 111.3017565  56.5102444  26.6897277
 108.7933555  62.5911248  28.2962898 108.2654916  61.8564007  27.9836136
 108.2921057  63.3685924  28.0502866 113.7726401  60.7860268  33.4129944
 113.1150075  61.4759530  33.5010073 114.5766800  61.1756700  33.7563931
 103.5252282  53.2530914  30.6569510 104.0996034  53.0306096  29.9242703
 104.1123265  53.3219609  31.4098111 112.5831859  59.1404641  31.4633886
 113.0963741  59.7734633  31.9655596 113.2333083  58.5405836  31.0977246
 103.8521869  55.2835375  24.6765395 103.0159182  55.6210062  24.9974670
 103.7126639  55.1484355  23.7392532 105.8274950  50.1272163  29.3844579
 105.1739362  49.8121180  28.7601194 105.7855424  49.5047903  30.1104402
 106.9386155  60.4091458  21.2997871 106.0313216  60.1780712  21.4989020
 107.4357187  59.6129077  21.4871853 109.8454234  69.1188965  24.2194557
 109.1715932  69.4220662  24.8279515 110.2320056  69.9218046  23.8700014
 109.0612690  56.6154097  33.7092227 108.1435252  56.8369044  33.5513915
 109.4772834  56.6900407  32.8503934 109.8447738  58.0145512  28.8394907
 110.5919557  58.5266909  28.5302029 110.1139328  57.6929565  29.6999301
 108.1174388  60.5104053  25.8221861 107.2085607  60.2263086  25.9194331
 108.1469472  60.9303131  24.9625168 113.3493656  64.1210642  29.5913029
 112.8955983  63.2801552  29.6478219 112.7187622  64.7572041  29.9287809
 112.2926575  55.0502628  30.8213696 111.5549332  54.5380015  31.1523939
 112.5453349  54.6103010  30.0096973 111.7926595  65.9587139  30.5262847
 112.0849569  66.5192196  29.8075213 112.3025215  66.2515700  31.2816006
 112.3938202  47.8278880  31.4155466 112.6997079  46.9676244  31.1281381
 113.1190807  48.4196501  31.2154459  98.6862559  58.2309567  29.8037063
  98.4886958  57.6378928  29.0788130  98.1309223  57.9261777  30.5213002
 106.6659282  58.1232674  31.9231657 106.7207892  57.1706510  31.8474133
 105.8550484  58.2792113  32.4072955 107.8150476  62.0512797  23.1609940
 107.3769906  61.3348656  22.7015577 108.5560917  62.2788911  22.5995031
 104.6051642  56.7409733  29.6822035 103.7919508  57.0403904  30.0887228
 105.1010636  56.3465422  30.3996518 106.7560220  66.7367490  31.6156300
 106.7136399  66.9628337  30.6864832 107.6722919  66.5030865  31.7642101
 110.2025854  57.2051558  38.5136929 110.5575242  57.4323031  39.3731395
 110.8497985  57.5369935  37.8914185 115.9323591  60.3269994  29.2186258
 115.7941489  60.5171590  28.2907448 115.5759810  61.0889376  29.6754310
 104.0965717  54.3128089  35.2983270 104.7365096  54.1716848  34.6006234
 103.2643247  54.0262602  34.9221872 115.9592970  62.3946521  34.2297530
 116.3929477  62.3021810  35.0780584 116.6724551  62.3704021  33.5917546
 104.8726021  63.6130519  31.4118263 105.6666619  63.1180839  31.2100838
 104.1617713  63.0848382  31.0485968 109.6920865  65.9948615  35.7630631
 109.7457888  66.5639551  36.5308346 108.8235647  66.1650500  35.3984668
 101.1808784  57.7573601  27.4878016 100.2506372  57.6958056  27.7047978
 101.2766256  57.2349554  26.6914657 101.0994333  54.2828414  30.0756257
 101.3601151  55.1973747  29.9665418 101.9211506  53.8152856  30.2252870
 102.5719259  55.6966171  37.2455082 103.2442312  55.4883533  36.5967731
 101.7449045  55.4988257  36.8060314 116.8208520  62.4370221  36.7630415
 117.0144410  63.3416032  37.0089690 116.7209138  61.9777640  37.5969000
 108.4744831  52.3228112  39.2620743 107.8272746  53.0218062  39.1685219
 109.2445846  52.7564256  39.6296991 111.8823629  62.5876964  42.3371296
 111.7309135  62.3587516  41.4201380 111.8728308  63.5447565  42.3502641
 108.6508965  60.1608877  37.3217562 109.5801025  60.3120036  37.1486530
 108.2299995  60.2492898  36.4666209 107.4497297  64.1859541  35.0916100
 107.3108382  63.8178326  35.9642038 106.6611893  64.7007181  34.9200058
 108.0445449  69.2868638  26.4341637 108.2197204  68.8156681  27.2487259
 107.3578237  69.9134404  26.6622897 109.0002512  63.5641144  32.4804938
 108.6652345  63.5241914  33.3762588 108.5006458  62.8985860  32.0075348
 102.9746756  58.9708774  38.0057519 102.8366554  58.2389013  38.6069058
 103.8851679  58.8817674  37.7241707 111.9361704  60.9097178  22.7541997
 111.3190874  60.1844006  22.6575050 111.4678192  61.6706539  22.4109072
 105.6029057  58.6828733  37.4941199 106.3128675  58.0421925  37.4527817
 105.5598365  58.9341628  38.4167379 113.5915835  65.6196087  40.4147778
 113.5328381  64.9355307  39.7478361 113.9935354  66.3615077  39.9628404
 104.3157991  55.6693951  39.3136838 103.7795348  55.2184690  39.9658434
 103.7274699  55.8039860  38.5707302 102.6106534  72.4358000  33.2081497
 102.8503132  73.0676525  33.8860515 101.7675731  72.0846040  33.4946856
 103.7260250  55.1282603  21.8763302 102.8489716  55.0071403  21.5125548
 104.2018003  54.3368681  21.6242190 113.5933243  63.5835671  38.6461757
 112.7060021  63.2461592  38.7688156 114.1631794  62.8518702  38.8830523
  95.2462390  59.9159762  31.9704809  95.9333429  59.6021492  31.3825824
  95.0910518  60.8201127  31.6972060 100.0497112  54.8049959  36.3989833
  99.9655301  54.1975628  35.6640242  99.2279818  55.2958977  36.3999329
 107.1234396  68.2437123  35.6123001 107.0504567  69.0492094  36.1242305
 106.6811789  68.4429089  34.7871022 106.9124176  67.4808893  29.1225822
 106.1291697  68.0230573  29.2164047 107.6116921  67.9982873  29.5220063
 110.2220826  53.2903522  31.7660028 110.7189525  52.5373485  31.4461098
 109.4507807  53.3267839  31.2003237 118.0750583  58.9943888  33.4078319
 118.0640459  59.8768603  33.0372252 117.2067962  58.6415439  33.2132856
 109.5833079  68.1423957  37.7681159 110.2961052  68.7771422  37.6957061
 109.0923108  68.2387823  36.9521161 111.3050606  62.0475210  29.3398451
 110.3706885  62.1676672  29.1703155 111.4827275  61.1447676  29.0758461
 106.8055794  55.4320905  31.4931712 106.4353582  54.8791946  32.1812618
 107.3014887  54.8279039  30.9406712 114.6923158  57.8892529  29.8748485
 115.1583610  58.7220520  29.8008788 115.1430658  57.4237510  30.5793744
 104.6344993  65.8918400  38.5886730 105.3354452  66.5254883  38.7416124
 104.1640108  66.2333132  37.8282369 112.7599389  64.2336350  26.8734637
 113.0359233  64.1192945  27.7828511 111.8903888  63.8353835  26.8346810
 112.6639820  50.2573116  33.9139386 111.7502900  50.4877343  34.0821593
 113.0932922  50.3411560  34.7653419 112.4346279  58.4463008  36.4139280
 111.7817729  58.6938915  35.7591733 112.8126659  57.6327146  36.0801758
 109.3953453  68.4822701  30.5167451 109.5775847  67.6644357  30.9795203
 110.2186439  68.6990393  30.0792341 109.7295618  67.4090886  27.7782499
 110.2583385  66.8983341  27.1652661 109.9923838  67.0933416  28.6428032
 108.4833852  59.1882819  42.9005318 107.8074489  59.0876948  43.5707693
 109.3061486  59.0322033  43.3641315 100.2312711  65.4254755  35.5217833
 100.8166148  64.6798443  35.6545737 100.0337549  65.7358712  36.4054497
 103.0851366  68.4606003  30.5380275 102.4161742  68.9452130  30.0544315
 102.9464236  68.7075223  31.4523654  94.8230366  57.9960356  34.2422276
  94.8614465  57.4623946  35.0359394  94.3170659  57.4695561  33.6233253
 107.2256635  70.4949746  37.1362934 107.7774943  70.6581368  37.9012019
 107.5662828  71.0854184  36.4642958 102.2021128  52.8424896  37.7384818
 102.2662455  53.7039727  37.3262216 102.1388248  52.2298898  37.0057177
 101.6773401  54.9148029  41.3857853 102.3045439  54.5325106  41.9995377
 100.8201319  54.6962231  41.7513545 112.0767509  65.3211004  42.9911588
 112.6207413  65.9340962  42.4966543 111.4954354  65.8790582  43.5078601
  98.4538943  56.7224458  27.3176207  98.7492384  55.8135136  27.2643261
  97.5526979  56.7012197  26.9957210 110.3625022  68.4431722  34.1226616
 110.2376162  67.6421462  33.6137561 111.0204113  68.9377915  33.6340586
 101.9833190  54.7980454  33.3003756 101.2619776  55.4116422  33.1611229
 102.7726446  55.3338219  33.2220402 112.4259930  66.2440742  35.7506166
 111.4790266  66.1246093  35.6784493 112.7742704  65.3563240  35.8332427
 104.7859504  52.1334881  39.5744408 105.3093906  52.3797177  40.3370717
 104.5671837  52.9654916  39.1547545 100.1826785  54.4038555  27.4415533
  99.8539491  53.5235934  27.2590638 100.5366156  54.3486224  28.3291922
 109.4306364  66.0393458  31.9510518 109.2831326  65.1110166  32.1318088
 110.2559857  66.0613549  31.4667593 103.2968608  54.6911525  27.8091010
 103.6364681  55.2197446  27.0869619 103.7440729  55.0291931  28.5849577
 113.0340486  66.8622017  33.0375391 113.9587033  66.6564878  32.8999842
 112.8655789  66.6138418  33.9464732 105.9912049  53.0748576  37.2594078
 105.6508869  52.2756389  37.6614758 105.2851055  53.3750287  36.6870911
 106.6428521  50.1597888  35.7121401 107.4654590  49.6858367  35.5900292
 106.8866584  50.9388372  36.2120088 105.2836755  53.1886147  26.0084303
 106.0045118  53.5667400  25.5048020 104.6602059  53.9075024  26.1119281
 109.4267878  53.8931296  26.9442635 109.6431493  54.7755934  26.6431463
 108.9461945  53.5017509  26.2148277 104.1667099  56.8517009  33.5213380
 104.0211680  57.1657312  34.4137661 103.6892303  57.4701909  32.9684279
 106.0263482  53.8419557  33.5694269 106.0125051  52.9460650  33.2326567
 106.7435910  53.8490221  34.2032555 107.8789613  54.2756897  35.6147397
 107.6207391  55.1973968  35.6131727 107.3474653  53.8787332  36.3047861
 112.8235802  67.3807684  28.3937482 112.9972679  66.8154107  27.6411335
 113.3164693  68.1808579  28.2116972  98.6412762  59.3922353  36.4601041
  98.0966230  60.1682161  36.5921315  99.5192112  59.7393158  36.3020162
 105.4300378  52.7233937  28.8381840 105.5516290  51.7950583  29.0372727
 105.1402421  52.7372623  27.9260155 108.2991569  50.4088848  31.9748559
 108.3213266  50.4728181  31.0200539 108.7159628  49.5693356  32.1689066
 113.8110974  66.6974449  25.4934381 114.5061879  67.3181141  25.7121695
 114.1534124  65.8469800  25.7686758  99.4278784  58.5192250  39.3531198
  98.6860520  58.6674885  39.9395828  99.1071528  58.7800515  38.4897947
 115.7102397  64.1474154  27.0221711 116.2353722  64.4861427  26.2971031
 115.6224750  63.2121170  26.8384846 107.3722446  68.0608228  39.1511588
 107.6809573  67.8157375  40.0234288 108.1697928  68.2654866  38.6630458
 107.3943058  70.2146138  31.3816964 106.9548049  69.7222516  32.0749821
 108.1451175  69.6719105  31.1409040  99.8735397  66.4057678  31.3841593
 100.6993417  66.1061450  31.0040236  99.5229449  65.6365301  31.8331381
 104.8416930  65.7584147  33.4539266 104.2196940  65.0954852  33.1541494
 105.5121797  65.7845279  32.7712914  98.0744002  64.3244005  32.3430526
  97.2375911  63.8966179  32.1614527  98.0467648  64.5176448  33.2801317
 104.9141458  54.2365935  43.0471772 104.9629613  55.1128057  42.6649542
 105.4563972  53.6943328  42.4743415 115.3996304  64.7807058  42.3272909
 114.6091847  64.7631197  41.7877409 115.1629658  65.3195352  43.0821946
 115.5194179  61.6299524  39.6405638 115.5692184  61.4649532  40.5821161
 115.4108102  60.7626783  39.2503519 104.4030437  64.3088070  26.9297727
 104.5518558  64.9923534  26.2764399 105.2096881  64.2893160  27.4447182
 112.8097941  57.6130452  40.9564945 113.7107804  57.4736917  40.6648942
 112.8845915  57.7784907  41.8963122 107.1440746  54.9897307  39.8018131
 106.2744056  55.2830873  39.5300719 107.3800227  55.5737752  40.5225394
 117.0212375  64.0496466  39.8847659 116.7297184  64.4126446  40.7211120
 116.4084507  63.3363474  39.7060991 115.2699564  59.1729080  38.3527717
 115.7453685  59.3656727  37.5446569 114.3465129  59.2288266  38.1071101
 102.1583070  60.3353248  27.9358796 101.9129112  59.4315578  28.1339006
 102.3278985  60.3370398  26.9938274 109.8479780  51.2076924  37.3183551
 110.3661724  51.9437951  36.9930040 109.4934913  51.5140917  38.1530310
 101.4278718  56.0681605  25.4344957 100.7347963  56.1425960  24.7784993
 101.1830470  55.3041949  25.9566474 110.0992374  47.6277207  32.8384448
 110.3794128  46.9600396  33.4644874 110.8842981  47.8206302  32.3259112
 107.9025843  66.8036200  24.4009474 107.3299810  67.4226388  23.9479946
 108.4758636  67.3535562  24.9349396 113.9701233  56.0494841  36.5856023
 114.9218656  56.1492938  36.6068247 113.8004683  55.2573109  37.0954107
 111.9915612  53.1350424  36.7715424 111.3965544  53.4155436  36.0761912
 111.7065309  53.6244325  37.5432165 111.1223103  67.0873351  25.5318056
 112.0553776  67.0218912  25.7350932 111.0346315  67.9229617  25.0732589
 113.7511119  66.4039221  22.4922004 113.6724751  66.0699085  23.3857762
 114.5720786  66.8960989  22.4913476 116.4489310  59.2700960  35.6998323
 116.4165631  58.3316961  35.8858006 117.0589934  59.3484997  34.9664147
 108.2872641  58.1397013  21.7425527 109.2331746  58.0103221  21.8113945
 107.9086886  57.4011675  22.2194955 116.5983799  56.0612004  35.7456606
 116.0822848  55.2770460  35.5586535 117.4823747  55.7330720  35.9103125
 114.2594526  49.8053019  31.7052418 114.0619347  49.4968107  32.5895750
 114.8694231  50.5314658  31.8350348 108.1711334  62.1914759  43.2026184
 109.0914343  62.3693358  43.3966230 108.1360917  61.2470805  43.0505883
 106.4715558  56.0646990  21.6780412 105.5647014  55.7680102  21.7543125
 106.7491539  55.7676808  20.8114698  97.3893499  57.3853353  32.1279458
  97.0696283  56.5318661  31.8353832  96.8426927  57.6001931  32.8837426
 101.1673406  60.1015794  35.8448965 101.3859416  61.0332902  35.8636999
 101.5799180  59.7423768  36.6303769 108.0877624  50.6083879  27.8324653
 107.2778352  50.2630964  28.2079899 108.7762041  50.2991423  28.4212265
 110.0168172  49.6861926  29.4548950 110.5699211  50.1057380  30.1138973
 110.2538259  48.7597674  29.4971906 106.0401272  55.6749000  45.2351714
 105.9397999  56.6243357  45.1663805 105.8222814  55.3467239  44.3627784
 105.2414343  52.9233925  21.8192391 106.1033507  53.2488823  22.0788208
 105.4264687  52.1365421  21.3065457  97.2581759  61.0056264  34.0972580
  96.5645230  60.5910217  33.5842534  98.0054750  61.0476801  33.5005999
 113.3946980  51.7962451  28.9627614 112.8145649  52.4547255  28.5805666
 113.1282912  50.9739796  28.5515032 111.8450546  51.1967509  31.1648934
 112.3450324  51.3084043  30.3563253 112.4886154  50.8928562  31.8049743
 105.9032542  59.1046139  44.0516775 105.4199623  59.9046499  44.2580664
 105.9893481  59.1154083  43.0984219  99.1718501  60.9374518  31.9738595
  99.1489189  61.0362206  31.0220478  99.4819138  61.7839669  32.2955761
 101.8305879  62.9950673  36.0885209 102.7849133  62.9634616  36.0215141
 101.6318403  62.5341297  36.9035435 102.4205261  61.5651789  38.6556007
 103.2398150  62.0595868  38.6790844 102.6942069  60.6483757  38.6273574
 112.1771858  53.9562542  28.0183962 111.2897713  54.2412192  27.8004157
 112.5925847  53.7956305  27.1711239 115.5286394  53.9809063  31.7338302
 116.3046784  54.4705515  32.0062918 114.8034528  54.4067117  32.1910171
 100.1856108  68.5370293  33.1055407 100.0510576  67.7770694  32.5393405
  99.7688170  69.2611193  32.6384196 111.3215071  63.7207216  22.1131982
 112.0250921  63.9257219  22.7289638 110.5977720  64.2883978  22.3781066
 112.1512881  59.4717078  28.2334252 112.0948083  59.9285629  27.3941885
 112.7041224  58.7107762  28.0557095 115.9617687  55.2606809  29.0584372
 115.7054621  54.8603445  29.8892580 115.3370555  55.9750603  28.9334511
 103.3425234  69.4339610  33.3173850 103.2257618  70.3785042  33.2152540
 102.5217680  69.1313171  33.7059649 113.2301768  64.1589746  24.1630442
 114.0647372  63.7270944  23.9807917 113.0686111  63.9871759  25.0907337
 112.8847661  60.6621859  25.5286782 112.8296464  60.4966130  24.5875226
 112.2593716  61.3697892  25.6848971  97.6740176  55.8989923  39.3548204
  98.3199039  55.3888877  39.8435429  97.4657327  56.6358605  39.9291629
 110.1993568  62.9670771  44.8540344 111.0684727  63.1411423  44.4926979
 109.7200319  63.7865188  44.7316074 106.1943786  50.1629968  25.1072100
 106.1822456  51.1071808  25.2640371 107.0867208  49.9800113  24.8131561
 104.3679748  70.0867872  36.5329778 105.2706995  70.1191482  36.8496273
 104.1417118  69.1568323  36.5476114 106.1233350  68.8398858  33.1939857
 105.1728981  68.8400720  33.0804229 106.4265836  68.0931593  32.6775891
 110.0095906  46.7572744  29.3618037 109.2428301  46.2031231  29.5074719
 110.4206611  46.8294613  30.2232188 102.0137667  53.0457540  43.4523218
 102.8769128  52.6894345  43.6626543 101.4403077  52.7071435  44.1398622
 114.5262565  76.4822301  30.1844035 113.9627431  76.3912238  29.4160322
 114.4114961  75.6622206  30.6646527 112.0726997  77.9773493  33.0228255
 112.8648289  77.6364317  32.6074554 112.3123648  78.0868468  33.9430409
 114.0317751  77.2382406  25.8945634 114.8048627  76.6911393  25.7558510
 114.3843150  78.1026655  26.1060095 115.8702794  78.5658788  39.1012533
 115.5792660  79.4704419  38.9859200 116.5059778  78.6075316  39.8156603
 116.7959001  75.9435637  35.6913893 117.3922573  75.7191659  34.9770856
 116.8533972  75.2020382  36.2939341 116.3684029  73.3975072  23.5264084
 116.6209550  72.8756593  22.7647547 115.4308588  73.2341218  23.6290767
 116.0880318  75.3003178  25.7288459 115.9716576  74.6248081  26.3969543
 116.1982578  74.8135552  24.9120612 118.0717346  69.7903225  24.4296497
 118.2391748  70.6583461  24.7966968 117.8814515  69.9530507  23.5057786
 114.2805160  74.7034001  32.1299031 113.3555657  74.5710215  32.3376723
 114.5289574  75.4828220  32.6268974 118.0506567  72.2460882  25.4143163
 117.9306192  72.6917933  26.2528644 117.3559155  72.5946200  24.8556702
 111.6413972  74.3467274  32.9642820 111.7706353  74.6001753  33.8782232
 110.9611423  74.9394982  32.6447476 115.8113459  85.0164524  29.0633295
 115.7337489  85.9672349  29.1421775 115.2075102  84.6710397  29.7208221
 116.5577061  74.9977843  41.2812629 117.2991745  75.5362887  41.0047452
 115.8514046  75.6244132  41.4384180 114.8013258  76.9854064  33.8366927
 115.3714615  77.4141332  33.1984412 115.3921370  76.7036648  34.5351113
 116.8458063  73.5605734  27.7076729 117.5482106  74.0126778  28.1750656
 116.5138692  72.9189553  28.3356622 115.2938425  72.1517491  42.0827939
 114.6637085  72.8333772  42.3163335 115.1874513  72.0400573  41.1381077
 110.5883397  71.8189287  33.0093863 109.7982451  72.0746816  32.5333973
 111.0794644  72.6337625  33.1145903 112.5398142  72.1833866  29.9677339
 111.7429306  72.2952561  30.4860835 112.3123735  72.5220519  29.1018230
 108.8721100  72.0719778  35.4408854 109.1229138  72.9566787  35.7066429
 109.4080648  71.8924379  34.6683945 114.5719167  66.4538257  44.4453190
 114.1786113  65.9004455  45.1200834 115.3885308  66.7648835  44.8359707
 111.5381225  77.8922115  28.3566759 112.0505746  78.6865365  28.5072324
 112.1903938  77.1948406  28.2900361 113.3476110  81.0087871  30.4389513
 113.5242738  81.9305836  30.2510497 114.1432943  80.6946291  30.8683892
 117.4887128  67.8696136  42.0373446 118.2296842  68.4703289  41.9577909
 117.7205051  67.1273774  41.4791489 112.6328466  73.0552503  40.3151676
 112.5181982  72.1537761  40.6158775 111.7772984  73.3016200  39.9636492
 114.4707425  82.5266045  36.4399855 115.0214850  82.3983109  35.6676849
 113.6318901  82.8260934  36.0894748 109.5030142  76.2210769  29.1326330
 110.3405364  76.6307778  28.9160038 109.6808410  75.2810212  29.1026524
 116.7583718  66.3520624  33.2853143 117.6236714  66.1563433  32.9259032
 116.8261226  66.1230976  34.2122500 114.3646037  68.5822832  30.6569510
 114.9389789  68.3598013  29.9242703 114.9517019  68.6511526  31.4098111
 114.6915624  70.6127293  24.6765395 113.8552936  70.9501979  24.9974670
 114.5520393  70.4776273  23.7392532 116.6668704  65.4564081  29.3844579
 116.0133117  65.1413098  28.7601194 116.6249179  64.8339821  30.1104402
 109.5256313  73.5601485  29.8037063 109.3280713  72.9670845  29.0788130
 108.9702977  73.2553695  30.5213002 117.5053037  73.4524591  31.9231657
 117.5601646  72.4998428  31.8474133 116.6944239  73.6084030  32.4072955
 115.4445397  72.0701651  29.6822035 114.6313262  72.3695822  30.0887228
 115.9404391  71.6757340  30.3996518 114.9359471  69.6420006  35.2983270
 115.5758851  69.5008766  34.6006234 114.1037002  69.3554520  34.9221872
 115.7119775  78.9422437  31.4118263 116.5060374  78.4472757  31.2100838
 115.0011468  78.4140300  31.0485968 112.0202539  73.0865519  27.4878016
 111.0900127  73.0249974  27.7047978 112.1160011  72.5641471  26.6914657
 111.9388088  69.6120331  30.0756257 112.1994905  70.5265665  29.9665418
 112.7605260  69.1444774  30.2252870 113.4113013  71.0258089  37.2455082
 114.0836067  70.8175451  36.5967731 112.5842800  70.8280175  36.8060314
 113.8140510  74.3000692  38.0057519 113.6760308  73.5680930  38.6069058
 114.7245434  74.2109592  37.7241707 116.4422811  74.0120651  37.4941199
 117.1522430  73.3713843  37.4527817 116.3992119  74.2633546  38.4167379
 115.1551745  70.9985869  39.3136838 114.6189102  70.5476607  39.9658434
 114.5668453  71.1331778  38.5707302 113.4500289  87.7649918  33.2081497
 113.6896887  88.3968442  33.8860515 112.6069485  87.4137958  33.4946856
 114.5654004  70.4574520  21.8763302 113.6883470  70.3363321  21.5125548
 115.0411757  69.6660599  21.6242190 106.0856144  75.2451680  31.9704809
 106.7727184  74.9313410  31.3825824 105.9304273  76.1493045  31.6972060
 110.8890866  70.1341877  36.3989833 110.8049055  69.5267546  35.6640242
 110.0673573  70.6250895  36.3999329 117.9628150  83.5729041  35.6123001
 117.8898322  84.3784012  36.1242305 117.5205544  83.7721006  34.7871022
 117.6449549  70.7612823  31.4931712 117.2747336  70.2083863  32.1812618
 118.1408641  70.1570957  30.9406712 115.4738747  81.2210318  38.5886730
 116.1748207  81.8546801  38.7416124 115.0033862  81.5625050  37.8282369
 111.0706466  80.7546673  35.5217833 111.6559902  80.0090361  35.6545737
 110.8731304  81.0650630  36.4054497 113.9245121  83.7897920  30.5380275
 113.2555496  84.2744048  30.0544315 113.7857990  84.0367141  31.4523654
 105.6624120  73.3252273  34.2422276 105.7008220  72.7915864  35.0359394
 105.1564413  72.7987479  33.6233253 113.0414883  68.1716814  37.7384818
 113.1056209  69.0331645  37.3262216 112.9782003  67.5590815  37.0057177
 112.5167155  70.2439946  41.3857853 113.1439194  69.8617024  41.9995377
 111.6595074  70.0254148  41.7513545 109.2932698  72.0516375  27.3176207
 109.5886139  71.1427054  27.2643261 108.3920734  72.0304115  26.9957210
 112.8226945  70.1272372  33.3003756 112.1013531  70.7408340  33.1611229
 113.6120201  70.6630137  33.2220402 115.6253258  67.4626799  39.5744408
 116.1487660  67.7089095  40.3370717 115.4065592  68.2946833  39.1547545
 111.0220539  69.7330473  27.4415533 110.6933246  68.8527852  27.2590638
 111.3759910  69.6778142  28.3291922 114.1362363  70.0203443  27.8091010
 114.4758435  70.5489364  27.0869619 114.5834483  70.3583849  28.5849577
 116.8305803  68.4040494  37.2594078 116.4902624  67.6048307  37.6614758
 116.1244810  68.7042204  36.6870911 116.1230510  68.5178065  26.0084303
 116.8438872  68.8959317  25.5048020 115.4995814  69.2366941  26.1119281
 115.0060854  72.1808927  33.5213380 114.8605435  72.4949230  34.4137661
 114.5286058  72.7993827  32.9684279 116.8657237  69.1711475  33.5694269
 116.8518806  68.2752568  33.2326567 117.5829665  69.1782138  34.2032555
 109.4806516  74.7214271  36.4601041 108.9359984  75.4974079  36.5921315
 110.3585866  75.0685076  36.3020162 116.2694133  68.0525855  28.8381840
 116.3910044  67.1242501  29.0372727 115.9796175  68.0664541  27.9260155
 110.2672538  73.8484167  39.3531198 109.5254274  73.9966803  39.9395828
 109.9465282  74.1092433  38.4897947 110.7129152  81.7349596  31.3841593
 111.5387172  81.4353368  31.0040236 110.3623204  80.9657219  31.8331381
 115.6810685  81.0876064  33.4539266 115.0590694  80.4246769  33.1541494
 116.3515552  81.1137196  32.7712914 108.9137757  79.6535923  32.3430526
 108.0769665  79.2258097  32.1614527 108.8861402  79.8468366  33.2801317
 115.7535212  69.5657852  43.0471772 115.8023368  70.4419975  42.6649542
 116.2957727  69.0235245  42.4743415 115.2424192  79.6379988  26.9297727
 115.3912312  80.3215452  26.2764399 116.0490635  79.6185078  27.4447182
 117.9834501  70.3189225  39.8018131 117.1137810  70.6122791  39.5300719
 118.2193981  70.9029670  40.5225394 112.9976825  75.6645165  27.9358796
 112.7522867  74.7607495  28.1339006 113.1672739  75.6662316  26.9938274
 112.2672472  71.3973523  25.4344957 111.5741717  71.4717878  24.7784993
 112.0224224  70.6333867  25.9566474 117.3109313  71.3938907  21.6780412
 116.4040768  71.0972020  21.7543125 117.5885294  71.0968725  20.8114698
 108.2287253  72.7145271  32.1279458 107.9090038  71.8610579  31.8353832
 107.6820682  72.9293849  32.8837426 112.0067161  75.4307712  35.8448965
 112.2253171  76.3624819  35.8636999 112.4192935  75.0715686  36.6303769
 116.8795026  71.0040917  45.2351714 116.7791753  71.9535274  45.1663805
 116.6616568  70.6759156  44.3627784 116.0808098  68.2525842  21.8192391
 116.9427262  68.5780741  22.0788208 116.2658442  67.4657338  21.3065457
 108.0975513  76.3348182  34.0972580 107.4038985  75.9202135  33.5842534
 108.8448504  76.3768719  33.5005999 116.7426296  74.4338056  44.0516775
 116.2593378  75.2338416  44.2580664 116.8287235  74.4446001  43.0984219
 110.0112256  76.2666436  31.9738595 109.9882944  76.3654123  31.0220478
 110.3212892  77.1131587  32.2955761 112.6699634  78.3242591  36.0885209
 113.6242887  78.2926533  36.0215141 112.4712157  77.8633215  36.9035435
 113.2599016  76.8943707  38.6556007 114.0791905  77.3887786  38.6790844
 113.5335824  75.9775675  38.6273574 111.0249863  83.8662210  33.1055407
 110.8904330  83.1062611  32.5393405 110.6081925  84.5903110  32.6384196
 114.1818988  84.7631527  33.3173850 114.0651373  85.7076960  33.2152540
 113.3611435  84.4605089  33.7059649 108.5133930  71.2281841  39.3548204
 109.1592794  70.7180795  39.8435429 108.3051081  71.9650523  39.9291629
 117.0337541  65.4921885  25.1072100 117.0216210  66.4363725  25.2640371
 117.9260962  65.3092031  24.8131561 115.2073503  85.4159789  36.5329778
 116.1100749  85.4483400  36.8496273 114.9810873  84.4860240  36.5476114
 116.9627105  84.1690776  33.1939857 116.0122736  84.1692638  33.0804229
 117.2659591  83.4223510  32.6775891 112.8531421  68.3749458  43.4523218
 113.7162883  68.0186263  43.6626543 112.2796832  68.0363353  44.1398622
 116.9249899  90.5743598  31.9704809 117.6120938  90.2605328  31.3825824
 116.7698027  91.4784962  31.6972060 116.5017875  88.6544191  34.2422276
 116.5401974  88.1207782  35.0359394 115.9958168  88.1279396  33.6233253
  70.0925272   3.4544370  19.9326803  70.3321870   4.0862894  20.6105822
  69.2494468   3.1032410  20.2192163  82.0081303   7.5008671  16.9089341
  81.4446168   7.4098608  16.1405629  81.8933698   6.6808575  17.3891834
  79.5545735   8.9959862  19.7473562  80.3467027   8.6550687  19.3319861
  79.7942385   9.1054837  20.6675715  81.5136489   8.2568776  12.6190941
  82.2867365   7.7097763  12.4803816  81.8661888   9.1213025  12.8305402
  83.3521532   9.5845158  25.8257840  83.0611398  10.4890789  25.7104506
  83.9878516   9.6261685  26.5401909  84.2777739   6.9622006  22.4159200
  84.8741311   6.7378029  21.7016163  84.3352710   6.2206752  23.0184647
  88.3111417   9.2706573  22.8207634  88.0112140  10.1731612  22.7123441
  87.9662476   9.0038757  23.6728786  81.7623898   5.7220370  18.8544338
  80.8374395   5.5896584  19.0622030  82.0108312   6.5014589  19.3514280
  79.1232709   5.3653644  19.6888127  79.2525091   5.6188123  20.6027539
  78.4430161   5.9581352  19.3692782  83.2932197  16.0350894  15.7878601
  83.2156226  16.9858719  15.8667082  82.6893840  15.6896766  16.4453528
  84.0395799   6.0164212  28.0057935  84.7810483   6.5549256  27.7292759
  83.3332784   6.6430501  28.1629487  89.8379953   8.7194544  20.3582386
  89.2088815   8.8840258  19.6558453  89.4505615   9.1336153  21.1293350
  85.3907915   8.4568952  17.6232471  85.8546260   8.7356655  16.8337093
  85.1264713   7.5552396  17.4405561  82.2831996   8.0040433  20.5612234
  82.8533353   8.4327702  19.9229718  82.8740108   7.7223018  21.2596420
  92.0865944  10.1780896  22.4844450  92.9083388   9.7761083  22.2027132
  92.0828347  10.0749130  23.4360566  85.8522548   9.7264939  24.6405161
  85.9166980  10.1885346  25.4763333  85.1433472   9.0962304  24.7687471
  85.5670566  11.3933047  14.5084141  85.4316240  12.2384582  14.9368989
  86.1080378  11.5952324  13.7450075  79.0199963   8.9108485  15.0812066
  79.5324483   9.7051735  15.2317631  79.6722676   8.2134775  15.0145668
  80.8294848  12.0274241  17.1634819  81.0061476  12.9492206  16.9755803
  81.6251681  11.7132660  17.5929199  87.1939042  12.0156613  28.6384483
  86.7502896  11.2292992  28.3205388  87.8556255  12.2035764  27.9728374
  81.9526163  13.5452415  23.1645162  82.5033588  13.4169478  22.3922156
  81.1137639  13.8447304  22.8140054  89.2920280  12.2959413  26.6665884
  89.2738755  13.1168294  26.1746154  90.2140200  12.1713488  26.8916026
  85.7493334   9.8103543  27.5089393  86.2821671   9.0491831  27.2788701
  85.2207415   9.5177194  28.2513547  76.9848880   7.2397139  15.8571637
  77.8224102   7.6494147  15.6405344  77.1627147   6.2996581  15.8271831
  90.1139087  12.3065426  17.2508154  90.4062061  12.8670483  16.5320519
  90.6237708  12.5993987  18.0061313  77.0075051   4.5787854  16.5282370
  76.8099451   3.9857215  15.8033437  76.4521715   4.2740064  17.2458309
  85.0772712  13.0845777  18.3401607  85.0348891  13.3106624  17.4110139
  85.9935411  12.8509152  18.4887408  83.1938513   9.9608806  18.1363570
  83.9879112   9.4659127  17.9346144  82.4830205   9.4326670  17.7731275
  88.0133358  12.3426902  22.4875937  88.0670380  12.9117838  23.2553653
  87.1448139  12.5128787  22.1229974  90.2036121   8.9355251  29.0616603
  90.0521627   8.7065803  28.1446686  90.1940800   9.8925853  29.0747948
  85.7709789  10.5337828  21.8161407  85.6320875  10.1656613  22.6887345
  84.9824385  11.0485468  21.6445364  86.3657941  15.6346925  13.1586943
  86.5409697  15.1634968  13.9732566  85.6790729  16.2612691  13.3868204
  87.3215004   9.9119431  19.2050244  86.9864837   9.8720201  20.1007894
  86.8218950   9.2464147  18.7320655  91.9128328  11.9674374  27.1393084
  91.8540874  11.2833594  26.4723667  92.3147846  12.7093364  26.6873710
  80.9319026  18.7836288  19.9326803  81.1715625  19.4154812  20.6105822
  80.0888223  18.4324328  20.2192163  91.9145735   9.9313958  25.3707064
  91.0272514   9.5939880  25.4933463  92.4844286   9.1996989  25.6075829
  73.5674882   6.2638050  18.6950115  74.2545922   5.9499780  18.1071131
  73.4123011   7.1679414  18.4217367  85.4446888  14.5915410  22.3368307
  85.3717060  15.3970382  22.8487612  85.0024281  14.7907376  21.5116329
  85.2336668  13.8287180  15.8471129  84.4504190  14.3708860  15.9409353
  85.9329413  14.3461160  16.2465370  87.9045572  14.4902244  24.4926466
  88.6173544  15.1249709  24.4202367  87.4135600  14.5866110  23.6766468
  82.9557485  12.2396688  25.3132037  83.6566945  12.8733171  25.4661431
  82.4852600  12.5811419  24.5527676  87.7165945  14.8300988  17.2412757
  87.8988340  14.0122644  17.7040510  88.5398931  15.0468680  16.8037647
  88.0508111  13.7569173  14.5027806  88.5795877  13.2461628  13.8897968
  88.3136330  13.4411704  15.3673339  78.5525203  11.7733043  22.2463139
  79.1378640  11.0276731  22.3791044  78.3550042  12.0836999  23.1299803
  81.4063859  14.8084290  17.2625582  80.7374234  15.2930418  16.7789622
  81.2676728  15.0553511  18.1768960  73.1442858   4.3438643  20.9667583
  73.1826958   3.8102234  21.7604701  72.6383151   3.8173848  20.3478560
  85.5469127  16.8428034  23.8608240  86.0987435  17.0059655  24.6257325
  85.8875321  17.4332471  23.1888265  90.3980001  11.6689291  29.7156895
  90.9419905  12.2819249  29.2211849  89.8166846  12.2268869  30.2323908
  88.6837514  14.7910009  20.8471922  88.5588654  13.9899749  20.3382868
  89.3416606  15.2856202  20.3585892  90.7472423  12.5919029  22.4751472
  89.8002758  12.4724380  22.4029799  91.0955196  11.7041527  22.5577734
  87.7518856  12.3871745  18.6755825  87.6043819  11.4588453  18.8563395
  88.5772350  12.4091836  18.1912900  91.3552978  13.2100304  19.7620697
  92.2799525  13.0043165  19.6245149  91.1868281  12.9616705  20.6710039
  76.9625254   5.7400641  23.1846348  76.4178722   6.5160449  23.3166622
  77.8404604   6.0871445  23.0265469  77.7491276   4.8670537  26.0776505
  77.0073012   5.0153172  26.6641135  77.4284020   5.1278803  25.2143254
  85.6934938  14.4086515  25.8756895  86.0022065  14.1635662  26.7479594
  86.4910420  14.6133154  25.3875765  85.7155550  16.5624425  18.1062271
  85.2760541  16.0700803  18.7995128  86.4663667  16.0197392  17.8654346
  78.1947889  12.7535966  18.1086899  79.0205909  12.4539738  17.7285543
  77.8441941  11.9843588  18.5576688  83.1629423  12.1062434  20.1784573
  82.5409432  11.4433139  19.8786801  83.8334290  12.1323566  19.4958221
  76.3956495  10.6722292  19.0675833  75.5588403  10.2444466  18.8859834
  76.3680140  10.8654735  20.0046624  93.7208796  11.1285345  29.0518216
  92.9304340  11.1109484  28.5122715  93.4842150  11.6673639  29.8067252
  82.7242930  10.6566357  13.6543033  82.8731050  11.3401822  13.0009706
  83.5309373  10.6371447  14.1692489  95.3424868  10.3974753  26.6092966
  95.0509676  10.7604734  27.4456427  94.7296999   9.6841761  26.4306298
  80.4795563   6.6831535  14.6604102  80.2341604   5.7793865  14.8584312
  80.6491477   6.6848685  13.7183580  86.4923826   8.5393047  29.9271490
  87.4126836   8.7171646  30.1211537  86.4573409   7.5949092  29.7751189
  75.7105991   3.7331640  18.8524765  75.3908775   2.8796948  18.5599139
  75.1639419   3.9480218  19.6082732  79.4885899   6.4494081  22.5694271
  79.7071908   7.3811189  22.5882305  79.9011672   6.0902056  23.3549075
  75.5794251   7.3534552  20.8217886  74.8857723   6.9388505  20.3087841
  76.3267242   7.3955088  20.2251305  77.4930994   7.2852805  18.6983901
  77.4701682   7.3840493  17.7465784  77.8031630   8.1317956  19.0201067
  80.1518372   9.3428961  22.8130516  81.1061625   9.3112903  22.7460447
  79.9530895   8.8819584  23.6280742  80.7417754   7.9130077  25.3801313
  81.5610643   8.4074155  25.4036151  81.0154561   6.9962045  25.3518881
  78.5068600  14.8848580  19.8300714  78.3723068  14.1248981  19.2638712
  78.0900663  15.6089480  19.3629503  81.6637726  15.7817897  20.0419156
  81.5470110  16.7263330  19.9397847  80.8430172  15.4791459  20.4304955
  88.5206060   9.3149058  31.5785651  89.3897220   9.4889710  31.2172286
  88.0412812  10.1343475  31.4561380  82.6892240  16.4346159  23.2575085
  83.5919487  16.4669769  23.5741580  82.4629610  15.5046610  23.2721420
  84.4445842  15.1877145  19.9185163  83.4941473  15.1879007  19.8049536
  84.7478328  14.4409880  19.4021198 100.1798536  21.0237684  20.9830926
 100.8176946  20.9044431  20.2794266 100.0619379  21.9718528  21.0418878
  96.9888242  20.9765112  20.9192450  96.6506754  20.8606177  20.0312985
  97.8578010  20.5756277  20.8993457  92.8475058  22.8300588  16.9089341
  92.2839923  22.7390525  16.1405629  92.7327453  22.0100493  17.3891834
  97.4708025  22.1299964  26.8778656  97.4596666  21.7352762  26.0059160
  97.6328665  21.3966036  27.4712427  90.3939490  24.3251780  19.7473562
  91.1860782  23.9842605  19.3319861  90.6336140  24.4346755  20.6675715
  92.3530244  23.5860693  12.6190941  93.1261120  23.0389680  12.4803816
  92.7055643  24.4504943  12.8305402  94.1915286  24.9137075  25.8257840
  93.9005152  25.8182706  25.7104506  94.8272271  24.9553603  26.5401909
  95.1171493  22.2913924  22.4159200  95.7135065  22.0669946  21.7016163
  95.1746465  21.5498669  23.0184647  99.1505171  24.5998491  22.8207634
  98.8505894  25.5023530  22.7123441  98.8056231  24.3330674  23.6728786
  92.6017653  21.0512288  18.8544338  91.6768149  20.9188502  19.0622030
  92.8502066  21.8306507  19.3514280  89.9626464  20.6945561  19.6888127
  90.0918845  20.9480040  20.6027539  89.2823915  21.2873269  19.3692782
  94.1325951  31.3642811  15.7878601  94.0549981  32.3150636  15.8667082
  93.5287595  31.0188684  16.4453528  96.6243181  18.5370677  28.4439968
  95.8476515  19.0964597  28.4342833  97.2633744  19.0227460  28.9654838
  94.8789553  21.3456130  28.0057935  95.6204238  21.8841174  27.7292759
  94.1726539  21.9722419  28.1629487 100.3544893  23.4885271  26.6030097
 100.7628249  23.0467681  25.8584729  99.6322154  22.9137898  26.8564290
  96.7075963  18.4257877  23.9763654  97.5537158  18.8497291  24.1198303
  96.6474601  17.7691502  24.6702217 100.6773707  24.0486461  20.3582386
 100.0482570  24.2132175  19.6558453 100.2899370  24.4628071  21.1293350
  99.8575408  16.0862246  25.6344827  99.6136340  16.8404306  25.0979103
 100.1335339  16.4647593  26.4692074 101.8113871  22.6300858  24.3122093
 102.0230766  23.2732618  23.6356474 101.7643619  21.7963175  23.8444023
  96.2301669  23.7860869  17.6232471  96.6940015  24.0648572  16.8337093
  95.9658467  22.8844314  17.4405561  93.1225750  23.3332351  20.5612234
  93.6927107  23.7619619  19.9229718  93.7133862  23.0514936  21.2596420
  93.6150917  18.4995778  28.8073245  92.9849578  19.1812059  29.0408642
  93.5087005  18.3878860  27.8626383  88.9095889  18.1667574  19.7339169
  88.1194943  18.4225103  19.2579280  89.4007137  18.9815912  19.8391210
 102.9259699  25.5072814  22.4844450 103.7477143  25.1053001  22.2027132
 102.9222102  25.4041048  23.4360566  90.8610635  18.5312154  16.6922646
  90.0641798  18.6430848  17.2106142  90.6336227  18.8698806  15.8263537
  96.6916302  25.0556857  24.6405161  96.7560735  25.5177264  25.4763333
  95.9827226  24.4254222  24.7687471  87.1933592  18.4198065  22.1654160
  87.4441631  19.3045075  22.4311736  87.7293141  18.2402666  21.3929252
  96.4064320  26.7224964  14.5084141  96.2709995  27.5676500  14.9368989
  96.9474133  26.9244242  13.7450075  92.8931660  12.8016544  31.1698496
  92.4998605  12.2482743  31.8446140  93.7097800  13.1127123  31.5605014
  89.8593717  24.2400402  15.0812066  90.3718238  25.0343653  15.2317631
  90.5116430  23.5426693  15.0145668  91.6688602  27.3566159  17.1634819
  91.8455230  28.2784123  16.9755803  92.4645436  27.0424578  17.5929199
  95.8099621  14.2174423  28.7618753  96.5509334  14.8181576  28.6823215
  96.0417543  13.4752061  28.2036795  90.9540959  19.4030791  27.0396983
  90.8394474  18.5016048  27.3404081  90.0985476  19.6494487  26.6881799
  98.0332796  27.3448531  28.6384483  97.5896651  26.5584909  28.3205388
  98.6950010  27.5327681  27.9728374  92.7919918  28.8744332  23.1645162
  93.3427343  28.7461396  22.3922156  91.9531393  29.1739221  22.8140054
 100.1314034  27.6251331  26.6665884 100.1132510  28.4460212  26.1746154
 101.0533955  27.5005406  26.8916026  96.5887089  25.1395460  27.5089393
  97.1215425  24.3783748  27.2788701  96.0601170  24.8469112  28.2513547
  87.8242634  22.5689057  15.8571637  88.6617856  22.9786065  15.6405344
  88.0020902  21.6288499  15.8271831  98.2218937  18.2924301  20.4337533
  97.3041498  18.5139248  20.2759221  98.6379081  18.3670612  19.5749241
 100.9532842  27.6357344  17.2508154 101.2455816  28.1962401  16.5320519
 101.4631462  27.9285905  18.0061313  87.8468805  19.9079772  16.5282370
  87.6493205  19.3149133  15.8033437  87.2915469  19.6031982  17.2458309
  95.8265529  19.8002878  18.6476963  95.8814139  18.8476715  18.5719440
  95.0156731  19.9562318  19.1318262  93.7657889  18.4179938  16.4067342
  92.9525754  18.7174109  16.8132534  94.2616883  18.0235627  17.1241824
  95.9166467  28.4137695  18.3401607  95.8742646  28.6398541  17.4110139
  96.8329166  28.1801070  18.4887408  99.3632101  18.8821763  25.2382236
  99.7181488  19.1093236  26.0976702 100.0104232  19.2140139  24.6159491
  93.2571964  15.9898294  22.0228577  93.8971343  15.8487053  21.3251540
  92.4249494  15.7032807  21.6467179  94.0332268  25.2900724  18.1363570
  94.8272866  24.7951044  17.9346144  93.3223960  24.7618587  17.7731275
  98.8527112  27.6718820  22.4875937  98.9064134  28.2409756  23.2553653
  97.9841893  27.8420705  22.1229974  90.3415031  19.4343806  14.2123322
  89.4112619  19.3728261  14.4293284  90.4372503  18.9119759  13.4159963
  90.2600580  15.9598619  16.8001564  90.5207397  16.8743952  16.6910724
  91.0817752  15.4923061  16.9498177  91.7325505  17.3736376  23.9700388
  92.4048559  17.1653738  23.3213037  90.9055292  17.1758462  23.5305621
 105.9814767  24.1140426  23.4875722 106.1750657  25.0186237  23.7334997
 105.8815385  23.6547845  24.3214307  97.6351077  13.9998317  25.9866049
  96.9878992  14.6988266  25.8930526  98.4052093  14.4334461  26.3542297
 101.0429875  24.2647169  29.0616603 100.8915382  24.0357721  28.1446686
 101.0334555  25.2217770  29.0747948  97.8115212  21.8379082  24.0462869
  98.7407272  21.9890241  23.8731836  97.3906242  21.9263102  23.1911516
  96.6103544  25.8629746  21.8161407  96.4714629  25.4948531  22.6887345
  95.8218140  26.3777386  21.6445364  97.2051696  30.9638843  13.1586943
  97.3803451  30.4926886  13.9732566  96.5184484  31.5904609  13.3868204
  98.1608759  25.2411349  19.2050244  97.8258591  25.2012119  20.1007894
  97.6612704  24.5756065  18.7320655  92.1353003  20.6478979  24.7302826
  91.9972801  19.9159218  25.3314365  93.0457926  20.5587879  24.4487013
  94.7635303  20.3598938  24.2186505  95.4734922  19.7192130  24.1773124
  94.7204611  20.6111833  25.1412686 102.7522082  27.2966292  27.1393084
 102.6934628  26.6125512  26.4723667 103.1541600  28.0385282  26.6873710
  93.4764237  17.3464156  26.0382145  92.9401594  16.8954895  26.6903741
  92.8880946  17.4810065  25.2952609  91.7712781  34.1128205  19.9326803
  92.0109379  34.7446730  20.6105822  90.9281977  33.7616245  20.2192163
 102.7539489  25.2605875  25.3707064 101.8666268  24.9231797  25.4933463
 103.3238040  24.5288907  25.6075829  84.4068636  21.5929967  18.6950115
  85.0939676  21.2791697  18.1071131  84.2516765  22.4971332  18.4217367
  89.2103359  16.4820164  23.1235139  89.1261547  15.8745833  22.3885549
  88.3886065  16.9729182  23.1244636  96.2840643  29.9207328  22.3368307
  96.2110814  30.7262299  22.8487612  95.8418036  30.1199294  21.5116329
  96.0730422  29.1579098  15.8471129  95.2897944  29.7000778  15.9409353
  96.7723167  29.6753077  16.2465370  98.7439326  29.8194162  24.4926466
  99.4567298  30.4541627  24.4202367  98.2529355  29.9158028  23.6766468
  93.7951240  27.5688605  25.3132037  94.4960699  28.2025088  25.4661431
  93.3246355  27.9103337  24.5527676 101.5952526  20.1233213  23.1384587
 100.9423976  20.3709120  22.4837040 101.9732906  19.3097351  22.8047064
  98.5559700  30.1592906  17.2412757  98.7382094  29.3414562  17.7040510
  99.3792686  30.3760598  16.8037647  98.8901865  29.0861091  14.5027806
  99.4189632  28.5753546  13.8897968  99.1530085  28.7703621  15.3673339
  97.6440099  20.8653024  29.6250624  96.9680736  20.7647153  30.2952999
  98.4667733  20.7092238  30.0886621  89.3918958  27.1024960  22.2463139
  89.9772395  26.3568648  22.3791044  89.1943796  27.4128917  23.1299803
  92.2457613  30.1376208  17.2625582  91.5767988  30.6222335  16.7789622
  92.1070483  30.3845428  18.1768960  83.9836613  19.6730561  20.9667583
  84.0220712  19.1394151  21.7604701  83.4776905  19.1465766  20.3478560
  96.3862882  32.1719951  23.8608240  96.9381190  32.3351573  24.6257325
  96.7269075  32.7624389  23.1888265  91.3627375  14.5195101  24.4630125
  91.4268701  15.3809932  24.0507523  91.2994495  13.9069103  23.7302483
  90.8379647  16.5918234  28.1103159  91.4651686  16.2095311  28.7240683
  89.9807566  16.3732436  28.4758852 101.2373756  26.9981209  29.7156895
 101.7813660  27.6111167  29.2211849 100.6560601  27.5560787  30.2323908
  87.6145190  18.3994663  14.0421514  87.9098631  17.4905341  13.9888568
  86.7133226  18.3782402  13.7202516  99.5231269  30.1201927  20.8471922
  99.3982408  29.3191667  20.3382868 100.1810360  30.6148120  20.3585892
  91.1439437  16.4750659  20.0249063  90.4226023  17.0886627  19.8856536
  91.9332693  17.0108424  19.9465709 101.5866177  27.9210947  22.4751472
 100.6396513  27.8016298  22.4029799 101.9348950  27.0333445  22.5577734
  93.9465751  13.8105086  26.2989714  94.4700152  14.0567382  27.0616024
  93.7278084  14.6425121  25.8792852  89.3433032  16.0808760  14.1660839
  89.0145738  15.2006139  13.9835945  89.6972402  16.0256429  15.0537228
  98.5912611  27.7163663  18.6755825  98.4437573  26.7880370  18.8563395
  99.4166104  27.7383754  18.1912900 102.1946732  28.5392222  19.7620697
 103.1193280  28.3335083  19.6245149 102.0262036  28.2908623  20.6710039
  95.1518296  14.7518781  23.9839385  94.8115116  13.9526594  24.3860065
  94.4457302  15.0520492  23.4116218  95.8034767  11.8368093  22.4366708
  96.6260837  11.3628572  22.3145598  96.0472831  12.6158577  22.9365394
  93.3273346  18.5287214  20.2458687  93.1817927  18.8427517  21.1382968
  92.8498550  19.1472114  19.6929585  95.1869729  15.5189762  20.2939576
  95.1731298  14.6230855  19.9571874  95.9042157  15.5260426  20.9277862
  97.0395860  15.9527102  22.3392703  96.7813638  16.8744173  22.3377034
  96.5080900  15.5557537  23.0293168  87.8019008  21.0692558  23.1846348
  87.2572476  21.8452366  23.3166622  88.6798358  21.4163363  23.0265469
  88.5885030  20.1962455  26.0776505  87.8466766  20.3445090  26.6641135
  88.2677775  20.4570720  25.2143254  96.5328693  29.7378433  25.8756895
  96.8415819  29.4927580  26.7479594  97.3304175  29.9425071  25.3875765
  96.5549305  31.8916342  18.1062271  96.1154295  31.3992721  18.7995128
  97.3057422  31.3489310  17.8654346  89.0341644  28.0827883  18.1086899
  89.8599664  27.7831655  17.7285543  88.6835696  27.3135506  18.5576688
  94.0023177  27.4354352  20.1784573  93.3803186  26.7725057  19.8786801
  94.6728044  27.4615483  19.4958221  87.2350249  26.0014210  19.0675833
  86.3982157  25.5736384  18.8859834  87.2073894  26.1946653  20.0046624
  94.0747705  15.9136140  29.7717079  94.1235860  16.7898262  29.3894848
  94.6170219  15.3713533  29.1988722 104.5602550  26.4577263  29.0518216
 103.7698094  26.4401402  28.5122715 104.3235905  26.9965557  29.8067252
 104.6800425  23.3069729  26.3650944 104.7298430  23.1419737  27.3066467
 104.5714349  22.4396988  25.9748825  93.5636684  25.9858275  13.6543033
  93.7124804  26.6693739  13.0009706  94.3703127  25.9663365  14.1692489
 101.9704188  19.2900657  27.6810251 102.8714050  19.1507122  27.3894249
 102.0452162  19.4555112  28.6208429  96.3046993  16.6667512  26.5263437
  95.4350302  16.9601078  26.2546026  96.5406473  17.2507957  27.2470701
 106.1818622  25.7266671  26.6092966 105.8903430  26.0896651  27.4456427
 105.5690753  25.0133679  26.4306298 104.4305810  20.8499285  25.0773024
 104.9059932  21.0426932  24.2691875 103.5071376  20.9058471  24.8316408
  91.3189317  22.0123453  14.6604102  91.0735359  21.1085783  14.8584312
  91.4885232  22.0140603  13.7183580  99.0086027  12.8847129  24.0428858
  99.5267971  13.6208156  23.7175346  98.6541160  13.1911122  24.8775617
 101.1521859  14.8120629  23.4960730 100.5571791  15.0925641  22.8007219
 100.8671556  15.3014530  24.2677472  97.3317581  23.8684964  29.9271490
  98.2520590  24.0463563  30.1211537  97.2967164  22.9241010  29.7751189
  86.5499746  19.0623558  18.8524765  86.2302530  18.2088866  18.5599139
  86.0033174  19.2772136  19.6082732  90.3279653  21.7785999  22.5694271
  90.5465663  22.7103107  22.5882305  90.7405427  21.4193973  23.3549075
  95.2007518  17.3519205  31.9597020  95.1004245  18.3013562  31.8909111
  94.9829061  17.0237444  31.0873090  86.4188006  22.6826469  20.8217886
  85.7251477  22.2680422  20.3087841  87.1660997  22.7247006  20.2251305
  95.0638789  20.7816343  30.7762082  94.5805870  21.5816704  30.9825971
  95.1499728  20.7924288  29.8229526  88.3324748  22.6144723  18.6983901
  88.3095436  22.7132410  17.7465784  88.6425385  23.4609874  19.0201067
  90.9912126  24.6720878  22.8130516  91.9455380  24.6404821  22.7460447
  90.7924650  24.2111502  23.6280742  91.5811508  23.2421994  25.3801313
  92.4004397  23.7366073  25.4036151  91.8548316  22.3253962  25.3518881
  89.3462355  30.2140498  19.8300714  89.2116823  29.4540899  19.2638712
  88.9294417  30.9381398  19.3629503  92.5031481  31.1109815  20.0419156
  92.3863865  32.0555247  19.9397847  91.6823927  30.8083376  20.4304955
  86.8346422  17.5760128  26.0793510  87.4805286  17.0659082  26.5680736
  86.6263573  18.3128810  26.6536936  99.3599815  24.6440976  31.5785651
 100.2290974  24.8181628  31.2172286  98.8806566  25.4635392  31.4561380
  93.5285995  31.7638077  23.2575085  94.4313241  31.7961687  23.5741580
  93.3023365  30.8338528  23.2721420  95.2839597  30.5169063  19.9185163
  94.3335228  30.5170925  19.8049536  95.5872083  29.7701798  19.4021198
  91.1743913  14.7227745  30.1768525  92.0375375  14.3664550  30.3871849
  90.6009324  14.3841640  30.8643929 111.0192290  36.3529602  20.9830926
 111.6570700  36.2336349  20.2794266 110.9013133  37.3010445  21.0418878
 107.8281997  36.3057030  20.9192450 107.4900508  36.1898094  20.0312985
 108.6971765  35.9048195  20.8993457 103.6868812  38.1592506  16.9089341
 103.1233677  38.0682443  16.1405629 103.5721207  37.3392411  17.3891834
 108.3101780  37.4591881  26.8778656 108.2990420  37.0644680  26.0059160
 108.4722419  36.7257954  27.4712427 101.2333244  39.6543698  19.7473562
 102.0254536  39.3134522  19.3319861 101.4729894  39.7638673  20.6675715
 103.1923998  38.9152611  12.6190941 103.9654874  38.3681598  12.4803816
 103.5449397  39.7796860  12.8305402 105.0309041  40.2428993  25.8257840
 104.7398907  41.1474624  25.7104506 105.6666025  40.2845521  26.5401909
 105.9565248  37.6205842  22.4159200 106.5528820  37.3961864  21.7016163
 106.0140219  36.8790587  23.0184647 109.9898926  39.9290409  22.8207634
 109.6899649  40.8315447  22.7123441 109.6449985  39.6622592  23.6728786
 103.4411407  36.3804206  18.8544338 102.5161904  36.2480420  19.0622030
 103.6895820  37.1598425  19.3514280 100.8020218  36.0237479  19.6888127
 100.9312599  36.2771958  20.6027539 100.1217670  36.6165187  19.3692782
 104.9719706  46.6934729  15.7878601 104.8943735  47.6442554  15.8667082
 104.3681349  46.3480602  16.4453528 107.4636935  33.8662594  28.4439968
 106.6870269  34.4256515  28.4342833 108.1027498  34.3519377  28.9654838
 105.7183308  36.6748048  28.0057935 106.4597992  37.2133092  27.7292759
 105.0120293  37.3014337  28.1629487 111.1938647  38.8177188  26.6030097
 111.6022003  38.3759599  25.8584729 110.4715909  38.2429816  26.8564290
 107.5469717  33.7549795  23.9763654 108.3930913  34.1789209  24.1198303
 107.4868355  33.0983419  24.6702217 111.5167462  39.3778379  20.3582386
 110.8876324  39.5424093  19.6558453 111.1293124  39.7919988  21.1293350
 110.6969163  31.4154163  25.6344827 110.4530095  32.1696224  25.0979103
 110.9729093  31.7939511  26.4692074 112.6507625  37.9592776  24.3122093
 112.8624521  38.6024536  23.6356474 112.6037374  37.1255092  23.8444023
 107.0695424  39.1152787  17.6232471 107.5333769  39.3940490  16.8337093
 106.8052222  38.2136232  17.4405561 103.9619505  38.6624269  20.5612234
 104.5320862  39.0911537  19.9229718 104.5527617  38.3806853  21.2596420
 104.4544671  33.8287696  28.8073245 103.8243332  34.5103977  29.0408642
 104.3480759  33.7170778  27.8626383  99.7489644  33.4959492  19.7339169
  98.9588698  33.7517021  19.2579280 100.2400891  34.3107830  19.8391210
 113.7653453  40.8364731  22.4844450 114.5870897  40.4344918  22.2027132
 113.7615856  40.7332965  23.4360566 101.7004389  33.8604071  16.6922646
 100.9035553  33.9722766  17.2106142 101.4729981  34.1990723  15.8263537
 107.5310057  40.3848774  24.6405161 107.5954489  40.8469182  25.4763333
 106.8220981  39.7546139  24.7687471  98.0327347  33.7489982  22.1654160
  98.2835385  34.6336992  22.4311736  98.5686895  33.5694584  21.3929252
 107.2458075  42.0516882  14.5084141 107.1103749  42.8968418  14.9368989
 107.7867887  42.2536160  13.7450075 103.7325414  28.1308462  31.1698496
 103.3392360  27.5774660  31.8446140 104.5491554  28.4419040  31.5605014
 100.6987472  39.5692320  15.0812066 101.2111992  40.3635570  15.2317631
 101.3510185  38.8718610  15.0145668 102.5082357  42.6858076  17.1634819
 102.6848985  43.6076041  16.9755803 103.3039190  42.3716496  17.5929199
 106.6493375  29.5466341  28.7618753 107.3903089  30.1473494  28.6823215
 106.8811298  28.8043979  28.2036795 101.7934713  34.7322708  27.0396983
 101.6788228  33.8307965  27.3404081 100.9379231  34.9786405  26.6881799
 108.8726551  42.6740448  28.6384483 108.4290405  41.8876827  28.3205388
 109.5343764  42.8619599  27.9728374 103.6313672  44.2036250  23.1645162
 104.1821097  44.0753313  22.3922156 102.7925148  44.5031139  22.8140054
 110.9707789  42.9543248  26.6665884 110.9526264  43.7752129  26.1746154
 111.8927709  42.8297324  26.8916026 107.4280843  40.4687378  27.5089393
 107.9609180  39.7075666  27.2788701 106.8994924  40.1761030  28.2513547
  98.6636389  37.8980974  15.8571637  99.5011611  38.3077983  15.6405344
  98.8414656  36.9580416  15.8271831 109.0612691  33.6216219  20.4337533
 108.1435253  33.8431166  20.2759221 109.4772835  33.6962530  19.5749241
 111.7926596  42.9649262  17.2508154 112.0849570  43.5254319  16.5320519
 112.3025217  43.2577823  18.0061313  98.6862560  35.2371690  16.5282370
  98.4886960  34.6441050  15.8033437  98.1309224  34.9323900  17.2458309
 106.6659283  35.1294796  18.6476963 106.7207893  34.1768633  18.5719440
 105.8550486  35.2854235  19.1318262 104.6051643  33.7471856  16.4067342
 103.7919509  34.0466026  16.8132534 105.1010638  33.3527545  17.1241824
 106.7560221  43.7429613  18.3401607 106.7136400  43.9690459  17.4110139
 107.6722920  43.5092987  18.4887408 110.2025855  34.2113680  25.2382236
 110.5575243  34.4385153  26.0976702 110.8497986  34.5432057  24.6159491
 104.0965718  31.3190211  22.0228577 104.7365097  31.1778970  21.3251540
 103.2643249  31.0324725  21.6467179 104.8726022  40.6192642  18.1363570
 105.6666621  40.1242962  17.9346144 104.1617714  40.0910505  17.7731275
 109.6920867  43.0010737  22.4875937 109.7457889  43.5701674  23.2553653
 108.8235648  43.1712622  22.1229974 101.1808786  34.7635724  14.2123322
 100.2506374  34.7020179  14.4293284 101.2766258  34.2411676  13.4159963
 101.0994335  31.2890536  16.8001564 101.3601152  32.2035870  16.6910724
 101.9211507  30.8214979  16.9498177 102.5719260  32.7028294  23.9700388
 103.2442313  32.4945656  23.3213037 101.7449046  32.5050380  23.5305621
 116.8208521  39.4432344  23.4875722 117.0144411  40.3478154  23.7334997
 116.7209139  38.9839763  24.3214307 108.4744832  29.3290234  25.9866049
 107.8272747  30.0280184  25.8930526 109.2445847  29.7626378  26.3542297
 111.8823630  39.5939087  29.0616603 111.7309136  39.3649638  28.1446686
 111.8728309  40.5509688  29.0747948 108.6508966  37.1670999  24.0462869
 109.5801026  37.3182159  23.8731836 108.2299996  37.2555020  23.1911516
 107.4497298  41.1921664  21.8161407 107.3108384  40.8240448  22.6887345
 106.6611894  41.7069303  21.6445364 108.0445450  46.2930760  13.1586943
 108.2197206  45.8218803  13.9732566 107.3578238  46.9196526  13.3868204
 109.0002513  40.5703266  19.2050244 108.6652346  40.5304036  20.1007894
 108.5006459  39.9047982  18.7320655 102.9746757  35.9770897  24.7302826
 102.8366555  35.2451135  25.3314365 103.8851681  35.8879797  24.4487013
 105.6029058  35.6890856  24.2186505 106.3128676  35.0484048  24.1773124
 105.5598366  35.9403751  25.1412686 113.5915837  42.6258209  27.1393084
 113.5328383  41.9417429  26.4723667 113.9935355  43.3677199  26.6873710
 104.3157992  32.6756074  26.0382145 103.7795349  32.2246812  26.6903741
 103.7274700  32.8101983  25.2952609 102.6106535  49.4420123  19.9326803
 102.8503134  50.0738647  20.6105822 101.7675732  49.0908163  20.2192163
 113.5933244  40.5897793  25.3707064 112.7060023  40.2523715  25.4933463
 114.1631795  39.8580824  25.6075829  95.2462391  36.9221885  18.6950115
  95.9333431  36.6083615  18.1071131  95.0910520  37.8263250  18.4217367
 100.0497113  31.8112081  23.1235139  99.9655302  31.2037751  22.3885549
  99.2279819  32.3021100  23.1244636 107.1234397  45.2499245  22.3368307
 107.0504569  46.0554217  22.8487612 106.6811790  45.4491211  21.5116329
 106.9124177  44.4871015  15.8471129 106.1291699  45.0292696  15.9409353
 107.6116922  45.0044995  16.2465370 109.5833081  45.1486080  24.4926466
 110.2961053  45.7833544  24.4202367 109.0923109  45.2449945  23.6766468
 104.6344994  42.8980523  25.3132037 105.3354454  43.5317006  25.4661431
 104.1640109  43.2395255  24.5527676 112.4346280  35.4525130  23.1384587
 111.7817730  35.7001038  22.4837040 112.8126660  34.6389269  22.8047064
 109.3953454  45.4884824  17.2412757 109.5775849  44.6706480  17.7040510
 110.2186440  45.7052516  16.8037647 109.7295620  44.4153009  14.5027806
 110.2583386  43.9045463  13.8897968 109.9923839  44.0995539  15.3673339
 108.4833853  36.1944941  29.6250624 107.8074490  36.0939071  30.2952999
 109.3061487  36.0384155  30.0886621 100.2312712  42.4316878  22.2463139
 100.8166149  41.6860566  22.3791044 100.0337551  42.7420835  23.1299803
 103.0851368  45.4668125  17.2625582 102.4161743  45.9514253  16.7789622
 102.9464237  45.7137346  18.1768960  94.8230367  35.0022478  20.9667583
  94.8614467  34.4686069  21.7604701  94.3170660  34.4757684  20.3478560
 107.2256636  47.5011869  23.8608240 107.7774944  47.6643490  24.6257325
 107.5662830  48.0916307  23.1888265 102.2021129  29.8487019  24.4630125
 102.2662456  30.7101850  24.0507523 102.1388250  29.2361020  23.7302483
 101.6773402  31.9210151  28.1103159 102.3045441  31.5387229  28.7240683
 100.8201321  31.7024353  28.4758852 112.0767510  42.3273126  29.7156895
 112.6207414  42.9403085  29.2211849 111.4954355  42.8852705  30.2323908
  98.4538945  33.7286580  14.0421514  98.7492386  32.8197259  13.9888568
  97.5526980  33.7074320  13.7202516 110.3625023  45.4493844  20.8471922
 110.2376163  44.6483584  20.3382868 111.0204114  45.9440038  20.3585892
 101.9833192  31.8042577  20.0249063 101.2619777  32.4178545  19.8856536
 102.7726447  32.3400342  19.9465709 112.4259932  43.2502865  22.4751472
 111.4790267  43.1308216  22.4029799 112.7742705  42.3625363  22.5577734
 104.7859505  29.1397003  26.2989714 105.3093907  29.3859300  27.0616024
 104.5671838  29.9717038  25.8792852 100.1826786  31.4100678  14.1660839
  99.8539492  30.5298057  13.9835945 100.5366157  31.3548347  15.0537228
 109.4306365  43.0455581  18.6755825 109.2831327  42.1172288  18.8563395
 110.2559859  43.0675671  18.1912900 113.0340487  43.8684139  19.7620697
 113.9587034  43.6627001  19.6245149 112.8655790  43.6200541  20.6710039
 105.9912050  30.0810699  23.9839385 105.6508871  29.2818512  24.3860065
 105.2851056  30.3812409  23.4116218 106.6428522  27.1660011  22.4366708
 107.4654591  26.6920489  22.3145598 106.8866586  27.9450495  22.9365394
 104.1667101  33.8579132  20.2458687 104.0211681  34.1719435  21.1382968
 103.6892304  34.4764032  19.6929585 106.0263484  30.8481680  20.2939576
 106.0125052  29.9522773  19.9571874 106.7435912  30.8552343  20.9277862
 107.8789614  31.2819020  22.3392703 107.6207392  32.2036090  22.3377034
 107.3474655  30.8849454  23.0293168  98.6412763  36.3984476  23.1846348
  98.0966231  37.1744284  23.3166622  99.5192113  36.7455280  23.0265469
  99.4278785  35.5254372  26.0776505  98.6860521  35.6737008  26.6641135
  99.1071529  35.7862638  25.2143254 107.3722447  45.0670351  25.8756895
 107.6809574  44.8219497  26.7479594 108.1697929  45.2716989  25.3875765
 107.3943059  47.2208260  18.1062271 106.9548050  46.7284639  18.7995128
 108.1451176  46.6781228  17.8654346  99.8735398  43.4119801  18.1086899
 100.6993418  43.1123573  17.7285543  99.5229450  42.6427423  18.5576688
 104.8416932  42.7646269  20.1784573 104.2196941  42.1016974  19.8786801
 105.5121799  42.7907401  19.4958221  98.0744003  41.3306127  19.0675833
  97.2375912  40.9028302  18.8859834  98.0467649  41.5238571  20.0046624
 104.9141459  31.2428057  29.7717079 104.9629615  32.1190180  29.3894848
 105.4563973  30.7005450  29.1988722 115.3996305  41.7869181  29.0518216
 114.6091848  41.7693319  28.5122715 115.1629659  42.3257474  29.8067252
 115.5194180  38.6361647  26.3650944 115.5692185  38.4711654  27.3066467
 115.4108103  37.7688906  25.9748825 104.4030439  41.3150193  13.6543033
 104.5518559  41.9985657  13.0009706 105.2096882  41.2955283  14.1692489
 112.8097942  34.6192575  27.6810251 113.7107805  34.4799040  27.3894249
 112.8845917  34.7847030  28.6208429 107.1440748  31.9959430  26.5263437
 106.2744057  32.2892996  26.2546026 107.3800228  32.5799875  27.2470701
 117.0212377  41.0558588  26.6092966 116.7297185  41.4188569  27.4456427
 116.4084508  40.3425597  26.4306298 115.2699565  36.1791203  25.0773024
 115.7453686  36.3718849  24.2691875 114.3465130  36.2350389  24.8316408
 102.1583072  37.3415370  14.6604102 101.9129113  36.4377700  14.8584312
 102.3278986  37.3432521  13.7183580 109.8479781  28.2139047  24.0428858
 110.3661725  28.9500074  23.7175346 109.4934914  28.5203040  24.8775617
 111.9915613  30.1412546  23.4960730 111.3965545  30.4217559  22.8007219
 111.7065310  30.6306447  24.2677472 108.1711335  39.1976882  29.9271490
 109.0914345  39.3755481  30.1211537 108.1360918  38.2532927  29.7751189
  97.3893500  34.3915476  18.8524765  97.0696284  33.5380784  18.5599139
  96.8426928  34.6064054  19.6082732 101.1673408  37.1077917  22.5694271
 101.3859417  38.0395024  22.5882305 101.5799181  36.7485891  23.3549075
 106.0401273  32.6811122  31.9597020 105.9398000  33.6305479  31.8909111
 105.8222815  32.3529361  31.0873090  97.2581760  38.0118387  20.8217886
  96.5645232  37.5972340  20.3087841  98.0054751  38.0538924  20.2251305
 105.9032543  36.1108261  30.7762082 105.4199625  36.9108621  30.9825971
 105.9893482  36.1216206  29.8229526  99.1718503  37.9436641  18.6983901
  99.1489191  38.0424328  17.7465784  99.4819139  38.7901792  19.0201067
 101.8305880  40.0012796  22.8130516 102.7849134  39.9696738  22.7460447
 101.6318404  39.5403420  23.6280742 102.4205263  38.5713912  25.3801313
 103.2398152  39.0657991  25.4036151 102.6942070  37.6545880  25.3518881
 100.1856109  45.5432415  19.8300714 100.0510577  44.7832816  19.2638712
  99.7688172  46.2673315  19.3629503 103.3425235  46.4401732  20.0419156
 103.2257619  47.3847165  19.9397847 102.5217681  46.1375294  20.4304955
  97.6740177  32.9052046  26.0793510  98.3199040  32.3951000  26.5680736
  97.4657328  33.6420727  26.6536936 110.1993569  39.9732893  31.5785651
 111.0684729  40.1473546  31.2172286 109.7200321  40.7927310  31.4561380
 104.3679749  47.0929994  23.2575085 105.2706996  47.1253605  23.5741580
 104.1417119  46.1630445  23.2721420 106.1233351  45.8460981  19.9185163
 105.1728982  45.8462842  19.8049536 106.4265837  45.0993715  19.4021198
 102.0137668  30.0519663  30.1768525 102.8769129  29.6956468  30.3871849
 101.4403079  29.7133558  30.8643929 114.5262567  53.4884424  16.9089341
 113.9627432  53.3974361  16.1405629 114.4114962  52.6684328  17.3891834
 112.0726999  54.9835615  19.7473562 112.8648291  54.6426440  19.3319861
 112.3123649  55.0930590  20.6675715 114.0317753  54.2444529  12.6190941
 114.8048629  53.6973516  12.4803816 114.3843152  55.1088778  12.8305402
 115.8702795  55.5720911  25.8257840 115.5792661  56.4766542  25.7104506
 116.5059780  55.6137438  26.5401909 116.7959002  52.9497759  22.4159200
 117.3922574  52.7253782  21.7016163 116.8533974  52.2082505  23.0184647
 114.2805162  51.7096123  18.8544338 113.3555658  51.5772337  19.0622030
 114.5289575  52.4890342  19.3514280 111.6413973  51.3529397  19.6888127
 111.7706354  51.6063876  20.6027539 110.9611424  51.9457105  19.3692782
 115.8113460  62.0226647  15.7878601 115.7337490  62.9734472  15.8667082
 115.2075104  61.6772519  16.4453528 116.5577062  52.0039965  28.0057935
 117.2991747  52.5425009  27.7292759 115.8514048  52.6306254  28.1629487
 114.8013259  53.9916186  20.5612234 115.3714616  54.4203455  19.9229718
 115.3921371  53.7098771  21.2596420 115.2938426  49.1579614  28.8073245
 114.6637086  49.8395895  29.0408642 115.1874514  49.0462695  27.8626383
 110.5883398  48.8251410  19.7339169 109.7982452  49.0808938  19.2579280
 111.0794646  49.6399748  19.8391210 112.5398144  49.1895989  16.6922646
 111.7429307  49.3014683  17.2106142 112.3123736  49.5282641  15.8263537
 108.8721101  49.0781900  22.1654160 109.1229140  49.9628910  22.4311736
 109.4080650  48.8986502  21.3929252 114.5719169  43.4600380  31.1698496
 114.1786114  42.9066578  31.8446140 115.3885309  43.7710958  31.5605014
 111.5381226  54.8984238  15.0812066 112.0505747  55.6927488  15.2317631
 112.1903939  54.2010528  15.0145668 113.3476111  58.0149994  17.1634819
 113.5242739  58.9367959  16.9755803 114.1432945  57.7008413  17.5929199
 117.4887130  44.8758259  28.7618753 118.2296843  45.4765412  28.6823215
 117.7205052  44.1335896  28.2036795 112.6328468  50.0614626  27.0396983
 112.5181983  49.1599883  27.3404081 111.7772985  50.3078323  26.6881799
 114.4707427  59.5328168  23.1645162 115.0214852  59.4045231  22.3922156
 113.6318902  59.8323057  22.8140054 109.5030143  53.2272892  15.8571637
 110.3405365  53.6369900  15.6405344 109.6808411  52.2872334  15.8271831
 109.5256314  50.5663607  16.5282370 109.3280714  49.9732968  15.8033437
 108.9702978  50.2615818  17.2458309 117.5053038  50.4586714  18.6476963
 117.5601648  49.5060550  18.5719440 116.6944240  50.6146153  19.1318262
 115.4445398  49.0763774  16.4067342 114.6313263  49.3757944  16.8132534
 115.9404392  48.6819462  17.1241824 114.9359473  46.6482129  22.0228577
 115.5758852  46.5070888  21.3251540 114.1037003  46.3616642  21.6467179
 115.7119777  55.9484559  18.1363570 116.5060375  55.4534880  17.9346144
 115.0011469  55.4202423  17.7731275 112.0202540  50.0927641  14.2123322
 111.0900128  50.0312097  14.4293284 112.1160012  49.5703594  13.4159963
 111.9388089  46.6182454  16.8001564 112.1994906  47.5327787  16.6910724
 112.7605261  46.1506897  16.9498177 113.4113014  48.0320211  23.9700388
 114.0836068  47.8237573  23.3213037 112.5842801  47.8342297  23.5305621
 113.8140512  51.3062814  24.7302826 113.6760310  50.5743053  25.3314365
 114.7245435  51.2171714  24.4487013 116.4422812  51.0182774  24.2186505
 117.1522431  50.3775966  24.1773124 116.3992120  51.2695668  25.1412686
 115.1551746  48.0047991  26.0382145 114.6189103  47.5538730  26.6903741
 114.5668455  48.1393900  25.2952609 113.4500290  64.7712041  19.9326803
 113.6896888  65.4030565  20.6105822 112.6069486  64.4200081  20.2192163
 106.0856145  52.2513803  18.6950115 106.7727185  51.9375533  18.1071131
 105.9304274  53.1555167  18.4217367 110.8890868  47.1403999  23.1235139
 110.8049056  46.5329669  22.3885549 110.0673574  47.6313017  23.1244636
 117.9628152  60.5791163  22.3368307 117.8898323  61.3846135  22.8487612
 117.5205545  60.7783129  21.5116329 115.4738749  58.2272441  25.3132037
 116.1748208  58.8608924  25.4661431 115.0033864  58.5687172  24.5527676
 111.0706467  57.7608796  22.2463139 111.6559904  57.0152484  22.3791044
 110.8731305  58.0712752  23.1299803 113.9245122  60.7960043  17.2625582
 113.2555497  61.2806171  16.7789622 113.7857992  61.0429264  18.1768960
 105.6624122  50.3314396  20.9667583 105.7008221  49.7977987  21.7604701
 105.1564414  49.8049601  20.3478560 113.0414884  45.1778936  24.4630125
 113.1056210  46.0393767  24.0507523 112.9782004  44.5652938  23.7302483
 112.5167156  47.2502069  28.1103159 113.1439195  46.8679146  28.7240683
 111.6595075  47.0316271  28.4758852 109.2932699  49.0578498  14.0421514
 109.5886140  48.1489176  13.9888568 108.3920735  49.0366238  13.7202516
 112.8226946  47.1334495  20.0249063 112.1013532  47.7470462  19.8856536
 113.6120202  47.6692259  19.9465709 115.6253260  44.4688921  26.2989714
 116.1487661  44.7151218  27.0616024 115.4065593  45.3008956  25.8792852
 111.0220541  46.7392596  14.1660839 110.6933247  45.8589975  13.9835945
 111.3759911  46.6840264  15.0537228 116.8305805  45.4102616  23.9839385
 116.4902625  44.6110429  24.3860065 116.1244811  45.7104327  23.4116218
 115.0060855  49.1871049  20.2458687 114.8605436  49.5011352  21.1382968
 114.5286059  49.8055950  19.6929585 116.8657238  46.1773597  20.2939576
 116.8518807  45.2814691  19.9571874 117.5829666  46.1844261  20.9277862
 109.4806517  51.7276394  23.1846348 108.9359985  52.5036202  23.3166622
 110.3585867  52.0747198  23.0265469 110.2672539  50.8546290  26.0776505
 109.5254275  51.0028925  26.6641135 109.9465284  51.1154556  25.2143254
 110.7129153  58.7411719  18.1086899 111.5387173  58.4415491  17.7285543
 110.3623205  57.9719341  18.5576688 115.6810686  58.0938187  20.1784573
 115.0590695  57.4308892  19.8786801 116.3515553  58.1199319  19.4958221
 108.9137758  56.6598045  19.0675833 108.0769666  56.2320220  18.8859834
 108.8861403  56.8530488  20.0046624 115.7535214  46.5719975  29.7717079
 115.8023369  47.4482098  29.3894848 116.2957728  46.0297368  29.1988722
 115.2424193  56.6442110  13.6543033 115.3912313  57.3277575  13.0009706
 116.0490636  56.6247200  14.1692489 117.9834502  47.3251347  26.5263437
 117.1137811  47.6184913  26.2546026 118.2193982  47.9091792  27.2470701
 112.9976826  52.6707288  14.6604102 112.7522868  51.7669618  14.8584312
 113.1672741  52.6724438  13.7183580 108.2287255  49.7207393  18.8524765
 107.9090039  48.8672701  18.5599139 107.6820683  49.9355971  19.6082732
 112.0067162  52.4369834  22.5694271 112.2253172  53.3686942  22.5882305
 112.4192936  52.0777809  23.3549075 116.8795027  48.0103040  31.9597020
 116.7791754  48.9597397  31.8909111 116.6616569  47.6821279  31.0873090
 108.0975515  53.3410305  20.8217886 107.4038986  52.9264258  20.3087841
 108.8448506  53.3830841  20.2251305 116.7426297  51.4400179  30.7762082
 116.2593379  52.2400539  30.9825971 116.8287237  51.4508124  29.8229526
 110.0112257  53.2728559  18.6983901 109.9882945  53.3716246  17.7465784
 110.3212894  54.1193709  19.0201067 112.6699635  55.3304714  22.8130516
 113.6242889  55.2988656  22.7460447 112.4712159  54.8695337  23.6280742
 113.2599017  53.9005830  25.3801313 114.0791906  54.3949908  25.4036151
 113.5335825  52.9837798  25.3518881 111.0249864  60.8724333  19.8300714
 110.8904332  60.1124734  19.2638712 110.6081926  61.5965233  19.3629503
 114.1818990  61.7693650  20.0419156 114.0651374  62.7139083  19.9397847
 113.3611436  61.4667212  20.4304955 108.5133931  48.2343963  26.0793510
 109.1592795  47.7242917  26.5680736 108.3051082  48.9712645  26.6536936
 115.2073504  62.4221912  23.2575085 116.1100750  62.4545522  23.5741580
 114.9810874  61.4922363  23.2721420 116.9627106  61.1752899  19.9185163
 116.0122737  61.1754760  19.8049536 117.2659592  60.4285633  19.4021198
 112.8531422  45.3811581  30.1768525 113.7162884  45.0248385  30.3871849
 112.2796833  45.0425475  30.8643929 116.9249900  67.5805720  18.6950115
 117.6120940  67.2667450  18.1071131 116.7698029  68.4847085  18.4217367
 116.5017876  65.6606314  20.9667583 116.5401976  65.1269904  21.7604701
 115.9958169  65.1341519  20.3478560   2.6228140  52.5095403  98.4857579
   1.8691848  51.9402801  98.3301583   2.7575681  52.4758067  99.4328213
   3.0334555  52.6671013 101.2177823   3.7637943  52.4056301 101.7785526
   2.4241500  51.9299735 101.2579891   1.1149852  50.8078875 101.8152274
   0.3883015  50.6734840 101.2068766   0.6997139  51.1155704 102.6208992
   1.0398719  50.3356928  97.9429127   0.4798277  50.4050118  98.7160689
   0.4342223  50.1597913  97.2228623   2.6254738  67.0113442 100.6359083
   3.2633148  66.8920190  99.9322423   2.5075581  67.9594286 100.6947035
   2.1796006  64.7364896  97.7112291   2.9659096  64.3184319  97.3602708
   2.4434711  65.6410988  97.8793939   2.3506084  70.1737746  92.4100948
   1.7151917  70.2472373  93.1221852   2.0203490  70.7631345  91.7320027
   7.5804433  64.6740129  98.6145269   8.3129605  64.1039346  98.8483099
   6.8243789  64.2861730  99.0551775   5.1029854  58.3861703 103.0739878
   4.7713179  59.2557114 102.8501093   4.5075467  58.0697987 103.7533908
   4.9958517  63.1056790 100.1533228   4.0875394  63.0372198  99.8591989
   4.9446113  63.5828734 100.9815054   6.8620164  61.3073228 101.9311102
   6.2194544  61.6005761 101.2850897   6.3575092  61.1926148 102.7364299
   4.5160327  65.0536401  92.6196961   5.4278183  65.2863788  92.4444659
   4.0069974  65.6373445  92.0572040   3.1229910  70.0362220 100.0110543
   2.4938772  70.2007934  99.3086611   2.7355572  70.4503829 100.7821507
   7.0019141  70.9716657  97.3654906   6.3170180  71.3515559  96.8151940
   7.0862991  71.5811984  98.0986854   2.3031610  62.0738004 105.2872984
   2.0592542  62.8280065 104.7507260   2.5791541  62.4523352 106.1220231
   4.2570073  68.6176616 103.9650250   4.4686968  69.2608376 103.2884631
   4.2099821  67.7838933 103.4972180   1.8596302  61.2294437 100.8686822
   0.9980781  61.5275691 101.1603560   1.8858737  61.4464836  99.9367855
   5.3715901  71.4948572 102.1372607   6.1933345  71.0928759 101.8555289
   5.3678304  71.3916806 103.0888723  13.4621894  67.8387320  98.4857579
  12.7085602  67.2694718  98.3301583  13.5969435  67.8049985  99.4328213
   2.2012986  56.2331285 102.6911192   1.8577255  57.1232926 102.6150302
   2.5691948  56.0432942 101.8280777   2.1663268  66.2239896  91.1983627
   1.6509892  66.9944500  91.4372014   1.8940577  65.5505032  91.8216688
   1.2809526  58.6035940 100.6560425   0.7774322  58.5666075  99.8428230
   1.5740133  59.5128682 100.7157082   7.1397542  68.9772250  93.1336800
   6.3626985  68.6383410  92.6891962   7.8189023  68.9824873  92.4591765
   1.9549572  64.0966988  93.0243408   1.6499707  64.4113137  93.8753551
   2.9080014  64.1748408  93.0670741   5.3788849  68.4506232  99.7903408
   4.7212524  69.1405493  99.8783537   6.1829249  68.8402664 100.1337395
   4.1894308  66.8050604  97.8407350   4.7026190  67.4380596  98.3429060
   4.8395532  66.2051800  97.4750710   1.4516682  76.7834929  90.5968021
   0.7778381  77.0866625  91.2052979   1.8382504  77.5864009  90.2473478
   1.4510187  65.6791475  95.2168371   2.1982006  66.1912873  94.9075493
   1.7201776  65.3575528  96.0772764   4.9556104  71.7856606  95.9686493
   4.5018432  70.9447516  96.0251683   4.3250071  72.4218004  96.3061273
   3.8989024  62.7148592  97.1987160   3.1611781  62.2025978  97.5297403
   4.1515798  62.2748973  96.3870437   3.3989044  73.6233102  96.9036311
   3.6912018  74.1838160  96.1848676   3.9087664  73.9161663  97.6589470
   4.0000651  55.4924844  97.7928929   4.3059528  54.6322207  97.5054844
   4.7253256  56.0842464  97.5927923   1.8088303  64.8697521 104.8910393
   2.1637690  65.0968994 105.7504859   2.4560434  65.2015898 104.2687648
   7.5386040  67.9915957  95.5959722   7.4003938  68.1817553  94.6680911
   7.1822258  68.7535340  96.0527773   7.5655419  70.0592484 100.6070994
   7.9991926  69.9667773 101.4554048   8.2787000  70.0349984  99.9691010
   8.4270969  70.1016185 103.1403879   8.6206859  71.0061995 103.3863154
   8.3271587  69.6423604 103.9742464   3.5424152  68.5743142  89.1315461
   2.9253323  67.8489970  89.0348514   3.0740641  69.3352502  88.7882535
   1.8283274  60.9549486  98.1433491   2.3251974  60.2019448  97.8234562
   1.0570256  60.9913802  97.5776701   9.6813032  66.6589851  99.7851783
   9.6702908  67.5414567  99.4145716   8.8130411  66.3061402  99.5906320
   2.9113055  69.7121173  95.7171915   1.9769334  69.8322635  95.5476619
   3.0889724  68.8093640  95.4531925   6.2985607  65.5538492  96.2521949
   6.7646059  66.3866484  96.1782252   6.7493107  65.0883474  96.9567207
   4.3661838  71.8982313  93.2508101   4.6421682  71.7838908  94.1601975
   3.4966336  71.4999798  93.2120274   4.2702269  57.9219079 100.2912850
   3.3565349  58.1523306 100.4595057   4.6995371  58.0057523 101.1426883
   4.0408728  66.1108971 102.7912744   3.3880178  66.3584879 102.1365197
   4.4189108  65.2973109 102.4575222   1.0015902  76.1468664  96.8940915
   1.1838296  75.3290320  97.3568667   1.8248888  76.3636357  96.4565805
   1.3358067  75.0736849  94.1555963   1.8645834  74.5629304  93.5426125
   1.5986287  74.7579380  95.0201496   1.0368813  73.7039421  98.3283982
   0.8893775  72.7756129  98.5091552   1.8622306  73.7259512  97.8441057
   4.6402934  74.5267980  99.4148855   5.5649482  74.3210842  99.2773306
   4.4718238  74.2784381 100.3238196   1.0330327  61.5577259  93.3216099
   1.2493941  62.4401897  93.0204927   0.5524394  61.1663472  92.5921741
   4.4298251  75.0453648  94.7710946   4.6035128  74.4800070  94.0184798
   4.9227142  75.8454543  94.5890436  10.2837642  67.8090071  96.3901246
  10.7268788  67.0597396  95.9920369   9.4064152  67.8000207  96.0074978
   5.4173423  74.3620412  91.8707844   6.1124328  74.9827105  92.0895159
   5.7596573  73.5115763  92.1460222   7.3164846  71.8120118  93.3995175
   7.8416170  72.1507390  92.6744495   7.2287199  70.8767133  93.2158310
   7.1256627  69.2945488 106.0179102   7.1754632  69.1295495 106.9594624
   7.0170551  68.4272747 105.6276982   9.8270507  69.2795309  98.7823693
  10.6617398  69.7185113  98.9461254   9.9629635  68.8033962  97.9631939
   6.8762012  66.8375044 104.7301181   7.3516134  67.0302690 103.9220032
   5.9527578  66.8934230 104.4844565   1.4542229  58.8722887 103.6957015
   1.9724173  59.6083914 103.3703504   1.0997362  59.1786881 104.5303774
   1.7054823  55.2923170  99.2157912   1.9856577  54.6246359  99.8418338
   2.4905430  55.4852265  98.7032575   5.5763681  63.7140804 102.9629487
   6.5281104  63.8138901 102.9841711   5.4067132  62.9219072 103.4727571
   3.5978061  60.7996387 103.1488888   3.0027993  61.0801400 102.4535376
   3.3127758  61.2890288 103.9205629   2.7285551  74.7519314  91.9091520
   3.6616225  74.6864876  92.1124396   2.6408764  75.5875581  91.4506053
   5.3573568  74.0685184  88.8695468   5.2787200  73.7345048  89.7631226
   6.1783235  74.5606952  88.8686940   8.0551759  66.9346924 102.0771786
   8.0228079  65.9962924 102.2631470   8.6652383  67.0130960 101.3437611
   8.2046248  63.7257967 102.1230070   7.6885296  62.9416424 101.9359998
   9.0886196  63.3976684 102.2876589   5.8656975  57.4698982  98.0825882
   5.6681796  57.1614071  98.9669214   6.4756680  58.1960621  98.2123812
  13.8728309  67.9962930 101.2177823  14.6031698  67.7348218 101.7785526
  13.2635255  67.2591652 101.2579891  11.9543606  66.1370793 101.8152274
  11.2276770  66.0026758 101.2068766  11.5390893  66.4447622 102.6208992
   1.6230621  57.3507889  95.8322414   2.1761660  57.7703343  96.4912437
   1.8600708  56.4243637  95.8745370   5.0009428  59.4608415  95.3401078
   4.4208097  60.1193219  94.9579130   4.7345361  58.6385759  94.9288495
   3.4512995  58.8613472  97.5422398   3.9512773  58.9730007  96.7336717
   4.0948603  58.5574525  98.1823207   3.7834306  61.6208505  94.3957426
   2.8960161  61.9058156  94.1777621   4.1988295  61.4602268  93.5484703
   7.1348843  61.6455026  98.1111765   7.9109233  62.1351478  98.3836382
   6.4096977  62.0713080  98.5683635   9.5721401  62.3582645  99.1685706
  10.1665892  62.1178381  98.4579014   9.6447985  61.6389776  99.7959242
   2.9277520  71.3853180  88.4905446   3.6313370  71.5903182  89.1063102
   2.2040169  71.9529941  88.7554530   3.7575330  67.1363041  94.6107716
   3.7010532  67.5931592  93.7715349   4.3103673  66.3753725  94.4330559
   7.5680136  62.9252773  95.4357836   7.3117070  62.5249408  96.2666043
   6.9433004  63.6396567  95.3107975  11.8792474  65.6648846  97.9429127
  11.3192032  65.7342035  98.7160689  11.2735977  65.4889831  97.2228623
   4.8364217  71.8235709  90.5403906   5.6709821  71.3916907  90.3581381
   4.6748560  71.6517722  91.4680801   4.4910109  68.3267822  91.9060245
   4.4358913  68.1612094  90.9648689   3.8656165  69.0343855  92.0622435
   1.6158354  54.4218708  95.7391501   0.8490750  53.8677194  95.8848183
   2.0269059  54.4940577  96.6005652  13.4648492  82.3405360 100.6359083
  14.1026902  82.2212107  99.9322423  13.3469335  83.2886204 100.6947035
  10.2738199  82.2932788 100.5720608   9.9356710  82.1773853  99.6841142
  11.1427967  81.8923953 100.5521614   6.1325014  84.1468264  96.5617498
   5.5689879  84.0558201  95.7933786   6.0177409  83.3268169  97.0419991
  11.7124573  87.8139232  91.8731963  11.0612553  88.3993313  91.4865977
  12.5068936  88.3445427  91.9327001   5.6380200  84.9028369  92.2719098
   6.4111076  84.3557356  92.1331974   5.9905599  85.7672619  92.4833559
   7.9746478  81.0621035  89.9037548   8.2271999  80.5402557  89.1421011
   7.0371037  80.8987181  90.0064231  13.0189761  80.0656814  97.7112291
  13.8052850  79.6476237  97.3602708  13.2828465  80.9702906  97.8793939
  13.1899838  85.5029664  92.4100948  12.5545671  85.5764291  93.1221852
  12.8597245  86.0923263  91.7320027  18.4198188  80.0032047  98.6145269
  19.1523360  79.4331264  98.8483099  17.6637544  79.6153647  99.0551775
   7.6942767  82.9649141  92.1061923   7.5779025  82.2894045  92.7743007
   7.8045027  82.4781515  91.2894076  10.0374308  82.4259288  95.8108612
   9.6732515  81.8989909  96.5221533  10.8941424  82.0357758  95.6375097
  15.9423608  73.7153621 103.0739878  15.6106933  74.5849032 102.8501093
  15.3469222  73.3989905 103.7533908   9.6779795  77.4549188  90.8069960
   9.8454197  78.3229425  91.1740431   9.4876964  77.6176470  89.8831250
  15.8352272  78.4348707 100.1533228  14.9269149  78.3664116  99.8591989
  15.7839867  78.9120652 100.9815054   9.6569016  79.9106846  91.7916627
   9.5368641  80.3563896  92.6302107   8.9621604  80.2592163  91.2330165
  17.7013918  76.6365146 101.9311102  17.0588298  76.9297679 101.2850897
  17.1968847  76.5218066 102.7364299  15.3554082  80.3828319  92.6196961
  16.2671938  80.6155706  92.4444659  14.8463729  80.9665363  92.0572040
  13.9623664  85.3654137 100.0110543  13.3332526  85.5299851  99.3086611
  13.5749326  85.7795747 100.7821507  17.8412896  86.3008575  97.3654906
  17.1563934  86.6807476  96.8151940  17.9256745  86.9103902  98.0986854
  13.1425365  77.4029922 105.2872984  12.8986297  78.1571982 104.7507260
  13.4185295  77.7815269 106.1220231  15.0963828  83.9468534 103.9650250
  15.3080723  84.5900294 103.2884631  15.0493576  83.1130851 103.4972180
  12.6990056  76.5586355 100.8686822  11.8374535  76.8567608 101.1603560
  12.7252491  76.7756754  99.9367855   9.5151626  85.1028545  97.2760628
   9.9789971  85.3816248  96.4865250   9.2508424  84.2011990  97.0933718
   8.4520512  81.2251698  94.0850193   9.1544555  81.6772741  94.5524119
   8.1201140  80.5835517  94.7130086  16.2109655  86.8240490 102.1372607
  17.0327099  86.4220677 101.8555289  16.2072058  86.7208724 103.0888723
   4.1460591  79.8479830  96.3450803   3.3491755  79.9598524  96.8634299
   3.9186183  80.1866482  95.4791694  24.3015649  83.1679238  98.4857579
  23.5479357  82.5986636  98.3301583  24.4363190  83.1341903  99.4328213
   9.6914277  88.0392640  94.1612298   9.5559951  88.8844176  94.5897146
  10.2324089  88.2411918  93.3978232  13.0406740  71.5623202 102.6911192
  12.6971010  72.4524844 102.6150302  13.4085703  71.3724860 101.8280777
  13.0057023  81.5531813  91.1983627  12.4903646  82.3236418  91.4372014
  12.7334331  80.8796949  91.8216688  10.5904134  76.3981514  96.2568865
   9.7345730  76.0088365  96.0774504  11.0031086  76.4773475  95.3968651
  12.1203281  73.9327857 100.6560425  11.6168076  73.8957993  99.8428230
  12.4133887  74.8420600 100.7157082   8.3646166  74.0166587  99.6626607
   9.2299163  73.8209396  99.3032496   8.4323675  73.7876939 100.5895963
  17.9791297  84.3064168  93.1336800  17.2020740  83.9675327  92.6891962
  18.6582778  84.3116791  92.4591765  12.7943326  79.4258905  93.0243408
  12.4893462  79.7405055  93.8753551  13.7473768  79.5040325  93.0670741
  11.2389758  85.5849129  94.6736362  10.7111119  84.8501888  94.3609599
  10.7377261  86.3623805  94.4276330  16.2182604  83.7798149  99.7903408
  15.5606278  84.4697411  99.8783537  17.0223003  84.1694581 100.1337395
   5.9708485  76.2468795  97.0342973   6.5452237  76.0243977  96.3016166
   6.5579468  76.3157490  97.7871575  15.0288063  82.1342522  97.8407350
  15.5419944  82.7672514  98.3429060  15.6789287  81.5343717  97.4750710
   6.2978073  78.2773256  91.0538859   5.4615385  78.6147943  91.3748133
   6.1582842  78.1422236  90.1165996   8.2731153  73.1210044  95.7618043
   7.6195566  72.8059061  95.1374658   8.2311627  72.4985784  96.4877866
   9.3842358  83.4029339  87.6771335   8.4769420  83.1718592  87.8762484
   9.8813390  82.6066958  87.8645316  12.2910437  92.1126846  90.5968021
  11.6172136  92.4158543  91.2052979  12.6776259  92.9155927  90.2473478
  11.5068894  79.6091977 100.0865690  10.5891455  79.8306924  99.9287379
  11.9229037  79.6838288  99.2277398  12.2903941  81.0083393  95.2168371
  13.0375760  81.5204790  94.9075493  12.5595531  80.6867446  96.0772764
  10.5630591  83.5041934  92.1995325   9.6541811  83.2200967  92.2967795
  10.5925675  83.9241012  91.3398632  15.7949859  87.1148523  95.9686493
  15.3412186  86.2739433  96.0251683  15.1643826  87.7509922  96.3061273
  14.7382778  78.0440509  97.1987160  14.0005535  77.5317896  97.5297403
  14.9909552  77.6040891  96.3870437  14.2382798  88.9525020  96.9036311
  14.5305773  89.5130077  96.1848676  14.7481419  89.2453581  97.6589470
  14.8394406  70.8216761  97.7928929  15.1453283  69.9614125  97.5054844
  15.5647011  71.4134382  97.5927923   9.1115486  81.1170554  98.3005120
   9.1664095  80.1644391  98.2247597   8.3006688  81.2729994  98.7846419
  10.2606679  85.0450678  89.5383404   9.8226109  84.3286536  89.0789041
  11.0017120  85.2726792  88.9768495   7.0507845  79.7347614  96.0595499
   6.2375711  80.0341785  96.4660691   7.5466840  79.3403303  96.7769981
  12.6482057  80.1989439 104.8910393  13.0031445  80.4260912 105.7504859
  13.2954188  80.5307815 104.2687648  18.3779794  83.3207875  95.5959722
  18.2397693  83.5109471  94.6680911  18.0216013  84.0827257  96.0527773
   6.5421920  77.3065970 101.6756734   7.1821300  77.1654729 100.9779697
   5.7099451  77.0200483 101.2995336  18.4049174  85.3884402 100.6070994
  18.8385680  85.2959691 101.4554048  19.1180754  85.3641902  99.9691010
   3.6264988  80.7511482  93.8651479   2.6962576  80.6895937  94.0821441
   3.7222460  80.2287435  93.0688121   3.5450537  77.2766295  96.4529721
   3.8057354  78.1911628  96.3438881   4.3667709  76.8090737  96.6026334
  19.2664723  85.4308102 103.1403879  19.4600613  86.3353913 103.3863154
  19.1665341  84.9715521 103.9742464  10.9201034  75.3165993 105.6394206
  10.2728949  76.0155942 105.5458683  11.6902049  75.7502137 106.0070455
  10.4901652  92.2806519  92.8115100  10.6653408  91.8094562  93.6260723
   9.8034440  92.9072285  93.0396361  11.4458715  86.5579025  98.8578401
  11.1108548  86.5179795  99.7536051  10.9462661  85.8923741  98.3848812
  14.3817907  83.9035059  89.1315461  13.7647078  83.1781887  89.0348514
  13.9134395  84.6644419  88.7882535   6.1716453  78.1220484  88.2536765
   5.2945919  78.0009284  87.8899012   6.6474206  77.3306562  88.0015654
   9.3580379  90.4746774  95.4999286   8.5747901  91.0168454  95.5937510
  10.0573124  90.9920754  95.8993527  12.6677029  76.2841403  98.1433491
  13.1645728  75.5311366  97.8234562  11.8964010  76.3205720  97.5776701
  20.5206786  81.9881769  99.7851783  20.5096663  82.8706484  99.4145716
  19.6524166  81.6353320  99.5906320  13.7506810  85.0413091  95.7171915
  12.8163088  85.1614553  95.5476619  13.9283478  84.1385557  95.4531925
   9.2511998  78.4258786  97.8705176   8.8809785  77.8729827  98.5586082
   9.7471090  77.8216920  97.3180176  17.1379361  80.8830410  96.2521949
  17.6039813  81.7158401  96.1782252  17.5886861  80.4175391  96.9567207
  15.2055592  87.2274231  93.2508101  15.4815436  87.1130826  94.1601975
  14.3360091  86.8291716  93.2120274  15.1096024  73.2510997 100.2912850
  14.1959104  73.4815224 100.4595057  15.5389125  73.3349441 101.1426883
  14.8802482  81.4400889 102.7912744  14.2273932  81.6876796 102.1365197
  15.2582862  80.6265027 102.4575222  11.8409656  91.4760582  96.8940915
  12.0232051  90.6582238  97.3568667  12.6642642  91.6928274  96.4565805
  12.1751822  90.4028767  94.1555963  12.7039588  89.8921222  93.5426125
  12.4380041  90.0871297  95.0201496   2.6282988  77.3976436  93.8188996
   2.2995694  76.5173815  93.6364102   2.9822359  77.3424105  94.7065385
  11.8762567  89.0331339  98.3283982  11.7287530  88.1048047  98.5091552
  12.7016061  89.0551430  97.8441057   5.7424811  77.6849406  94.1864474
   6.0820884  78.2135327  93.4643082   6.1896932  78.0229812  94.9623040
  15.4796689  89.8559898  99.4148855  16.4043236  89.6502759  99.2773306
  15.3111992  89.6076299 100.3238196   8.4368252  76.0686457 103.6367542
   8.0965073  75.2694270 104.0388222   7.7307258  76.3688168 103.0644375
   9.0884724  73.1535769 102.0894865   9.9110793  72.6796248 101.9673755
   9.3322788  73.9326253 102.5893551   7.7292959  76.1824028  92.3857767
   8.4501321  76.5605281  91.8821484   7.1058263  76.9012905  92.4892745
  11.8724081  76.8869177  93.3216099  12.0887696  77.7693815  93.0204927
  11.3918149  76.4955390  92.5921741   8.4719686  76.8357438  99.9467733
   8.4581254  75.9398531  99.6100031   9.1892114  76.8428102 100.5806019
  10.3245816  77.2694778 101.9920861  10.0663594  78.1911849 101.9905191
   9.7930857  76.8725213 102.6821325  15.2692005  90.3745565  94.7710946
  15.4428883  89.8091988  94.0184798  15.7620896  91.1746460  94.5890436
   7.8756582  75.7171818  95.2155303   7.9972493  74.7888464  95.4146191
   7.5858624  75.7310504  94.3033619  10.7447772  73.4026729  98.3522023
  10.7669469  73.4666062  97.3974003  11.1615831  72.5631237  98.5462529
  21.1231396  83.1381988  96.3901246  21.5662542  82.3889313  95.9920369
  20.2457907  83.1292125  96.0074978  16.2567178  89.6912330  91.8707844
  16.9518082  90.3119022  92.0895159  16.5990328  88.8407681  92.1460222
  18.1558601  87.1412035  93.3995175  18.6809925  87.4799308  92.6744495
  18.0680953  86.2059051  93.2158310  17.9650382  84.6237405 106.0179102
  18.0148387  84.4587413 106.9594624  17.8564305  83.7564664 105.6276982
   6.8486641  87.3025951  93.3071190   6.9974761  87.9861415  92.6537863
   7.6553084  87.2831041  93.8220646  20.6664261  84.6087227  98.7823693
  21.5011152  85.0477031  98.9461254  20.8023390  84.1325880  97.9631939
  17.7155767  82.1666961 104.7301181  18.1909889  82.3594608 103.9220032
  16.7921332  82.2226147 104.4844565   4.6039274  83.3291129  94.3132259
   4.3585315  82.4253459  94.5112469   4.7735188  83.3308279  93.3711737
  12.2935983  74.2014805 103.6957015  12.8117927  74.9375832 103.3703504
  11.9391116  74.5078798 104.5303774   3.8734921  79.0619486  91.8118421
   3.1804166  79.1363841  91.1558457   3.6286673  78.2979830  92.3339938
  12.5448578  70.6215087  99.2157912  12.8250331  69.9538277  99.8418338
  13.3299185  70.8144183  98.7032575  10.3482046  89.7974081  90.7782938
   9.7756013  90.4164269  90.3253410  10.9214840  90.3473443  91.3122860
  16.4157436  79.0432721 102.9629487  17.3674859  79.1430819 102.9841711
  16.2460886  78.2510990 103.4727571  14.4371815  76.1288305 103.1488888
  13.8421748  76.4093317 102.4535376  14.1521512  76.6182206 103.9205629
  13.5679306  90.0811232  91.9091520  14.5009979  90.0156793  92.1124396
  13.4802519  90.9167498  91.4506053  16.1967323  89.3977102  88.8695468
  16.1180954  89.0636965  89.7631226  17.0176989  89.8898870  88.8686940
  18.8945514  82.2638841 102.0771786  18.8621834  81.3254842 102.2631470
  19.5046137  82.3422878 101.3437611  10.7328845  81.1334894  88.1198990
  11.6787949  81.0041102  88.1887408  10.3543090  80.3949556  88.5968419
  19.0440002  79.0549885 102.1230070  18.5279051  78.2708341 101.9359998
  19.9279951  78.7268601 102.2876589  16.7050729  72.7990900  98.0825882
  16.5075550  72.4905988  98.9669214  17.3150435  73.5252539  98.2123812
  24.7122064  83.3254848 101.2177823  25.4425452  83.0640136 101.7785526
  24.1029009  82.5883570 101.2579891  22.7937361  81.4662711 101.8152274
  22.0670524  81.3318676 101.2068766  22.3784648  81.7739539 102.6208992
   8.9171762  79.0584871  88.0553876   8.0103217  78.7617983  88.1316589
   9.1947743  78.7614689  87.1888162  10.5333827  73.6021760  94.2098117
   9.7234556  73.2568845  94.5853363  11.2218244  73.2929304  94.7985728
  12.4624376  72.6799807  95.8322414  13.0155414  73.0995260  96.4912437
  12.6994462  71.7535555  95.8745370   7.6870546  75.9171806  88.1965855
   8.5489710  76.2426704  88.4561672   7.8720891  75.1303302  87.6838921
  15.8403183  74.7900332  95.3401078  15.2601852  75.4485136  94.9579130
  15.5739116  73.9677677  94.9288495  14.2906749  74.1905390  97.5422398
  14.7906528  74.3021924  96.7336717  14.9342357  73.8866443  98.1823207
  14.6228061  76.9500423  94.3957426  13.7353916  77.2350073  94.1777621
  15.0382050  76.7894186  93.5484703  17.9742597  76.9746944  98.1111765
  18.7502987  77.4643396  98.3836382  17.2490731  77.4004998  98.5683635
  20.4115156  77.6874563  99.1685706  21.0059646  77.4470299  98.4579014
  20.4841739  76.9681693  99.7959242  13.7671274  86.7145097  88.4905446
  14.4707124  86.9195100  89.1063102  13.0433923  87.2821859  88.7554530
  14.5969085  82.4654959  94.6107716  14.5404286  82.9223510  93.7715349
  15.1497427  81.7045643  94.4330559  18.4073891  78.2544690  95.4357836
  18.1510825  77.8541326  96.2666043  17.7826759  78.9688484  95.3107975
  22.7186228  80.9940764  97.9429127  22.1585786  81.0633953  98.7160689
  22.1129732  80.8181748  97.2228623  15.6757972  87.1527626  90.5403906
  16.5103576  86.7208825  90.3581381  15.5142315  86.9809640  91.4680801
  15.3303864  83.6559740  91.9060245  15.2752668  83.4904011  90.9648689
  14.7049919  84.3635773  92.0622435   8.6399989  73.1567849  91.4845564
   8.6278659  74.1009689  91.6413835   9.5323411  72.9737994  91.1905025
  12.4552109  69.7510625  95.7391501  11.6884505  69.1969112  95.8848183
  12.8662814  69.8232494  96.6005652  24.3042247  97.6697278 100.6359083
  24.9420657  97.5504025  99.9322423  24.1863090  98.6178122 100.6947035
  21.1131953  97.6224706 100.5720608  20.7750465  97.5065770  99.6841142
  21.9821721  97.2215871 100.5521614  16.9718769  99.4760182  96.5617498
  16.4083634  99.3850119  95.7933786  16.8571164  98.6560087  97.0419991
  22.5518328 103.1431150  91.8731963  21.9006307 103.7285230  91.4865977
  23.3462690 103.6737345  91.9327001  16.4773955 100.2320287  92.2719098
  17.2504831  99.6849274  92.1331974  16.8299354 101.0964536  92.4833559
  18.8140233  96.3912953  89.9037548  19.0665753  95.8694474  89.1421011
  17.8764792  96.2279099  90.0064231  23.8583515  95.3948731  97.7112291
  24.6446605  94.9768155  97.3602708  24.1222220  96.2994824  97.8793939
  24.0293593 100.8321582  92.4100948  23.3939426 100.9056208  93.1221852
  23.6990999 101.4215181  91.7320027  29.2591942  95.3323965  98.6145269
  29.9917114  94.7623181  98.8483099  28.5031298  94.9445565  99.0551775
  18.5336521  98.2941059  92.1061923  18.4172779  97.6185962  92.7743007
  18.6438781  97.8073433  91.2894076  20.8768062  97.7551206  95.8108612
  20.5126269  97.2281827  96.5221533  21.7335178  97.3649675  95.6375097
  26.7817363  89.0445539 103.0739878  26.4500688  89.9140950 102.8501093
  26.1862976  88.7281823 103.7533908  20.5173549  92.7841106  90.8069960
  20.6847952  93.6521342  91.1740431  20.3270718  92.9468388  89.8831250
  26.6746026  93.7640625 100.1533228  25.7662903  93.6956033  99.8591989
  26.6233622  94.2412570 100.9815054  20.4962770  95.2398763  91.7916627
  20.3762395  95.6855814  92.6302107  19.8015358  95.5884081  91.2330165
  28.5407673  91.9657063 101.9311102  27.8982053  92.2589596 101.2850897
  28.0362601  91.8509984 102.7364299  26.1947836  95.7120237  92.6196961
  27.1065692  95.9447623  92.4444659  25.6857483  96.2957281  92.0572040
  24.8017418 100.6946055 100.0110543  24.1726281 100.8591769  99.3086611
  24.4143081 101.1087665 100.7821507  28.6806650 101.6300493  97.3654906
  27.9957689 102.0099394  96.8151940  28.7650500 102.2395819  98.0986854
  23.9819119  92.7321839 105.2872984  23.7380051  93.4863900 104.7507260
  24.2579050  93.1107187 106.1220231  25.9357582  99.2760452 103.9650250
  26.1474477  99.9192212 103.2884631  25.8887330  98.4422768 103.4972180
  23.5383811  91.8878272 100.8686822  22.6768290  92.1859526 101.1603560
  23.5646246  92.1048671  99.9367855  20.3545380 100.4320463  97.2760628
  20.8183726 100.7108166  96.4865250  20.0902178  99.5303908  97.0933718
  19.2914266  96.5543615  94.0850193  19.9938310  97.0064659  94.5524119
  18.9594895  95.9127434  94.7130086  27.0503410 102.1532407 102.1372607
  27.8720854 101.7512595 101.8555289  27.0465813 102.0500641 103.0888723
  14.9854346  95.1771747  96.3450803  14.1885509  95.2890442  96.8634299
  14.7579938  95.5158400  95.4791694  35.1409403  98.4971156  98.4857579
  34.3873111  97.9278554  98.3301583  35.2756944  98.4633820  99.4328213
  20.5308031 103.3684558  94.1612298  20.3953706 104.2136094  94.5897146
  21.0717844 103.5703836  93.3978232  23.8800495  86.8915120 102.6911192
  23.5364764  87.7816762 102.6150302  24.2479457  86.7016778 101.8280777
  23.8450777  96.8823731  91.1983627  23.3297401  97.6528336  91.4372014
  23.5728086  96.2088867  91.8216688  21.4297888  91.7273432  96.2568865
  20.5739485  91.3380282  96.0774504  21.8424840  91.8065393  95.3968651
  22.9597035  89.2619775 100.6560425  22.4561831  89.2249910  99.8428230
  23.2527642  90.1712518 100.7157082  19.2039921  89.3458505  99.6626607
  20.0692918  89.1501313  99.3032496  19.2717430  89.1168857 100.5895963
  28.8185051  99.6356086  93.1336800  28.0414494  99.2967245  92.6891962
  29.4976532  99.6408709  92.4591765  23.6337081  94.7550823  93.0243408
  23.3287216  95.0696972  93.8753551  24.5867523  94.8332243  93.0670741
  22.0783512 100.9141046  94.6736362  21.5504874 100.1793806  94.3609599
  21.5771015 101.6915723  94.4276330  27.0576358  99.1090067  99.7903408
  26.4000033  99.7989328  99.8783537  27.8616758  99.4986499 100.1337395
  16.8102240  91.5760713  97.0342973  17.3845992  91.3535894  96.3016166
  17.3973222  91.6449407  97.7871575  25.8681817  97.4634440  97.8407350
  26.3813699  98.0964431  98.3429060  26.5183041  96.8635635  97.4750710
  17.1371827  93.6065174  91.0538859  16.3009139  93.9439860  91.3748133
  16.9976597  93.4714154  90.1165996  19.1124908  88.4501962  95.7618043
  18.4589320  88.1350979  95.1374658  19.0705382  87.8277702  96.4877866
  20.2236113  98.7321257  87.6771335  19.3163174  98.5010510  87.8762484
  20.7207145  97.9358876  87.8645316  23.1304191 107.4418764  90.5968021
  22.4565890 107.7450461  91.2052979  23.5170013 108.2447844  90.2473478
  22.3462648  94.9383895 100.0865690  21.4285209  95.1598842  99.9287379
  22.7622792  95.0130206  99.2277398  23.1297696  96.3375311  95.2168371
  23.8769515  96.8496708  94.9075493  23.3989285  96.0159364  96.0772764
  21.4024346  98.8333852  92.1995325  20.4935565  98.5492884  92.2967795
  21.4319430  99.2532930  91.3398632  26.6343613 102.4440441  95.9686493
  26.1805940 101.6031351  96.0251683  26.0037580 103.0801839  96.3061273
  25.5776533  93.3732427  97.1987160  24.8399290  92.8609813  97.5297403
  25.8303306  92.9332809  96.3870437  25.0776553 104.2816938  96.9036311
  25.3699527 104.8421995  96.1848676  25.5875173 104.5745499  97.6589470
  25.6788160  86.1508679  97.7928929  25.9847037  85.2906043  97.5054844
  26.4040765  86.7426299  97.5927923  19.9509240  96.4462472  98.3005120
  20.0057850  95.4936309  98.2247597  19.1400442  96.6021911  98.7846419
  21.1000434 100.3742595  89.5383404  20.6619864  99.6578454  89.0789041
  21.8410875 100.6018710  88.9768495  17.8901600  95.0639532  96.0595499
  17.0769465  95.3633702  96.4660691  18.3860594  94.6695221  96.7769981
  23.4875812  95.5281356 104.8910393  23.8425199  95.7552830 105.7504859
  24.1347943  95.8599733 104.2687648  29.2173549  98.6499792  95.5959722
  29.0791447  98.8401388  94.6680911  28.8609767  99.4119175  96.0527773
  17.3815675  92.6357887 101.6756734  18.0215054  92.4946647 100.9779697
  16.5493205  92.3492401 101.2995336  29.2442928 100.7176319 100.6070994
  29.6779435 100.6251608 101.4554048  29.9574509 100.6933820  99.9691010
  14.4658742  96.0803400  93.8651479  13.5356330  96.0187855  94.0821441
  14.5616214  95.5579352  93.0688121  14.3844291  92.6058212  96.4529721
  14.6451108  93.5203546  96.3438881  15.2061463  92.1382655  96.6026334
  30.1058478 100.7600020 103.1403879  30.2994368 101.6645830 103.3863154
  30.0059096 100.3007439 103.9742464  21.7594788  90.6457911 105.6394206
  21.1122703  91.3447860 105.5458683  22.5295804  91.0794054 106.0070455
  21.3295407 107.6098436  92.8115100  21.5047162 107.1386479  93.6260723
  20.6428195 108.2364203  93.0396361  22.2852470 101.8870943  98.8578401
  21.9502302 101.8471713  99.7536051  21.7856415 101.2215658  98.3848812
  25.2211661  99.2326977  89.1315461  24.6040832  98.5073805  89.0348514
  24.7528150  99.9936337  88.7882535  17.0110207  93.4512401  88.2536765
  16.1339674  93.3301202  87.8899012  17.4867960  92.6598479  88.0015654
  20.1974133 105.8038692  95.4999286  19.4141655 106.3460372  95.5937510
  20.8966879 106.3212671  95.8993527  23.5070783  91.6133321  98.1433491
  24.0039483  90.8603283  97.8234562  22.7357765  91.6497638  97.5776701
  31.3600541  97.3173687  99.7851783  31.3490417  98.1998402  99.4145716
  30.4917920  96.9645237  99.5906320  24.5900564 100.3705008  95.7171915
  23.6556843 100.4906471  95.5476619  24.7677233  99.4677475  95.4531925
  20.0905752  93.7550704  97.8705176  19.7203540  93.2021744  98.5586082
  20.5864845  93.1508837  97.3180176  27.9773115  96.2122328  96.2521949
  28.4433568  97.0450319  96.1782252  28.4280616  95.7467309  96.9567207
  26.0449347 102.5566149  93.2508101  26.3209190 102.4422743  94.1601975
  25.1753845 102.1583634  93.2120274  25.9489778  88.5802914 100.2912850
  25.0352858  88.8107141 100.4595057  26.3782880  88.6641359 101.1426883
  25.7196237  96.7692806 102.7912744  25.0667687  97.0168714 102.1365197
  26.0976617  95.9556945 102.4575222  22.6803411 106.8052500  96.8940915
  22.8625805 105.9874156  97.3568667  23.5036397 107.0220192  96.4565805
  23.0145576 105.7320685  94.1555963  23.5433343 105.2213139  93.5426125
  23.2773796 105.4163215  95.0201496  11.7388901  95.0454256  93.6949671
  12.0342342  94.1364935  93.6416725  10.8376937  95.0241996  93.3730673
  13.4676743  92.7268354  93.8188996  13.1389449  91.8465733  93.6364102
  13.8216113  92.6716023  94.7065385  22.7156322 104.3623257  98.3283982
  22.5681284 103.4339964  98.5091552  23.5409815 104.3843348  97.8441057
  16.5818566  93.0141324  94.1864474  16.9214638  93.5427245  93.4643082
  17.0290686  93.3521730  94.9623040  26.3190443 105.1851816  99.4148855
  27.2436991 104.9794677  99.2773306  26.1505747 104.9368217 100.3238196
  19.2762007  91.3978375 103.6367542  18.9358827  90.5986188 104.0388222
  18.5701013  91.6980085 103.0644375  19.9278479  88.4827687 102.0894865
  20.7504548  88.0088165 101.9673755  20.1716542  89.2618171 102.5893551
  18.5686713  91.5115945  92.3857767  19.2895076  91.8897198  91.8821484
  17.9452017  92.2304822  92.4892745  22.7117836  92.2161094  93.3216099
  22.9281450  93.0985732  93.0204927  22.2311903  91.8247308  92.5921741
  19.3113440  92.1649356  99.9467733  19.2975009  91.2690449  99.6100031
  20.0285868  92.1720019 100.5806019  21.1639571  92.5986696 101.9920861
  20.9057349  93.5203767 101.9905191  20.6324611  92.2017130 102.6821325
  26.1085760 105.7037483  94.7710946  26.2822637 105.1383905  94.0184798
  26.6014651 106.5038378  94.5890436  18.7150336  91.0463736  95.2155303
  18.8366247  90.1180382  95.4146191  18.4252378  91.0602422  94.3033619
  21.5841526  88.7318646  98.3522023  21.6063223  88.7957979  97.3974003
  22.0009585  87.8923155  98.5462529  31.9625151  98.4673906  96.3901246
  32.4056297  97.7181231  95.9920369  31.0851661  98.4584042  96.0074978
  27.0960932 105.0204247  91.8707844  27.7911837 105.6410940  92.0895159
  27.4384082 104.1699599  92.1460222  28.9952355 102.4703953  93.3995175
  29.5203679 102.8091226  92.6744495  28.9074708 101.5350968  93.2158310
  28.8044136  99.9529323 106.0179102  28.8542141  99.7879330 106.9594624
  28.6958060  99.0856582 105.6276982  17.6880395 102.6317869  93.3071190
  17.8368515 103.3153333  92.6537863  18.4946839 102.6122959  93.8220646
  31.5058016  99.9379144  98.7823693  32.3404907 100.3768948  98.9461254
  31.6417144  99.4617797  97.9631939  28.5549521  97.4958879 104.7301181
  29.0303643  97.6886525 103.9220032  27.6315087  97.5518065 104.4844565
  15.4433028  98.6583046  94.3132259  15.1979070  97.7545376  94.5112469
  15.6128943  98.6600197  93.3711737  23.1329738  89.5306723 103.6957015
  23.6511682  90.2667750 103.3703504  22.7784871  89.8370716 104.5303774
  14.7128676  94.3911404  91.8118421  14.0197921  94.4655759  91.1558457
  14.4680427  93.6271747  92.3339938  23.3842332  85.9507005  99.2157912
  23.6644086  85.2830194  99.8418338  24.1692939  86.1436101  98.7032575
  21.1875801 105.1265999  90.7782938  20.6149768 105.7456186  90.3253410
  21.7608594 105.6765361  91.3122860  27.2551190  94.3724639 102.9629487
  28.2068613  94.4722737 102.9841711  27.0854641  93.5802908 103.4727571
  25.2765570  91.4580222 103.1488888  24.6815502  91.7385235 102.4535376
  24.9915267  91.9474123 103.9205629  24.4073060 105.4103149  91.9091520
  25.3403734 105.3448711  92.1124396  24.3196273 106.2459416  91.4506053
  27.0361077 104.7269020  88.8695468  26.9574709 104.3928883  89.7631226
  27.8570744 105.2190787  88.8686940  29.7339268  97.5930759 102.0771786
  29.7015588  96.6546760 102.2631470  30.3439892  97.6714796 101.3437611
  21.5722599  96.4626812  88.1198990  22.5181704  96.3333020  88.1887408
  21.1936844  95.7241474  88.5968419  29.8833757  94.3841802 102.1230070
  29.3672805  93.6000259 101.9359998  30.7673705  94.0560519 102.2876589
  27.5444484  88.1282818  98.0825882  27.3469305  87.8197906  98.9669214
  28.1544189  88.8544457  98.2123812  35.5515818  98.6546766 101.2177823
  36.2819207  98.3932054 101.7785526  34.9422764  97.9175488 101.2579891
  33.6331115  96.7954628 101.8152274  32.9064279  96.6610593 101.2068766
  33.2178402  97.1031457 102.6208992  19.7565516  94.3876788  88.0553876
  18.8496972  94.0909901  88.1316589  20.0341497  94.0906606  87.1888162
  21.3727582  88.9313678  94.2098117  20.5628310  88.5860763  94.5853363
  22.0611999  88.6221222  94.7985728  23.3018130  88.0091725  95.8322414
  23.8549169  88.4287178  96.4912437  23.5388217  87.0827473  95.8745370
  18.5264301  91.2463723  88.1965855  19.3883465  91.5718622  88.4561672
  18.7114645  90.4595219  87.6838921  26.6796937  90.1192250  95.3401078
  26.0995606  90.7777054  94.9579130  26.4132870  89.2969594  94.9288495
  25.1300504  89.5197308  97.5422398  25.6300282  89.6313842  96.7336717
  25.7736112  89.2158360  98.1823207  25.4621815  92.2792340  94.3957426
  24.5747670  92.5641991  94.1777621  25.8775804  92.1186104  93.5484703
  28.8136352  92.3038861  98.1111765  29.5896742  92.7935314  98.3836382
  28.0884486  92.7296915  98.5683635  31.2508910  93.0166480  99.1685706
  31.8453401  92.7762216  98.4579014  31.3235494  92.2973611  99.7959242
  24.6065029 102.0437015  88.4905446  25.3100879 102.2487017  89.1063102
  23.8827678 102.6113777  88.7554530  25.4362839  97.7946876  94.6107716
  25.3798041  98.2515428  93.7715349  25.9891182  97.0337561  94.4330559
  29.2467645  93.5836608  95.4357836  28.9904579  93.1833244  96.2666043
  28.6220513  94.2980402  95.3107975  33.5579983  96.3232681  97.9429127
  32.9979541  96.3925871  98.7160689  32.9523486  96.1473666  97.2228623
  26.5151726 102.4819544  90.5403906  27.3497330 102.0500743  90.3581381
  26.3536069 102.3101558  91.4680801  26.1697618  98.9851657  91.9060245
  26.1146422  98.8195929  90.9648689  25.5443674  99.6927690  92.0622435
  19.4793744  88.4859766  91.4845564  19.4672414  89.4301606  91.6413835
  20.3717166  88.3029912  91.1905025  23.2945863  85.0802543  95.7391501
  22.5278259  84.5261030  95.8848183  23.7056568  85.1524412  96.6005652
  34.6977270 110.7240649  97.7112291  35.4840359 110.3060072  97.3602708
  34.9615974 111.6286741  97.8793939  40.0985697 110.6615882  98.6145269
  40.8310869 110.0915099  98.8483099  39.3425053 110.2737483  99.0551775
  37.6211117 104.3737456 103.0739878  37.2894442 105.2432867 102.8501093
  37.0256731 104.0573740 103.7533908  31.3567304 108.1133023  90.8069960
  31.5241706 108.9813260  91.1740431  31.1664473 108.2760305  89.8831250
  37.5139781 109.0932543 100.1533228  36.6056658 109.0247951  99.8591989
  37.4627376 109.5704488 100.9815054  31.3356525 110.5690681  91.7916627
  31.2156150 111.0147732  92.6302107  30.6409113 110.9175999  91.2330165
  39.3801427 107.2948981 101.9311102  38.7375807 107.5881514 101.2850897
  38.8756356 107.1801901 102.7364299  37.0341591 111.0412154  92.6196961
  37.9459447 111.2739541  92.4444659  36.5251238 111.6249198  92.0572040
  34.8212874 108.0613757 105.2872984  34.5773806 108.8155818 104.7507260
  35.0972804 108.4399105 106.1220231  34.3777565 107.2170190 100.8686822
  33.5162044 107.5151444 101.1603560  34.4040000 107.4340589  99.9367855
  45.9803157 113.8263073  98.4857579  45.2266866 113.2570471  98.3301583
  46.1150699 113.7925738  99.4328213  34.7194249 102.2207038 102.6911192
  34.3758518 103.1108679 102.6150302  35.0873212 102.0308695 101.8280777
  34.6844532 112.2115649  91.1983627  34.1691155 112.9820253  91.4372014
  34.4121840 111.5380785  91.8216688  32.2691643 107.0565349  96.2568865
  31.4133239 106.6672200  96.0774504  32.6818595 107.1357310  95.3968651
  33.7990789 104.5911693 100.6560425  33.2955585 104.5541828  99.8428230
  34.0921396 105.5004435 100.7157082  30.0433675 104.6750422  99.6626607
  30.9086672 104.4793231  99.3032496  30.1111184 104.4460774 100.5895963
  39.6578806 114.9648003  93.1336800  38.8808249 114.6259163  92.6891962
  40.3370287 114.9700627  92.4591765  34.4730835 110.0842741  93.0243408
  34.1680971 110.3988890  93.8753551  35.4261277 110.1624161  93.0670741
  27.6495994 106.9052630  97.0342973  28.2239746 106.6827812  96.3016166
  28.2366977 106.9741325  97.7871575  36.7075572 112.7926357  97.8407350
  37.2207453 113.4256349  98.3429060  37.3576796 112.1927553  97.4750710
  27.9765582 108.9357091  91.0538859  27.1402894 109.2731778  91.3748133
  27.8370351 108.8006071  90.1165996  29.9518662 103.7793879  95.7618043
  29.2983075 103.4642896  95.1374658  29.9099136 103.1569620  96.4877866
  33.1856403 110.2675813 100.0865690  32.2678964 110.4890760  99.9287379
  33.6016546 110.3422123  99.2277398  33.9691450 111.6667229  95.2168371
  34.7163269 112.1788626  94.9075493  34.2383040 111.3451281  96.0772764
  36.4170287 108.7024345  97.1987160  35.6793044 108.1901731  97.5297403
  36.6697061 108.2624726  96.3870437  36.5181915 101.4800597  97.7928929
  36.8240792 100.6197960  97.5054844  37.2434520 102.0718217  97.5927923
  28.7295354 110.3931450  96.0595499  27.9163220 110.6925620  96.4660691
  29.2254349 109.9987138  96.7769981  34.3269566 110.8573274 104.8910393
  34.6818954 111.0844747 105.7504859  34.9741697 111.1891651 104.2687648
  40.0567303 113.9791710  95.5959722  39.9185202 114.1693306  94.6680911
  39.7003522 114.7411093  96.0527773  28.2209429 107.9649805 101.6756734
  28.8608809 107.8238564 100.9779697  27.3886960 107.6784318 101.2995336
  25.2238046 107.9350130  96.4529721  25.4844863 108.8495463  96.3438881
  26.0455218 107.4674573  96.6026334  32.5988543 105.9749828 105.6394206
  31.9516458 106.6739778 105.5458683  33.3689558 106.4085972 106.0070455
  27.8503962 108.7804319  88.2536765  26.9733428 108.6593120  87.8899012
  28.3261715 107.9890397  88.0015654  34.3464538 106.9425239  98.1433491
  34.8433237 106.1895201  97.8234562  33.5751519 106.9789555  97.5776701
  42.1994295 112.6465604  99.7851783  42.1884172 113.5290320  99.4145716
  41.3311675 112.2937155  99.5906320  30.9299507 109.0842622  97.8705176
  30.5597294 108.5313662  98.5586082  31.4258599 108.4800755  97.3180176
  38.8166870 111.5414245  96.2521949  39.2827322 112.3742237  96.1782252
  39.2674370 111.0759227  96.9567207  36.7883533 103.9094832 100.2912850
  35.8746613 104.1399059 100.4595057  37.2176634 103.9933276 101.1426883
  36.5589991 112.0984724 102.7912744  35.9061441 112.3460632 102.1365197
  36.9370371 111.2848862 102.4575222  24.3070497 108.0560272  93.8188996
  23.9783203 107.1757651  93.6364102  24.6609868 108.0007940  94.7065385
  27.4212320 108.3433242  94.1864474  27.7608393 108.8719163  93.4643082
  27.8684441 108.6813648  94.9623040  30.1155761 106.7270292 103.6367542
  29.7752582 105.9278105 104.0388222  29.4094767 107.0272003 103.0644375
  30.7672233 103.8119605 102.0894865  31.5898302 103.3380083 101.9673755
  31.0110297 104.5910088 102.5893551  29.4080468 106.8407863  92.3857767
  30.1288830 107.2189116  91.8821484  28.7845772 107.5596740  92.4892745
  33.5511590 107.5453012  93.3216099  33.7675205 108.4277650  93.0204927
  33.0705658 107.1539226  92.5921741  30.1507195 107.4941273  99.9467733
  30.1368763 106.5982367  99.6100031  30.8679623 107.5011937 100.5806019
  32.0033325 107.9278614 101.9920861  31.7451103 108.8495684 101.9905191
  31.4718366 107.5309048 102.6821325  29.5544091 106.3755654  95.2155303
  29.6760002 105.4472300  95.4146191  29.2646133 106.3894340  94.3033619
  32.4235281 104.0610564  98.3522023  32.4456978 104.1249897  97.3974003
  32.8403340 103.2215073  98.5462529  42.8018905 113.7965824  96.3901246
  43.2450051 113.0473149  95.9920369  41.9245416 113.7875960  96.0074978
  42.3451770 115.2671062  98.7823693  43.1798661 115.7060866  98.9461254
  42.4810899 114.7909715  97.9631939  39.3943276 112.8250797 104.7301181
  39.8697398 113.0178443 103.9220032  38.4708841 112.8809983 104.4844565
  33.9723492 104.8598640 103.6957015  34.4905436 105.5959667 103.3703504
  33.6178625 105.1662634 104.5303774  25.5522430 109.7203322  91.8118421
  24.8591675 109.7947676  91.1558457  25.3074182 108.9563665  92.3339938
  34.2236087 101.2798923  99.2157912  34.5037840 100.6122112  99.8418338
  35.0086694 101.4728018  98.7032575  38.0944945 109.7016557 102.9629487
  39.0462368 109.8014655 102.9841711  37.9248395 108.9094825 103.4727571
  36.1159324 106.7872140 103.1488888  35.5209257 107.0677153 102.4535376
  35.8309021 107.2766041 103.9205629  40.5733023 112.9222677 102.0771786
  40.5409343 111.9838677 102.2631470  41.1833646 113.0006713 101.3437611
  32.4116354 111.7918730  88.1198990  33.3575458 111.6624938  88.1887408
  32.0330599 111.0533391  88.5968419  40.7227511 109.7133720 102.1230070
  40.2066560 108.9292177 101.9359998  41.6067460 109.3852437 102.2876589
  38.3838238 103.4574736  98.0825882  38.1863059 103.1489824  98.9669214
  38.9937944 104.1836374  98.2123812  46.3909573 113.9838683 101.2177823
  47.1212961 113.7223971 101.7785526  45.7816518 113.2467405 101.2579891
  44.4724870 112.1246546 101.8152274  43.7458033 111.9902511 101.2068766
  44.0572157 112.4323375 102.6208992  30.5959271 109.7168706  88.0553876
  29.6890726 109.4201819  88.1316589  30.8735252 109.4198524  87.1888162
  32.2121336 104.2605596  94.2098117  31.4022065 103.9152681  94.5853363
  32.9005753 103.9513139  94.7985728  34.1411885 103.3383642  95.8322414
  34.6942923 103.7579096  96.4912437  34.3781971 102.4119391  95.8745370
  29.3658055 106.5755641  88.1965855  30.2277219 106.9010539  88.4561672
  29.5508400 105.7887137  87.6838921  37.5190692 105.4484168  95.3401078
  36.9389361 106.1068972  94.9579130  37.2526625 104.6261512  94.9288495
  35.9694258 104.8489225  97.5422398  36.4694037 104.9605760  96.7336717
  36.6129866 104.5450278  98.1823207  36.3015570 107.6084258  94.3957426
  35.4141425 107.8933909  94.1777621  36.7169559 107.4478021  93.5484703
  39.6530106 107.6330779  98.1111765  40.4290496 108.1227231  98.3836382
  38.9278240 108.0588833  98.5683635  42.0902665 108.3458398  99.1685706
  42.6847155 108.1054134  98.4579014  42.1629248 107.6265529  99.7959242
  36.2756594 113.1238794  94.6107716  36.2191795 113.5807345  93.7715349
  36.8284936 112.3629478  94.4330559  40.0861400 108.9128526  95.4357836
  39.8298334 108.5125161  96.2666043  39.4614268 109.6272320  95.3107975
  44.3973737 111.6524599  97.9429127  43.8373295 111.7217788  98.7160689
  43.7917241 111.4765584  97.2228623  30.3187498 103.8151684  91.4845564
  30.3066168 104.7593524  91.6413835  31.2110920 103.6321830  91.1905025
  34.1339618 100.4094461  95.7391501  33.3672014  99.8552947  95.8848183
  34.5450323 100.4816330  96.6005652  47.3575669 116.8092514  97.7928929
  47.6634546 115.9489878  97.5054844  48.0828274 117.4010135  97.5927923
  45.0629841 116.6090841  99.2157912  45.3431595 115.9414030  99.8418338
  45.8480448 116.8019936  98.7032575  44.9733372 115.7386378  95.7391501
  44.2065768 115.1844865  95.8848183  45.3844077 115.8108247  96.6005652
   2.6228141  29.5157525  85.2102885   1.8691849  28.9464923  85.0546890
   2.7575682  29.4820190  86.1573520   3.0334556  29.6733135  87.9423130
   3.7637944  29.4118423  88.5030833   2.4241501  28.9361857  87.9825198
   1.1149853  27.8140998  88.5397581   0.3883017  27.6796963  87.9314073
   0.6997140  28.1217826  89.3454299   1.0398721  27.3419051  84.6674434
   0.4798279  27.4112240  85.4405996   0.4342224  27.1660036  83.9473930
   2.6254739  44.0175565  87.3604389   3.2633149  43.8982312  86.6567730
   2.5075582  44.9656409  87.4192342   2.1796008  41.7427019  84.4357597
   2.9659097  41.3246442  84.0848015   2.4434712  42.6473111  84.6039246
   2.3506085  47.1799869  79.1346254   1.7151918  47.2534495  79.8467159
   2.0203491  47.7693468  78.4565334   7.5804435  41.6802252  85.3390576
   8.3129607  41.1101469  85.5728405   6.8243790  41.2923852  85.7797082
   5.1029855  35.3923826  89.7985185   4.7713180  36.2619237  89.5746400
   4.5075468  35.0760110  90.4779215   1.5961375  47.5936372  89.1981097
   1.2962098  48.4961411  89.0896905   1.2512434  47.3268555  90.0502250
   4.9958518  40.1118912  86.8778535   4.0875396  40.0434321  86.5837296
   4.9446114  40.5890857  87.7060360   6.8620165  38.3135351  88.6556409
   6.2194545  38.6067884  88.0096203   6.3575093  38.1988271  89.4609605
   4.5160328  42.0598524  79.3442268   5.4278185  42.2925910  79.1689965
   4.0069976  42.6435568  78.7817346   2.8001096  46.4823152  92.9803560
   3.2084452  46.0405562  92.2358193   2.0778358  45.9075779  93.2337753
   3.1229911  47.0424342  86.7355849   2.4938773  47.2070056  86.0331917
   2.7355573  47.4565952  87.5066813   7.0019143  47.9778780  84.0900213
   6.3170181  48.3577681  83.5397246   7.0862992  48.5874107  84.8232161
   2.3031612  39.0800127  92.0118291   2.0592543  39.8342187  91.4752567
   2.5791542  39.4585474  92.8465538   4.2570074  45.6238739  90.6895557
   4.4686970  46.2670499  90.0129938   4.2099823  44.7901056  90.2217487
   1.8596303  38.2356560  87.5932129   0.9980782  38.5337813  87.8848866
   1.8858738  38.4526959  86.6613161   5.3715902  48.5010694  88.8617914
   6.1933346  48.0990882  88.5800596   5.3678305  48.3978929  89.8134030
  13.4621895  44.8449443  85.2102885  12.7085604  44.2756841  85.0546890
  13.5969436  44.8112107  86.1573520   2.5770238  50.6189212  93.0439348
   2.5588713  51.4398093  92.5519617   3.4990158  50.4943287  93.2689489
   2.2012987  33.2393407  89.4156498   1.8577256  34.1295049  89.3395609
   2.5691949  33.0495065  88.5526083   2.1663270  43.2302018  77.9228933
   1.6509893  44.0006623  78.1617321   1.8940578  42.5567154  78.5461995
   1.2809527  35.6098062  87.3805731   0.7774323  35.5728197  86.5673537
   1.5740134  36.5190805  87.4402388   7.1397544  45.9834373  79.8582107
   6.3626987  45.6445532  79.4137269   7.8189025  45.9886996  79.1837072
   1.9549573  41.1029110  79.7488715   1.6499708  41.4175260  80.5998858
   2.9080015  41.1810530  79.7916048   5.3788851  45.4568354  86.5148715
   4.7212525  46.1467616  86.6028843   6.1829250  45.8464786  86.8582701
   4.1894309  43.8112727  84.5652657   4.7026191  44.4442719  85.0674366
   4.8395533  43.2113922  84.1996017   1.4516684  53.7897051  77.3213328
   0.7778382  54.0928748  77.9298286   1.8382506  54.5926131  76.9718785
   1.4510188  42.6853598  81.9413677   2.1982007  43.1974995  81.6320799
   1.7201778  42.3637651  82.8018071   4.9556106  48.7918728  82.6931799
   4.5018433  47.9509638  82.7496990   4.3250072  49.4280127  83.0306579
   3.8989025  39.7210714  83.9232467   3.1611782  39.2088101  84.2542709
   4.1515799  39.2811096  83.1115744   3.3989045  50.6295225  83.6281617
   3.6912019  51.1900282  82.9093983   3.9087665  50.9223786  84.3834776
   4.0000653  32.4986966  84.5174236   4.3059529  31.6384330  84.2300151
   4.7253257  33.0904587  84.3173230   1.8088304  41.8759644  91.6155700
   2.1637692  42.1031117  92.4750165   2.4560435  42.2078020  90.9932955
   7.5386041  44.9978080  82.3205029   7.4003939  45.1879675  81.3926218
   7.1822260  45.7597462  82.7773080   7.5655420  47.0654607  87.3316300
   7.9991927  46.9729896  88.1799354   8.2787001  47.0412107  86.6936316
   1.2983315  50.6656701  88.8649401   1.3520338  51.2347637  89.6327117
   0.4298097  50.8358586  88.5003438   8.4270970  47.1078307  89.8649186
   8.6206860  48.0124118  90.1108461   8.3271588  46.6485726  90.6987771
   3.4886079  47.2585050  95.4390066   3.3371585  47.0295602  94.5220150
   3.4790758  48.2155651  95.4521411   3.5424154  45.5805264  75.8560768
   2.9253324  44.8552092  75.7593820   3.0740642  46.3414624  75.5127842
   5.1978285  50.2904172  93.5166548   5.1390831  49.6063393  92.8497131
   5.5997804  51.0323162  93.0647174   5.1995693  48.2543756  91.7480528
   4.3122471  47.9169678  91.8706927   5.7694244  47.5226788  91.9849293
   1.8283276  37.9611608  84.8678798   2.3251975  37.2081571  84.5479868
   1.0570257  37.9975925  84.3022007   9.6813033  43.6651974  86.5097089
   9.6702909  44.5476689  86.1391023   8.8130413  43.3123525  86.3151627
   1.1895530  52.8132043  90.8699930   1.9023502  53.4479508  90.7975831
   0.6985558  52.9095909  90.0539932   2.9113056  46.7183295  82.4417221
   1.9769335  46.8384758  82.2721926   3.0889725  45.8155762  82.1777231
   6.2985608  42.5600615  82.9767256   6.7646060  43.3928606  82.9027558
   6.7493108  42.0945596  83.6812514   4.3661839  48.9044436  79.9753408
   4.6421683  48.7901031  80.8847282   3.4966338  48.5061921  79.9365581
   4.2702271  34.9281202  87.0158157   3.3565350  35.1585429  87.1840364
   4.6995372  35.0119646  87.8672189   4.0408729  43.1171094  89.5158051
   3.3880179  43.3647001  88.8610504   4.4189109  42.3035232  89.1820528
   1.0015903  53.1530787  83.6186221   1.1838297  52.3352443  84.0813973
   1.8248889  53.3698479  83.1811111   1.3358068  52.0798972  80.8801270
   1.8645835  51.5691427  80.2671432   1.5986288  51.7641502  81.7446803
   3.6829959  49.9919090  96.0930358   4.2269863  50.6049048  95.5985313
   3.1016804  50.5498668  96.6097371   1.9687472  53.1139808  87.2245386
   1.8438612  52.3129548  86.7156332   2.6266563  53.6086001  86.7359356
   4.0322381  50.9148828  88.8524936   3.0852716  50.7954179  88.7803263
   4.3805154  50.0271326  88.9351198   1.0368814  50.7101544  85.0529288
   0.8893776  49.7818251  85.2336858   1.8622307  50.7321635  84.5686364
   4.6402936  51.5330103  86.1394161   5.5649483  51.3272964  86.0018612
   4.4718239  51.2846504  87.0483503   1.0330328  38.5639382  80.0461406
   1.2493943  39.4464020  79.7450234   0.5524395  38.1725595  79.3167048
   4.4298252  52.0515770  81.4956253   4.6035129  51.4862193  80.7430105
   4.9227143  52.8516665  81.3135743  10.2837643  44.8152193  83.1146552
  10.7268789  44.0659518  82.7165676   9.4064153  44.8062330  82.7320284
   5.4173424  51.3682535  78.5953151   6.1124329  51.9889227  78.8140466
   5.7596575  50.5177886  78.8705529   7.3164848  48.8182240  80.1240482
   7.8416172  49.1569513  79.3989802   7.2287200  47.8829255  79.9403616
   7.0058754  49.4515144  95.4291680   6.2154297  49.4339283  94.8896179
   6.7692108  49.9903437  96.1840716   7.1256629  46.3007610  92.7424408
   7.1754634  46.1357618  93.6839931   7.0170552  45.4334869  92.3522289
   4.4160391  42.2838538  94.0583715   5.3170254  42.1445003  93.7667713
   4.4908366  42.4492993  94.9981892   8.6274825  48.7204552  92.9866430
   8.3359634  49.0834532  93.8229891   8.0146957  48.0071560  92.8079762
   9.8270508  46.2857431  85.5069000  10.6617399  46.7247236  85.6706560
   9.9629637  45.8096085  84.6877246   6.8762014  43.8437166  91.4546488
   7.3516135  44.0364813  90.6465339   5.9527579  43.8996352  91.2089871
   1.4542230  35.8785010  90.4202322   1.9724174  36.6146037  90.0948810
   1.0997363  36.1849003  91.2549081   1.7054824  32.2985292  85.9403218
   1.9856578  31.6308481  86.5663645   2.4905431  32.4914388  85.4277882
   5.5763683  40.7202926  89.6874793   6.5281106  40.8201024  89.7087017
   5.4067133  39.9281195  90.1972878   3.5978062  37.8058510  89.8734194
   3.0027994  38.0863522  89.1780683   3.3127759  38.2952411  90.6450935
   2.7285553  51.7581436  78.6336827   3.6616226  51.6926998  78.8369702
   2.6408765  52.5937703  78.1751359   5.3573569  51.0747307  75.5940774
   5.2787201  50.7407170  76.4876532   6.1783236  51.5669075  75.5932247
   8.0551761  43.9409046  88.8017093   8.0228081  43.0025047  88.9876777
   8.6652384  44.0193083  88.0682918   8.2046249  40.7320090  88.8475376
   7.6885298  39.9478546  88.6605305   9.0886198  40.4038806  89.0121896
   5.8656976  34.4761105  84.8071189   5.6681797  34.1676193  85.6914521
   6.4756681  35.2022744  84.9369119  13.8728310  45.0025053  87.9423130
  14.6031699  44.7410341  88.5030833  13.2635256  44.2653775  87.9825198
  11.9543607  43.1432916  88.5397581  11.2276771  43.0088880  87.9314073
  11.5390894  43.4509744  89.3454299   1.6230623  34.3570012  82.5567720
   2.1761661  34.7765465  83.2157743   1.8600709  33.4305760  82.5990676
   5.0009430  36.4670537  82.0646384   4.4208099  37.1255341  81.6824437
   4.7345362  35.6447882  81.6533802   3.4512996  35.8675595  84.2667705
   3.9512774  35.9792129  83.4582024   4.0948604  35.5636648  84.9068513
   3.7834308  38.6270628  81.1202733   2.8960163  38.9120278  80.9022927
   4.1988297  38.4664391  80.2730010   7.1348844  38.6517148  84.8357072
   7.9109234  39.1413601  85.1081689   6.4096978  39.0775203  85.2928941
   9.5721402  39.3644768  85.8931013  10.1665893  39.1240504  85.1824321
   9.6447986  38.6451898  86.5204549   2.9277521  48.3915302  75.2150753
   3.6313371  48.5965305  75.8308408   2.2040170  48.9592064  75.4799836
   3.7575331  44.1425163  81.3353023   3.7010533  44.5993715  80.4960655
   4.3103674  43.3815848  81.1575866   7.5680137  39.9314895  82.1603142
   7.3117072  39.5311531  82.9911350   6.9433005  40.6458689  82.0353281
  11.8792475  42.6710969  84.6674434  11.3192033  42.7404158  85.4405996
  11.2735979  42.4951953  83.9473930   4.8364219  48.8297831  77.2649213
   5.6709822  48.3979030  77.0826688   4.6748561  48.6579845  78.1926107
   4.4910111  45.3329945  78.6305552   4.4358914  45.1674216  77.6893996
   3.8656166  46.0405978  78.7867742   1.8056018  47.6378857  97.9559115
   2.6747178  47.8119509  97.5945750   1.3262769  48.4573273  97.8334844
   1.6158356  31.4280830  82.4636807   0.8490751  30.8739317  82.6093490
   2.0269061  31.5002699  83.3250959  13.4648494  59.3467483  87.3604389
  14.1026904  59.2274230  86.6567730  13.3469336  60.2948326  87.4192342
  10.2738200  59.2994911  87.2965914   9.9356711  59.1835975  86.4086449
  11.1427968  58.8986076  87.2766920   6.1325016  61.1530387  83.2862805
   5.5689881  61.0620324  82.5179093   6.0177411  60.3330291  83.7665298
  10.7557983  60.4529762  93.2552120  10.7446624  60.0582561  92.3832623
  10.9178622  59.7195835  93.8485891   3.6789448  62.6481579  86.1247026
   4.4710739  62.3072403  85.7093325   3.9186098  62.7576554  87.0449179
  11.7124574  64.8201355  78.5977270  11.0612554  65.4055435  78.2111284
  12.5068937  65.3507550  78.6572307   5.6380201  61.9090492  78.9964404
   6.4111077  61.3619479  78.8577280   5.9905600  62.7734741  79.2078866
   7.4765244  63.2366874  92.2031304   7.1855110  64.1412505  92.0877970
   8.1122228  63.2783402  92.9175373   8.4021451  60.6143723  88.7932663
   8.9985023  60.3899745  88.0789626   8.4596422  59.8728468  89.3958111
   7.9746479  58.0683158  76.6282854   8.2272000  57.5464679  75.8666317
   7.0371038  57.9049303  76.7309538  13.0189762  57.0718936  84.4357597
  13.8052851  56.6538360  84.0848015  13.2828466  57.9765029  84.6039246
  13.1899839  62.5091787  79.1346254  12.5545672  62.5826413  79.8467159
  12.8597246  63.0985385  78.4565334  18.4198189  57.0094170  85.3390576
  19.1523361  56.4393386  85.5728405  17.6637545  56.6215770  85.7797082
   7.6942768  59.9711264  78.8307229   7.5779026  59.2956167  79.4988314
   7.8045028  59.4843638  78.0139382  10.0374309  59.4321411  82.5353918
   9.6732516  58.9052032  83.2466840  10.8941425  59.0419880  82.3620404
  15.9423610  50.7215744  89.7985185  15.6106934  51.5911155  89.5746400
  15.3469223  50.4052028  90.4779215   9.6779796  54.4611311  77.5315267
   9.8454198  55.3291547  77.8985738   9.4876965  54.6238592  76.6076556
  12.4355129  62.9228290  89.1981097  12.1355852  63.8253328  89.0896905
  12.0906189  62.6560473  90.0502250   5.8867611  59.3742086  85.2317802
   4.9618107  59.2418301  85.4395494   6.1352024  60.1536306  85.7287744
  15.8352273  55.4410830  86.8778535  14.9269150  55.3726238  86.5837296
  15.7839869  55.9182775  87.7060360   9.6569017  56.9168968  78.5161934
   9.5368642  57.3626019  79.3547414   8.9621605  57.2654286  77.9575472
   3.2476422  59.0175360  86.0661591   3.3768803  59.2709839  86.9801003
   2.5673873  59.6103068  85.7466246   7.4175909  69.6872610  82.1652065
   7.3399939  70.6380435  82.2440546   6.8137552  69.3418482  82.8226991
   9.9093139  56.8600475  94.8213432   9.1326473  57.4194396  94.8116297
  10.5483702  57.3457258  95.3428302  17.7013919  53.6427268  88.6556409
  17.0588300  53.9359801  88.0096203  17.1968848  53.5280189  89.4609605
  15.3554083  57.3890441  79.3442268  16.2671939  57.6217828  79.1689965
  14.8463730  57.9727486  78.7817346   8.1639511  59.6685929  94.3831399
   8.9054195  60.2070973  94.1066223   7.4576496  60.2952218  94.5402951
  13.6394851  61.8115069  92.9803560  14.0478207  61.3697480  92.2358193
  12.9172112  61.2367697  93.2337753   9.9925921  56.7487676  90.3537117
  10.8387116  57.1727090  90.4971766   9.9324558  56.0921300  91.0475680
  13.9623665  62.3716260  86.7355849  13.3332528  62.5361974  86.0331917
  13.5749327  62.7857869  87.5066813  17.8412897  63.3070698  84.0900213
  17.1563935  63.6869599  83.5397246  17.9256746  63.9166024  84.8232161
  13.1425366  54.4092044  92.0118291  12.8986298  55.1634105  91.4752567
  13.4185297  54.7877392  92.8465538  15.0963829  60.9530657  90.6895557
  15.3080724  61.5962417  90.0129938  15.0493577  60.1192973  90.2217487
  12.6990058  53.5648477  87.5932129  11.8374537  53.8629731  87.8848866
  12.7252492  53.7818876  86.6613161   9.5151627  62.1090668  84.0005934
   9.9789973  62.3878371  83.2110557   9.2508425  61.2074113  83.8179025
   6.4075708  61.6562150  86.9385698   6.9777065  62.0849418  86.3003182
   6.9983820  61.3744734  87.6369883   8.4520513  58.2313820  80.8095500
   9.1544557  58.6834864  81.2769426   8.1201142  57.5897639  81.4375393
   6.9000875  56.8225577  95.1846709   6.2699535  57.5041858  95.4182106
   6.7936963  56.7108659  94.2399847   2.1945847  56.4897373  86.1112633
   1.4044901  56.7454902  85.6352744   2.6857095  57.3045711  86.2164674
  16.2109657  63.8302612  88.8617914  17.0327100  63.4282799  88.5800596
  16.2072060  63.7270846  89.8134030   4.1460593  56.8541952  83.0696110
   3.3491756  56.9660646  83.5879605   3.9186185  57.1928604  82.2037000
   9.9766260  63.3786655  91.0178624  10.0410693  63.8407063  91.8536796
   9.2677184  62.7484020  91.1460934   0.4783550  56.7427863  88.5427624
   0.7291589  57.6274873  88.8085200   1.0143099  56.5632465  87.7702716
  24.3015650  60.1741361  85.2102885  23.5479358  59.6048759  85.0546890
  24.4363191  60.1404025  86.1573520   9.6914278  65.0454763  80.8857605
   9.5559953  65.8906299  81.3142453  10.2324090  65.2474041  80.1223539
   6.1781617  51.1246343  97.5471960   5.7848563  50.5712541  98.2219604
   6.9947758  51.4356921  97.9378478   3.1443675  62.5630201  81.4585530
   3.6568196  63.3573451  81.6091095   3.7966388  61.8656491  81.3919131
   4.9538560  65.6795957  83.5408283   5.1305188  66.6013922  83.3529267
   5.7495393  65.3654376  83.9702663   9.0949578  52.5404222  95.1392217
   9.8359292  53.1411375  95.0596679   9.3267501  51.7981860  94.5810259
   4.2390916  57.7260589  93.4170446   4.1244432  56.8245846  93.7177545
   3.3835434  57.9724286  93.0655263  11.3182754  65.6678329  95.0157947
  10.8746608  64.8814708  94.6978851  11.9799968  65.8557480  94.3501838
   6.0769875  67.1974131  89.5418625   6.6277300  67.0691194  88.7695619
   5.2381351  67.4969020  89.1913518  13.4163992  65.9481129  93.0439348
  13.3982468  66.7690010  92.5519617  14.3383912  65.8235205  93.2689489
   9.8737046  63.4625259  93.8862856  10.4065383  62.7013547  93.6562164
   9.3451128  63.1698911  94.6287011  13.0406741  48.5685325  89.4156498
  12.6971011  49.4586967  89.3395609  13.4085704  48.3786982  88.5526083
   1.1092592  60.8918855  82.2345100   1.9467814  61.3015864  82.0178808
   1.2870860  59.9518297  82.2045294  13.0057024  58.5593936  77.9228933
  12.4903648  59.3298541  78.1617321  12.7334333  57.8859072  78.5461995
  10.5904135  53.4043637  82.9814172   9.7345731  53.0150487  82.8019810
  11.0031087  53.4835598  82.1213957  12.1203282  50.9389980  87.3805731
  11.6168077  50.9020115  86.5673537  12.4133889  51.8482723  87.4402388
   8.3646168  51.0228710  86.3871913   9.2299164  50.8271518  86.0277803
   8.4323677  50.7939061  87.3141270  17.9791298  61.3126291  79.8582107
  17.2020741  60.9737450  79.4137269  18.6582779  61.3178914  79.1837072
  12.7943327  56.4321028  79.7488715  12.4893463  56.7467177  80.5998858
  13.7473769  56.5102448  79.7916048  11.2389759  62.5911251  81.3981668
  10.7111121  61.8564011  81.0854906  10.7377262  63.3685928  81.1521637
  16.2182605  60.7860272  86.5148715  15.5606280  61.4759533  86.6028843
  17.0223004  61.1756704  86.8582701   5.9708487  53.2530918  83.7588280
   6.5452239  53.0306099  83.0261473   6.5579469  53.3219612  84.5116881
  15.0288064  59.1404645  84.5652657  15.5419946  59.7734636  85.0674366
  15.6789288  58.5405840  84.1996017   6.2978074  55.2835379  77.7784165
   5.4615386  55.6210065  78.0993440   6.1582843  55.1484358  76.8411302
   8.2731154  50.1272167  82.4863349   7.6195567  49.8121184  81.8619964
   8.2311629  49.5047907  83.2123172   9.3842359  60.4091462  74.4016642
   8.4769421  60.1780715  74.6007791   9.8813391  59.6129081  74.5890623
  12.2910438  69.1188969  77.3213328  11.6172137  69.4220666  77.9298286
  12.6776260  69.9218049  76.9718785  11.5068895  56.6154100  86.8110997
  10.5891456  56.8369047  86.6532685  11.9229038  56.6900411  85.9522704
  12.2903943  58.0145516  81.9413677  13.0375762  58.5266913  81.6320799
  12.5595532  57.6929568  82.8018071  10.5630593  60.5104056  78.9240632
   9.6541812  60.2263089  79.0213101  10.5925677  60.9303135  78.0643938
  15.7949860  64.1210646  82.6931799  15.3412187  63.2801556  82.7496990
  15.1643827  64.7572044  83.0306579  14.7382780  55.0502632  83.9232467
  14.0005537  54.5380018  84.2542709  14.9909553  54.6103014  83.1115744
  14.2382799  65.9587143  83.6281617  14.5305774  66.5192200  82.9093983
  14.7481420  66.2515704  84.3834776  14.8394407  47.8278884  84.5174236
  15.1453284  46.9676247  84.2300151  15.5647012  48.4196504  84.3173230
   1.1318763  58.2309571  82.9055834   0.9343163  57.6378931  82.1806900
   0.5765427  57.9261781  83.6231773   9.1115487  58.1232677  85.0250427
   9.1664097  57.1706513  84.9492904   8.3006689  58.2792116  85.5091725
  10.2606681  62.0512800  76.2628710   9.8226110  61.3348659  75.8034348
  11.0017121  62.2788915  75.7013802   7.0507847  56.7409737  82.7840806
   6.2375712  57.0403907  83.1905998   7.5466841  56.3465426  83.5015288
   9.2016425  66.7367494  84.7175071   9.1592603  66.9628340  83.7883603
  10.1179123  66.5030868  84.8660872  12.6482058  57.2051561  91.6155700
  13.0031446  57.4323034  92.4750165  13.2954190  57.5369938  90.9932955
  18.3779795  60.3269997  82.3205029  18.2397694  60.5171593  81.3926218
  18.0216014  61.0889380  82.7773080   6.5421921  54.3128092  88.4002041
   7.1821301  54.1716851  87.7025004   5.7099452  54.0262606  88.0240643
  18.4049175  62.3946524  87.3316300  18.8385682  62.3021813  88.1799354
  19.1180756  62.3704025  86.6936316   7.3182225  63.6130523  84.5137033
   8.1122824  63.1180843  84.3119608   6.6073918  63.0848386  84.1504739
  12.1377070  65.9948618  88.8649401  12.1914092  66.5639555  89.6327117
  11.2691851  66.1650503  88.5003438   3.6264989  57.7573605  80.5896786
   2.6962577  57.6958060  80.8066748   3.7222461  57.2349557  79.7933427
   3.5450538  54.2828417  83.1775028   3.8057355  55.1973751  83.0684188
   4.3667710  53.8152860  83.3271640   5.0175463  55.6966175  90.3473852
   5.6898517  55.4883537  89.6986501   4.1905250  55.4988261  89.9079084
  19.2664724  62.4370225  89.8649186  19.4600615  63.3416035  90.1108461
  19.1665343  61.9777644  90.6987771  10.9201035  52.3228115  92.3639513
  10.2728950  53.0218065  92.2703989  11.6902051  52.7564259  92.7315761
  14.3279833  62.5876968  95.4390066  14.1765340  62.3587519  94.5220150
  14.3184513  63.5447569  95.4521411  11.0965170  60.1608880  90.4236333
  12.0257230  60.3120040  90.2505300  10.6756200  60.2492901  89.5684979
   9.8953501  64.1859545  88.1934870   9.7564587  63.8178329  89.0660808
   9.1068098  64.7007184  88.0218828  10.4901653  69.2868641  79.5360407
  10.6653409  68.8156684  80.3506030   9.8034441  69.9134407  79.7641668
  11.4458717  63.5641147  85.5823708  11.1108549  63.5241917  86.4781358
  10.9462662  62.8985863  85.1094118   5.4202960  58.9708777  91.1076289
   5.2822758  58.2389016  91.7087828   6.3307884  58.8817678  90.8260477
  14.3817908  60.9097182  75.8560768  13.7647079  60.1844010  75.7593820
  13.9134397  61.6706542  75.5127842   8.0485261  58.6828737  90.5959969
   8.7584880  58.0421929  90.5546587   8.0054569  58.9341632  91.5186150
  16.0372040  65.6196090  93.5166548  15.9784586  64.9355310  92.8497131
  16.4391558  66.3615080  93.0647174   6.7614195  55.6693955  92.4155608
   6.2251552  55.2184693  93.0677205   6.1730904  55.8039864  91.6726073
   5.0562739  72.4358004  86.3100267   5.2959337  73.0676528  86.9879286
   4.2131935  72.0846044  86.5965626   6.1716454  55.1282606  74.9782072
   5.2945920  55.0071407  74.6144319   6.6474207  54.3368684  74.7260961
  16.0389447  63.5835674  91.7480528  15.1516226  63.2461596  91.8706927
  16.6087998  62.8518705  91.9849293   2.4953316  54.8049962  89.5008603
   2.4111505  54.1975632  88.7659013   1.6736023  55.2958981  89.5018099
   9.5690600  68.2437126  88.7141771   9.4960772  69.0492098  89.2261076
   9.1267994  68.4429092  87.8889792   9.3580380  67.4808896  82.2244593
   8.5747902  68.0230577  82.3182817  10.0573125  67.9982876  82.6238834
  12.6677030  53.2903526  84.8678798  13.1645730  52.5373488  84.5479868
  11.8964012  53.3267843  84.3022007  20.5206788  58.9943891  86.5097089
  20.5096664  59.8768607  86.1391023  19.6524167  58.6415442  86.3151627
  12.0289284  68.1423960  90.8699930  12.7417256  68.7771425  90.7975831
  11.5379313  68.2387826  90.0539932  13.7506811  62.0475213  82.4417221
  12.8163090  62.1676676  82.2721926  13.9283479  61.1447680  82.1777231
   9.2511999  55.4320909  84.5950483   8.8809786  54.8791949  85.2831388
   9.7471091  54.8279042  84.0425483  17.1379362  57.8892532  82.9767256
  17.6039814  58.7220524  82.9027558  17.5886863  57.4237514  83.6812514
   7.0801198  65.8918404  91.6905501   7.7810657  66.5254887  91.8434895
   6.6096313  66.2333135  90.9301140  15.2055593  64.2336354  79.9753408
  15.4815437  64.1192948  80.8847282  14.3360092  63.8353839  79.9365581
  15.1096025  50.2573119  87.0158157  14.1959105  50.4877346  87.1840364
  15.5389126  50.3411563  87.8672189  14.8802484  58.4463011  89.5158051
  14.2273934  58.6938919  88.8610504  15.2582863  57.6327150  89.1820528
  11.8409657  68.4822705  83.6186221  12.0232052  67.6644360  84.0813973
  12.6642643  68.6990397  83.1811111  12.1751823  67.4090890  80.8801270
  12.7039589  66.8983344  80.2671432  12.4380042  67.0933420  81.7446803
  10.9290057  59.1882822  96.0024088  10.2530694  59.0876952  96.6726463
  11.7517690  59.0322036  96.4660085   2.6768916  65.4254759  88.6236603
   3.2622352  64.6798447  88.7564507   2.4793754  65.7358716  89.5073267
   5.5307571  68.4606006  83.6399046   4.8617946  68.9452134  83.1563086
   5.3920441  68.7075227  84.5542424   9.6712839  70.4949750  90.2381704
  10.2231147  70.6581371  91.0030789  10.0119033  71.0854188  89.5661729
   4.6477333  52.8424900  90.8403589   4.7118659  53.7039731  90.4280986
   4.5844453  52.2298901  90.1075947   4.1229605  54.9148032  94.4876623
   4.7501644  54.5325110  95.1014147   3.2657524  54.6962234  94.8532315
  14.5223714  65.3211007  96.0930358  15.0663618  65.9340966  95.5985313
  13.9410559  65.8790586  96.6097371  12.8081227  68.4431725  87.2245386
  12.6832366  67.6421465  86.7156332  13.4660318  68.9377919  86.7359356
   4.4289395  54.7980458  86.4022526   3.7075981  55.4116426  86.2630000
   5.2182651  55.3338223  86.3239172  14.8716135  66.2440746  88.8524936
  13.9246471  66.1246097  88.7803263  15.2198908  65.3563244  88.9351198
   7.2315708  52.1334884  92.6763178   7.7550110  52.3797181  93.4389487
   7.0128042  52.9654919  92.2566315   2.6282989  54.4038559  80.5434303
   2.2995696  53.5235938  80.3609409   2.9822360  54.3486228  81.4310692
  11.8762568  66.0393462  85.0529288  11.7287531  65.1110169  85.2336858
  12.7016062  66.0613552  84.5686364   5.7424813  54.6911529  80.9109781
   6.0820885  55.2197450  80.1888389   6.1896933  55.0291935  81.6868347
  15.4796690  66.8622020  86.1394161  16.4043238  66.6564882  86.0018612
  15.3111994  66.6138422  87.0483503   8.4368253  53.0748580  90.3612849
   8.0965074  52.2756393  90.7633528   7.7307260  53.3750290  89.7889682
   9.0884725  50.1597892  88.8140172   9.9110795  49.6858370  88.6919062
   9.3322789  50.9388376  89.3138858   7.7292960  53.1886150  79.1103073
   8.4501322  53.5667403  78.6066790   7.1058264  53.9075027  79.2138051
  11.8724083  53.8931299  80.0461406  12.0887697  54.7755937  79.7450234
  11.3918150  53.5017513  79.3167048   6.6123304  56.8517013  86.6232150
   6.4667885  57.1657316  87.5156432   6.1348508  57.4701913  86.0703049
   8.4719687  53.8419561  86.6713040   8.4581256  52.9460654  86.3345338
   9.1892115  53.8490224  87.3051326  10.3245818  54.2756901  88.7166167
  10.0663595  55.1973971  88.7150498   9.7930858  53.8787335  89.4066631
  15.2692006  67.3807688  81.4956253  15.4428884  66.8154110  80.7430105
  15.7620898  68.1808583  81.3135743   1.0868966  59.3922357  89.5619811
   0.5422434  60.1682165  89.6940086   1.9648316  59.7393161  89.4038933
   7.8756583  52.7233941  81.9400610   7.9972494  51.7950587  82.1391497
   7.5858625  52.7372627  81.0278925  10.7447773  50.4088851  85.0767330
  10.7669470  50.4728184  84.1219309  11.1615832  49.5693360  85.2707836
  21.1231398  60.1444111  83.1146552  21.5662544  59.3951436  82.7165676
  20.2457908  60.1354247  82.7320284  16.2567179  66.6974452  78.5953151
  16.9518084  67.3181145  78.8140466  16.5990329  65.8469804  78.8705529
   1.8734988  58.5192253  92.4549968   1.1316724  58.6674889  93.0414599
   1.5527732  58.7800519  91.5916718  18.1558602  64.1474158  80.1240482
  18.6809926  64.4861431  79.3989802  18.0680955  63.2121173  79.9403616
   9.8178651  68.0608231  92.2530358  10.1265777  67.8157378  93.1253058
  10.6154133  68.2654870  91.7649229   9.8399263  70.2146141  84.4835735
   9.4004253  69.7222520  85.1768592  10.5907380  69.6719109  84.2427810
   2.3191602  66.4057682  84.4860363   3.1449622  66.1061454  84.1059006
   1.9685654  65.6365304  84.9350152   7.2873135  65.7584150  86.5558037
   6.6653144  65.0954855  86.2560264   7.9578002  65.7845282  85.8731684
   7.3597662  54.2365938  96.1490543   7.4085818  55.1128061  95.7668312
   7.9020177  53.6943331  95.5762186  17.8452508  64.7807061  95.4291680
  17.0548052  64.7631200  94.8896179  17.6085863  65.3195355  96.1840716
  17.9650383  61.6299528  92.7424408  18.0148388  61.4649535  93.6839931
  17.8564306  60.7626787  92.3522289   6.8486642  64.3088074  80.0316497
   6.9974762  64.9923538  79.3783170   7.6553085  64.2893164  80.5465953
  15.2554146  57.6130456  94.0583715  16.1564008  57.4736921  93.7667713
  15.3302120  57.7784911  94.9981892   9.5896951  54.9897311  92.9036901
   8.7200260  55.2830877  92.6319490   9.8256431  55.5737756  93.6244165
  19.4668580  64.0496469  92.9866430  19.1753388  64.4126450  93.8229891
  18.8540711  63.3363478  92.8079762  20.6664262  61.6149349  85.5069000
  21.5011154  62.0539153  85.6706560  20.8023391  61.1388002  84.6877246
  17.7155768  59.1729084  91.4546488  18.1909890  59.3656730  90.6465339
  16.7921334  59.2288270  91.2089871   4.6039275  60.3353251  81.0377566
   4.3585317  59.4315581  81.2357776   4.7735189  60.3370402  80.0957044
  12.2935985  51.2076928  90.4202322  12.8117929  51.9437954  90.0948810
  11.9391117  51.5140921  91.2549081   3.8734922  56.0681609  78.5363727
   3.1804167  56.1425964  77.8803763   3.6286674  55.3041952  79.0585244
  12.5448579  47.6277210  85.9403218  12.8250333  46.9600399  86.5663645
  13.3299186  47.8206306  85.4277882  10.3482047  66.8036204  77.5028244
   9.7756014  67.4226391  77.0498716  10.9214841  67.3535566  78.0368166
  16.4157437  56.0494844  89.6874793  17.3674860  56.1492942  89.7087017
  16.2460888  55.2573113  90.1972878  14.4371817  53.1350427  89.8734194
  13.8421749  53.4155440  89.1780683  14.1521513  53.6244328  90.6450935
  13.5679307  67.0873354  78.6336827  14.5009980  67.0218916  78.8369702
  13.4802520  67.9229621  78.1751359  16.1967324  66.4039224  75.5940774
  16.1180955  66.0699088  76.4876532  17.0176991  66.8960992  75.5932247
  18.8945515  59.2700964  88.8017093  18.8621835  58.3316964  88.9876777
  19.5046139  59.3485000  88.0682918  10.7328846  58.1397017  74.8444297
  11.6787951  58.0103225  74.9132715  10.3543091  57.4011679  75.3213725
  19.0440003  56.0612007  88.8475376  18.5279052  55.2770464  88.6605305
  19.9279952  55.7330724  89.0121896  16.7050730  49.8053023  84.8071189
  16.5075552  49.4968111  85.6914521  17.3150436  50.5314662  84.9369119
  24.7122065  60.3316971  87.9423130  25.4425453  60.0702259  88.5030833
  24.1029010  59.5945693  87.9825198  22.7937362  58.4724833  88.5397581
  22.0670526  58.3380798  87.9314073  22.3784649  58.7801662  89.3454299
  10.6167538  62.1914763  96.3044954  11.5370548  62.3693362  96.4985000
  10.5817121  61.2470808  96.1524653   8.9171763  56.0646993  74.7799182
   8.0103218  55.7680106  74.8561896   9.1947744  55.7676811  73.9133468
   3.6129611  60.1015798  88.9467735   3.8315621  61.0332905  88.9655769
   4.0255385  59.7423772  89.7322539  10.5333829  50.6083883  80.9343424
   9.7234557  50.2630968  81.3098670  11.2218246  50.2991427  81.5231035
  12.4624377  49.6861930  82.5567720  13.0155416  50.1057383  83.2157743
  12.6994463  48.7597678  82.5990676   8.4857476  55.6749003  98.3370484
   8.3854203  56.6243360  98.2682575   8.2679018  55.3467242  97.4646554
   7.6870548  52.9233928  74.9211161   8.5489712  53.2488827  75.1806979
   7.8720892  52.1365424  74.4084227  15.8403184  51.7962455  82.0646384
  15.2601853  52.4547259  81.6824437  15.5739117  50.9739799  81.6533802
  14.2906750  51.1967513  84.2667705  14.7906529  51.3084047  83.4582024
  14.9342358  50.8928565  84.9068513   8.3488746  59.1046142  97.1535546
   7.8655828  59.9046502  97.3599435   8.4349685  59.1154087  96.2002990
   1.6174706  60.9374522  85.0757365   1.5945394  61.0362209  84.1239248
   1.9275342  61.7839673  85.3974531   4.2762084  62.9950677  89.1903979
   5.2305337  62.9634619  89.1233911   4.0774607  62.5341301  90.0054205
   4.8661466  61.5651793  91.7574777   5.6854355  62.0595872  91.7809614
   5.1398274  60.6483761  91.7292345  14.6228062  53.9562545  81.1202733
  13.7353917  54.2412196  80.9022927  15.0382051  53.7956309  80.2730010
  17.9742598  53.9809066  84.8357072  18.7502988  54.4705519  85.1081689
  17.2490732  54.4067120  85.2928941  20.4115157  54.6936685  85.8931013
  21.0059648  54.4532421  85.1824321  20.4841741  53.9743816  86.5204549
   2.6312313  68.5370296  86.2074177   2.4966781  67.7770697  85.6412175
   2.2144375  69.2611196  85.7402966  13.7671276  63.7207220  75.2150753
  14.4707126  63.9257222  75.8308408  13.0433924  64.2883982  75.4799836
  14.5969086  59.4717081  81.3353023  14.5404287  59.9285633  80.4960655
  15.1497428  58.7107766  81.1575866  18.4073892  55.2606813  82.1603142
  18.1510826  54.8603449  82.9911350  17.7826760  55.9750607  82.0353281
  22.7186230  58.0002886  84.6674434  22.1585788  58.0696076  85.4405996
  22.1129733  57.8243871  83.9473930   5.7881438  69.4339613  86.4192620
   5.6713823  70.3785046  86.3171310   4.9673885  69.1313175  86.8078419
  15.6757973  64.1589749  77.2649213  16.5103577  63.7270948  77.0826688
  15.5142316  63.9871763  78.1926107  15.3303865  60.6621862  78.6305552
  15.2752669  60.4966134  77.6893996  14.7049920  61.3697895  78.7867742
  12.6449772  62.9670774  97.9559115  13.5140932  63.1411427  97.5945750
  12.1656524  63.7865191  97.8334844   8.6399991  50.1629971  78.2090870
   8.6278660  51.1071811  78.3659141   9.5323413  49.9800117  77.9150332
   6.8135953  70.0867875  89.6348548   7.7163199  70.1191486  89.9515043
   6.5873323  69.1568326  89.6494884   8.5689555  68.8398862  86.2958627
   7.6185186  68.8400723  86.1822999   8.8722041  68.0931596  85.7794662
  12.4552110  46.7572748  82.4636807  11.6884506  46.2031235  82.6093490
  12.8662815  46.8294617  83.3250959   4.4593871  53.0457544  96.5541988
   5.3225333  52.6894349  96.7645313   3.8859282  52.7071439  97.2417393
  24.3042248  74.6759400  87.3604389  24.9420658  74.5566148  86.6567730
  24.1863091  75.6240244  87.4192342  21.1131954  74.6286828  87.2965914
  20.7750466  74.5127893  86.4086449  21.9821723  74.2277993  87.2766920
  16.9718770  76.4822305  83.2862805  16.4083635  76.3912242  82.5179093
  16.8571165  75.6622209  83.7665298  21.5951737  75.7821680  93.2552120
  21.5840378  75.3874478  92.3832623  21.7572377  75.0487753  93.8485891
  14.5183202  77.9773496  86.1247026  15.3104494  77.6364321  85.7093325
  14.7579852  78.0868471  87.0449179  22.5518329  80.1493272  78.5977270
  21.9006309  80.7347353  78.2111284  23.3462692  80.6799467  78.6572307
  16.4773956  77.2382410  78.9964404  17.2504832  76.6911397  78.8577280
  16.8299355  78.1026659  79.2078866  18.3158999  78.5658792  92.2031304
  18.0248864  79.4704423  92.0877970  18.9515983  78.6075319  92.9175373
  19.2415205  75.9435640  88.7932663  19.8378778  75.7191663  88.0789626
  19.2990177  75.2020386  89.3958111  18.8140234  73.3975076  76.6282854
  19.0665754  72.8756597  75.8666317  17.8764793  73.2341221  76.7309538
  23.8583517  72.4010854  84.4357597  24.6446606  71.9830277  84.0848015
  24.1222221  73.3056946  84.6039246  24.0293594  77.8383704  79.1346254
  23.3939427  77.9118331  79.8467159  23.6991000  78.4277303  78.4565334
  29.2591944  72.3386087  85.3390576  29.9917116  71.7685304  85.5728405
  28.5031299  71.9507688  85.7797082  18.5336523  75.3003182  78.8307229
  18.4172781  74.6248085  79.4988314  18.6438782  74.8135556  78.0139382
  20.8768063  74.7613329  82.5353918  20.5126271  74.2343950  83.2466840
  21.7335179  74.3711798  82.3620404  26.7817364  66.0507661  89.7985185
  26.4500689  66.9203072  89.5746400  26.1862977  65.7343945  90.4779215
  20.5173550  69.7903228  77.5315267  20.6847953  70.6583465  77.8985738
  20.3270719  69.9530510  76.6076556  23.2748884  78.2520207  89.1981097
  22.9749607  79.1545246  89.0896905  22.9299943  77.9852391  90.0502250
  16.7261365  74.7034004  85.2317802  15.8011862  74.5710218  85.4395494
  16.9745778  75.4828223  85.7287744  26.6746027  70.7702748  86.8778535
  25.7662905  70.7018156  86.5837296  26.6233623  71.2474692  87.7060360
  20.4962771  72.2460886  78.5161934  20.3762396  72.6917937  79.3547414
  19.8015360  72.5946204  77.9575472  14.0870176  74.3467278  86.0661591
  14.2162557  74.6001757  86.9801003  13.4067627  74.9394986  85.7466246
  18.2569663  85.0164528  82.1652065  18.1793693  85.9672353  82.2440546
  17.6531307  84.6710400  82.8226991  20.7486893  72.1892393  94.8213432
  19.9720227  72.7486313  94.8116297  21.3877456  72.6749176  95.3428302
  28.5407674  68.9719186  88.6556409  27.8982054  69.2651719  88.0096203
  28.0362602  68.8572106  89.4609605  26.1947837  72.7182359  79.3442268
  27.1065694  72.9509746  79.1689965  25.6857485  73.3019403  78.7817346
  19.0033265  74.9977846  94.3831399  19.7447950  75.5362890  94.1066223
  18.2970251  75.6244135  94.5402951  24.4788605  77.1406987  92.9803560
  24.8871961  76.6989397  92.2358193  23.7565867  76.5659614  93.2337753
  20.8319675  72.0779594  90.3537117  21.6780870  72.5019007  90.4971766
  20.7718313  71.4213218  91.0475680  24.8017420  77.7008178  86.7355849
  24.1726282  77.8653892  86.0331917  24.4143082  78.1149787  87.5066813
  28.6806652  78.6362615  84.0900213  27.9957690  79.0161517  83.5397246
  28.7650501  79.2457942  84.8232161  23.9819120  69.7383962  92.0118291
  23.7380052  70.4926023  91.4752567  24.2579051  70.1169310  92.8465538
  25.9357583  76.2822574  90.6895557  26.1474478  76.9254334  90.0129938
  25.8887332  75.4484891  90.2217487  23.5383812  68.8940395  87.5932129
  22.6768291  69.1921649  87.8848866  23.5646247  69.1110794  86.6613161
  20.3545382  77.4382586  84.0005934  20.8183727  77.7170289  83.2110557
  20.0902180  76.5366030  83.8179025  17.2469463  76.9854067  86.9385698
  17.8170820  77.4141336  86.3003182  17.8377575  76.7036652  87.6369883
  19.2914268  73.5605738  80.8095500  19.9938311  74.0126782  81.2769426
  18.9594896  72.9189557  81.4375393  17.7394629  72.1517495  95.1846709
  17.1093290  72.8333775  95.4182106  17.6330717  72.0400576  94.2399847
  13.0339602  71.8189291  86.1112633  12.2438656  72.0746819  85.6352744
  13.5250849  72.6337629  86.2164674  27.0503411  79.1594530  88.8617914
  27.8720855  78.7574717  88.5800596  27.0465814  79.0562764  89.8134030
  14.9854347  72.1833870  83.0696110  14.1885510  72.2952564  83.5879605
  14.7579939  72.5220522  82.2037000  20.8160015  78.7078573  91.0178624
  20.8804447  79.1698980  91.8536796  20.1070939  78.0775938  91.1460934
  11.3177305  72.0719781  88.5427624  11.5685343  72.9566791  88.8085200
  11.8536853  71.8924383  87.7702716  35.1409404  75.5033278  85.2102885
  34.3873113  74.9340676  85.0546890  35.2756945  75.4695943  86.1573520
  20.5308032  80.3746681  80.8857605  20.3953707  81.2198216  81.3142453
  21.0717845  80.5765958  80.1223539  17.0175372  66.4538260  97.5471960
  16.6242318  65.9004459  98.2219604  17.8341512  66.7648839  97.9378478
  13.9837430  77.8922119  81.4585530  14.4961950  78.6865369  81.6091095
  14.6360143  77.1948409  81.3919131  15.7932314  81.0087875  83.5408283
  15.9698943  81.9305840  83.3529267  16.5889148  80.6946294  83.9702663
  19.9343333  67.8696140  95.1392217  20.6753046  68.4703293  95.0596679
  20.1661256  67.1273777  94.5810259  15.0784671  73.0552507  93.4170446
  14.9638186  72.1537764  93.7177545  14.2229189  73.3016204  93.0655263
  22.1576509  80.9970247  95.0157947  21.7140363  80.2106626  94.6978851
  22.8193722  81.1849398  94.3501838  16.9163630  82.5266049  89.5418625
  17.4671055  82.3983112  88.7695619  16.0775106  82.8260938  89.1913518
  24.2557747  81.2773047  93.0439348  24.2376222  82.0981928  92.5519617
  25.1777667  81.1527122  93.2689489  20.7130801  78.7917177  93.8862856
  21.2459138  78.0305465  93.6562164  20.1844882  78.4990828  94.6287011
  23.8800496  63.8977243  89.4156498  23.5364765  64.7878884  89.3395609
  24.2479458  63.7078900  88.5526083  11.9486346  76.2210773  82.2345100
  12.7861568  76.6307781  82.0178808  12.1264614  75.2810215  82.2045294
  23.8450779  73.8885854  77.9228933  23.3297402  74.6590458  78.1617321
  23.5728087  73.2150990  78.5461995  21.4297890  68.7335554  82.9814172
  20.5739486  68.3442405  82.8019810  21.8424841  68.8127515  82.1213957
  22.9597036  66.2681898  87.3805731  22.4561832  66.2312033  86.5673537
  23.2527643  67.1774640  87.4402388  19.2039922  66.3520627  86.3871913
  20.0692919  66.1563436  86.0277803  19.2717431  66.1230979  87.3141270
  28.8185053  76.6418208  79.8582107  28.0414495  76.3029368  79.4137269
  29.4976534  76.6470831  79.1837072  23.6337082  71.7612946  79.7488715
  23.3287217  72.0759095  80.5998858  24.5867524  71.8394366  79.7916048
  22.0783514  77.9203169  81.3981668  21.5504875  77.1855929  81.0854906
  21.5771016  78.6977845  81.1521637  27.0576360  76.1152190  86.5148715
  26.4000034  76.8051451  86.6028843  27.8616759  76.5048621  86.8582701
  16.8102241  68.5822835  83.7588280  17.3845993  68.3598017  83.0261473
  17.3973224  68.6511530  84.5116881  25.8681818  74.4696562  84.5652657
  26.3813700  75.1026554  85.0674366  26.5183042  73.8697758  84.1996017
  17.1371828  70.6127296  77.7784165  16.3009141  70.9501983  78.0993440
  16.9976598  70.4776276  76.8411302  19.1124909  65.4564084  82.4863349
  18.4589321  65.1413101  81.8619964  19.0705383  64.8339825  83.2123172
  20.2236114  75.7383379  74.4016642  19.3163176  75.5072633  74.6007791
  20.7207146  74.9420999  74.5890623  23.1304193  84.4480886  77.3213328
  22.4565891  84.7512583  77.9298286  23.5170015  85.2509967  76.9718785
  22.3462649  71.9446018  86.8110997  21.4285211  72.1660965  86.6532685
  22.7622793  72.0192328  85.9522704  23.1297697  73.3437433  81.9413677
  23.8769516  73.8558831  81.6320799  23.3989287  73.0221486  82.8018071
  21.4024347  75.8395974  78.9240632  20.4935566  75.5555007  79.0213101
  21.4319431  76.2595053  78.0643938  26.6343615  79.4502564  82.6931799
  26.1805942  78.6093474  82.7496990  26.0037581  80.0863962  83.0306579
  25.5776534  70.3794550  83.9232467  24.8399291  69.8671936  84.2542709
  25.8303308  69.9394931  83.1115744  25.0776554  81.2879060  83.6281617
  25.3699528  81.8484117  82.9093983  25.5875174  81.5807621  84.3834776
  25.6788162  63.1570802  84.5174236  25.9847038  62.2968165  84.2300151
  26.4040766  63.7488422  84.3173230  11.9712518  73.5601488  82.9055834
  11.7736917  72.9670849  82.1806900  11.4159182  73.2553698  83.6231773
  19.9509241  73.4524595  85.0250427  20.0057851  72.4998431  84.9492904
  19.1400443  73.6084034  85.5091725  21.1000435  77.3804718  76.2628710
  20.6619865  76.6640577  75.8034348  21.8410876  77.6080833  75.7013802
  17.8901601  72.0701655  82.7840806  17.0769467  72.3695825  83.1905998
  18.3860595  71.6757343  83.5015288  20.0410179  82.0659411  84.7175071
  19.9986358  82.2920258  83.7883603  20.9572878  81.8322786  84.8660872
  23.4875813  72.5343479  91.6155700  23.8425201  72.7614952  92.4750165
  24.1347944  72.8661856  90.9932955  29.2173550  75.6561915  82.3205029
  29.0791448  75.8463511  81.3926218  28.8609769  76.4181298  82.7773080
  17.3815676  69.6420010  88.4002041  18.0215055  69.5008769  87.7025004
  16.5493206  69.3554523  88.0240643  29.2442929  77.7238442  87.3316300
  29.6779436  77.6313731  88.1799354  29.9574510  77.6995942  86.6936316
  18.1575980  78.9422440  84.5137033  18.9516578  78.4472761  84.3119608
  17.4467672  78.4140304  84.1504739  22.9770824  81.3240536  88.8649401
  23.0307847  81.8931472  89.6327117  22.1085606  81.4942421  88.5003438
  14.4658743  73.0865522  80.5896786  13.5356331  73.0249978  80.8066748
  14.5616215  72.5641475  79.7933427  14.3844292  69.6120335  83.1775028
  14.6451110  70.5265668  83.0684188  15.2061465  69.1444778  83.3271640
  15.8569218  71.0258092  90.3473852  16.5292271  70.8175454  89.6986501
  15.0299004  70.8280178  89.9079084  30.1058479  77.7662143  89.8649186
  30.2994369  78.6707953  90.1108461  30.0059097  77.3069562  90.6987771
  21.7594790  67.6520033  92.3639513  21.1122705  68.3509983  92.2703989
  22.5295805  68.0856177  92.7315761  25.1673588  77.9168885  95.4390066
  25.0159094  77.6879437  94.5220150  25.1578267  78.8739487  95.4521411
  21.9358924  75.4900798  90.4236333  22.8650984  75.6411958  90.2505300
  21.5149954  75.5784819  89.5684979  20.7347256  79.5151462  88.1934870
  20.5958342  79.1470247  89.0660808  19.9461852  80.0299102  88.0218828
  21.3295408  84.6160559  79.5360407  21.5047164  84.1448602  80.3506030
  20.6428196  85.2426325  79.7641668  22.2852471  78.8933065  85.5823708
  21.9502304  78.8533835  86.4781358  21.7856417  78.2277781  85.1094118
  16.2596715  74.3000695  91.1076289  16.1216513  73.5680934  91.7087828
  17.1701638  74.2109595  90.8260477  25.2211663  76.2389099  75.8560768
  24.6040833  75.5135928  75.7593820  24.7528151  76.9998460  75.5127842
  18.8879016  74.0120654  90.5959969  19.5978634  73.3713847  90.5546587
  18.8448324  74.2633549  91.5186150  26.8765794  80.9488008  93.5166548
  26.8178340  80.2647228  92.8497131  27.2785313  81.6906998  93.0647174
  17.6007950  70.9985872  92.4155608  17.0645307  70.5476611  93.0677205
  17.0124658  71.1331781  91.6726073  15.8956493  87.7649922  86.3100267
  16.1353091  88.3968446  86.9879286  15.0525690  87.4137962  86.5965626
  17.0110209  70.4574524  74.9782072  16.1339675  70.3363325  74.6144319
  17.4867962  69.6660602  74.7260961  26.8783202  78.9127592  91.7480528
  25.9909980  78.5753514  91.8706927  27.4481753  78.1810623  91.9849293
   8.5312349  75.2451684  85.0723579   9.2183389  74.9313414  84.4844595
   8.3760477  76.1493048  84.7990831  13.3347071  70.1341880  89.5008603
  13.2505260  69.5267550  88.7659013  12.5129777  70.6250898  89.5018099
  20.4084355  83.5729044  88.7141771  20.3354526  84.3784016  89.2261076
  19.9661748  83.7721010  87.8889792  20.1974135  82.8100814  82.2244593
  19.4141656  83.3522494  82.3182817  20.8966880  83.3274794  82.6238834
  23.5070785  68.6195444  84.8678798  24.0039484  67.8665406  84.5479868
  22.7357766  68.6559760  84.3022007  31.3600542  74.3235809  86.5097089
  31.3490418  75.2060525  86.1391023  30.4917922  73.9707360  86.3151627
  22.8683038  83.4715878  90.8699930  23.5811011  84.1063343  90.7975831
  22.3773067  83.5679744  90.0539932  24.5900565  77.3767131  82.4417221
  23.6556844  77.4968593  82.2721926  24.7677234  76.4739598  82.1777231
  20.0905753  70.7612827  84.5950483  19.7203541  70.2083867  85.2831388
  20.5864846  70.1570960  84.0425483  27.9773117  73.2184450  82.9767256
  28.4433569  74.0512442  82.9027558  28.4280617  72.7529432  83.6812514
  17.9194952  81.2210322  91.6905501  18.6204412  81.8546805  91.8434895
  17.4490067  81.5625053  90.9301140  26.0449348  79.5628271  79.9753408
  26.3209192  79.4484866  80.8847282  25.1753847  79.1645756  79.9365581
  25.9489779  65.5865037  87.0158157  25.0352859  65.8169264  87.1840364
  26.3782881  65.6703481  87.8672189  25.7196238  73.7754929  89.5158051
  25.0667688  74.0230837  88.8610504  26.0976618  72.9619067  89.1820528
  22.6803412  83.8114622  83.6186221  22.8625806  82.9936278  84.0813973
  23.5036398  84.0282314  83.1811111  23.0145577  82.7382807  80.8801270
  23.5433344  82.2275262  80.2671432  23.2773797  82.4225338  81.7446803
  21.7683811  74.5174740  96.0024088  21.0924448  74.4168869  96.6726463
  22.5911445  74.3613954  96.4660085  13.5162670  80.7546677  88.6236603
  14.1016107  80.0090365  88.7564507  13.3187509  81.0650633  89.5073267
  16.3701325  83.7897924  83.6399046  15.7011701  84.2744052  83.1563086
  16.2314195  84.0367144  84.5542424   8.1080325  73.3252277  87.3441046
   8.1464424  72.7915868  88.1378164   7.6020618  72.7987482  86.7252024
  20.5106594  85.8241668  90.2381704  21.0624902  85.9873289  91.0030789
  20.8512787  86.4146105  89.5661729  15.4871087  68.1716817  90.8403589
  15.5512414  69.0331648  90.4280986  15.4238207  67.5590819  90.1075947
  14.9623360  70.2439950  94.4876623  15.5895398  69.8617027  95.1014147
  14.1051279  70.0254152  94.8532315  25.3617468  80.6502925  96.0930358
  25.9057372  81.2632883  95.5985313  24.7804313  81.2082503  96.6097371
  11.7388902  72.0516379  80.4194978  12.0342343  71.1427057  80.3662031
  10.8376938  72.0304118  80.0975980  23.6474981  83.7723643  87.2245386
  23.5226121  82.9713383  86.7156332  24.3054072  84.2669836  86.7359356
  15.2683149  70.1272376  86.4022526  14.5469735  70.7408343  86.2630000
  16.0576405  70.6630140  86.3239172  25.7109890  81.5732663  88.8524936
  24.7640225  81.4538014  88.7803263  26.0592663  80.6855161  88.9351198
  18.0709463  67.4626802  92.6763178  18.5943865  67.7089099  93.4389487
  17.8521796  68.2946837  92.2566315  13.4676744  69.7330477  80.5434303
  13.1389450  68.8527856  80.3609409  13.8216115  69.6778145  81.4310692
  22.7156323  81.3685379  85.0529288  22.5681285  80.4402087  85.2336858
  23.5409816  81.3905470  84.5686364  16.5818567  70.0203446  80.9109781
  16.9214640  70.5489368  80.1888389  17.0290688  70.3583853  81.6868347
  26.3190445  82.1913938  86.1394161  27.2436992  81.9856799  86.0018612
  26.1505748  81.9430339  87.0483503  19.2762008  68.4040497  90.3612849
  18.9358828  67.6048310  90.7633528  18.5701014  68.7042208  89.7889682
  19.9278480  65.4889810  88.8140172  20.7504549  65.0150288  88.6919062
  20.1716543  66.2680293  89.3138858  18.5686714  68.5178068  79.1103073
  19.2895077  68.8959321  78.6066790  17.9452018  69.2366945  79.2138051
  22.7117837  69.2223217  80.0461406  22.9281452  70.1047855  79.7450234
  22.2311904  68.8309430  79.3167048  17.4517059  72.1808930  86.6232150
  17.3061639  72.4949233  87.5156432  16.9742262  72.7993831  86.0703049
  19.3113441  69.1711478  86.6713040  19.2975010  68.2752572  86.3345338
  20.0285870  69.1782142  87.3051326  21.1639572  69.6048818  88.7166167
  20.9057350  70.5265889  88.7150498  20.6324613  69.2079253  89.4066631
  26.1085761  82.7099606  81.4956253  26.2822638  82.1446028  80.7430105
  26.6014652  83.5100500  81.3135743  11.9262721  74.7214275  89.5619811
  11.3816189  75.4974083  89.6940086  12.8042071  75.0685079  89.4038933
  18.7150337  68.0525859  81.9400610  18.8366249  67.1242505  82.1391497
  18.4252380  68.0664544  81.0278925  21.5841528  65.7380769  85.0767330
  21.6063225  65.8020102  84.1219309  22.0009587  64.8985278  85.2707836
  31.9625152  75.4736029  83.1146552  32.4056298  74.7243354  82.7165676
  31.0851662  75.4646165  82.7320284  27.0960933  82.0266370  78.5953151
  27.7911838  82.6473063  78.8140466  27.4384084  81.1761721  78.8705529
  12.7128743  73.8484171  92.4549968  11.9710479  73.9966806  93.0414599
  12.3921487  74.1092437  91.5916718  28.9952357  79.4766076  80.1240482
  29.5203681  79.8153348  79.3989802  28.9074709  78.5413091  79.9403616
  20.6572405  83.3900149  92.2530358  20.9659532  83.1449296  93.1253058
  21.4547887  83.5946788  91.7649229  20.6793017  85.5438059  84.4835735
  20.2398008  85.0514437  85.1768592  21.4301134  85.0011026  84.2427810
  13.1585356  81.7349600  84.4860363  13.9843376  81.4353372  84.1059006
  12.8079408  80.9657222  84.9350152  18.1266889  81.0876068  86.5558037
  17.5046899  80.4246773  86.2560264  18.7971756  81.1137200  85.8731684
  11.3593961  79.6535926  85.4449297  10.5225870  79.2258100  85.2633298
  11.3317607  79.8468369  86.3820088  18.1991417  69.5657856  96.1490543
  18.2479572  70.4419979  95.7668312  18.7413931  69.0235249  95.5762186
  28.6846263  80.1098979  95.4291680  27.8941806  80.0923118  94.8896179
  28.4479617  80.6487273  96.1840716  28.8044138  76.9591446  92.7424408
  28.8542143  76.7941453  93.6839931  28.6958061  76.0918705  92.3522289
  17.6880396  79.6379991  80.0316497  17.8368517  80.3215456  79.3783170
  18.4946840  79.6185081  80.5465953  26.0947900  72.9422374  94.0583715
  26.9957763  72.8028838  93.7667713  26.1695875  73.1076828  94.9981892
  20.4290705  70.3189228  92.9036901  19.5594015  70.6122794  92.6319490
  20.6650186  70.9029673  93.6244165  30.3062334  79.3788387  92.9866430
  30.0147143  79.7418368  93.8229891  29.6934466  78.6655395  92.8079762
  31.5058017  76.9441267  85.5069000  32.3404908  77.3831071  85.6706560
  31.6417146  76.4679920  84.6877246  28.5549523  74.5021002  91.4546488
  29.0303644  74.6948648  90.6465339  27.6315088  74.5580187  91.2089871
  15.4433029  75.6645169  81.0377566  15.1979071  74.7607499  81.2357776
  15.6128944  75.6662319  80.0957044  23.1329739  66.5368845  90.4202322
  23.6511683  67.2729872  90.0948810  22.7784872  66.8432839  91.2549081
  14.7128677  71.3973526  78.5363727  14.0197922  71.4717881  77.8803763
  14.4680429  70.6333870  79.0585244  23.3842333  62.9569128  85.9403218
  23.6644087  62.2892317  86.5663645  24.1692940  63.1498223  85.4277882
  21.1875802  82.1328122  77.5028244  20.6149769  82.7518309  77.0498716
  21.7608596  82.6827483  78.0368166  27.2551192  71.3786762  89.6874793
  28.2068615  71.4784859  89.7087017  27.0854642  70.5865030  90.1972878
  25.2765571  68.4642345  89.8734194  24.6815503  68.7447358  89.1780683
  24.9915268  68.9536246  90.6450935  24.4073062  82.4165272  78.6336827
  25.3403735  82.3510833  78.8369702  24.3196274  83.2521539  78.1751359
  27.0361078  81.7331142  75.5940774  26.9574710  81.3991006  76.4876532
  27.8570745  82.2252910  75.5932247  29.7339269  74.5992881  88.8017093
  29.7015590  73.6608882  88.9876777  30.3439893  74.6776918  88.0682918
  21.5722600  73.4688934  74.8444297  22.5181705  73.3395143  74.9132715
  21.1936845  72.7303596  75.3213725  29.8833758  71.3903925  88.8475376
  29.3672807  70.6062382  88.6605305  30.7673706  71.0622641  89.0121896
  27.5444485  65.1344940  84.8071189  27.3469306  64.8260029  85.6914521
  28.1544190  65.8606579  84.9369119  35.5515819  75.6608888  87.9423130
  36.2819208  75.3994176  88.5030833  34.9422765  74.9237610  87.9825198
  33.6331116  73.8016751  88.5397581  32.9064280  73.6672716  87.9314073
  33.2178403  74.1093579  89.3454299  21.4561293  77.5206681  96.3044954
  22.3764302  77.6985280  96.4985000  21.4210876  76.5762726  96.1524653
  19.7565518  71.3938911  74.7799182  18.8496973  71.0972024  74.8561896
  20.0341499  71.0968729  73.9133468  10.6743458  72.7145274  85.2298229
  10.3546242  71.8610582  84.9372603  10.1276886  72.9293852  85.9856196
  14.4523365  75.4307715  88.9467735  14.6709375  76.3624823  88.9655769
  14.8649139  75.0715690  89.7322539  21.3727583  65.9375801  80.9343424
  20.5628312  65.5922885  81.3098670  22.0612000  65.6283344  81.5231035
  23.3018132  65.0153847  82.5567720  23.8549170  65.4349301  83.2157743
  23.5388218  64.0889595  82.5990676  19.3251231  71.0040921  98.3370484
  19.2247958  71.9535278  98.2682575  19.1072773  70.6759160  97.4646554
  18.5264302  68.2525846  74.9211161  19.3883466  68.5780744  75.1806979
  18.7114646  67.4657342  74.4084227  10.5431718  76.3348186  87.1991350
   9.8495189  75.9202138  86.6861305  11.2904709  76.3768722  86.6024769
  26.6796939  67.1254372  82.0646384  26.0995608  67.7839177  81.6824437
  26.4132871  66.3031717  81.6533802  25.1300505  66.5259430  84.2667705
  25.6300283  66.6375965  83.4582024  25.7736113  66.2220483  84.9068513
  19.1882501  74.4338060  97.1535546  18.7049583  75.2338420  97.3599435
  19.2743440  74.4446005  96.2002990  12.4568460  76.2666439  85.0757365
  12.4339149  76.3654127  84.1239248  12.7669097  77.1131590  85.3974531
  15.1155838  78.3242595  89.1903979  16.0699092  78.2926537  89.1233911
  14.9168362  77.8633218  90.0054205  15.7055220  76.8943711  91.7574777
  16.5248109  77.3887789  91.7809614  15.9792028  75.9775679  91.7292345
  25.4621817  69.2854463  81.1202733  24.5747672  69.5704113  80.9022927
  25.8775806  69.1248226  80.2730010  28.8136353  69.3100984  84.8357072
  29.5896743  69.7997436  85.1081689  28.0884487  69.7359038  85.2928941
  31.2508911  70.0228603  85.8931013  31.8453402  69.7824339  85.1824321
  31.3235495  69.3035734  86.5204549  13.4706067  83.8662214  86.2074177
  13.3360535  83.1062615  85.6412175  13.0538129  84.5903114  85.7402966
  24.6065030  79.0499138  75.2150753  25.3100880  79.2549140  75.8308408
  23.8827679  79.6175899  75.4799836  25.4362840  74.8008999  81.3353023
  25.3798042  75.2577550  80.4960655  25.9891183  74.0399683  81.1575866
  29.2467646  70.5898731  82.1603142  28.9904581  70.1895366  82.9911350
  28.6220514  71.3042525  82.0353281  33.5579984  73.3294804  84.6674434
  32.9979542  73.3987993  85.4405996  32.9523487  73.1535789  83.9473930
  16.6275193  84.7631531  86.4192620  16.5107577  85.7076964  86.3171310
  15.8067639  84.4605093  86.8078419  26.5151727  79.4881667  77.2649213
  27.3497331  79.0562865  77.0826688  26.3536070  79.3163680  78.1926107
  26.1697620  75.9913780  78.6305552  26.1146423  75.8258051  77.6893996
  25.5443675  76.6989813  78.7867742  10.9590135  71.2281844  92.4566974
  11.6048998  70.7180798  92.9454199  10.7507286  71.9650526  93.0310399
  23.4843527  78.2962692  97.9559115  24.3534686  78.4703344  97.5945750
  23.0050278  79.1157109  97.8334844  19.4793745  65.4921889  78.2090870
  19.4672415  66.4363729  78.3659141  20.3717167  65.3092034  77.9150332
  17.6529707  85.4159793  89.6348548  18.5556954  85.4483403  89.9515043
  17.4267077  84.4860244  89.6494884  19.4083309  84.1690779  86.2958627
  18.4578940  84.1692641  86.1822999  19.7115795  83.4223514  85.7794662
  23.2945865  62.0864666  82.4636807  22.5278260  61.5323152  82.6093490
  23.7056570  62.1586534  83.3250959  15.2987626  68.3749461  96.5541988
  16.1619087  68.0186266  96.7645313  14.7253036  68.0363356  97.2417393
  35.1436003  90.0051318  87.3604389  35.7814413  89.8858065  86.6567730
  35.0256845  90.9532162  87.4192342  31.9525709  89.9578746  87.2965914
  31.6144220  89.8419811  86.4086449  32.8215477  89.5569911  87.2766920
  27.8112525  91.8114222  83.2862805  27.2477390  91.7204159  82.5179093
  27.6964920  90.9914127  83.7665298  32.4345492  91.1113598  93.2552120
  32.4234133  90.7166396  92.3832623  32.5966131  90.3779670  93.8485891
  25.3576956  93.3065414  86.1247026  26.1498248  92.9656239  85.7093325
  25.5973607  93.4160389  87.0449179  33.3912083  95.4785190  78.5977270
  32.7400063  96.0639270  78.2111284  34.1856446  96.0091385  78.6572307
  27.3167710  92.5674327  78.9964404  28.0898586  92.0203314  78.8577280
  27.6693109  93.4318577  79.2078866  29.1552753  93.8950709  92.2031304
  28.8642619  94.7996340  92.0877970  29.7909737  93.9367237  92.9175373
  30.0808960  91.2727558  88.7932663  30.6772532  91.0483580  88.0789626
  30.1383931  90.5312303  89.3958111  29.6533988  88.7266993  76.6282854
  29.9059509  88.2048515  75.8666317  28.7158547  88.5633139  76.7309538
  34.6977271  87.7302772  84.4357597  35.4840360  87.3122195  84.0848015
  34.9615975  88.6348864  84.6039246  34.8687348  93.1675622  79.1346254
  34.2333181  93.2410249  79.8467159  34.5384755  93.7569221  78.4565334
  40.0985698  87.6678005  85.3390576  40.8310870  87.0977222  85.5728405
  39.3425054  87.2799605  85.7797082  29.3730277  90.6295099  78.8307229
  29.2566535  89.9540003  79.4988314  29.4832537  90.1427473  78.0139382
  31.7161818  90.0905246  82.5353918  31.3520025  89.5635867  83.2466840
  32.5728934  89.7003715  82.3620404  37.6211119  81.3799579  89.7985185
  37.2894443  82.2494990  89.5746400  37.0256732  81.0635863  90.4779215
  31.3567305  85.1195146  77.5315267  31.5241707  85.9875383  77.8985738
  31.1664474  85.2822428  76.6076556  34.1142638  93.5812125  89.1981097
  33.8143361  94.4837164  89.0896905  33.7693698  93.3144308  90.0502250
  27.5655120  90.0325922  85.2317802  26.6405616  89.9002136  85.4395494
  27.8139533  90.8120141  85.7287744  37.5139782  86.0994665  86.8778535
  36.6056659  86.0310074  86.5837296  37.4627378  86.5766610  87.7060360
  31.3356526  87.5752804  78.5161934  31.2156151  88.0209854  79.3547414
  30.6409114  87.9238121  77.9575472  24.9263931  89.6759195  86.0661591
  25.0556312  89.9293674  86.9801003  24.2461382  90.2686903  85.7466246
  29.0963418 100.3456445  82.1652065  29.0187448 101.2964270  82.2440546
  28.4925061 100.0002318  82.8226991  31.5880648  87.5184311  94.8213432
  30.8113982  88.0778231  94.8116297  32.2271211  88.0041094  95.3428302
  39.3801428  84.3011104  88.6556409  38.7375809  84.5943637  88.0096203
  38.8756357  84.1864024  89.4609605  37.0341592  88.0474277  79.3442268
  37.9459448  88.2801664  79.1689965  36.5251239  88.6311321  78.7817346
  29.8427020  90.3269764  94.3831399  30.5841704  90.8654808  94.1066223
  29.1364005  90.9536053  94.5402951  35.3182360  92.4698905  92.9803560
  35.7265716  92.0281315  92.2358193  34.5959621  91.8951532  93.2337753
  31.6713430  87.4071511  90.3537117  32.5174625  87.8310925  90.4971766
  31.6112067  86.7505136  91.0475680  35.6411174  93.0300095  86.7355849
  35.0120037  93.1945809  86.0331917  35.2536836  93.4441705  87.5066813
  39.5200406  93.9654533  84.0900213  38.8351444  94.3453434  83.5397246
  39.6044255  94.5749860  84.8232161  34.8212875  85.0675880  92.0118291
  34.5773807  85.8217940  91.4752567  35.0972805  85.4461227  92.8465538
  36.7751338  91.6114492  90.6895557  36.9868233  92.2546252  90.0129938
  36.7281086  90.7776809  90.2217487  34.3777567  84.2232313  87.5932129
  33.5162046  84.5213566  87.8848866  34.4040001  84.4402712  86.6613161
  31.1939136  92.7674503  84.0005934  31.6577482  93.0462206  83.2110557
  30.9295934  91.8657948  83.8179025  28.0863217  92.3145985  86.9385698
  28.6564574  92.7433253  86.3003182  28.6771329  92.0328570  87.6369883
  30.1308022  88.8897656  80.8095500  30.8332066  89.3418699  81.2769426
  29.7988651  88.2481475  81.4375393  28.5788384  87.4809412  95.1846709
  27.9487044  88.1625693  95.4182106  28.4724472  87.3692494  94.2399847
  23.8733356  87.1481208  86.1112633  23.0832410  87.4038737  85.6352744
  24.3644604  87.9629546  86.2164674  37.8897166  94.4886448  88.8617914
  38.7114609  94.0866635  88.5800596  37.8859569  94.3854682  89.8134030
  25.8248102  87.5125788  83.0696110  25.0279265  87.6244482  83.5879605
  25.5973694  87.8512440  82.2037000  31.6553769  94.0370491  91.0178624
  31.7198202  94.4990898  91.8536796  30.9464693  93.4067856  91.1460934
  22.1571059  87.4011699  88.5427624  22.4079098  88.2858709  88.8085200
  22.6930608  87.2216300  87.7702716  45.9803159  90.8325196  85.2102885
  45.2266867  90.2632594  85.0546890  46.1150700  90.7987860  86.1573520
  31.3701787  95.7038598  80.8857605  31.2347462  96.5490134  81.3142453
  31.9111599  95.9057876  80.1223539  27.8569126  81.7830178  97.5471960
  27.4636072  81.2296377  98.2219604  28.6735267  82.0940757  97.9378478
  24.8231184  93.2214036  81.4585530  25.3355705  94.0157287  81.6091095
  25.4753897  92.5240327  81.3919131  26.6326069  96.3379793  83.5408283
  26.8092697  97.2597757  83.3529267  27.4282902  96.0238212  83.9702663
  30.7737087  83.1988057  95.1392217  31.5146801  83.7995210  95.0596679
  31.0055010  82.4565695  94.5810259  25.9178425  88.3844425  93.4170446
  25.8031941  87.4829682  93.7177545  25.0622943  88.6308121  93.0655263
  32.9970263  96.3262165  95.0157947  32.5534117  95.5398543  94.6978851
  33.6587477  96.5141315  94.3501838  27.7557384  97.8557966  89.5418625
  28.3064809  97.7275030  88.7695619  26.9168860  98.1552855  89.1913518
  35.0951501  96.6064965  93.0439348  35.0769977  97.4273846  92.5519617
  36.0171421  96.4819040  93.2689489  31.5524555  94.1209094  93.8862856
  32.0852892  93.3597382  93.6562164  31.0238636  93.8282746  94.6287011
  34.7194250  79.2269160  89.4156498  34.3758520  80.1170802  89.3395609
  35.0873213  79.0370818  88.5526083  22.7880101  91.5502691  82.2345100
  23.6255323  91.9599699  82.0178808  22.9658369  90.6102133  82.2045294
  34.6844533  89.2177771  77.9228933  34.1691157  89.9882376  78.1617321
  34.4121842  88.5442907  78.5461995  32.2691644  84.0627472  82.9814172
  31.4133240  83.6734322  82.8019810  32.6818596  84.1419433  82.1213957
  33.7990791  81.5973815  87.3805731  33.2955586  81.5603951  86.5673537
  34.0921398  82.5066558  87.4402388  30.0433677  81.6812545  86.3871913
  30.9086673  81.4855354  86.0277803  30.1111186  81.4522897  87.3141270
  39.6578807  91.9710126  79.8582107  38.8808250  91.6321285  79.4137269
  40.3370288  91.9762749  79.1837072  34.4730836  87.0904863  79.7488715
  34.1680972  87.4051013  80.5998858  35.4261278  87.1686283  79.7916048
  32.9177268  93.2495087  81.3981668  32.3898630  92.5147846  81.0854906
  32.4164771  94.0269763  81.1521637  37.8970114  91.4444107  86.5148715
  37.2393789  92.1343369  86.6028843  38.7010513  91.8340539  86.8582701
  27.6495996  83.9114753  83.7588280  28.2239748  83.6889934  83.0261473
  28.2366978  83.9803447  84.5116881  36.7075573  89.7988480  84.5652657
  37.2207455  90.4318472  85.0674366  37.3576797  89.1989675  84.1996017
  27.9765583  85.9419214  77.7784165  27.1402895  86.2793901  78.0993440
  27.8370352  85.8068194  76.8411302  29.9518663  80.7856002  82.4863349
  29.2983076  80.4705019  81.8619964  29.9099138  80.1631742  83.2123172
  31.0629868  91.0675297  74.4016642  30.1556930  90.8364550  74.6007791
  31.5600900  90.2712916  74.5890623  33.9697947  99.7772804  77.3213328
  33.2959646 100.0804501  77.9298286  34.3563769 100.5801885  76.9718785
  33.1856404  87.2737935  86.8110997  32.2678965  87.4952882  86.6532685
  33.6016547  87.3484246  85.9522704  33.9691452  88.6729351  81.9413677
  34.7163270  89.1850748  81.6320799  34.2383041  88.3513404  82.8018071
  32.2418102  91.1687892  78.9240632  31.3329321  90.8846925  79.0213101
  32.2713186  91.5886970  78.0643938  37.4737369  94.7794481  82.6931799
  37.0199696  93.9385391  82.7496990  36.8431336  95.4155880  83.0306579
  36.4170289  85.7086467  83.9232467  35.6793045  85.1963854  84.2542709
  36.6697062  85.2686849  83.1115744  35.9170308  96.6170978  83.6281617
  36.2093283  97.1776035  82.9093983  36.4268929  96.9099539  84.3834776
  36.5181916  78.4862719  84.5174236  36.8240793  77.6260083  84.2300151
  37.2434521  79.0780340  84.3173230  22.8106272  88.8893406  82.9055834
  22.6130672  88.2962767  82.1806900  22.2552936  88.5845616  83.6231773
  30.7902996  88.7816512  85.0250427  30.8451606  87.8290349  84.9492904
  29.9794198  88.9375952  85.5091725  31.9394190  92.7096636  76.2628710
  31.5013619  91.9932494  75.8034348  32.6804630  92.9372750  75.7013802
  28.7295356  87.3993572  82.7840806  27.9163221  87.6987743  83.1905998
  29.2254350  87.0049261  83.5015288  30.8803934  97.3951329  84.7175071
  30.8380112  97.6212175  83.7883603  31.7966632  97.1614704  84.8660872
  34.3269567  87.8635397  91.6155700  34.6818955  88.0906870  92.4750165
  34.9741699  88.1953773  90.9932955  40.0567304  90.9853833  82.3205029
  39.9185203  91.1755429  81.3926218  39.7003523  91.7473215  82.7773080
  28.2209430  84.9711928  88.4002041  28.8608810  84.8300687  87.7025004
  27.3886961  84.6846441  88.0240643  40.0836684  93.0530360  87.3316300
  40.5173191  92.9605649  88.1799354  40.7968265  93.0287860  86.6936316
  28.9969734  94.2714358  84.5137033  29.7910333  93.7764678  84.3119608
  28.2861427  93.7432221  84.1504739  33.8164579  96.6532454  88.8649401
  33.8701601  97.2223390  89.6327117  32.9479360  96.8234339  88.5003438
  25.3052498  88.4157440  80.5896786  24.3750086  88.3541895  80.8066748
  25.4009970  87.8933393  79.7933427  25.2238047  84.9412253  83.1775028
  25.4844864  85.8557586  83.0684188  26.0455219  84.4736695  83.3271640
  26.6962972  86.3550010  90.3473852  27.3686026  86.1467372  89.6986501
  25.8692759  86.1572096  89.9079084  40.9452233  93.0954060  89.8649186
  41.1388124  93.9999871  90.1108461  40.8452852  92.6361479  90.6987771
  32.5988544  82.9811951  92.3639513  31.9516459  83.6801900  92.2703989
  33.3689560  83.4148095  92.7315761  36.0067342  93.2460803  95.4390066
  35.8552849  93.0171355  94.5220150  35.9972022  94.2031404  95.4521411
  32.7752679  90.8192716  90.4236333  33.7044739  90.9703875  90.2505300
  32.3543709  90.9076736  89.5684979  31.5741010  94.8443380  88.1934870
  31.4352096  94.4762165  89.0660808  30.7855607  95.3591020  88.0218828
  32.1689162  99.9452477  79.5360407  32.3440918  99.4740520  80.3506030
  31.4821950 100.5718243  79.7641668  33.1246225  94.2224983  85.5823708
  32.7896058  94.1825753  86.4781358  32.6250171  93.5569699  85.1094118
  27.0990469  89.6292613  91.1076289  26.9610267  88.8972852  91.7087828
  28.0095393  89.5401513  90.8260477  36.0605417  91.5681017  75.8560768
  35.4434588  90.8427845  75.7593820  35.5921906  92.3290377  75.5127842
  29.7272770  89.3412572  90.5959969  30.4372389  88.7005764  90.5546587
  29.6842078  89.5925467  91.5186150  37.7159549  96.2779926  93.5166548
  37.6572095  95.5939146  92.8497131  38.1179067  97.0198916  93.0647174
  28.4401704  86.3277790  92.4155608  27.9039061  85.8768529  93.0677205
  27.8518413  86.4623699  91.6726073  26.7350248 103.0941839  86.3100267
  26.9746846 103.7260364  86.9879286  25.8919444 102.7429879  86.5965626
  27.8503963  85.7866441  74.9782072  26.9733429  85.6655242  74.6144319
  28.3261716  84.9952520  74.7260961  37.7176956  94.2419509  91.7480528
  36.8303735  93.9045431  91.8706927  38.2875507  93.5102541  91.9849293
  19.3706103  90.5743601  85.0723579  20.0577143  90.2605331  84.4844595
  19.2154232  91.4784966  84.7990831  24.1740825  85.4633798  89.5008603
  24.0899014  84.8559467  88.7659013  23.3523532  85.9542816  89.5018099
  31.2478109  98.9020962  88.7141771  31.1748281  99.7075933  89.2261076
  30.8055503  99.1012928  87.8889792  31.0367889  98.1392732  82.2244593
  30.2535411  98.6814412  82.3182817  31.7360634  98.6566711  82.6238834
  34.3464539  83.9487361  84.8678798  34.8433239  83.1957324  84.5479868
  33.5751521  83.9851678  84.3022007  42.1994297  89.6527727  86.5097089
  42.1884173  90.5352442  86.1391023  41.3311676  89.2999278  86.3151627
  33.7076793  98.8007796  90.8699930  34.4204765  99.4355261  90.7975831
  33.2166822  98.8971662  90.0539932  35.4294320  92.7059048  82.4417221
  34.4950599  92.8260511  82.2721926  35.6070988  91.8031515  82.1777231
  30.9299508  86.0904744  84.5950483  30.5597295  85.5375785  85.2831388
  31.4258600  85.4862878  84.0425483  38.8166871  88.5476368  82.9767256
  39.2827323  89.3804359  82.9027558  39.2674372  88.0821349  83.6812514
  28.7588707  96.5502239  91.6905501  29.4598166  97.1838722  91.8434895
  28.2883822  96.8916971  90.9301140  36.8843102  94.8920189  79.9753408
  37.1602946  94.7776784  80.8847282  36.0147601  94.4937674  79.9365581
  36.7883534  80.9156955  87.0158157  35.8746614  81.1461182  87.1840364
  37.2176635  80.9995399  87.8672189  36.5589992  89.1046847  89.5158051
  35.9061443  89.3522754  88.8610504  36.9370372  88.2910985  89.1820528
  33.5197166  99.1406540  83.6186221  33.7019561  98.3228196  84.0813973
  34.3430152  99.3574232  83.1811111  33.8539332  98.0674725  80.8801270
  34.3827098  97.5567180  80.2671432  34.1167551  97.7517255  81.7446803
  32.6077565  89.8466658  96.0024088  31.9318203  89.7460787  96.6726463
  33.4305199  89.6905872  96.4660085  24.3556425  96.0838594  88.6236603
  24.9409861  95.3382282  88.7564507  24.1581263  96.3942551  89.5073267
  27.2095080  99.1189842  83.6399046  26.5405455  99.6035969  83.1563086
  27.0707949  99.3659062  84.5542424  18.9474079  88.6544195  87.3441046
  18.9858179  88.1207785  88.1378164  18.4414372  88.1279400  86.7252024
  31.3500348 101.1533585  90.2381704  31.9018656 101.3165207  91.0030789
  31.6906542 101.7438023  89.5661729  26.3264842  83.5008735  90.8403589
  26.3906168  84.3623566  90.4280986  26.2631962  82.8882737  90.1075947
  25.8017114  85.5731868  94.4876623  26.4289153  85.1908945  95.1014147
  24.9445033  85.3546070  94.8532315  36.2011223  95.9794843  96.0930358
  36.7451127  96.5924801  95.5985313  35.6198068  96.5374421  96.6097371
  22.5782657  87.3808297  80.4194978  22.8736098  86.4718975  80.3662031
  21.6770693  87.3596036  80.0975980  34.4868736  99.1015561  87.2245386
  34.3619875  98.3005301  86.7156332  35.1447827  99.5961754  86.7359356
  26.1076904  85.4564293  86.4022526  25.3863490  86.0700261  86.2630000
  26.8970160  85.9922058  86.3239172  36.5503644  96.9024581  88.8524936
  35.6033980  96.7829932  88.7803263  36.8986417  96.0147079  88.9351198
  28.9103217  82.7918720  92.6763178  29.4337619  83.0381016  93.4389487
  28.6915551  83.6238755  92.2566315  24.3070498  85.0622394  80.5434303
  23.9783205  84.1819773  80.3609409  24.6609869  85.0070063  81.4310692
  33.5550077  96.6977297  85.0529288  33.4075040  95.7694004  85.2336858
  34.3803571  96.7197388  84.5686364  27.4212322  85.3495364  80.9109781
  27.7608394  85.8781285  80.1888389  27.8684442  85.6875770  81.6868347
  37.1584199  97.5205856  86.1394161  38.0830747  97.3148717  86.0018612
  36.9899503  97.2722257  87.0483503  30.1155762  83.7332415  90.3612849
  29.7752583  82.9340228  90.7633528  29.4094769  84.0334126  89.7889682
  30.7672234  80.8181727  88.8140172  31.5898304  80.3442205  88.6919062
  31.0110298  81.5972211  89.3138858  29.4080469  83.8469986  79.1103073
  30.1288831  84.2251239  78.6066790  28.7845773  84.5658863  79.2138051
  33.5511592  84.5515135  80.0461406  33.7675206  85.4339773  79.7450234
  33.0705659  84.1601348  79.3167048  28.2910813  87.5100848  86.6232150
  28.1455394  87.8241151  87.5156432  27.8136017  88.1285748  86.0703049
  30.1507196  84.5003396  86.6713040  30.1368765  83.6044489  86.3345338
  30.8679624  84.5074060  87.3051326  32.0033327  84.9340736  88.7166167
  31.7451104  85.8557807  88.7150498  31.4718367  84.5371171  89.4066631
  36.9479515  98.0391523  81.4956253  37.1216393  97.4737946  80.7430105
  37.4408407  98.8392418  81.3135743  22.7656475  90.0506192  89.5619811
  22.2209943  90.8266000  89.6940086  23.6435825  90.3976997  89.4038933
  29.5544092  83.3817776  81.9400610  29.6760003  82.4534422  82.1391497
  29.2646134  83.3956462  81.0278925  32.4235282  81.0672687  85.0767330
  32.4456979  81.1312020  84.1219309  32.8403341  80.2277195  85.2707836
  42.8018907  90.8027946  83.1146552  43.2450053  90.0535271  82.7165676
  41.9245417  90.7938083  82.7320284  37.9354688  97.3558288  78.5953151
  38.6305593  97.9764980  78.8140466  38.2777838  96.5053639  78.8705529
  23.5522497  89.1776089  92.4549968  22.8104233  89.3258724  93.0414599
  23.2315241  89.4384354  91.5916718  39.8346111  94.8057993  80.1240482
  40.3597435  95.1445266  79.3989802  39.7468464  93.8705009  79.9403616
  31.4966160  98.7192067  92.2530358  31.8053286  98.4741214  93.1253058
  32.2941642  98.9238705  91.7649229  31.5186772 100.8729976  84.4835735
  31.0791762 100.3806355  85.1768592  32.2694889 100.3302944  84.2427810
  23.9979111  97.0641517  84.4860363  24.8237131  96.7645289  84.1059006
  23.6473163  96.2949140  84.9350152  28.9660644  96.4167986  86.5558037
  28.3440653  95.7538691  86.2560264  29.6365511  96.4429117  85.8731684
  22.1987716  94.9827844  85.4449297  21.3619624  94.5550018  85.2633298
  22.1711361  95.1760287  86.3820088  29.0385171  84.8949774  96.1490543
  29.0873327  85.7711896  95.7668312  29.5807686  84.3527167  95.5762186
  39.5240017  95.4390897  95.4291680  38.7335561  95.4215036  94.8896179
  39.2873372  95.9779191  96.1840716  39.6437892  92.2883363  92.7424408
  39.6935897  92.1233371  93.6839931  39.5351815  91.4210622  92.3522289
  28.5274151  94.9671909  80.0316497  28.6762271  95.6507373  79.3783170
  29.3340594  94.9476999  80.5465953  36.9341655  88.2714291  94.0583715
  37.8351517  88.1320756  93.7667713  37.0089629  88.4368746  94.9981892
  31.2684460  85.6481146  92.9036901  30.3987769  85.9414712  92.6319490
  31.5043940  86.2321591  93.6244165  41.1456089  94.7080305  92.9866430
  40.8540897  95.0710285  93.8229891  40.5328220  93.9947313  92.8079762
  42.3451771  92.2733184  85.5069000  43.1798663  92.7122989  85.6706560
  42.4810900  91.7971838  84.6877246  39.3943277  89.8312919  91.4546488
  39.8697399  90.0240566  90.6465339  38.4708843  89.8872105  91.2089871
  26.2826784  90.9937087  81.0377566  26.0372826  90.0899417  81.2357776
  26.4522698  90.9954237  80.0957044  33.9723494  81.8660763  90.4202322
  34.4905438  82.6021790  90.0948810  33.6178626  82.1724756  91.2549081
  25.5522431  86.7265444  78.5363727  24.8591676  86.8009799  77.8803763
  25.3074183  85.9625788  79.0585244  34.2236088  78.2861045  85.9403218
  34.5037842  77.6184235  86.5663645  35.0086695  78.4790141  85.4277882
  32.0269556  97.4620039  77.5028244  31.4543523  98.0810226  77.0498716
  32.6002350  98.0119401  78.0368166  38.0944946  86.7078679  89.6874793
  39.0462369  86.8076777  89.7087017  37.9248397  85.9156948  90.1972878
  36.1159326  83.7934263  89.8734194  35.5209258  84.0739275  89.1780683
  35.8309022  84.2828164  90.6450935  35.2466816  97.7457189  78.6336827
  36.1797489  97.6802751  78.8369702  35.1590029  98.5813456  78.1751359
  37.8754833  97.0623060  75.5940774  37.7968464  96.7282923  76.4876532
  38.6964500  97.5544828  75.5932247  40.5733024  89.9284799  88.8017093
  40.5409344  88.9900800  88.9876777  41.1833648  90.0068836  88.0682918
  32.4116355  88.7980852  74.8444297  33.3575460  88.6687060  74.9132715
  32.0330600  88.0595514  75.3213725  40.7227512  86.7195843  88.8475376
  40.2066561  85.9354299  88.6605305  41.6067461  86.3914559  89.0121896
  38.3838239  80.4636858  84.8071189  38.1863061  80.1551946  85.6914521
  38.9937945  81.1898497  84.9369119  46.3909574  90.9900806  87.9423130
  47.1212962  90.7286094  88.5030833  45.7816519  90.2529528  87.9825198
  44.4724871  89.1308669  88.5397581  43.7458035  88.9964633  87.9314073
  44.0572158  89.4385497  89.3454299  32.2955047  92.8498598  96.3044954
  33.2158057  93.0277197  96.4985000  32.2604630  91.9054644  96.1524653
  30.5959272  86.7230828  74.7799182  29.6890727  86.4263941  74.8561896
  30.8735253  86.4260647  73.9133468  21.5137212  88.0437192  85.2298229
  21.1939997  87.1902500  84.9372603  20.9670641  88.2585770  85.9856196
  25.2917120  90.7599633  88.9467735  25.5103130  91.6916741  88.9655769
  25.7042894  90.4007607  89.7322539  32.2121338  81.2667718  80.9343424
  31.4022066  80.9214803  81.3098670  32.9005755  80.9575262  81.5231035
  34.1411886  80.3445765  82.5567720  34.6942925  80.7641218  83.2157743
  34.3781972  79.4181513  82.5990676  30.1644985  86.3332839  98.3370484
  30.0641712  87.2827196  98.2682575  29.9466527  86.0051078  97.4646554
  29.3658057  83.5817764  74.9211161  30.2277221  83.9072662  75.1806979
  29.5508401  82.7949260  74.4084227  21.3825472  91.6640103  87.1991350
  20.6888944  91.2494056  86.6861305  22.1298463  91.7060640  86.6024769
  37.5190693  82.4546290  82.0646384  36.9389362  83.1131094  81.6824437
  37.2526626  81.6323635  81.6533802  35.9694259  81.8551348  84.2667705
  36.4694038  81.9667882  83.4582024  36.6129867  81.5512401  84.9068513
  30.0276255  89.7629977  97.1535546  29.5443337  90.5630338  97.3599435
  30.1137194  89.7737922  96.2002990  23.2962215  91.5958357  85.0757365
  23.2732903  91.6946044  84.1239248  23.6062851  92.4423508  85.3974531
  25.9549593  93.6534512  89.1903979  26.9092846  93.6218455  89.1233911
  25.7562116  93.1925136  90.0054205  26.5448975  92.2235628  91.7574777
  27.3641864  92.7179707  91.7809614  26.8185783  91.3067596  91.7292345
  36.3015571  84.6146381  81.1202733  35.4141426  84.8996031  80.9022927
  36.7169560  84.4540144  80.2730010  39.6530107  84.6392902  84.8357072
  40.4290497  85.1289354  85.1081689  38.9278241  85.0650956  85.2928941
  42.0902666  85.3520521  85.8931013  42.6847157  85.1116257  85.1824321
  42.1629250  84.6327651  86.5204549  24.3099822  99.1954132  86.2074177
  24.1754289  98.4354533  85.6412175  23.8931884  99.9195032  85.7402966
  35.4458785  94.3791055  75.2150753  36.1494635  94.5841058  75.8308408
  34.7221433  94.9467817  75.4799836  36.2756595  90.1300916  81.3353023
  36.2191796  90.5869468  80.4960655  36.8284937  89.3691601  81.1575866
  40.0861401  85.9190648  82.1603142  39.8298335  85.5187284  82.9911350
  39.4614269  86.6334442  82.0353281  44.3973739  88.6586722  84.6674434
  43.8373297  88.7279911  85.4405996  43.7917242  88.4827706  83.9473930
  27.4668947 100.0923449  86.4192620  27.3501332 101.0368881  86.3171310
  26.6461394  99.7897010  86.8078419  37.3545482  94.8173584  77.2649213
  38.1891086  94.3854783  77.0826688  37.1929825  94.6455598  78.1926107
  37.0091374  91.3205698  78.6305552  36.9540178  91.1549969  77.6893996
  36.3837429  92.0281731  78.7867742  21.7983889  86.5573762  92.4566974
  22.4442753  86.0472716  92.9454199  21.5901040  87.2942444  93.0310399
  34.3237281  93.6254610  97.9559115  35.1928441  93.7995262  97.5945750
  33.8444033  94.4449026  97.8334844  30.3187500  80.8213807  78.2090870
  30.3066169  81.7655647  78.3659141  31.2110921  80.6383952  77.9150332
  28.4923462 100.7451711  89.6348548  29.3950708 100.7775321  89.9515043
  28.2660832  99.8152162  89.6494884  30.2477064  99.4982697  86.2958627
  29.2972695  99.4984559  86.1822999  30.5509550  98.7515432  85.7794662
  34.1339619  77.4156583  82.4636807  33.3672015  76.8615070  82.6093490
  34.5450324  77.4878452  83.3250959  26.1381380  83.7041379  96.5541988
  27.0012842  83.3478184  96.7645313  25.5646791  83.3655274  97.2417393
  45.9829757 105.3343236  87.3604389  46.6208167 105.2149983  86.6567730
  45.8650600 106.2824079  87.4192342  42.7919463 105.2870664  87.2965914
  42.4537975 105.1711728  86.4086449  43.6609232 104.8861829  87.2766920
  38.6506279 107.1406140  83.2862805  38.0871144 107.0496077  82.5179093
  38.5358674 106.3206045  83.7665298  43.2739246 106.4405515  93.2552120
  43.2627887 106.0458314  92.3832623  43.4359886 105.7071588  93.8485891
  36.1970711 108.6357332  86.1247026  36.9892003 108.2948156  85.7093325
  36.4367361 108.7452307  87.0449179  44.2305838 110.8077108  78.5977270
  43.5793818 111.3931188  78.2111284  45.0250201 111.3383303  78.6572307
  38.1561465 107.8966245  78.9964404  38.9292341 107.3495232  78.8577280
  38.5086864 108.7610494  79.2078866  39.9946507 109.2242627  92.2031304
  39.7036373 110.1288258  92.0877970  40.6303492 109.2659155  92.9175373
  40.9202714 106.6019476  88.7932663  41.5166287 106.3775498  88.0789626
  40.9777686 105.8604221  89.3958111  40.4927743 104.0558911  76.6282854
  40.7453263 103.5340432  75.8666317  39.5552302 103.8925056  76.7309538
  45.5371026 103.0594689  84.4357597  46.3234115 102.6414113  84.0848015
  45.8009730 103.9640782  84.6039246  45.7081103 108.4967540  79.1346254
  45.0726936 108.5702166  79.8467159  45.3778509 109.0861139  78.4565334
  50.9379453 102.9969923  85.3390576  51.6704625 102.4269139  85.5728405
  50.1818808 102.6091523  85.7797082  40.2124031 105.9587017  78.8307229
  40.0960290 105.2831920  79.4988314  40.3226291 105.4719391  78.0139382
  42.5555572 105.4197164  82.5353918  42.1913780 104.8927785  83.2466840
  43.4122688 105.0295633  82.3620404  48.4604873  96.7091497  89.7985185
  48.1288198  97.5786908  89.5746400  47.8650486  96.3927781  90.4779215
  42.1961059 100.4487064  77.5315267  42.3635462 101.3167300  77.8985738
  42.0058228 100.6114345  76.6076556  44.9536393 108.9104043  89.1981097
  44.6537116 109.8129081  89.0896905  44.6087452 108.6436226  90.0502250
  38.4048874 105.3617840  85.2317802  37.4799371 105.2294054  85.4395494
  38.6533287 106.1412059  85.7287744  48.3533536 101.4286583  86.8778535
  47.4450414 101.3601991  86.5837296  48.3021132 101.9058528  87.7060360
  42.1750280 102.9044721  78.5161934  42.0549905 103.3501772  79.3547414
  41.4802869 103.2530039  77.9575472  35.7657685 105.0051113  86.0661591
  35.8950066 105.2585592  86.9801003  35.0855136 105.5978821  85.7466246
  42.4274402 102.8476228  94.8213432  41.6507736 103.4070149  94.8116297
  43.0664965 103.3333011  95.3428302  50.2195183  99.6303021  88.6556409
  49.5769563  99.9235554  88.0096203  49.7150111  99.5155942  89.4609605
  47.8735346 103.3766194  79.3442268  48.7853203 103.6093581  79.1689965
  47.3644993 103.9603239  78.7817346  40.6820774 105.6561682  94.3831399
  41.4235459 106.1946726  94.1066223  39.9757760 106.2827971  94.5402951
  46.1576114 107.7990822  92.9803560  46.5659470 107.3573233  92.2358193
  45.4353376 107.2243450  93.2337753  42.5107184 102.7363429  90.3537117
  43.3568379 103.1602843  90.4971766  42.4505822 102.0797053  91.0475680
  46.4804929 108.3592013  86.7355849  45.8513791 108.5237727  86.0331917
  46.0930591 108.7733622  87.5066813  50.3594161 109.2946451  84.0900213
  49.6745199 109.6745352  83.5397246  50.4438010 109.9041777  84.8232161
  45.6606629 100.3967797  92.0118291  45.4167561 101.1509858  91.4752567
  45.9366560 100.7753145  92.8465538  47.6145092 106.9406410  90.6895557
  47.8261987 107.5838170  90.0129938  47.5674840 106.1068726  90.2217487
  45.2171321  99.5524230  87.5932129  44.3555800  99.8505484  87.8848866
  45.2433756  99.7694629  86.6613161  42.0332891 108.0966421  84.0005934
  42.4971236 108.3754124  83.2110557  41.7689689 107.1949866  83.8179025
  38.9256972 107.6437903  86.9385698  39.4958329 108.0725171  86.3003182
  39.5165084 107.3620487  87.6369883  40.9701777 104.2189573  80.8095500
  41.6725820 104.6710617  81.2769426  40.6382405 103.5773392  81.4375393
  39.4182138 102.8101330  95.1846709  38.7880799 103.4917611  95.4182106
  39.3118226 102.6984412  94.2399847  34.7127111 102.4773126  86.1112633
  33.9226165 102.7330655  85.6352744  35.2038358 103.2921464  86.2164674
  48.7290920 109.8178365  88.8617914  49.5508364 109.4158552  88.5800596
  48.7253323 109.7146599  89.8134030  36.6641856 102.8417705  83.0696110
  35.8673019 102.9536400  83.5879605  36.4367448 103.1804357  82.2037000
  42.4947524 109.3662408  91.0178624  42.5591956 109.8282816  91.8536796
  41.7858448 108.7359773  91.1460934  32.9964814 102.7303616  88.5427624
  33.2472852 103.6150626  88.8085200  33.5324362 102.5508218  87.7702716
  56.8196913 106.1617114  85.2102885  56.0660622 105.5924512  85.0546890
  56.9544454 106.1279778  86.1573520  42.2095541 111.0330516  80.8857605
  42.0741216 111.8782052  81.3142453  42.7505354 111.2349794  80.1223539
  38.6962881  97.1122096  97.5471960  38.3029826  96.5588294  98.2219604
  39.5129021  97.4232674  97.9378478  35.6624939 108.5505954  81.4585530
  36.1749459 109.3449204  81.6091095  36.3147652 107.8532244  81.3919131
  37.4719823 111.6671710  83.5408283  37.6486452 112.5889675  83.3529267
  38.2676657 111.3530130  83.9702663  41.6130842  98.5279975  95.1392217
  42.3540555  99.1287128  95.0596679  41.8448765  97.7857613  94.5810259
  36.7572180 103.7136342  93.4170446  36.6425695 102.8121599  93.7177545
  35.9016698 103.9600039  93.0655263  43.8364018 111.6554082  95.0157947
  43.3927872 110.8690461  94.6978851  44.4981231 111.8433233  94.3501838
  38.5951139 113.1849884  89.5418625  39.1458564 113.0566947  88.7695619
  37.7562615 113.4844773  89.1913518  45.9345256 111.9356882  93.0439348
  45.9163731 112.7565763  92.5519617  46.8565176 111.8110958  93.2689489
  42.3918310 109.4501012  93.8862856  42.9246647 108.6889300  93.6562164
  41.8632391 109.1574664  94.6287011  45.5588005  94.5561078  89.4156498
  45.2152274  95.4462720  89.3395609  45.9266967  94.3662736  88.5526083
  33.6273855 106.8794608  82.2345100  34.4649077 107.2891617  82.0178808
  33.8052123 105.9394050  82.2045294  45.5238288 104.5469689  77.9228933
  45.0084911 105.3174294  78.1617321  45.2515596 103.8734825  78.5461995
  43.1085399  99.3919390  82.9814172  42.2526995  99.0026240  82.8019810
  43.5212350  99.4711351  82.1213957  44.6384545  96.9265733  87.3805731
  44.1349341  96.8895868  86.5673537  44.9315152  97.8358476  87.4402388
  40.8827431  97.0104463  86.3871913  41.7480428  96.8147271  86.0277803
  40.9504940  96.7814815  87.3141270  50.4972562 107.3002044  79.8582107
  49.7202004 106.9613203  79.4137269  51.1764043 107.3054667  79.1837072
  45.3124591 102.4196781  79.7488715  45.0074726 102.7342930  80.5998858
  46.2655033 102.4978201  79.7916048  43.7571023 108.5787004  81.3981668
  43.2292384 107.8439764  81.0854906  43.2558525 109.3561681  81.1521637
  48.7363869 106.7736025  86.5148715  48.0787543 107.4635286  86.6028843
  49.5404268 107.1632457  86.8582701  38.4889750  99.2406671  83.7588280
  39.0633502  99.0181852  83.0261473  39.0760733  99.3095365  84.5116881
  47.5469327 105.1280398  84.5652657  48.0601209 105.7610389  85.0674366
  48.1970551 104.5281593  84.1996017  38.8159337 101.2711132  77.7784165
  37.9796650 101.6085818  78.0993440  38.6764107 101.1360111  76.8411302
  40.7912418  96.1147920  82.4863349  40.1376830  95.7996937  81.8619964
  40.7492892  95.4923660  83.2123172  41.9023623 106.3967215  74.4016642
  40.9950685 106.1656468  74.6007791  42.3994655 105.6004834  74.5890623
  44.8091702 115.1064722  77.3213328  44.1353400 115.4096419  77.9298286
  45.1957524 115.9093802  76.9718785  44.0250158 102.6029853  86.8110997
  43.1072720 102.8244800  86.6532685  44.4410302 102.6776164  85.9522704
  44.8085206 104.0021269  81.9413677  45.5557025 104.5142666  81.6320799
  45.0776796 103.6805322  82.8018071  43.0811856 106.4979810  78.9240632
  42.1723075 106.2138842  79.0213101  43.1106940 106.9178888  78.0643938
  48.3131124 110.1086399  82.6931799  47.8593451 109.2677309  82.7496990
  47.6825090 110.7447797  83.0306579  47.2564043 101.0378385  83.9232467
  46.5186800 100.5255771  84.2542709  47.5090817 100.5978767  83.1115744
  46.7564063 111.9462896  83.6281617  47.0487037 112.5067953  82.9093983
  47.2662683 112.2391457  84.3834776  47.3575671  93.8154637  84.5174236
  47.6634547  92.9552000  84.2300151  48.0828275  94.4072257  84.3173230
  33.6500027 104.2185324  82.9055834  33.4524426 103.6254684  82.1806900
  33.0946691 103.9137534  83.6231773  41.6296750 104.1108430  85.0250427
  41.6845360 103.1582267  84.9492904  40.8187952 104.2667869  85.5091725
  42.7787944 108.0388553  76.2628710  42.3407374 107.3224412  75.8034348
  43.5198385 108.2664668  75.7013802  39.5689110 102.7285490  82.7840806
  38.7556976 103.0279660  83.1905998  40.0648104 102.3341179  83.5015288
  41.7197688 112.7243247  84.7175071  41.6773867 112.9504093  83.7883603
  42.6360387 112.4906621  84.8660872  45.1663322 103.1927314  91.6155700
  45.5212710 103.4198787  92.4750165  45.8135453 103.5245691  90.9932955
  50.8961059 106.3145750  82.3205029  50.7578957 106.5047346  81.3926218
  50.5397278 107.0765133  82.7773080  39.0603185 100.3003845  88.4002041
  39.7002564 100.1592604  87.7025004  38.2280715 100.0138359  88.0240643
  50.9230438 108.3822277  87.3316300  51.3566945 108.2897566  88.1799354
  51.6362019 108.3579778  86.6936316  39.8363489 109.6006276  84.5137033
  40.6304087 109.1056596  84.3119608  39.1255181 109.0724139  84.1504739
  44.6558333 111.9824371  88.8649401  44.7095356 112.5515308  89.6327117
  43.7873115 112.1526256  88.5003438  36.1446252 103.7449358  80.5896786
  35.2143840 103.6833813  80.8066748  36.2403724 103.2225310  79.7933427
  36.0631801 100.2704170  83.1775028  36.3238619 101.1849504  83.0684188
  36.8848974  99.8028613  83.3271640  37.5356727 101.6841928  90.3473852
  38.2079780 101.4759290  89.6986501  36.7086513 101.4864014  89.9079084
  51.7845988 108.4245978  89.8649186  51.9781878 109.3291788  90.1108461
  51.6846606 107.9653397  90.6987771  43.4382299  98.3103868  92.3639513
  42.7910214  99.0093818  92.2703989  44.2083314  98.7440012  92.7315761
  46.8461097 108.5752721  95.4390066  46.6946603 108.3463272  94.5220150
  46.8365776 109.5323322  95.4521411  43.6146433 106.1484633  90.4236333
  44.5438493 106.2995793  90.2505300  43.1937463 106.2368654  89.5684979
  42.4134765 110.1735298  88.1934870  42.2745851 109.8054082  89.0660808
  41.6249361 110.6882937  88.0218828  43.0082917 115.2744394  79.5360407
  43.1834672 114.8032437  80.3506030  42.3215705 115.9010160  79.7641668
  43.9639980 109.5516900  85.5823708  43.6289813 109.5117670  86.4781358
  43.4643926 108.8861616  85.1094118  37.9384224 104.9584531  91.1076289
  37.8004022 104.2264769  91.7087828  38.8489147 104.8693431  90.8260477
  46.8999172 106.8972935  75.8560768  46.2828342 106.1719763  75.7593820
  46.4315660 107.6582295  75.5127842  40.5666525 104.6704490  90.5959969
  41.2766143 104.0297682  90.5546587  40.5235833 104.9217385  91.5186150
  48.5553303 111.6071843  93.5166548  48.4965849 110.9231063  92.8497131
  48.9572822 112.3490833  93.0647174  39.2795459 101.6569708  92.4155608
  38.7432816 101.2060446  93.0677205  38.6912167 101.7915617  91.6726073
  38.6897718 101.1158359  74.9782072  37.8127184 100.9947160  74.6144319
  39.1655471 100.3244437  74.7260961  48.5570711 109.5711427  91.7480528
  47.6697489 109.2337349  91.8706927  49.1269262 108.8394458  91.9849293
  30.2099858 105.9035519  85.0723579  30.8970898 105.5897249  84.4844595
  30.0547986 106.8076884  84.7990831  35.0134580 100.7925715  89.5008603
  34.9292769 100.1851385  88.7659013  34.1917286 101.2834734  89.5018099
  42.0871864 114.2312879  88.7141771  42.0142035 115.0367851  89.2261076
  41.6449257 114.4304845  87.8889792  41.8761644 113.4684649  82.2244593
  41.0929165 114.0106330  82.3182817  42.5754389 113.9858629  82.6238834
  45.1858294  99.2779279  84.8678798  45.6826993  98.5249241  84.5479868
  44.4145275  99.3143596  84.3022007  53.0388051 104.9819644  86.5097089
  53.0277927 105.8644360  86.1391023  52.1705431 104.6291195  86.3151627
  44.5470547 114.1299713  90.8699930  45.2598520 114.7647178  90.7975831
  44.0560576 114.2263579  90.0539932  46.2688074 108.0350966  82.4417221
  45.3344353 108.1552429  82.2721926  46.4464743 107.1323433  82.1777231
  41.7693262 101.4196662  84.5950483  41.3991050 100.8667702  85.2831388
  42.2652355 100.8154795  84.0425483  49.6560626 103.8768285  82.9767256
  50.1221078 104.7096277  82.9027558  50.1068126 103.4113267  83.6812514
  39.5982461 111.8794157  91.6905501  40.2991920 112.5130640  91.8434895
  39.1277576 112.2208889  90.9301140  47.7236857 110.2212107  79.9753408
  47.9996701 110.1068701  80.8847282  46.8541356 109.8229592  79.9365581
  47.6277288  96.2448872  87.0158157  46.7140368  96.4753099  87.1840364
  48.0570390  96.3287317  87.8672189  47.3983747 104.4338764  89.5158051
  46.7455197 104.6814672  88.8610504  47.7764127 103.6202903  89.1820528
  44.3590921 114.4698458  83.6186221  44.5413315 113.6520114  84.0813973
  45.1823907 114.6866150  83.1811111  44.6933086 113.3966643  80.8801270
  45.2220853 112.8859097  80.2671432  44.9561306 113.0809173  81.7446803
  43.4471320 105.1758575  96.0024088  42.7711957 105.0752705  96.6726463
  44.2698954 105.0197789  96.4660085  35.1950179 111.4130512  88.6236603
  35.7803616 110.6674200  88.7564507  34.9975018 111.7234469  89.5073267
  29.7867834 103.9836112  87.3441046  29.8251933 103.4499703  88.1378164
  29.2808127 103.4571318  86.7252024  37.1658596  98.8300653  90.8403589
  37.2299923  99.6915484  90.4280986  37.1025716  98.2174654  90.1075947
  36.6410869 100.9023785  94.4876623  37.2682907 100.5200863  95.1014147
  35.7838787 100.6837987  94.8532315  47.0404977 111.3086760  96.0930358
  47.5844881 111.9216719  95.5985313  46.4591822 111.8666339  96.6097371
  33.4176411 102.7100214  80.4194978  33.7129852 101.8010893  80.3662031
  32.5164447 102.6887954  80.0975980  45.3262490 114.4307478  87.2245386
  45.2013630 113.6297218  86.7156332  45.9841581 114.9253672  86.7359356
  36.9470658 100.7856211  86.4022526  36.2257244 101.3992179  86.2630000
  37.7363914 101.3213976  86.3239172  47.3897399 112.2316499  88.8524936
  46.4427734 112.1121850  88.7803263  47.7380172 111.3438997  88.9351198
  39.7496972  98.1210637  92.6763178  40.2731374  98.3672934  93.4389487
  39.5309305  98.9530672  92.2566315  35.1464253 100.3914312  80.5434303
  34.8176959  99.5111691  80.3609409  35.5003624 100.3361981  81.4310692
  44.3943832 112.0269215  85.0529288  44.2468794 111.0985922  85.2336858
  45.2197325 112.0489305  84.5686364  38.2606076 100.6787282  80.9109781
  38.6002149 101.2073203  80.1888389  38.7078197 101.0167688  81.6868347
  47.9977954 112.8497773  86.1394161  48.9224501 112.6440635  86.0018612
  47.8293257 112.6014175  87.0483503  40.9549517  99.0624333  90.3612849
  40.6146337  98.2632146  90.7633528  40.2488523  99.3626043  89.7889682
  41.6065989  96.1473645  88.8140172  42.4292058  95.6734123  88.6919062
  41.8504052  96.9264129  89.3138858  40.2474223  99.1761903  79.1103073
  40.9682586  99.5543156  78.6066790  39.6239527  99.8950780  79.2138051
  44.3905346  99.8807052  80.0461406  44.6068961 100.7631690  79.7450234
  43.9099413  99.4893266  79.3167048  39.1304568 102.8392766  86.6232150
  38.9849148 103.1533069  87.5156432  38.6529771 103.4577666  86.0703049
  40.9900950  99.8295314  86.6713040  40.9762519  98.9336407  86.3345338
  41.7073379  99.8365977  87.3051326  42.8427081 100.2632654  88.7166167
  42.5844859 101.1849724  88.7150498  42.3112121  99.8663088  89.4066631
  47.7873270 113.3683441  81.4956253  47.9610147 112.8029863  80.7430105
  48.2802161 114.1684336  81.3135743  33.6050230 105.3798110  89.5619811
  33.0603698 106.1557918  89.6940086  34.4829580 105.7268914  89.4038933
  40.3937846  98.7109694  81.9400610  40.5153758  97.7826340  82.1391497
  40.1039889  98.7248380  81.0278925  43.2629037  96.3964604  85.0767330
  43.2850734  96.4603937  84.1219309  43.6797096  95.5569113  85.2707836
  53.6412661 106.1319864  83.1146552  54.0843807 105.3827189  82.7165676
  52.7639171 106.1230000  82.7320284  48.7748442 112.6850205  78.5953151
  49.4699347 113.3056898  78.8140466  49.1171593 111.8345557  78.8705529
  34.3916252 104.5068006  92.4549968  33.6497988 104.6550642  93.0414599
  34.0708996 104.7676272  91.5916718  50.6739865 110.1349911  80.1240482
  51.1991190 110.4737184  79.3989802  50.5862218 109.1996926  79.9403616
  42.3359914 114.0483985  92.2530358  42.6447041 113.8033131  93.1253058
  43.1335396 114.2530623  91.7649229  34.8372865 112.3933435  84.4860363
  35.6630885 112.0937207  84.1059006  34.4866917 111.6241057  84.9350152
  39.8054398 111.7459903  86.5558037  39.1834408 111.0830608  86.2560264
  40.4759265 111.7721035  85.8731684  33.0381470 110.3119761  85.4449297
  32.2013379 109.8841936  85.2633298  33.0105116 110.5052205  86.3820088
  39.8778926 100.2241691  96.1490543  39.9267081 101.1003814  95.7668312
  40.4201440  99.6819084  95.5762186  50.3633772 110.7682815  95.4291680
  49.5729315 110.7506953  94.8896179  50.1267126 111.3071108  96.1840716
  50.4831647 107.6175281  92.7424408  50.5329652 107.4525288  93.6839931
  50.3745570 106.7502540  92.3522289  39.3667905 110.2963827  80.0316497
  39.5156026 110.9799291  79.3783170  40.1734349 110.2768917  80.5465953
  47.7735409 103.6006209  94.0583715  48.6745272 103.4612674  93.7667713
  47.8483384 103.7660664  94.9981892  42.1078214 100.9773064  92.9036901
  41.2381524 101.2706630  92.6319490  42.3437695 101.5613509  93.6244165
  51.9849843 110.0372222  92.9866430  51.6934652 110.4002203  93.8229891
  51.3721975 109.3239231  92.8079762  53.1845526 107.6025102  85.5069000
  54.0192417 108.0414906  85.6706560  53.3204655 107.1263755  84.6877246
  50.2337032 105.1604837  91.4546488  50.7091153 105.3532483  90.6465339
  49.3102597 105.2164023  91.2089871  37.1220538 106.3229004  81.0377566
  36.8766580 105.4191334  81.2357776  37.2916453 106.3246155  80.0957044
  44.8117248  97.1952681  90.4202322  45.3299192  97.9313708  90.0948810
  44.4572381  97.5016674  91.2549081  36.3916186 102.0557362  78.5363727
  35.6985431 102.1301717  77.8803763  36.1467938 101.2917705  79.0585244
  45.0629842  93.6152963  85.9403218  45.3431596  92.9476152  86.5663645
  45.8480449  93.8082059  85.4277882  42.8663311 112.7911957  77.5028244
  42.2937278 113.4102144  77.0498716  43.4396104 113.3411319  78.0368166
  48.9338701 102.0370597  89.6874793  49.8856124 102.1368695  89.7087017
  48.7642151 101.2448866  90.1972878  46.9553080  99.1226180  89.8734194
  46.3603012  99.4031193  89.1780683  46.6702777  99.6120081  90.6450935
  46.0860571 113.0749107  78.6336827  47.0191244 113.0094669  78.8369702
  45.9983783 113.9105374  78.1751359  48.7148587 112.3914977  75.5940774
  48.6362219 112.0574841  76.4876532  49.5358254 112.8836745  75.5932247
  51.4126778 105.2576717  88.8017093  51.3803099 104.3192718  88.9876777
  52.0227402 105.3360754  88.0682918  43.2510109 104.1272770  74.8444297
  44.1969214 103.9978978  74.9132715  42.8724354 103.3887432  75.3213725
  51.5621267 102.0487760  88.8475376  51.0460316 101.2646217  88.6605305
  52.4461215 101.7206477  89.0121896  49.2231994  95.7928776  84.8071189
  49.0256815  95.4843864  85.6914521  49.8331699  96.5190415  84.9369119
  57.2303328 106.3192724  87.9423130  57.9606717 106.0578012  88.5030833
  56.6210274 105.5821446  87.9825198  55.3118625 104.4600586  88.5397581
  54.5851789 104.3256551  87.9314073  54.8965912 104.7677415  89.3454299
  43.1348802 108.1790516  96.3044954  44.0551811 108.3569115  96.4985000
  43.0998385 107.2346561  96.1524653  41.4353026 102.0522746  74.7799182
  40.5284482 101.7555859  74.8561896  41.7129007 101.7552564  73.9133468
  32.3530967 103.3729110  85.2298229  32.0333751 102.5194418  84.9372603
  31.8064395 103.5877688  85.9856196  36.1310874 106.0891551  88.9467735
  36.3496884 107.0208658  88.9655769  36.5436648 105.7299525  89.7322539
  43.0515092  96.5959636  80.9343424  42.2415821  96.2506721  81.3098670
  43.7399509  96.2867180  81.5231035  44.9805640  95.6737683  82.5567720
  45.5336679  96.0933136  83.2157743  45.2175727  94.7473431  82.5990676
  41.0038740 101.6624756  98.3370484  40.9035467 102.6119113  98.2682575
  40.7860282 101.3342995  97.4646554  40.2051811  98.9109681  74.9211161
  41.0670975  99.2364580  75.1806979  40.3902155  98.1241177  74.4084227
  32.2219227 106.9932021  87.1991350  31.5282698 106.5785974  86.6861305
  32.9692218 107.0352558  86.6024769  48.3584448  97.7838208  82.0646384
  47.7783117  98.4423012  81.6824437  48.0920380  96.9615552  81.6533802
  46.8088014  97.1843266  84.2667705  47.3087792  97.2959800  83.4582024
  47.4523622  96.8804318  84.9068513  40.8670010 105.0921895  97.1535546
  40.3837091 105.8922255  97.3599435  40.9530949 105.1029840  96.2002990
  34.1355969 106.9250275  85.0757365  34.1126657 107.0237962  84.1239248
  34.4456606 107.7715426  85.3974531  36.7943347 108.9826430  89.1903979
  37.7486601 108.9510372  89.1233911  36.5955871 108.5217054  90.0054205
  37.3842729 107.5527546  91.7574777  38.2035618 108.0471625  91.7809614
  37.6579537 106.6359514  91.7292345  47.1409326  99.9438298  81.1202733
  46.2535181 100.2287949  80.9022927  47.5563315  99.7832062  80.2730010
  50.4923862  99.9684819  84.8357072  51.2684252 100.4581272  85.1081689
  49.7671996 100.3942873  85.2928941  52.9296420 100.6812438  85.8931013
  53.5240911 100.4408174  85.1824321  53.0023004  99.9619569  86.5204549
  46.2852539 109.7082973  75.2150753  46.9888389 109.9132975  75.8308408
  45.5615188 110.2759735  75.4799836  47.1150349 105.4592834  81.3353023
  47.0585551 105.9161386  80.4960655  47.6678692 104.6983519  81.1575866
  50.9255155 101.2482566  82.1603142  50.6692089 100.8479202  82.9911350
  50.3008023 101.9626360  82.0353281  55.2367493 103.9878639  84.6674434
  54.6767051 104.0571829  85.4405996  54.6310996 103.8119624  83.9473930
  48.1939236 110.1465502  77.2649213  49.0284840 109.7146701  77.0826688
  48.0323579 109.9747516  78.1926107  47.8485129 106.6497615  78.6305552
  47.7933932 106.4841887  77.6893996  47.2231184 107.3573648  78.7867742
  32.6377644 101.8865680  92.4566974  33.2836507 101.3764634  92.9454199
  32.4294795 102.6234361  93.0310399  45.1631036 108.9546527  97.9559115
  46.0322195 109.1287180  97.5945750  44.6837787 109.7740944  97.8334844
  41.1581254  96.1505724  78.2090870  41.1459924  97.0947564  78.3659141
  42.0504676  95.9675870  77.9150332  41.0870818 114.8274615  86.2958627
  40.1366449 114.8276476  86.1822999  41.3903304 114.0807349  85.7794662
  44.9733374  92.7448501  82.4636807  44.2065769  92.1906988  82.6093490
  45.3844079  92.8170370  83.3250959  36.9775135  99.0333297  96.5541988
  37.8406596  98.6770102  96.7645313  36.4040545  98.6947192  97.2417393
  56.3764780 118.3886607  84.4357597  57.1627869 117.9706030  84.0848015
  56.6403484 119.2932699  84.6039246  61.7773207 118.3261840  85.3390576
  62.5098379 117.7561057  85.5728405  61.0212563 117.9383441  85.7797082
  59.2998628 112.0383414  89.7985185  58.9681952 112.9078825  89.5746400
  58.7044241 111.7219698  90.4779215  53.0354814 115.7778981  77.5315267
  53.2029216 116.6459218  77.8985738  52.8451983 115.9406263  76.6076556
  59.1927291 116.7578501  86.8778535  58.2844168 116.6893909  86.5837296
  59.1414887 117.2350445  87.7060360  53.0144035 118.2336639  78.5161934
  52.8943660 118.6793690  79.3547414  52.3196623 118.5821957  77.9575472
  53.2668157 118.1768146  94.8213432  52.4901491 118.7362066  94.8116297
  53.9058720 118.6624929  95.3428302  61.0588937 114.9594939  88.6556409
  60.4163317 115.2527472  88.0096203  60.5543866 114.8447859  89.4609605
  58.7129101 118.7058112  79.3442268  59.6246957 118.9385499  79.1689965
  58.2038748 119.2895156  78.7817346  53.3500939 118.0655347  90.3537117
  54.1962134 118.4894760  90.4971766  53.2899576 117.4088971  91.0475680
  56.5000384 115.7259715  92.0118291  56.2561316 116.4801776  91.4752567
  56.7760314 116.1045063  92.8465538  56.0565076 114.8816148  87.5932129
  55.1949555 115.1797402  87.8848866  56.0827510 115.0986547  86.6613161
  67.6590668 121.4909031  85.2102885  66.9054376 120.9216429  85.0546890
  67.7938209 121.4571696  86.1573520  49.5356635 112.4414014  97.5471960
  49.1423581 111.8880212  98.2219604  50.3522776 112.7524592  97.9378478
  52.4524596 113.8571893  95.1392217  53.1934310 114.4579046  95.0596679
  52.6842519 113.1149530  94.5810259  56.3981759 109.8852996  89.4156498
  56.0546029 110.7754637  89.3395609  56.7660722 109.6954653  88.5526083
  56.3632042 119.8761607  77.9228933  55.8478665 120.6466211  78.1617321
  56.0909351 119.2026743  78.5461995  53.9479153 114.7211307  82.9814172
  53.0920749 114.3318158  82.8019810  54.3606105 114.8003268  82.1213957
  55.4778300 112.2557651  87.3805731  54.9743095 112.2187786  86.5673537
  55.7708907 113.1650393  87.4402388  51.7221186 112.3396380  86.3871913
  52.5874182 112.1439189  86.0277803  51.7898695 112.1106732  87.3141270
  61.3366316 122.6293961  79.8582107  60.5595759 122.2905121  79.4137269
  62.0157797 122.6346584  79.1837072  56.1518345 117.7488699  79.7488715
  55.8468481 118.0634848  80.5998858  57.1048787 117.8270119  79.7916048
  49.3283505 114.5698588  83.7588280  49.9027257 114.3473770  83.0261473
  49.9154487 114.6387283  84.5116881  58.3863082 120.4572315  84.5652657
  58.8994964 121.0902307  85.0674366  59.0364306 119.8573511  84.1996017
  49.6553092 116.6003049  77.7784165  48.8190404 116.9377736  78.0993440
  49.5157861 116.4652029  76.8411302  51.6306172 111.4439837  82.4863349
  50.9770585 111.1288854  81.8619964  51.5886647 110.8215578  83.2123172
  54.8643913 117.9321771  86.8110997  53.9466474 118.1536718  86.6532685
  55.2804056 118.0068081  85.9522704  55.6478961 119.3313186  81.9413677
  56.3950779 119.8434584  81.6320799  55.9170550 119.0097239  82.8018071
  58.0957798 116.3670303  83.9232467  57.3580554 115.8547689  84.2542709
  58.3484571 115.9270684  83.1115744  58.1969425 109.1446555  84.5174236
  58.5028302 108.2843918  84.2300151  58.9222030 109.7364175  84.3173230
  50.4082865 118.0577408  82.7840806  49.5950730 118.3571578  83.1905998
  50.9041859 117.6633096  83.5015288  56.0057076 118.5219232  91.6155700
  56.3606464 118.7490705  92.4750165  56.6529208 118.8537609  90.9932955
  61.7354813 121.6437668  82.3205029  61.5972712 121.8339264  81.3926218
  61.3791032 122.4057051  82.7773080  49.8996939 115.6295763  88.4002041
  50.5396319 115.4884522  87.7025004  49.0674470 115.3430276  88.0240643
  46.9025556 115.5996088  83.1775028  47.1632373 116.5141421  83.0684188
  47.7242728 115.1320531  83.3271640  48.3750481 117.0133845  90.3473852
  49.0473535 116.8051207  89.6986501  47.5480268 116.8155931  89.9079084
  54.2776053 113.6395786  92.3639513  53.6303968 114.3385736  92.2703989
  55.0477069 114.0731930  92.7315761  50.1189213 116.9861625  92.4155608
  49.5826570 116.5352364  93.0677205  49.5305922 117.1207534  91.6726073
  49.5291472 116.4450277  74.9782072  48.6520938 116.3239078  74.6144319
  50.0049225 115.6536355  74.7260961  45.8528334 116.1217633  89.5008603
  45.7686523 115.5143303  88.7659013  45.0311041 116.6126651  89.5018099
  56.0252048 114.6071197  84.8678798  56.5220748 113.8541159  84.5479868
  55.2539030 114.6435513  84.3022007  63.8781806 120.3111562  86.5097089
  63.8671682 121.1936278  86.1391023  63.0099185 119.9583113  86.3151627
  52.6087017 116.7488580  84.5950483  52.2384804 116.1959620  85.2831388
  53.1046109 116.1446713  84.0425483  60.4954380 119.2060203  82.9767256
  60.9614832 120.0388195  82.9027558  60.9461881 118.7405185  83.6812514
  58.4671043 111.5740790  87.0158157  57.5534123 111.8045017  87.1840364
  58.8964144 111.6579234  87.8672189  58.2377501 119.7630682  89.5158051
  57.5848952 120.0106590  88.8610504  58.6157881 118.9494820  89.1820528
  48.0052351 114.1592570  90.8403589  48.0693677 115.0207401  90.4280986
  47.9419471 113.5466572  90.1075947  47.4804623 116.2315703  94.4876623
  48.1076662 115.8492780  95.1014147  46.6232542 116.0129905  94.8532315
  47.7864413 116.1148129  86.4022526  47.0650999 116.7284096  86.2630000
  48.5757669 116.6505893  86.3239172  50.5890726 113.4502555  92.6763178
  51.1125128 113.6964852  93.4389487  50.3703060 114.2822590  92.2566315
  45.9858007 115.7206230  80.5434303  45.6570714 114.8403609  80.3609409
  46.3397378 115.6653898  81.4310692  49.0999831 116.0079200  80.9109781
  49.4395903 116.5365121  80.1888389  49.5471951 116.3459606  81.6868347
  51.7943271 114.3916250  90.3612849  51.4540092 113.5924063  90.7633528
  51.0882278 114.6917961  89.7889682  52.4459743 111.4765563  88.8140172
  53.2685813 111.0026041  88.6919062  52.6897807 112.2556046  89.3138858
  51.0867978 114.5053821  79.1103073  51.8076340 114.8835074  78.6066790
  50.4633282 115.2242698  79.2138051  55.2299101 115.2098970  80.0461406
  55.4462715 116.0923608  79.7450234  54.7493168 114.8185183  79.3167048
  51.8294705 115.1587231  86.6713040  51.8156274 114.2628325  86.3345338
  52.5467133 115.1657895  87.3051326  53.6820836 115.5924571  88.7166167
  53.4238613 116.5141642  88.7150498  53.1505876 115.1955006  89.4066631
  51.2331601 114.0401612  81.9400610  51.3547512 113.1118258  82.1391497
  50.9433643 114.0540298  81.0278925  54.1022791 111.7256522  85.0767330
  54.1244488 111.7895855  84.1219309  54.5190850 110.8861031  85.2707836
  64.4806416 121.4611782  83.1146552  64.9237562 120.7119107  82.7165676
  63.6032926 121.4521918  82.7320284  50.7172680 115.5533609  96.1490543
  50.7660836 116.4295732  95.7668312  51.2595195 115.0111002  95.5762186
  58.6129163 118.9298127  94.0583715  59.5139026 118.7904591  93.7667713
  58.6877138 119.0952581  94.9981892  52.9471969 116.3064981  92.9036901
  52.0775278 116.5998547  92.6319490  53.1831449 116.8905426  93.6244165
  64.0239280 122.9317020  85.5069000  64.8586172 123.3706824  85.6706560
  64.1598409 122.4555673  84.6877246  61.0730786 120.4896755  91.4546488
  61.5484908 120.6824401  90.6465339  60.1496352 120.5455941  91.2089871
  55.6511003 112.5244598  90.4202322  56.1692947 113.2605625  90.0948810
  55.2966135 112.8308592  91.2549081  47.2309940 117.3849279  78.5363727
  46.5379185 117.4593634  77.8803763  46.9861692 116.6209623  79.0585244
  55.9023597 108.9444881  85.9403218  56.1825351 108.2768070  86.5663645
  56.6874204 109.1373976  85.4277882  59.7732455 117.3662515  89.6874793
  60.7249878 117.4660612  89.7087017  59.6035906 116.5740783  90.1972878
  57.7946835 114.4518098  89.8734194  57.1996767 114.7323111  89.1780683
  57.5096531 114.9411999  90.6450935  62.2520533 120.5868634  88.8017093
  62.2196853 119.6484635  88.9876777  62.8621157 120.6652671  88.0682918
  54.0903864 119.4564687  74.8444297  55.0362969 119.3270896  74.9132715
  53.7118109 118.7179349  75.3213725  62.4015021 117.3779678  88.8475376
  61.8854070 116.5938135  88.6605305  63.2854970 117.0498395  89.0121896
  60.0625748 111.1220693  84.8071189  59.8650569 110.8135782  85.6914521
  60.6725454 111.8482332  84.9369119  68.0697083 121.6484641  87.9423130
  68.8000471 121.3869929  88.5030833  67.4604028 120.9113363  87.9825198
  66.1512380 119.7892504  88.5397581  65.4245544 119.6548469  87.9314073
  65.7359667 120.0969333  89.3454299  52.2746781 117.3814664  74.7799182
  51.3678236 117.0847777  74.8561896  52.5522762 117.0844482  73.9133468
  53.8908847 111.9251554  80.9343424  53.0809575 111.5798639  81.3098670
  54.5793264 111.6159097  81.5231035  55.8199395 111.0029600  82.5567720
  56.3730434 111.4225054  83.2157743  56.0569481 110.0765348  82.5990676
  51.8432494 116.9916674  98.3370484  51.7429221 117.9411031  98.2682575
  51.6254036 116.6634913  97.4646554  51.0445566 114.2401599  74.9211161
  51.9064730 114.5656497  75.1806979  51.2295910 113.4533095  74.4084227
  59.1978202 113.1130126  82.0646384  58.6176871 113.7714930  81.6824437
  58.9314135 112.2907470  81.6533802  57.6481768 112.5135183  84.2667705
  58.1481547 112.6251718  83.4582024  58.2917376 112.2096236  84.9068513
  57.9803080 115.2730216  81.1202733  57.0928935 115.5579867  80.9022927
  58.3957069 115.1123979  80.2730010  61.3317616 115.2976737  84.8357072
  62.1078006 115.7873189  85.1081689  60.6065750 115.7234791  85.2928941
  63.7690175 116.0104356  85.8931013  64.3634666 115.7700092  85.1824321
  63.8416759 115.2911487  86.5204549  57.9544104 120.7884752  81.3353023
  57.8979305 121.2453303  80.4960655  58.5072446 120.0275436  81.1575866
  61.7648910 116.5774484  82.1603142  61.5085844 116.1771119  82.9911350
  61.1401778 117.2918278  82.0353281  66.0761248 119.3170557  84.6674434
  65.5160806 119.3863746  85.4405996  65.4704751 119.1411542  83.9473930
  51.9975009 111.4797642  78.2090870  51.9853678 112.4239482  78.3659141
  52.8898430 111.2967787  77.9150332  55.8127128 108.0740419  82.4636807
  55.0459524 107.5198905  82.6093490  56.2237833 108.1462287  83.3250959
  47.8168889 114.3625215  96.5541988  48.6800351 114.0062019  96.7645313
  47.2434300 114.0239109  97.2417393  69.0363179 124.4738472  84.5174236
  69.3422056 123.6135836  84.2300151  69.7615784 125.0656093  84.3173230
  66.7417351 124.2736798  85.9403218  67.0219105 123.6059988  86.5663645
  67.5267958 124.4665894  85.4277882  66.6520883 123.4032336  82.4636807
  65.8853278 122.8490823  82.6093490  67.0631588 123.4754205  83.3250959
   2.6254740  21.0237687  74.0849696   3.2633150  20.9044435  73.3813036
   2.5075583  21.9718531  74.1437648   2.1796009  18.7489141  71.1602904
   2.9659098  18.3308564  70.8093321   2.4434713  19.6535233  71.3284553
   2.3506086  24.1861992  65.8591561   1.7151919  24.2596618  66.5712466
   2.0203493  24.7755590  65.1810640   7.5804436  18.6864374  72.0635883
   8.3129608  18.1163591  72.2973712   6.8243792  18.2985975  72.5042388
   1.5961376  24.5998495  75.9226404   1.2962099  25.5023533  75.8142211
   1.2512435  24.3330678  76.7747557   4.9958520  17.1181035  73.6023841
   4.0875397  17.0496443  73.3082602   4.9446115  17.5952980  74.4305667
   6.8620166  15.3197473  75.3801715   6.2194546  15.6130006  74.7341510
   6.3575095  15.2050393  76.1854912   4.5160330  19.0660646  66.0687574
   5.4278186  19.2988033  65.8935272   4.0069977  19.6497691  65.5062653
   2.8001097  23.4885274  79.7048867   3.2084453  23.0467685  78.9603499
   2.0778359  22.9137902  79.9583060   3.1229912  24.0486465  73.4601156
   2.4938774  24.2132179  72.7577224   2.7355574  24.4628074  74.2312120
   7.0019144  24.9840903  70.8145520   6.3170182  25.3639804  70.2642553
   7.0862993  25.5936229  71.5477467   4.2570076  22.6300862  77.4140863
   4.4686971  23.2732622  76.7375244   4.2099824  21.7963178  76.9462793
   5.3715903  25.5072817  75.5863221   6.1933347  25.1053004  75.3045902
   5.3678306  25.4041051  76.5379336  13.4621897  21.8511566  71.9348192
  12.7085605  21.2818964  71.7792196  13.5969438  21.8174230  72.8818827
   2.5770239  27.6251334  79.7684655   2.5588714  28.4460215  79.2764924
   3.4990159  27.5005410  79.9934796   2.1663271  20.2364141  64.6474240
   1.6509894  21.0068745  64.8862627   1.8940579  19.5629277  65.2707301
   7.1397545  22.9896496  66.5827413   6.3626988  22.6507655  66.1382576
   7.8189026  22.9949119  65.9082379   1.9549574  18.1091233  66.4734021
   1.6499710  18.4237382  67.3244164   2.9080016  18.1872653  66.5161354
   5.3788852  22.4630477  73.2394021   4.7212526  23.1529738  73.3274150
   6.1829251  22.8526909  73.5828008   4.1894311  20.8174849  71.2897963
   4.7026192  21.4504841  71.7919673   4.8395535  20.2176045  70.9241323
   1.4516685  30.7959174  64.0458634   0.7778384  31.0990870  64.6543592
   1.8382507  31.5988254  63.6964091   1.4510189  19.6915721  68.6658984
   2.1982008  20.2037118  68.3566106   1.7201779  19.3699773  69.5263378
   4.9556107  25.7980851  69.4177106   4.5018434  24.9571761  69.4742296
   4.3250074  26.4342249  69.7551886   3.8989026  16.7272837  70.6477773
   3.1611783  16.2150223  70.9788016   4.1515800  16.2873219  69.8361050
   3.3989046  27.6357348  70.3526924   3.6912021  28.1962405  69.6339290
   3.9087667  27.9285909  71.1080083   1.8088305  18.8821766  78.3401006
   2.1637693  19.1093239  79.1995472   2.4560436  19.2140143  77.7178262
   7.5386042  22.0040202  69.0450335   7.4003941  22.1941798  68.1171525
   7.1822261  22.7659585  69.5018387   7.5655422  24.0716729  74.0561607
   7.9991928  23.9792018  74.9044661   8.2787002  24.0474230  73.4181623
   1.2983317  27.6718823  75.5894708   1.3520339  28.2409760  76.3572423
   0.4298098  27.8420708  75.2248745   8.4270971  24.1140430  76.5894492
   8.6206861  25.0186240  76.8353767   8.3271589  23.6547849  77.4233077
   3.4886080  24.2647173  82.1635373   3.3371586  24.0357724  81.2465457
   3.4790759  25.2217774  82.1766718   3.5424155  22.5867387  62.5806074
   2.9253326  21.8614215  62.4839127   3.0740643  23.3476747  62.2373149
   5.1978287  27.2966295  80.2411855   5.1390833  26.6125515  79.5742438
   5.5997805  28.0385285  79.7892481   5.1995694  25.2605879  78.4725834
   4.3122473  24.9231801  78.5952233   5.7694245  24.5288910  78.7094600
   9.6813034  20.6714096  73.2342396   9.6702911  21.5538812  72.8636329
   8.8130414  20.3185647  73.0396933   1.1895531  29.8194165  77.5945236
   1.9023503  30.4541630  77.5221138   0.6985559  29.9158031  76.7785238
   2.9113058  23.7245418  69.1662528   1.9769336  23.8446881  68.9967232
   3.0889726  22.8217885  68.9022538   6.2985609  19.5662737  69.7012562
   6.7646061  20.3990729  69.6272865   6.7493110  19.1007719  70.4057821
   4.3661840  25.9106559  66.6998714   4.6421684  25.7963153  67.6092588
   3.4966339  25.5124043  66.6610887   4.0408730  20.1233216  76.2403357
   3.3880181  20.3709124  75.5855810   4.4189110  19.3097354  75.9065835
   1.0015904  30.1592909  70.3431528   1.1838299  29.3414565  70.8059280
   1.8248890  30.3760602  69.9056418   1.3358070  29.0861095  67.6046576
   1.8645836  28.5753549  66.9916738   1.5986289  28.7703625  68.4692109
   3.6829960  26.9981212  82.8175665   4.2269864  27.6111171  82.3230620
   3.1016805  27.5560791  83.3342678   1.9687473  30.1201930  73.9490693
   1.8438613  29.3191670  73.4401638   2.6266565  30.6148124  73.4604663
   4.0322382  27.9210950  75.5770243   3.0852717  27.8016302  75.5048570
   4.3805155  27.0333448  75.6596504   1.0368815  27.7163667  71.7774595
   0.8893778  26.7880374  71.9582165   1.8622309  27.7383757  71.2931670
   4.6402937  28.5392225  72.8639468   5.5649484  28.3335087  72.7263919
   4.4718240  28.2908627  73.7728809   4.4298253  29.0577893  68.2201559
   4.6035131  28.4924315  67.4675412   4.9227144  29.8578788  68.0381049
  10.2837644  21.8214316  69.8391859  10.7268790  21.0721641  69.4410982
   9.4064155  21.8124452  69.4565591   5.4173426  28.3744657  65.3198458
   6.1124330  28.9951350  65.5385772   5.7596576  27.5240008  65.5950835
   7.3164849  25.8244363  66.8485788   7.8416173  26.1631636  66.1235108
   7.2287201  24.8891378  66.6648923   7.0058755  26.4577266  82.1536986
   6.2154299  26.4401405  81.6141486   6.7692109  26.9965560  82.9086023
   7.1256630  23.3069733  79.4669715   7.1754635  23.1419740  80.4085238
   7.0170553  22.4396992  79.0767596   4.4160392  19.2900661  80.7829022
   5.3170255  19.1507126  80.4913019   4.4908367  19.4555116  81.7227199
   8.6274827  25.7266674  79.7111736   8.3359635  26.0896655  80.5475197
   8.0146958  25.0133683  79.5325068   9.8270509  23.2919554  72.2314307
  10.6617400  23.7309358  72.3951867   9.9629638  22.8158207  71.4122552
   6.8762015  20.8499289  78.1791794   7.3516137  21.0426935  77.3710646
   5.9527580  20.9058475  77.9335178   5.5763684  17.7265049  76.4120100
   6.5281107  17.8263147  76.4332324   5.4067134  16.9343318  76.9218184
   2.7285554  28.7643559  65.3582133   3.6616227  28.6989121  65.5615009
   2.6408767  29.5999826  64.8996666   5.3573571  28.0809429  62.3186081
   5.2787202  27.7469293  63.2121839   6.1783237  28.5731197  62.3177553
   8.0551762  20.9471169  75.5262400   8.0228082  20.0087169  75.7122083
   8.6652385  21.0255205  74.7928224   8.2046250  17.7382212  75.5720683
   7.6885299  16.9540669  75.3850612   9.0886199  17.4100929  75.7367202
  13.8728312  22.0087176  74.6668436  14.6031700  21.7472464  75.2276140
  13.2635257  21.2715897  74.7070504  11.9543609  20.1495038  75.2642888
  11.2276772  20.0151003  74.6559379  11.5390896  20.4571867  76.0699606
   7.1348845  15.6579271  71.5602379   7.9109235  16.1475724  71.8326995
   6.4096979  16.0837325  72.0174248   9.5721404  16.3706890  72.6176319
  10.1665894  16.1302626  71.9069627   9.6447987  15.6514021  73.2449855
   2.9277522  25.3977425  61.9396059   3.6313372  25.6027427  62.5553715
   2.2040171  25.9654187  62.2045143   3.7575333  21.1487286  68.0598329
   3.7010534  21.6055837  67.2205962   4.3103675  20.3877971  67.8821172
   7.5680139  16.9377018  68.8848449   7.3117073  16.5373654  69.7156657
   6.9433007  17.6520812  68.7598588  11.8792476  19.6773091  71.3919740
  11.3192034  19.7466280  72.1651302  11.2735980  19.5014076  70.6719237
   4.8364220  25.8359954  63.9894519   5.6709824  25.4041152  63.8071994
   4.6748563  25.6641968  64.9171414   4.4910112  22.3392067  65.3550859
   4.4358916  22.1736339  64.4139303   3.8656167  23.0468100  65.5113048
   1.8056019  24.6440979  84.6804421   2.6747179  24.8181631  84.3191056
   1.3262771  25.4635396  84.5580151  13.4648495  36.3529605  74.0849696
  14.1026905  36.2336352  73.3813036  13.3469338  37.3010449  74.1437648
  10.2738201  36.3057033  74.0211221   9.9356713  36.1898098  73.1331756
  11.1427969  35.9048198  74.0012227   6.1325017  38.1592510  70.0108112
   5.5689882  38.0682447  69.2424399   6.0177412  37.3392414  70.4910604
  10.7557984  37.4591885  79.9797426  10.7446625  37.0644683  79.1077930
  10.9178624  36.7257958  80.5731198   3.6789449  39.6543701  72.8492332
   4.4710741  39.3134526  72.4338631   3.9186099  39.7638676  73.7694486
  11.7124576  41.8263477  65.3222577  11.0612555  42.4117558  64.9356590
  12.5068938  42.3569672  65.3817614   5.6380203  38.9152614  65.7209711
   6.4111079  38.3681602  65.5822587   5.9905602  39.7796864  65.9324172
   7.4765245  40.2428997  78.9276610   7.1855111  41.1474628  78.8123277
   8.1122230  40.2845524  79.6420680   8.4021452  37.6205845  75.5177970
   8.9985024  37.3961868  74.8034933   8.4596424  36.8790591  76.1203418
   7.9746481  35.0745281  63.3528161   8.2272001  34.5526802  62.5911624
   7.0371040  34.9111426  63.4554845  13.0189763  34.0781059  71.1602904
  13.8052853  33.6600482  70.8093321  13.2828468  34.9827151  71.3284553
  13.1899841  39.5153909  65.8591561  12.5545674  39.5888536  66.5712466
  12.8597247  40.1047508  65.1810640  18.4198190  34.0156292  72.0635883
  19.1523362  33.4455509  72.2973712  17.6637546  33.6277893  72.5042388
   7.6942769  36.9773387  65.5552536   7.5779027  36.3018290  66.2233620
   7.8045029  36.4905760  64.7384689  10.0374310  36.4383534  69.2599225
   9.6732517  35.9114155  69.9712147  10.8941426  36.0482003  69.0865711
  15.9423611  27.7277866  76.5230491  15.6106936  28.5973277  76.2991706
  15.3469224  27.4114150  77.2024522   9.6779797  31.4673433  64.2560574
   9.8454200  32.3353670  64.6231045   9.4876966  31.6300715  63.3321863
  12.4355130  39.9290412  75.9226404  12.1355853  40.8315451  75.8142211
  12.0906190  39.6622595  76.7747557   5.8867612  36.3804209  71.9563108
   4.9618108  36.2480423  72.1640800   6.1352025  37.1598428  72.4533051
  15.8352274  32.4472952  73.6023841  14.9269151  32.3788361  73.3082602
  15.7839870  32.9244897  74.4305667   9.6569018  33.9231091  65.2407240
   9.5368643  34.3688142  66.0792721   8.9621606  34.2716409  64.6820779
   3.2476423  36.0237483  72.7906897   3.3768804  36.2771962  73.7046309
   2.5673874  36.6165191  72.4711553   7.4175910  46.6934733  68.8897372
   7.3399940  47.6442558  68.9685852   6.8137554  46.3480605  69.5472298
   9.9093140  33.8662598  81.5458739   9.1326474  34.4256518  81.5361603
  10.5483703  34.3519381  82.0673609  17.7013921  30.6489391  75.3801715
  17.0588301  30.9421924  74.7341510  17.1968849  30.5342311  76.1854912
  15.3554084  34.3952564  66.0687574  16.2671940  34.6279951  65.8935272
  14.8463731  34.9789608  65.5062653   8.1639512  36.6748051  81.1076706
   8.9054197  37.2133095  80.8311529   7.4576498  37.3014340  81.2648257
  13.6394852  38.8177192  79.7048867  14.0478208  38.3759602  78.9603499
  12.9172113  38.2429819  79.9583060   9.9925922  33.7549799  77.0782424
  10.8387117  34.1789212  77.2217073   9.9324560  33.0983423  77.7720987
  13.9623667  39.3778382  73.4601156  13.3332529  39.5424097  72.7577224
  13.5749329  39.7919992  74.2312120  17.8412898  40.3132820  70.8145520
  17.1563937  40.6931722  70.2642553  17.9256748  40.9228147  71.5477467
  13.1425367  31.4154167  78.7363598  12.8986299  32.1696228  78.1997873
  13.4185298  31.7939515  79.5710845  15.0963830  37.9592779  77.4140863
  15.3080725  38.6024539  76.7375244  15.0493578  37.1255096  76.9462793
  12.6990059  30.5710600  74.3177435  11.8374538  30.8691854  74.6094173
  12.7252494  30.7880999  73.3858468   9.5151628  39.1152791  70.7251241
   9.9789974  39.3940494  69.9355864   9.2508427  38.2136235  70.5424332
   6.4075709  38.6624272  73.6631004   6.9777067  39.0911540  73.0248489
   6.9983821  38.3806857  74.3615190   8.4520514  35.2375943  67.5340806
   9.1544558  35.6896987  68.0014733   8.1201143  34.5959762  68.1620699
   6.9000876  33.8287700  81.9092016   6.2699537  34.5103980  82.1427412
   6.7936964  33.7170781  80.9645154   2.1945848  33.4959496  72.8357940
   1.4044902  33.7517024  72.3598050   2.6857096  34.3107833  72.9409980
  16.2109658  40.8364735  75.5863221  17.0327102  40.4344922  75.3045902
  16.2072061  40.7332969  76.5379336   4.1460594  33.8604075  69.7941416
   3.3491757  33.9722769  70.3124912   3.9186186  34.1990727  68.9282307
   9.9766261  40.3848778  77.7423931  10.0410694  40.8469185  78.5782103
   9.2677185  39.7546143  77.8706241   0.4783551  33.7489986  75.2672931
   0.7291590  34.6336996  75.5330506   1.0143100  33.5694588  74.4948022
  24.3015651  37.1803483  71.9348192  23.5479359  36.6110881  71.7792196
  24.4363192  37.1466148  72.8818827   9.6914279  42.0516886  67.6102911
   9.5559954  42.8968421  68.0387759  10.2324092  42.2536163  66.8468845
   6.1781619  28.1308465  84.2717267   5.7848564  27.5774664  84.9464911
   6.9947759  28.4419044  84.6623784   3.1443676  39.5692324  68.1830836
   3.6568197  40.3635574  68.3336401   3.7966389  38.8718614  68.1164438
   4.9538561  42.6858080  70.2653590   5.1305189  43.6076045  70.0774574
   5.7495395  42.3716499  70.6947969   9.0949580  29.5466344  81.8637523
   9.8359293  30.1473498  81.7841986   9.3267503  28.8043982  81.3055566
   4.2390918  34.7322712  80.1415753   4.1244433  33.8307969  80.4422852
   3.3835435  34.9786409  79.7900569  11.3182755  42.6740452  81.7403253
  10.8746610  41.8876831  81.4224158  11.9799969  42.8619603  81.0747144
   6.0769877  44.2036254  76.2663932   6.6277302  44.0753317  75.4940926
   5.2381353  44.5031143  75.9158825  13.4163994  42.9543252  79.7684655
  13.3982469  43.7752133  79.2764924  14.3383914  42.8297327  79.9934796
   9.8737048  40.4687381  80.6108163  10.4065384  39.7075670  80.3807471
   9.3451129  40.1761033  81.3532318  13.0406743  25.5747447  76.1401805
  12.6971012  26.4649089  76.0640915  13.4085705  25.3849105  75.2771390
   1.1092593  37.8980978  68.9590407   1.9467815  38.3077986  68.7424115
   1.2870861  36.9580420  68.9290601  13.0057025  35.5656059  64.6474240
  12.4903649  36.3360663  64.8862627  12.7334334  34.8921195  65.2707301
  10.5904136  30.4105759  69.7059478   9.7345733  30.0212610  69.5265117
  11.0031088  30.4897720  68.8459264  12.1203283  27.9452103  74.1051038
  11.6168079  27.9082238  73.2918843  12.4133890  28.8544845  74.1647695
   8.3646169  28.0290832  73.1117220   9.2299166  27.8333641  72.7523109
   8.4323678  27.8001184  74.0386577  17.9791299  38.3188413  66.5827413
  17.2020742  37.9799573  66.1382576  18.6582780  38.3241036  65.9082379
  12.7943329  33.4383151  66.4734021  12.4893464  33.7529300  67.3244164
  13.7473771  33.5164571  66.5161354  11.2389760  39.5973374  68.1226975
  10.7111122  38.8626134  67.8100213  10.7377263  40.3748050  67.8766943
  16.2182606  37.7922394  73.2394021  15.5606281  38.4821656  73.3274150
  17.0223006  38.1818826  73.5828008   5.9708488  30.2593040  70.4833587
   6.5452240  30.0368222  69.7506780   6.5579470  30.3281735  71.2362188
  15.0288065  36.1466767  71.2897963  15.5419947  36.7796759  71.7919673
  15.6789289  35.5467963  70.9241323   6.2978075  32.2897501  64.5029472
   5.4615387  32.6272188  64.8238747   6.1582845  32.1546481  63.5656609
   8.2731156  27.1334289  69.2108656   7.6195568  26.8183306  68.5865271
   8.2311630  26.5110030  69.9368479   9.3842361  37.4153584  61.1261948
   8.4769422  37.1842838  61.3253097   9.8813393  36.6191203  61.3135930
  12.2910439  46.1251091  64.0458634  11.6172138  46.4282788  64.6543592
  12.6776261  46.9280172  63.6964091  11.5068896  33.6216223  73.5356304
  10.5891457  33.8431170  73.3777992  11.9229040  33.6962533  72.6768011
  12.2903944  35.0207638  68.6658984  13.0375763  35.5329036  68.3566106
  12.5595533  34.6991691  69.5263378  10.5630594  37.5166179  65.6485938
   9.6541813  37.2325212  65.7458408  10.5925678  37.9365258  64.7889245
  15.7949861  41.1272769  69.4177106  15.3412189  40.2863678  69.4742296
  15.1643828  41.7634167  69.7551886  14.7382781  32.0564755  70.6477773
  14.0005538  31.5442141  70.9788016  14.9909555  31.6165136  69.8361050
  14.2382801  42.9649265  70.3526924  14.5305775  43.5254322  69.6339290
  14.7481421  43.2577826  71.1080083  14.8394408  24.8341007  71.2419543
  15.1453285  23.9738370  70.9545458  15.5647013  25.4258627  71.0418536
   1.1318764  35.2371693  69.6301140   0.9343164  34.6441054  68.9052207
   0.5765428  34.9323903  70.3477079   9.1115488  35.1294800  71.7495734
   9.1664098  34.1768636  71.6738210   8.3006690  35.2854239  72.2337032
  10.2606682  39.0574923  62.9874017   9.8226112  38.3410782  62.5279654
  11.0017123  39.2851038  62.4259108   7.0507848  33.7471859  69.5086112
   6.2375713  34.0466030  69.9151305   7.5466842  33.3527548  70.2260595
   9.2016426  43.7429616  71.4420377   9.1592605  43.9690463  70.5128909
  10.1179125  43.5092991  71.5906178  12.6482060  34.2113684  78.3401006
  13.0031447  34.4385157  79.1995472  13.2954191  34.5432061  77.7178262
  18.3779797  37.3332120  69.0450335  18.2397695  37.5233716  68.1171525
  18.0216015  38.0951503  69.5018387   6.5421923  31.3190215  75.1247347
   7.1821302  31.1778974  74.4270311   5.7099453  31.0324728  74.7485949
  18.4049176  39.4008647  74.0561607  18.8385683  39.3083936  74.9044661
  19.1180757  39.3766147  73.4181623   7.3182227  40.6192645  71.2382340
   8.1122825  40.1242966  71.0364915   6.6073919  40.0910509  70.8750045
  12.1377071  43.0010741  75.5894708  12.1914093  43.5701677  76.3572423
  11.2691852  43.1712626  75.2248745   3.6264990  34.7635727  67.3142093
   2.6962578  34.7020183  67.5312055   3.7222462  34.2411680  66.5178734
   3.5450539  31.2890540  69.9020334   3.8057356  32.2035873  69.7929495
   4.3667711  30.8214983  70.0516947   5.0175464  32.7028297  77.0719159
   5.6898518  32.4945659  76.4231808   4.1905251  32.5050383  76.6324391
  19.2664726  39.4432347  76.5894492  19.4600616  40.3478158  76.8353767
  19.1665344  38.9839767  77.4233077  10.9201036  29.3290238  79.0884820
  10.2728952  30.0280188  78.9949296  11.6902052  29.7626382  79.4561068
  14.3279834  39.5939090  82.1635373  14.1765341  39.3649642  81.2465457
  14.3184514  40.5509692  82.1766718  11.0965171  37.1671003  77.1481639
  12.0257231  37.3182163  76.9750607  10.6756201  37.2555024  76.2930286
   9.8953503  41.1921667  74.9180177   9.7564588  40.8240452  75.7906115
   9.1068099  41.7069307  74.7464135  10.4901655  46.2930764  66.2605714
  10.6653410  45.8218807  67.0751336   9.8034443  46.9196530  66.4886974
  11.4458718  40.5703270  72.3069015  11.1108550  40.5304040  73.2026665
  10.9462663  39.9047986  71.8339425   5.4202962  35.9770900  77.8321596
   5.2822760  35.2451139  78.4333135   6.3307885  35.8879800  77.5505784
  14.3817909  37.9159304  62.5806074  13.7647080  37.1906133  62.4839127
  13.9134398  38.6768665  62.2373149   8.0485262  35.6890859  77.3205276
   8.7584881  35.0484052  77.2791894   8.0054571  35.9403754  78.2431456
  16.0372041  42.6258213  80.2411855  15.9784587  41.9417433  79.5742438
  16.4391559  43.3677203  79.7892481   6.7614196  32.6756077  79.1400915
   6.2251553  32.2246816  79.7922511   6.1730905  32.8101986  78.3971379
   5.0562740  49.4420127  73.0345574   5.2959338  50.0738651  73.7124592
   4.2131936  49.0908167  73.3210933   6.1716455  32.1344729  61.7027379
   5.2945922  32.0133529  61.3389625   6.6474208  31.3430807  61.4506267
  16.0389448  40.5897797  78.4725834  15.1516227  40.2523718  78.5952233
  16.6087999  39.8580828  78.7094600   2.4953318  31.8112085  76.2253910
   2.4111506  31.2037755  75.4904319   1.6736024  32.3021103  76.2263406
   9.5690602  45.2499249  75.4387078   9.4960773  46.0554221  75.9506382
   9.1267995  45.4491215  74.6135099   9.3580381  44.4871019  68.9489899
   8.5747903  45.0292699  69.0428124  10.0573127  45.0044999  69.3484140
  12.6677031  30.2965649  71.5924105  13.1645731  29.5435611  71.2725175
  11.8964013  30.3329965  71.0267314  20.5206789  36.0006014  73.2342396
  20.5096665  36.8830729  72.8636329  19.6524168  35.6477565  73.0396933
  12.0289285  45.1486083  77.5945236  12.7417257  45.7833548  77.5221138
  11.5379314  45.2449949  76.7785238  13.7506812  39.0537336  69.1662528
  12.8163091  39.1738798  68.9967232  13.9283481  38.1509803  68.9022538
   9.2512000  32.4383032  71.3195789   8.8809788  31.8854072  72.0076695
   9.7471093  31.8341165  70.7670789  17.1379364  34.8954655  69.7012562
  17.6039816  35.7282647  69.6272865  17.5886864  34.4299637  70.4057821
   7.0801199  42.8980527  78.4150807   7.7810658  43.5317009  78.5680201
   6.6096314  43.2395258  77.6546446  15.2055595  41.2398476  66.6998714
  15.4815439  41.1255071  67.6092588  14.3360093  40.8415961  66.6610887
  15.1096026  27.2635242  73.7403463  14.1959106  27.4939469  73.9085670
  15.5389128  27.3473686  74.5917496  14.8802485  35.4525134  76.2403357
  14.2273935  35.7001041  75.5855810  15.2582865  34.6389272  75.9065835
  11.8409659  45.4884827  70.3431528  12.0232053  44.6706483  70.8059280
  12.6642645  45.7052519  69.9056418  12.1751824  44.4153012  67.6046576
  12.7039591  43.9045467  66.9916738  12.4380044  44.0995542  68.4692109
  10.9290058  36.1944945  82.7269395  10.2530695  36.0939074  83.3971770
  11.7517692  36.0384159  83.1905392   2.6768917  42.4316882  75.3481910
   3.2622354  41.6860569  75.4809814   2.4793755  42.7420838  76.2318574
   5.5307572  45.4668129  70.3644352   4.8617947  45.9514257  69.8808392
   5.3920442  45.7137349  71.2787731   9.6712841  47.5011872  76.9627011
  10.2231149  47.6643494  77.7276096  10.0119034  48.0916310  76.2907035
   4.6477334  29.8487022  77.5648895   4.7118660  30.7101853  77.1526293
   4.5844454  29.2361024  76.8321254   4.1229606  31.9210155  81.2121930
   4.7501645  31.5387232  81.8259454   3.2657525  31.7024357  81.5777622
  14.5223715  42.3273130  82.8175665  15.0663619  42.9403088  82.3230620
  13.9410560  42.8852708  83.3342678  12.8081228  45.4493848  73.9490693
  12.6832367  44.6483588  73.4401638  13.4660319  45.9440041  73.4604663
   4.4289396  31.8042581  73.1267833   3.7075982  32.4178548  72.9875306
   5.2182652  32.3400345  73.0484479  14.8716136  43.2502868  75.5770243
  13.9246472  43.1308219  75.5048570  15.2198909  42.3625366  75.6596504
   7.2315710  29.1397007  79.4008485   7.7550112  29.3859304  80.1634794
   7.0128043  29.9717042  78.9811622   2.6282991  31.4100682  67.2679610
   2.2995697  30.5298061  67.0854715   2.9822361  31.3548350  68.1555999
  11.8762570  43.0455584  71.7774595  11.7287532  42.1172292  71.9582165
  12.7016063  43.0675675  71.2931670   5.7424814  31.6973651  67.6355087
   6.0820886  32.2259573  66.9133696   6.1896934  32.0354058  68.4113654
  15.4796691  43.8684143  72.8639468  16.4043239  43.6627004  72.7263919
  15.3111995  43.6200544  73.7728809   8.4368255  30.0810702  77.0858155
   8.0965075  29.2818515  77.4878835   7.7307261  30.3812413  76.5134988
   9.0884727  27.1660015  75.5385478   9.9110796  26.6920493  75.4164369
   9.3322790  27.9450498  76.0384165   7.7292961  30.1948273  65.8348380
   8.4501324  30.5729526  65.3312097   7.1058265  30.9137150  65.9383358
  11.8724084  30.8993422  66.7706712  12.0887698  31.7818060  66.4695540
  11.3918151  30.5079635  66.0412354   6.6123305  33.8579135  73.3477457
   6.4667886  34.1719438  74.2401738   6.1348509  34.4764036  72.7948356
   8.4719688  30.8481683  73.3958346   8.4581257  29.9522776  73.0590644
   9.1892116  30.8552347  74.0296632  10.3245819  31.2819023  75.4411474
  10.0663597  32.2036094  75.4395804   9.7930859  30.8849458  76.1311938
  15.2692008  44.3869810  68.2201559  15.4428885  43.8216233  67.4675412
  15.7620899  45.1870705  68.0381049   1.0868967  36.3984480  76.2865118
   0.5422436  37.1744288  76.4185392   1.9648317  36.7455284  76.1284239
   7.8756584  29.7296063  68.6645917   7.9972495  28.8012710  68.8636804
   7.5858626  29.7434749  67.7524232  10.7447775  27.4150974  71.8012636
  10.7669471  27.4790307  70.8464616  11.1615834  26.5755483  71.9953143
  21.1231399  37.1506233  69.8391859  21.5662545  36.4013559  69.4410982
  20.2457909  37.1416370  69.4565591  16.2567180  43.7036575  65.3198458
  16.9518085  44.3243268  65.5385772  16.5990330  42.8531926  65.5950835
   1.8734989  35.5254376  79.1795275   1.1316725  35.6737011  79.7659905
   1.5527734  35.7862641  78.3162024  18.1558603  41.1536280  66.8485788
  18.6809927  41.4923553  66.1235108  18.0680956  40.2183296  66.6648923
   9.8178652  45.0670354  78.9775665  10.1265778  44.8219501  79.8498365
  10.6154134  45.2716993  78.4894535   9.8399264  47.2208264  71.2081041
   9.4004254  46.7284642  71.9013898  10.5907381  46.6781231  70.9673117
   2.3191603  43.4119805  71.2105670   3.1449623  43.1123576  70.8304313
   1.9685655  42.6427427  71.6595458   7.2873136  42.7646273  73.2803343
   6.6653145  42.1016978  72.9805571   7.9578003  42.7907405  72.5976991
   7.3597664  31.2428061  82.8735849   7.4085819  32.1190184  82.4913619
   7.9020178  30.7005454  82.3007492  17.8452509  41.7869184  82.1536986
  17.0548053  41.7693323  81.6141486  17.6085864  42.3257478  82.9086023
  17.9650384  38.6361650  79.4669715  18.0148389  38.4711658  80.4085238
  17.8564308  37.7688909  79.0767596   6.8486643  41.3150196  66.7561804
   6.9974763  41.9985661  66.1028476   7.6553087  41.2955286  67.2711259
  15.2554147  34.6192578  80.7829022  16.1564010  34.4799043  80.4913019
  15.3302121  34.7847033  81.7227199   9.5896952  31.9959433  79.6282208
   8.7200262  32.2892999  79.3564796   9.8256432  32.5799878  80.3489471
  19.4668581  41.0558592  79.7111736  19.1753390  41.4188573  80.5475197
  18.8540713  40.3425600  79.5325068  20.6664264  38.6211472  72.2314307
  21.5011155  39.0601276  72.3951867  20.8023392  38.1450125  71.4122552
  17.7155769  36.1791207  78.1791794  18.1909891  36.3718853  77.3710646
  16.7921335  36.2350392  77.9335178   4.6039276  37.3415374  67.7622873
   4.3585318  36.4377704  67.9603083   4.7735191  37.3432524  66.8202351
  12.2935986  28.2139050  77.1447628  12.8117930  28.9500077  76.8194117
  11.9391119  28.5203043  77.9794387   3.8734924  33.0743731  65.2609034
   3.1804169  33.1488086  64.6049070   3.6286676  32.3104075  65.7830551
  12.5448580  24.6339333  72.6648525  12.8250334  23.9662522  73.2908951
  13.3299187  24.8268428  72.1523189  10.3482049  43.8098327  64.2273551
   9.7756016  44.4288514  63.7744023  10.9214842  44.3597688  64.7613473
  16.4157438  33.0556967  76.4120100  17.3674861  33.1555064  76.4332324
  16.2460889  32.2635235  76.9218184  14.4371818  30.1412550  76.5979501
  13.8421750  30.4217563  75.9025989  14.1521515  30.6306451  77.3696242
  13.5679308  44.0935477  65.3582133  14.5009982  44.0281038  65.5615009
  13.4802521  44.9291744  64.8996666  16.1967325  43.4101347  62.3186081
  16.1180957  43.0761211  63.2121839  17.0176992  43.9023115  62.3177553
  18.8945516  36.2763086  75.5262400  18.8621836  35.3379087  75.7122083
  19.5046140  36.3547123  74.7928224  10.7328847  35.1459139  61.5689604
  11.6787952  35.0165347  61.6378022  10.3543092  34.4073801  62.0459032
  19.0440005  33.0674130  75.5720683  18.5279053  32.2832586  75.3850612
  19.9279953  32.7392846  75.7367202  16.7050732  26.8115145  71.5316495
  16.5075553  26.5030234  72.4159827  17.3150437  27.5376784  71.6614425
  24.7122066  37.3379093  74.6668436  25.4425455  37.0764381  75.2276140
  24.1029012  36.6007815  74.7070504  22.7937363  35.4786956  75.2642888
  22.0670527  35.3442921  74.6559379  22.3784650  35.7863784  76.0699606
  10.6167540  39.1976885  83.0290261  11.5370549  39.3755484  83.2230307
  10.5817123  38.2532931  82.8769960   8.9171764  33.0709116  61.5044489
   8.0103220  32.7742228  61.5807202   9.1947745  32.7738934  60.6378775
   3.6129612  37.1077920  75.6713042   3.8315622  38.0395028  75.6901076
   4.0255386  36.7485895  76.4567846  10.5333830  27.6146005  67.6588730
   9.7234558  27.2693090  68.0343976  11.2218247  27.3053549  68.2476342
  12.4624378  26.6924052  69.2813027  13.0155417  27.1119506  69.9403050
  12.6994465  25.7659800  69.3235983   8.4857478  32.6811126  85.0615791
   8.3854204  33.6305483  84.9927882   8.2679020  32.3529365  84.1891861
   7.6870549  29.9296051  61.6456468   8.5489713  30.2550949  61.9052285
   7.8720893  29.1427547  61.1329534  15.8403185  28.8024577  68.7891691
  15.2601854  29.4609381  68.4069743  15.5739118  27.9801922  68.3779109
  14.2906752  28.2029635  70.9913011  14.7906530  28.3146170  70.1827330
  14.9342360  27.8990688  71.6313820   8.3488748  36.1108265  83.8780852
   7.8655829  36.9108625  84.0844741   8.4349687  36.1216210  82.9248296
   1.6174707  37.9436644  71.8002672   1.5945395  38.0424332  70.8484555
   1.9275344  38.7901795  72.1219838   4.2762085  40.0012799  75.9149286
   5.2305339  39.9696742  75.8479218   4.0774609  39.5403423  76.7299512
   4.8661467  38.5713915  78.4820084   5.6854356  39.0657994  78.5054921
   5.1398275  37.6545884  78.4537651  14.6228063  30.9624668  67.8448039
  13.7353918  31.2474318  67.6268234  15.0382052  30.8018431  66.9975316
  17.9742600  30.9871189  71.5602379  18.7502990  31.4767641  71.8326995
  17.2490734  31.4129243  72.0174248  20.4115158  31.6998808  72.6176319
  21.0059649  31.4594544  71.9069627  20.4841742  30.9805939  73.2449855
   2.6312314  45.5432419  72.9319484   2.4966782  44.7832820  72.3657482
   2.2144376  46.2673319  72.4648273  13.7671277  40.7269342  61.9396059
  14.4707127  40.9319345  62.5553715  13.0433926  41.2946104  62.2045143
  14.5969087  36.4779204  68.0598329  14.5404289  36.9347755  67.2205962
  15.1497430  35.7169888  67.8821172  18.4073893  32.2668936  68.8848449
  18.1510827  31.8665571  69.7156657  17.7826761  32.9812730  68.7598588
  22.7186231  35.0065009  71.3919740  22.1585789  35.0758198  72.1651302
  22.1129734  34.8305993  70.6719237   5.7881440  46.4401736  73.1437927
   5.6713824  47.3847168  73.0416617   4.9673886  46.1375297  73.5323726
  15.6757974  41.1651872  63.9894519  16.5103578  40.7333070  63.8071994
  15.5142317  40.9933885  64.9171414  15.3303866  37.6683985  65.3550859
  15.2752670  37.5028256  64.4139303  14.7049922  38.3760018  65.5113048
  12.6449774  39.9732897  84.6804421  13.5140933  40.1473549  84.3191056
  12.1656525  40.7927314  84.5580151   8.6399992  27.1692094  64.9336177
   8.6278662  28.1133934  65.0904448   9.5323414  26.9862239  64.6395638
   6.8135954  47.0929998  76.3593855   7.7163201  47.1253608  76.6760350
   6.5873324  46.1630449  76.3740191   8.5689556  45.8460984  73.0203934
   7.6185187  45.8462846  72.9068306   8.8722042  45.0993719  72.5039968
  12.4552111  23.7634871  69.1882114  11.6884507  23.2093357  69.3338796
  12.8662816  23.8356739  70.0496265   4.4593872  30.0519666  83.2787295
   5.3225334  29.6956471  83.4890620   3.8859283  29.7133561  83.9662699
  24.3042249  51.6821523  74.0849696  24.9420659  51.5628270  73.3813036
  24.1863092  52.6302367  74.1437648  21.1131956  51.6348951  74.0211221
  20.7750467  51.5190016  73.1331756  21.9821724  51.2340116  74.0012227
  16.9718771  53.4884427  70.0108112  16.4083636  53.3974364  69.2424399
  16.8571166  52.6684332  70.4910604  21.5951739  52.7883803  79.9797426
  21.5840379  52.3936601  79.1077930  21.7572378  52.0549875  80.5731198
  14.5183203  54.9835619  72.8492332  15.3104495  54.6426444  72.4338631
  14.7579853  55.0930594  73.7694486  22.5518330  57.1555395  65.3222577
  21.9006310  57.7409475  64.9356590  23.3462693  57.6861590  65.3817614
  16.4773957  54.2444532  65.7209711  17.2504833  53.6973519  65.5822587
  16.8299356  55.1088781  65.9324172  18.3159000  55.5720914  78.9276610
  18.0248866  56.4766545  78.8123277  18.9515984  55.6137442  79.6420680
  19.2415207  52.9497763  75.5177970  19.8378779  52.7253785  74.8034933
  19.2990178  52.2082508  76.1203418  18.8140235  50.4037198  63.3528161
  19.0665756  49.8818720  62.5911624  17.8764794  50.2403344  63.4554845
  23.8583518  49.4072977  71.1602904  24.6446607  48.9892400  70.8093321
  24.1222222  50.3119069  71.3284553  24.0293595  54.8445827  65.8591561
  23.3939428  54.9180453  66.5712466  23.6991002  55.4339426  65.1810640
  29.2591945  49.3448210  72.0635883  29.9917117  48.7747427  72.2973712
  28.5031301  48.9569810  72.5042388  18.5336524  52.3065304  65.5552536
  18.4172782  51.6310208  66.2233620  18.6438784  51.8197678  64.7384689
  20.8768065  51.7675451  69.2599225  20.5126272  51.2406072  69.9712147
  21.7335181  51.3773920  69.0865711  26.7817365  43.0569784  76.5230491
  26.4500690  43.9265195  76.2991706  26.1862979  42.7406068  77.2024522
  20.5173552  46.7965351  64.2560574  20.6847954  47.6645587  64.6231045
  20.3270721  46.9592633  63.3321863  23.2748885  55.2582330  75.9226404
  22.9749608  56.1607369  75.8142211  22.9299944  54.9914513  76.7747557
  16.7261366  51.7096127  71.9563108  15.8011863  51.5772341  72.1640800
  16.9745780  52.4890346  72.4533051  26.6746029  47.7764870  73.6023841
  25.7662906  47.7080279  73.3082602  26.6233624  48.2536815  74.4305667
  20.4962773  49.2523009  65.2407240  20.3762398  49.6980059  66.0792721
  19.8015361  49.6008326  64.6820779  14.0870177  51.3529400  72.7906897
  14.2162559  51.6063879  73.7046309  13.4067629  51.9457108  72.4711553
  18.2569665  62.0226650  68.8897372  18.1793694  62.9734475  68.9685852
  17.6531308  61.6772523  69.5472298  20.7486894  49.1954516  81.5458739
  19.9720228  49.7548436  81.5361603  21.3877457  49.6811299  82.0673609
  28.5407675  45.9781309  75.3801715  27.8982055  46.2713842  74.7341510
  28.0362604  45.8634229  76.1854912  26.1947839  49.7244482  66.0687574
  27.1065695  49.9571868  65.8935272  25.6857486  50.3081526  65.5062653
  19.0033267  52.0039969  81.1076706  19.7447951  52.5425013  80.8311529
  18.2970252  52.6306258  81.2648257  24.4788606  54.1469110  79.7048867
  24.8871962  53.7051520  78.9603499  23.7565868  53.5721737  79.9583060
  20.8319676  49.0841716  77.0782424  21.6780872  49.5081130  77.2217073
  20.7718314  48.4275341  77.7720987  24.8017421  54.7070300  73.4601156
  24.1726283  54.8716014  72.7577224  24.4143083  55.1211910  74.2312120
  28.6806653  55.6424738  70.8145520  27.9957691  56.0223639  70.2642553
  28.7650502  56.2520065  71.5477467  23.9819122  46.7446085  78.7363598
  23.7380054  47.4988145  78.1997873  24.2579052  47.1231432  79.5710845
  25.9357585  53.2884697  77.4140863  26.1474480  53.9316457  76.7375244
  25.8887333  52.4547014  76.9462793  23.5383813  45.9002518  74.3177435
  22.6768293  46.1983771  74.6094173  23.5646248  46.1172917  73.3858468
  20.3545383  54.4444708  70.7251241  20.8183728  54.7232411  69.9355864
  20.0902181  53.5428153  70.5424332  17.2469464  53.9916190  73.6631004
  17.8170821  54.4203458  73.0248489  17.8377576  53.7098774  74.3615190
  19.2914269  50.5667861  67.5340806  19.9938312  51.0188904  68.0014733
  18.9594897  49.9251679  68.1620699  17.7394630  49.1579617  81.9092016
  17.1093291  49.8395898  82.1427412  17.6330718  49.0462699  80.9645154
  13.0339603  48.8251413  72.8357940  12.2438657  49.0808942  72.3598050
  13.5250850  49.6399751  72.9409980  27.0503412  56.1656652  75.5863221
  27.8720856  55.7636840  75.3045902  27.0465815  56.0624887  76.5379336
  14.9854348  49.1895993  69.7941416  14.1885512  49.3014687  70.3124912
  14.7579940  49.5282645  68.9282307  20.8160016  55.7140696  77.7423931
  20.8804448  56.1761103  78.5782103  20.1070940  55.0838061  77.8706241
  11.3177306  49.0781904  75.2672931  11.5685344  49.9628914  75.5330506
  11.8536854  48.8986505  74.4948022  35.1409406  52.5095401  71.9348192
  34.3873114  51.9402799  71.7792196  35.2756947  52.4758065  72.8818827
  20.5308034  57.3808803  67.6102911  20.3953708  58.2260339  68.0387759
  21.0717846  57.5828081  66.8468845  17.0175373  43.4600383  84.2717267
  16.6242319  42.9066582  84.9464911  17.8341514  43.7710962  84.6623784
  13.9837431  54.8984241  68.1830836  14.4961952  55.6927492  68.3336401
  14.6360144  54.2010532  68.1164438  15.7932316  58.0149998  70.2653590
  15.9698944  58.9367962  70.0774574  16.5889149  57.7008417  70.6947969
  19.9343334  44.8758262  81.8637523  20.6753048  45.4765415  81.7841986
  20.1661257  44.1335900  81.3055566  15.0784672  50.0614629  80.1415753
  14.9638187  49.1599887  80.4422852  14.2229190  50.3078326  79.7900569
  22.1576510  58.0032370  81.7403253  21.7140364  57.2168748  81.4224158
  22.8193724  58.1911520  81.0747144  16.9163631  59.5328171  76.2663932
  17.4671056  59.4045235  75.4940926  16.0775107  59.8323060  75.9158825
  24.2557748  58.2835170  79.7684655  24.2376223  59.1044051  79.2764924
  25.1777668  58.1589245  79.9934796  20.7130802  55.7979299  80.6108163
  21.2459139  55.0367587  80.3807471  20.1844883  55.5052951  81.3532318
  23.8800497  40.9039365  76.1401805  23.5364767  41.7941007  76.0640915
  24.2479460  40.7141023  75.2771390  11.9486348  53.2272896  68.9590407
  12.7861570  53.6369904  68.7424115  12.1264615  52.2872338  68.9290601
  23.8450780  50.8947976  64.6474240  23.3297403  51.6652581  64.8862627
  23.5728088  50.2213112  65.2707301  21.4297891  45.7397677  69.7059478
  20.5739487  45.3504527  69.5265117  21.8424843  45.8189638  68.8459264
  22.9597038  43.2744020  74.1051038  22.4561833  43.2374155  73.2918843
  23.2527644  44.1836763  74.1647695  19.2039923  43.3582750  73.1117220
  20.0692920  43.1625559  72.7523109  19.2717432  43.1293102  74.0386577
  28.8185054  53.6480331  66.5827413  28.0414497  53.3091490  66.1382576
  29.4976535  53.6532954  65.9082379  23.6337083  48.7675068  66.4734021
  23.3287219  49.0821217  67.3244164  24.5867525  48.8456488  66.5161354
  22.0783515  54.9265292  68.1226975  21.5504876  54.1918051  67.8100213
  21.5771018  55.7039968  67.8766943  27.0576361  53.1214312  73.2394021
  26.4000035  53.8113574  73.3274150  27.8616760  53.5110744  73.5828008
  16.8102242  45.5884958  70.4833587  17.3845994  45.3660139  69.7506780
  17.3973225  45.6573652  71.2362188  25.8681820  51.4758685  71.2897963
  26.3813701  52.1088677  71.7919673  26.5183044  50.8759880  70.9241323
  17.1371830  47.6189419  64.5029472  16.3009142  47.9564105  64.8238747
  16.9976599  47.4838399  63.5656609  19.1124910  42.4626207  69.2108656
  18.4589323  42.1475224  68.5865271  19.0705384  41.8401947  69.9368479
  20.2236115  52.7445502  61.1261948  19.3163177  52.5134755  61.3253097
  20.7207147  51.9483121  61.3135930  23.1304194  61.4543009  64.0458634
  22.4565893  61.7574706  64.6543592  23.5170016  62.2572089  63.6964091
  22.3462651  48.9508140  73.5356304  21.4285212  49.1723087  73.3777992
  22.7622794  49.0254451  72.6768011  23.1297698  50.3499556  68.6658984
  23.8769517  50.8620953  68.3566106  23.3989288  50.0283609  69.5263378
  21.4024348  52.8458097  65.6485938  20.4935568  52.5617130  65.7458408
  21.4319432  53.2657175  64.7889245  26.6343616  56.4564686  69.4177106
  26.1805943  55.6155596  69.4742296  26.0037583  57.0926085  69.7551886
  25.5776535  47.3856672  70.6477773  24.8399292  46.8734058  70.9788016
  25.8303309  46.9457054  69.8361050  25.0776555  58.2941183  70.3526924
  25.3699530  58.8546240  69.6339290  25.5875176  58.5869744  71.1080083
  25.6788163  40.1632924  71.2419543  25.9847040  39.3030288  70.9545458
  26.4040768  40.7550544  71.0418536  11.9712519  50.5663611  69.6301140
  11.7736919  49.9732972  68.9052207  11.4159183  50.2615821  70.3477079
  19.9509243  50.4586717  71.7495734  20.0057852  49.5060554  71.6738210
  19.1400445  50.6146156  72.2337032  21.1000436  54.3866840  62.9874017
  20.6619866  53.6702699  62.5279654  21.8410877  54.6142955  62.4259108
  17.8901602  49.0763777  69.5086112  17.0769468  49.3757948  69.9151305
  18.3860597  48.6819466  70.2260595  20.0410180  59.0721534  71.4420377
  19.9986359  59.2982380  70.5128909  20.9572879  58.8384909  71.5906178
  23.4875814  49.5405602  78.3401006  23.8425202  49.7677075  79.1995472
  24.1347945  49.8723978  77.7178262  29.2173551  52.6624037  69.0450335
  29.0791450  52.8525633  68.1171525  28.8609770  53.4243420  69.5018387
  17.3815677  46.6482133  75.1247347  18.0215057  46.5070892  74.4270311
  16.5493208  46.3616646  74.7485949  29.2442931  54.7300564  74.0561607
  29.6779437  54.6375854  74.9044661  29.9574511  54.7058065  73.4181623
  18.1575981  55.9484563  71.2382340  18.9516580  55.4534883  71.0364915
  17.4467673  55.4202426  70.8750045  22.9770826  58.3302659  75.5894708
  23.0307848  58.8993595  76.3572423  22.1085607  58.5004544  75.2248745
  14.4658745  50.0927645  67.3142093  13.5356333  50.0312100  67.5312055
  14.5616217  49.5703598  66.5178734  14.3844294  46.6182458  69.9020334
  14.6451111  47.5327791  69.7929495  15.2061466  46.1506900  70.0516947
  15.8569219  48.0320215  77.0719159  16.5292272  47.8237577  76.4231808
  15.0299005  47.8342301  76.6324391  30.1058480  54.7724265  76.5894492
  30.2994370  55.6770076  76.8353767  30.0059098  54.3131684  77.4233077
  21.7594791  44.6582156  79.0884820  21.1122706  45.3572105  78.9949296
  22.5295806  45.0918300  79.4561068  25.1673589  54.9231008  82.1635373
  25.0159095  54.6941560  81.2465457  25.1578268  55.8801609  82.1766718
  21.9358925  52.4962921  77.1481639  22.8650985  52.6474080  76.9750607
  21.5149955  52.5846941  76.2930286  20.7347257  56.5213585  74.9180177
  20.5958343  56.1532369  75.7906115  19.9461853  57.0361224  74.7464135
  21.3295409  61.6222681  66.2605714  21.5047165  61.1510725  67.0751336
  20.6428197  62.2488448  66.4886974  22.2852472  55.8995188  72.3069015
  21.9502305  55.8595958  73.2026665  21.7856418  55.2339904  71.8339425
  16.2596716  51.3062818  77.8321596  16.1216514  50.5743057  78.4333135
  17.1701640  51.2171718  77.5505784  25.2211664  53.2451222  62.5806074
  24.6040835  52.5198050  62.4839127  24.7528152  54.0060582  62.2373149
  18.8879017  51.0182777  77.3205276  19.5978635  50.3775969  77.2791894
  18.8448325  51.2695672  78.2431456  26.8765796  57.9550130  80.2411855
  26.8178342  57.2709351  79.5742438  27.2785314  58.6969120  79.7892481
  17.6007951  48.0047995  79.1400915  17.0645308  47.5538733  79.7922511
  17.0124659  48.1393904  78.3971379  15.8956494  64.7712044  73.0345574
  16.1353093  65.4030568  73.7124592  15.0525691  64.4200084  73.3210933
  17.0110210  47.4636646  61.7027379  16.1339676  47.3425447  61.3389625
  17.4867963  46.6722725  61.4506267  26.8783203  55.9189714  78.4725834
  25.9909982  55.5815636  78.5952233  27.4481754  55.1872746  78.7094600
   8.5312350  52.2513806  71.7968886   9.2183390  51.9375536  71.2089901
   8.3760479  53.1555171  71.5236137  13.3347072  47.1404003  76.2253910
  13.2505261  46.5329672  75.4904319  12.5129778  47.6313021  76.2263406
  20.4084356  60.5791167  75.4387078  20.3354528  61.3846138  75.9506382
  19.9661749  60.7783133  74.6135099  20.1974136  59.8162937  68.9489899
  19.4141658  60.3584617  69.0428124  20.8966881  60.3336916  69.3484140
  23.5070786  45.6257566  71.5924105  24.0039486  44.8727529  71.2725175
  22.7357767  45.6621883  71.0267314  31.3600543  51.3297932  73.2342396
  31.3490420  52.2122647  72.8636329  30.4917923  50.9769483  73.0396933
  22.8683040  60.4778001  77.5945236  23.5811012  61.1125466  77.5221138
  22.3773068  60.5741867  76.7785238  24.5900567  54.3829253  69.1662528
  23.6556845  54.5030716  68.9967232  24.7677235  53.4801720  68.9022538
  20.0905755  47.7674949  71.3195789  19.7203542  47.2145990  72.0076695
  20.5864847  47.1633083  70.7670789  27.9773118  50.2246573  69.7012562
  28.4433570  51.0574564  69.6272865  28.4280619  49.7591554  70.4057821
  17.9194953  58.2272444  78.4150807  18.6204413  58.8608927  78.5680201
  17.4490068  58.5687176  77.6546446  26.0449349  56.5690394  66.6998714
  26.3209193  56.4546989  67.6092588  25.1753848  56.1707879  66.6610887
  25.9489781  42.5927160  73.7403463  25.0352861  42.8231387  73.9085670
  26.3782882  42.6765604  74.5917496  25.7196239  50.7817052  76.2403357
  25.0667689  51.0292959  75.5855810  26.0976619  49.9681190  75.9065835
  22.6803413  60.8176745  70.3431528  22.8625808  59.9998401  70.8059280
  23.5036399  61.0344437  69.9056418  23.0145579  59.7444930  67.6046576
  23.5433345  59.2337385  66.9916738  23.2773798  59.4287460  68.4692109
  21.7683812  51.5236863  82.7269395  21.0924449  51.4230992  83.3971770
  22.5911446  51.3676076  83.1905392  13.5162671  57.7608799  75.3481910
  14.1016108  57.0152487  75.4809814  13.3187510  58.0712756  76.2318574
  16.3701327  60.7960047  70.3644352  15.7011702  61.2806174  69.8808392
  16.2314196  61.0429267  71.2787731   8.1080326  50.3314399  74.0686353
   8.1464426  49.7977990  74.8623471   7.6020619  49.8049605  73.4497330
  20.5106595  62.8303790  76.9627011  21.0624903  62.9935412  77.7276096
  20.8512789  63.4208228  76.2907035  15.4871088  45.1778940  77.5648895
  15.5512415  46.0393771  77.1526293  15.4238209  44.5652942  76.8321254
  14.9623361  47.2502073  81.2121930  15.5895400  46.8679150  81.8259454
  14.1051280  47.0316274  81.5777622  25.3617469  57.6565048  82.8175665
  25.9057373  58.2695006  82.3230620  24.7804314  58.2144626  83.3342678
  11.7388904  49.0578502  67.1440284  12.0342345  48.1489180  67.0907338
  10.8376939  49.0366241  66.8221287  23.6474982  60.7785766  73.9490693
  23.5226122  59.9775506  73.4401638  24.3054074  61.2731959  73.4604663
  15.2683151  47.1334498  73.1267833  14.5469736  47.7470466  72.9875306
  16.0576406  47.6692263  73.0484479  25.7109891  58.5794786  75.5770243
  24.7640226  58.4600137  75.5048570  26.0592664  57.6917284  75.6596504
  18.0709464  44.4688925  79.4008485  18.5943866  44.7151221  80.1634794
  17.8521797  45.3008960  78.9811622  13.4676745  46.7392599  67.2679610
  13.1389451  45.8589978  67.0854715  13.8216116  46.6840268  68.1555999
  22.7156324  58.3747502  71.7774595  22.5681287  57.4464209  71.9582165
  23.5409818  58.3967593  71.2931670  16.5818568  47.0265569  67.6355087
  16.9214641  47.5551490  66.9133696  17.0290689  47.3645975  68.4113654
  26.3190446  59.1976061  72.8639468  27.2436993  58.9918922  72.7263919
  26.1505749  58.9492462  73.7728809  19.2762009  45.4102620  77.0858155
  18.9358830  44.6110433  77.4878835  18.5701015  45.7104331  76.5134988
  19.9278481  42.4951932  75.5385478  20.7504550  42.0212410  75.4164369
  20.1716545  43.2742416  76.0384165  18.5686716  45.5240191  65.8348380
  19.2895078  45.9021443  65.3312097  17.9452020  46.2429067  65.9383358
  22.7117838  46.2285340  66.7706712  22.9281453  47.1109978  66.4695540
  22.2311906  45.8371553  66.0412354  17.4517060  49.1871053  73.3477457
  17.3061641  49.5011356  74.2401738  16.9742263  49.8055953  72.7948356
  19.3113443  46.1773601  73.3958346  19.2975011  45.2814694  73.0590644
  20.0285871  46.1844265  74.0296632  21.1639573  46.6110941  75.4411474
  20.9057351  47.5328012  75.4395804  20.6324614  46.2141376  76.1311938
  26.1085762  59.7161728  68.2201559  26.2822640  59.1508151  67.4675412
  26.6014653  60.5162623  68.0381049  11.9262722  51.7276397  76.2865118
  11.3816190  52.5036205  76.4185392  12.8042072  52.0747202  76.1284239
  18.7150339  45.0587981  68.6645917  18.8366250  44.1304627  68.8636804
  18.4252381  45.0726667  67.7524232  21.5841529  42.7442892  71.8012636
  21.6063226  42.8082225  70.8464616  22.0009588  41.9047400  71.9953143
  31.9625153  52.4798151  69.8391859  32.4056299  51.7305476  69.4410982
  31.0851664  52.4708287  69.4565591  27.0960935  59.0328493  65.3198458
  27.7911839  59.6535185  65.5385772  27.4384085  58.1823844  65.5950835
  12.7128744  50.8546294  79.1795275  11.9710480  51.0028929  79.7659905
  12.3921488  51.1154559  78.3162024  28.9952358  56.4828198  66.8485788
  29.5203682  56.8215471  66.1235108  28.9074710  55.5475213  66.6648923
  20.6572406  60.3962272  78.9775665  20.9659533  60.1511419  79.8498365
  21.4547888  60.6008910  78.4894535  20.6793019  62.5500181  71.2081041
  20.2398009  62.0576560  71.9013898  21.4301135  62.0073149  70.9673117
  13.1585357  58.7411722  71.2105670  13.9843377  58.4415494  70.8304313
  12.8079409  57.9719345  71.6595458  18.1266891  58.0938190  73.2803343
  17.5046900  57.4308895  72.9805571  18.7971758  58.1199322  72.5976991
  11.3593963  56.6598049  72.1694603  10.5225871  56.2320223  71.9878604
  11.3317608  56.8530492  73.1065394  18.1991418  46.5719978  82.8735849
  18.2479574  47.4482101  82.4913619  18.7413932  46.0297372  82.3007492
  28.6846264  57.1161102  82.1536986  27.8941808  57.0985241  81.6141486
  28.4479618  57.6549395  82.9086023  28.8044139  53.9653568  79.4669715
  28.8542144  53.8003576  80.4085238  28.6958062  53.0980827  79.0767596
  17.6880398  56.6442114  66.7561804  17.8368518  57.3277578  66.1028476
  18.4946841  56.6247204  67.2711259  26.0947901  49.9484496  80.7829022
  26.9957764  49.8090961  80.4913019  26.1695876  50.1138951  81.7227199
  20.4290707  47.3251351  79.6282208  19.5594016  47.6184917  79.3564796
  20.6650187  47.9091796  80.3489471  30.3062336  56.3850510  79.7111736
  30.0147144  56.7480490  80.5475197  29.6934467  55.6717518  79.5325068
  31.5058018  53.9503389  72.2314307  32.3404909  54.3893193  72.3951867
  31.6417147  53.4742043  71.4122552  28.5549524  51.5083124  78.1791794
  29.0303646  51.7010771  77.3710646  27.6315089  51.5642310  77.9335178
  15.4433031  52.6707291  67.7622873  15.1979072  51.7669621  67.9603083
  15.6128945  52.6724442  66.8202351  23.1329740  43.5430968  77.1447628
  23.6511684  44.2791995  76.8194117  22.7784873  43.8494961  77.9794387
  14.7128678  48.4035649  65.2609034  14.0197923  48.4780004  64.6049070
  14.4680430  47.6395993  65.7830551  23.3842335  39.9631250  72.6648525
  23.6644088  39.2954439  73.2908951  24.1692942  40.1560346  72.1523189
  21.1875803  59.1390244  64.2273551  20.6149770  59.7580431  63.7744023
  21.7608597  59.6889606  64.7613473  27.2551193  48.3848884  76.4120100
  28.2068616  48.4846982  76.4332324  27.0854643  47.5927153  76.9218184
  25.2765572  45.4704468  76.5979501  24.6815505  45.7509480  75.9025989
  24.9915269  45.9598368  77.3696242  24.4073063  59.4227394  65.3582133
  25.3403736  59.3572956  65.5615009  24.3196276  60.2583661  64.8996666
  27.0361080  58.7393265  62.3186081  26.9574711  58.4053128  63.2121839
  27.8570746  59.2315033  62.3177553  29.7339271  51.6055004  75.5262400
  29.7015591  50.6671005  75.7122083  30.3439894  51.6839041  74.7928224
  21.5722602  50.4751057  61.5689604  22.5181706  50.3457265  61.6378022
  21.1936847  49.7365719  62.0459032  29.8833759  48.3966047  75.5720683
  29.3672808  47.6124504  75.3850612  30.7673708  48.0684764  75.7367202
  27.5444486  42.1407063  71.5316495  27.3469307  41.8322151  72.4159827
  28.1544192  42.8668702  71.6614425  35.5515821  52.6671011  74.6668436
  36.2819209  52.4056299  75.2276140  34.9422766  51.9299733  74.7070504
  33.6331118  50.8078873  75.2642888  32.9064281  50.6734838  74.6559379
  33.2178405  51.1155702  76.0699606  21.4561294  54.5268803  83.0290261
  22.3764304  54.7047402  83.2230307  21.4210877  53.5824848  82.8769960
  19.7565519  48.4001033  61.5044489  18.8496974  48.1034146  61.5807202
  20.0341500  48.1030851  60.6378775  10.6743459  49.7207397  71.9543535
  10.3546243  48.8672705  71.6617909  10.1276887  49.9355975  72.7101503
  14.4523367  52.4369838  75.6713042  14.6709376  53.3686946  75.6901076
  14.8649141  52.0777812  76.4567846  21.3727584  42.9437923  67.6588730
  20.5628313  42.5985008  68.0343976  22.0612001  42.6345467  68.2476342
  23.3018133  42.0215970  69.2813027  23.8549171  42.4411423  69.9403050
  23.5388219  41.0951718  69.3235983  19.3251232  48.0103044  85.0615791
  19.2247959  48.9597401  84.9927882  19.1072774  47.6821282  84.1891861
  18.5264303  45.2587969  61.6456468  19.3883467  45.5842867  61.9052285
  18.7114648  44.4719465  61.1329534  10.5431719  53.3410308  73.9236657
   9.8495191  52.9264261  73.4106611  11.2904710  53.3830845  73.3270076
  26.6796940  44.1316495  68.7891691  26.0995609  44.7901299  68.4069743
  26.4132873  43.3093840  68.3779109  25.1300506  43.5321553  70.9913011
  25.6300285  43.6438087  70.1827330  25.7736114  43.2282606  71.6313820
  19.1882502  51.4400182  83.8780852  18.7049584  52.2400543  84.0844741
  19.2743441  51.4508127  82.9248296  12.4568462  53.2728562  71.8002672
  12.4339150  53.3716249  70.8484555  12.7669098  54.1193713  72.1219838
  15.1155840  55.3304717  75.9149286  16.0699093  55.2988659  75.8479218
  14.9168363  54.8695341  76.7299512  15.7055222  53.9005833  78.4820084
  16.5248111  54.3949912  78.5054921  15.9792029  52.9837801  78.4537651
  25.4621818  46.2916585  67.8448039  24.5747673  46.5766236  67.6268234
  25.8775807  46.1310349  66.9975316  28.8136354  46.3163106  71.5602379
  29.5896744  46.8059559  71.8326995  28.0884488  46.7421161  72.0174248
  31.2508913  47.0290726  72.6176319  31.8453403  46.7886462  71.9069627
  31.3235496  46.3097856  73.2449855  13.4706068  60.8724337  72.9319484
  13.3360536  60.1124737  72.3657482  13.0538131  61.5965236  72.4648273
  24.6065031  56.0561260  61.9396059  25.3100881  56.2611263  62.5553715
  23.8827680  56.6238022  62.2045143  25.4362842  51.8071121  68.0598329
  25.3798043  52.2639673  67.2205962  25.9891184  51.0461806  67.8821172
  29.2467648  47.5960853  68.8848449  28.9904582  47.1957489  69.7156657
  28.6220516  48.3104647  68.7598588  33.5579985  50.3356927  71.3919740
  32.9979543  50.4050116  72.1651302  32.9523489  50.1597911  70.6719237
  16.6275194  61.7693654  73.1437927  16.5107578  62.7139086  73.0416617
  15.8067640  61.4667215  73.5323726  26.5151729  56.4943789  63.9894519
  27.3497333  56.0624988  63.8071994  26.3536072  56.3225803  64.9171414
  26.1697621  52.9975903  65.3550859  26.1146425  52.8320174  64.4139303
  25.5443676  53.7051936  65.5113048  10.9590136  48.2343967  79.1812281
  11.6049000  47.7242921  79.6699506  10.7507287  48.9712649  79.7555706
  23.4843528  55.3024814  84.6804421  24.3534688  55.4765467  84.3191056
  23.0050280  56.1219231  84.5580151  19.4793746  42.4984012  64.9336177
  19.4672416  43.4425852  65.0904448  20.3717168  42.3154157  64.6395638
  17.6529708  62.4221916  76.3593855  18.5556955  62.4545526  76.6760350
  17.4267078  61.4922366  76.3740191  19.4083310  61.1752902  73.0203934
  18.4578941  61.1754764  72.9068306  19.7115796  60.4285637  72.5039968
  23.2945866  39.0926788  69.1882114  22.5278262  38.5385275  69.3338796
  23.7056571  39.1648657  70.0496265  15.2987627  45.3811584  83.2787295
  16.1619088  45.0248389  83.4890620  14.7253038  45.0425479  83.9662699
  35.1436004  67.0113440  74.0849696  35.7814414  66.8920188  73.3813036
  35.0256847  67.9594284  74.1437648  31.9525710  66.9640869  74.0211221
  31.6144222  66.8481933  73.1331756  32.8215478  66.5632034  74.0012227
  27.8112526  68.8176345  70.0108112  27.2477391  68.7266282  69.2424399
  27.6964921  67.9976249  70.4910604  32.4345493  68.1175720  79.9797426
  32.4234134  67.7228519  79.1077930  32.5966133  67.3841793  80.5731198
  25.3576958  70.3127537  72.8492332  26.1498250  69.9718361  72.4338631
  25.5973608  70.4222512  73.7694486  33.3912085  72.4847313  65.3222577
  32.7400064  73.0701393  64.9356590  34.1856447  73.0153508  65.3817614
  27.3167712  69.5736450  65.7209711  28.0898588  69.0265437  65.5822587
  27.6693111  70.4380699  65.9324172  29.1552754  70.9012832  78.9276610
  28.8642620  71.8058463  78.8123277  29.7909739  70.9429360  79.6420680
  30.0808961  68.2789681  75.5177970  30.6772533  68.0545703  74.8034933
  30.1383933  67.5374426  76.1203418  29.6533990  65.7329116  63.3528161
  29.9059510  65.2110637  62.5911624  28.7158549  65.5695261  63.4554845
  34.6977272  64.7364894  71.1602904  35.4840362  64.3184317  70.8093321
  34.9615977  65.6410986  71.3284553  34.8687350  70.1737745  65.8591561
  34.2333183  70.2472371  66.5712466  34.5384756  70.7631343  65.1810640
  40.0985699  64.6740127  72.0635883  40.8310871  64.1039344  72.2973712
  39.3425055  64.2861728  72.5042388  29.3730278  67.6357222  65.5552536
  29.2566536  66.9602125  66.2233620  29.4832538  67.1489596  64.7384689
  31.7161819  67.0967369  69.2599225  31.3520026  66.5697990  69.9712147
  32.5728935  66.7065838  69.0865711  37.6211120  58.3861702  76.5230491
  37.2894445  59.2557113  76.2991706  37.0256733  58.0697986  77.2024522
  31.3567306  62.1257269  64.2560574  31.5241709  62.9937505  64.6231045
  31.1664475  62.2884550  63.3321863  34.1142639  70.5874248  75.9226404
  33.8143362  71.4899286  75.8142211  33.7693699  70.3206431  76.7747557
  27.5655121  67.0388044  71.9563108  26.6405617  66.9064259  72.1640800
  27.8139534  67.8182264  72.4533051  37.5139783  63.1056788  73.6023841
  36.6056660  63.0372196  73.3082602  37.4627379  63.5828733  74.4305667
  31.3356527  64.5814926  65.2407240  31.2156152  65.0271977  66.0792721
  30.6409115  64.9300244  64.6820779  24.9263932  66.6821318  72.7906897
  25.0556313  66.9355797  73.7046309  24.2461383  67.2749026  72.4711553
  29.0963419  77.3518568  68.8897372  29.0187449  78.3026393  68.9685852
  28.4925063  77.0064440  69.5472298  31.5880649  64.5246433  81.5458739
  30.8113983  65.0840354  81.5361603  32.2271212  65.0103216  82.0673609
  39.3801430  61.3073226  75.3801715  38.7375810  61.6005759  74.7341510
  38.8756358  61.1926147  76.1854912  37.0341593  65.0536399  66.0687574
  37.9459449  65.2863786  65.8935272  36.5251240  65.6373444  65.5062653
  29.8427021  67.3331887  81.1076706  30.5841706  67.8716931  80.8311529
  29.1364007  67.9598175  81.2648257  35.3182361  69.4761027  79.7048867
  35.7265717  69.0343438  78.9603499  34.5959622  68.9013655  79.9583060
  31.6713431  64.4133634  77.0782424  32.5174626  64.8373048  77.2217073
  31.6112069  63.7567258  77.7720987  35.6411175  70.0362218  73.4601156
  35.0120038  70.2007932  72.7577224  35.2536838  70.4503827  74.2312120
  39.5200407  70.9716656  70.8145520  38.8351446  71.3515557  70.2642553
  39.6044257  71.5811982  71.5477467  34.8212876  62.0738002  78.7363598
  34.5773808  62.8280063  78.1997873  35.0972807  62.4523350  79.5710845
  36.7751339  68.6176615  77.4140863  36.9868234  69.2608375  76.7375244
  36.7281087  67.7838931  76.9462793  34.3777568  61.2294435  74.3177435
  33.5162047  61.5275689  74.6094173  34.4040003  61.4464834  73.3858468
  31.1939137  69.7736626  70.7251241  31.6577483  70.0524329  69.9355864
  30.9295935  68.8720070  70.5424332  28.0863218  69.3208107  73.6631004
  28.6564576  69.7495376  73.0248489  28.6771330  69.0390692  74.3615190
  30.1308023  65.8959778  67.5340806  30.8332067  66.3480822  68.0014733
  29.7988652  65.2543597  68.1620699  28.5788385  64.4871535  81.9092016
  27.9487046  65.1687816  82.1427412  28.4724473  64.3754617  80.9645154
  23.8733357  64.1543331  72.8357940  23.0832411  64.4100859  72.3598050
  24.3644605  64.9691669  72.9409980  37.8897167  71.4948570  75.5863221
  38.7114611  71.0928757  75.3045902  37.8859570  71.3916804  76.5379336
  25.8248103  64.5187910  69.7941416  25.0279266  64.6306604  70.3124912
  25.5973695  64.8574562  68.9282307  31.6553770  71.0432613  77.7423931
  31.7198203  71.5053021  78.5782103  30.9464694  70.4129978  77.8706241
  22.1571060  64.4073821  75.2672931  22.4079099  65.2920831  75.5330506
  22.6930609  64.2278423  74.4948022  45.9803160  67.8387319  71.9348192
  45.2266868  67.2694717  71.7792196  46.1150701  67.8049983  72.8818827
  31.3701788  72.7100721  67.6102911  31.2347463  73.5552257  68.0387759
  31.9111601  72.9119999  66.8468845  27.8569128  58.7892301  84.2717267
  27.4636073  58.2358499  84.9464911  28.6735268  59.1002879  84.6623784
  24.8231185  70.2276159  68.1830836  25.3355706  71.0219409  68.3336401
  25.4753898  69.5302449  68.1164438  26.6326070  73.3441915  70.2653590
  26.8092698  74.2659880  70.0774574  27.4282904  73.0300334  70.6947969
  30.7737089  60.2050180  81.8637523  31.5146802  60.8057333  81.7841986
  31.0055012  59.4627818  81.3055566  25.9178427  65.3906547  80.1415753
  25.8031942  64.4891804  80.4422852  25.0622944  65.6370244  79.7900569
  32.9970264  73.3324287  81.7403253  32.5534119  72.5460666  81.4224158
  33.6587478  73.5203438  81.0747144  27.7557386  74.8620089  76.2663932
  28.3064811  74.7337152  75.4940926  26.9168862  75.1614978  75.9158825
  35.0951502  73.6127087  79.7684655  35.0769978  74.4335968  79.2764924
  36.0171423  73.4881163  79.9934796  31.5524557  71.1271217  80.6108163
  32.0852893  70.3659505  80.3807471  31.0238638  70.8344869  81.3532318
  34.7194252  56.2331283  76.1401805  34.3758521  57.1232924  76.0640915
  35.0873214  56.0432940  75.2771390  22.7880102  68.5564813  68.9590407
  23.6255324  68.9661822  68.7424115  22.9658370  67.6164255  68.9290601
  34.6844534  66.2239894  64.6474240  34.1691158  66.9944499  64.8862627
  34.4121843  65.5505030  65.2707301  32.2691645  61.0689595  69.7059478
  31.4133242  60.6796445  69.5265117  32.6818597  61.1481555  68.8459264
  33.7990792  58.6035938  74.1051038  33.2955588  58.5666073  73.2918843
  34.0921399  59.5128681  74.1647695  30.0433678  58.6874668  73.1117220
  30.9086675  58.4917476  72.7523109  30.1111187  58.4585019  74.0386577
  39.6578808  68.9772249  66.5827413  38.8808251  68.6383408  66.1382576
  40.3370289  68.9824872  65.9082379  34.4730838  64.0966986  66.4734021
  34.1680973  64.4113135  67.3244164  35.4261280  64.1748406  66.5161354
  32.9177269  70.2557209  68.1226975  32.3898631  69.5209969  67.8100213
  32.4164772  71.0331886  67.8766943  37.8970115  68.4506230  73.2394021
  37.2393790  69.1405491  73.3274150  38.7010515  68.8402662  73.5828008
  27.6495997  60.9176876  70.4833587  28.2239749  60.6952057  69.7506780
  28.2366979  60.9865570  71.2362188  36.7075574  66.8050602  71.2897963
  37.2207456  67.4380594  71.7919673  37.3576798  66.2051798  70.9241323
  27.9765584  62.9481337  64.5029472  27.1402896  63.2856023  64.8238747
  27.8370354  62.8130316  63.5656609  29.9518665  57.7918124  69.2108656
  29.2983077  57.4767142  68.5865271  29.9099139  57.1693865  69.9368479
  31.0629870  68.0737420  61.1261948  30.1556931  67.8426673  61.3253097
  31.5600902  67.2775039  61.3135930  33.9697948  76.7834927  64.0458634
  33.2959647  77.0866624  64.6543592  34.3563770  77.5864007  63.6964091
  33.1856405  64.2800058  73.5356304  32.2678966  64.5015005  73.3777992
  33.6016549  64.3546369  72.6768011  33.9691453  65.6791474  68.6658984
  34.7163272  66.1912871  68.3566106  34.2383042  65.3575526  69.5263378
  32.2418103  68.1750014  65.6485938  31.3329322  67.8909047  65.7458408
  32.2713187  68.5949093  64.7889245  37.4737370  71.7856604  69.4177106
  37.0199697  70.9447514  69.4742296  36.8431337  72.4218002  69.7551886
  36.4170290  62.7148590  70.6477773  35.6793047  62.2025976  70.9788016
  36.6697063  62.2748972  69.8361050  35.9170310  73.6233101  70.3526924
  36.2093284  74.1838158  69.6339290  36.4268930  73.9161662  71.1080083
  36.5181917  55.4924842  71.2419543  36.8240794  54.6322205  70.9545458
  37.2434522  56.0842462  71.0418536  22.8106273  65.8955529  69.6301140
  22.6130673  65.3024889  68.9052207  22.2552937  65.5907739  70.3477079
  30.7902997  65.7878635  71.7495734  30.8451607  64.8352471  71.6738210
  29.9794199  65.9438074  72.2337032  31.9394191  69.7158758  62.9874017
  31.5013621  68.9994617  62.5279654  32.6804632  69.9434873  62.4259108
  28.7295357  64.4055695  69.5086112  27.9163222  64.7049865  69.9151305
  29.2254351  64.0111384  70.2260595  30.8803935  74.4013452  71.4420377
  30.8380114  74.6274298  70.5128909  31.7966634  74.1676826  71.5906178
  34.3269569  64.8697519  78.3401006  34.6818956  65.0968992  79.1995472
  34.9741700  65.2015896  77.7178262  40.0567306  67.9915955  69.0450335
  39.9185204  68.1817551  68.1171525  39.7003524  68.7535338  69.5018387
  28.2209432  61.9774050  75.1247347  28.8608811  61.8362809  74.4270311
  27.3886962  61.6908564  74.7485949  40.0836685  70.0592482  74.0561607
  40.5173192  69.9667771  74.9044661  40.7968266  70.0349983  73.4181623
  28.9969736  71.2776481  71.2382340  29.7910334  70.7826801  71.0364915
  28.2861428  70.7494344  70.8750045  33.8164580  73.6594576  75.5894708
  33.8701602  74.2285513  76.3572423  32.9479361  73.8296461  75.2248745
  25.3052499  65.4219562  67.3142093  24.3750087  65.3604018  67.5312055
  25.4009971  64.8995515  66.5178734  25.2238048  61.9474375  69.9020334
  25.4844865  62.8619709  69.7929495  26.0455220  61.4798818  70.0516947
  26.6962973  63.3612132  77.0719159  27.3686027  63.1529495  76.4231808
  25.8692760  63.1634218  76.6324391  40.9452235  70.1016183  76.5894492
  41.1388125  71.0061993  76.8353767  40.8452853  69.6423602  77.4233077
  32.5988545  59.9874073  79.0884820  31.9516461  60.6864023  78.9949296
  33.3689561  60.4210217  79.4561068  36.0067343  70.2522926  82.1635373
  35.8552850  70.0233477  81.2465457  35.9972023  71.2093527  82.1766718
  32.7752680  67.8254838  77.1481639  33.7044740  67.9765998  76.9750607
  32.3543710  67.9138859  76.2930286  31.5741012  71.8505503  74.9180177
  31.4352097  71.4824287  75.7906115  30.7855608  72.3653142  74.7464135
  32.1689164  76.9514599  66.2605714  32.3440919  76.4802642  67.0751336
  31.4821952  77.5780365  66.4886974  33.1246227  71.2287105  72.3069015
  32.7896059  71.1887875  73.2026665  32.6250172  70.5631821  71.8339425
  27.0990471  66.6354735  77.8321596  26.9610269  65.9034974  78.4333135
  28.0095394  66.5463636  77.5505784  36.0605418  68.5743140  62.5806074
  35.4434589  67.8489968  62.4839127  35.5921907  69.3352500  62.2373149
  29.7272771  66.3474695  77.3205276  30.4372390  65.7067887  77.2791894
  29.6842080  66.5987590  78.2431456  37.7159550  73.2842048  80.2411855
  37.6572096  72.6001268  79.5742438  38.1179068  74.0261038  79.7892481
  28.4401705  63.3339913  79.1400915  27.9039062  62.8830651  79.7922511
  27.8518414  63.4685821  78.3971379  26.7350249  80.1003962  73.0345574
  26.9746847  80.7322486  73.7124592  25.8919445  79.7492002  73.3210933
  27.8503964  62.7928564  61.7027379  26.9733431  62.6717365  61.3389625
  28.3261717  62.0014642  61.4506267  37.7176957  71.2481632  78.4725834
  36.8303736  70.9107554  78.5952233  38.2875508  70.5164663  78.7094600
  19.3706104  67.5805724  71.7968886  20.0577144  67.2667454  71.2089901
  19.2154233  68.4847088  71.5236137  24.1740827  62.4695920  76.2253910
  24.0899015  61.8621590  75.4904319  23.3523533  62.9604939  76.2263406
  31.2478111  75.9083084  75.4387078  31.1748282  76.7138056  75.9506382
  30.8055504  76.1075050  74.6135099  31.0367890  75.1454854  68.9489899
  30.2535412  75.6876535  69.0428124  31.7360636  75.6628834  69.3484140
  34.3464540  60.9549484  71.5924105  34.8433240  60.2019446  71.2725175
  33.5751522  60.9913801  71.0267314  42.1994298  66.6589849  73.2342396
  42.1884174  67.5414565  72.8636329  41.3311677  66.3061400  73.0396933
  33.7076794  75.8069918  77.5945236  34.4204766  76.4417383  77.5221138
  33.2166823  75.9033784  76.7785238  35.4294321  69.7121171  69.1662528
  34.4950600  69.8322634  68.9967232  35.6070990  68.8093638  68.9022538
  30.9299509  63.0966867  71.3195789  30.5597297  62.5437907  72.0076695
  31.4258602  62.4925000  70.7670789  38.8166872  65.5538490  69.7012562
  39.2827325  66.3866482  69.6272865  39.2674373  65.0883472  70.4057821
  28.7588708  73.5564362  78.4150807  29.4598167  74.1900845  78.5680201
  28.2883823  73.8979093  77.6546446  36.8843104  71.8982312  66.6998714
  37.1602947  71.7838906  67.6092588  36.0147602  71.4999797  66.6610887
  36.7883535  57.9219077  73.7403463  35.8746615  58.1523304  73.9085670
  37.2176637  58.0057521  74.5917496  36.5589994  66.1108969  76.2403357
  35.9061444  66.3584877  75.5855810  36.9370374  65.2973108  75.9065835
  33.5197168  76.1468663  70.3431528  33.7019562  75.3290318  70.8059280
  34.3430154  76.3636355  69.9056418  33.8539333  75.0736848  67.6046576
  34.3827100  74.5629302  66.9916738  34.1167553  74.7579378  68.4692109
  32.6077567  66.8528780  82.7269395  31.9318204  66.7522910  83.3971770
  33.4305201  66.6967994  83.1905392  24.3556426  73.0900717  75.3481910
  24.9409863  72.3444405  75.4809814  24.1581264  73.4004674  76.2318574
  27.2095081  76.1251964  70.3644352  26.5405456  76.6098092  69.8808392
  27.0707951  76.3721185  71.2787731  18.9474081  65.6606317  74.0686353
  18.9858180  65.1269908  74.8623471  18.4414373  65.1341523  73.4497330
  31.3500350  78.1595708  76.9627011  31.9018658  78.3227329  77.7276096
  31.6906543  78.7500146  76.2907035  26.3264843  60.5070858  77.5648895
  26.3906169  61.3685689  77.1526293  26.2631963  59.8944859  76.8321254
  25.8017115  62.5793990  81.2121930  26.4289154  62.1971068  81.8259454
  24.9445034  62.3608192  81.5777622  36.2011224  72.9856965  82.8175665
  36.7451128  73.5986924  82.3230620  35.6198069  73.5436544  83.3342678
  22.5782658  64.3870419  67.1440284  22.8736099  63.4781098  67.0907338
  21.6770694  64.3658159  66.8221287  34.4868737  76.1077683  73.9490693
  34.3619876  75.3067423  73.4401638  35.1447828  76.6023877  73.4604663
  26.1076905  62.4626416  73.1267833  25.3863491  63.0762384  72.9875306
  26.8970161  62.9984181  73.0484479  36.5503645  73.9086703  75.5770243
  35.6033981  73.7892055  75.5048570  36.8986418  73.0209201  75.6596504
  28.9103219  59.7980842  79.4008485  29.4337620  60.0443139  80.1634794
  28.6915552  60.6300877  78.9811622  24.3070500  62.0684517  67.2679610
  23.9783206  61.1881896  67.0854715  24.6609870  62.0132186  68.1555999
  33.5550079  73.7039420  71.7774595  33.4075041  72.7756127  71.9582165
  34.3803572  73.7259510  71.2931670  27.4212323  62.3557487  67.6355087
  27.7608395  62.8843408  66.9133696  27.8684443  62.6937893  68.4113654
  37.1584200  74.5267978  72.8639468  38.0830748  74.3210840  72.7263919
  36.9899504  74.2784380  73.7728809  30.1155764  60.7394537  77.0858155
  29.7752584  59.9402351  77.4878835  29.4094770  61.0396248  76.5134988
  30.7672236  57.8243850  75.5385478  31.5898305  57.3504328  75.4164369
  31.0110299  58.6034334  76.0384165  29.4080470  60.8532108  65.8348380
  30.1288833  61.2313361  65.3312097  28.7845774  61.5720985  65.9383358
  33.5511593  61.5577257  66.7706712  33.7675207  62.4401895  66.4695540
  33.0705660  61.1663471  66.0412354  28.2910814  64.5162971  73.3477457
  28.1455395  64.8303274  74.2401738  27.8136018  65.1347871  72.7948356
  30.1507197  61.5065519  73.3958346  30.1368766  60.6106612  73.0590644
  30.8679625  61.5136182  74.0296632  32.0033328  61.9402859  75.4411474
  31.7451106  62.8619929  75.4395804  31.4718368  61.5433293  76.1311938
  36.9479517  75.0453646  68.2201559  37.1216394  74.4800068  67.4675412
  37.4408408  75.8454541  68.0381049  22.7656476  67.0568315  76.2865118
  22.2209945  67.8328123  76.4185392  23.6435826  67.4039119  76.1284239
  29.5544093  60.3879899  68.6645917  29.6760004  59.4596545  68.8636804
  29.2646135  60.4018585  67.7524232  32.4235283  58.0734809  71.8012636
  32.4456980  58.1374142  70.8464616  32.8403343  57.2339318  71.9953143
  42.8018908  67.8090069  69.8391859  43.2450054  67.0597394  69.4410982
  41.9245418  67.8000205  69.4565591  23.5522498  66.1838211  79.1795275
  22.8104234  66.3320847  79.7659905  23.2315243  66.4446477  78.3162024
  31.4966161  75.7254189  78.9775665  31.8053287  75.4803336  79.8498365
  32.2941643  75.9300828  78.4894535  31.5186773  77.8792099  71.2081041
  31.0791763  77.3868478  71.9013898  32.2694890  77.3365067  70.9673117
  23.9979112  74.0703640  71.2105670  24.8237132  73.7707412  70.8304313
  23.6473164  73.3011262  71.6595458  28.9660645  73.4230108  73.2803343
  28.3440654  72.7600813  72.9805571  29.6365512  73.4491240  72.5976991
  22.1987717  71.9889966  72.1694603  21.3619625  71.5612141  71.9878604
  22.1711362  72.1822410  73.1065394  29.0385173  61.9011896  82.8735849
  29.0873328  62.7774019  82.4913619  29.5807687  61.3589289  82.3007492
  39.5240018  72.4453019  82.1536986  38.7335562  72.4277158  81.6141486
  39.2873373  72.9841313  82.9086023  39.6437893  69.2945486  79.4669715
  39.6935898  69.1295493  80.4085238  39.5351817  68.4272745  79.0767596
  28.5274152  71.9734031  66.7561804  28.6762272  72.6569496  66.1028476
  29.3340596  71.9539122  67.2711259  36.9341656  65.2776414  80.7829022
  37.8351519  65.1382879  80.4913019  37.0089630  65.4430869  81.7227199
  31.2684461  62.6543269  79.6282208  30.3987770  62.9476835  79.3564796
  31.5043941  63.2383714  80.3489471  41.1456090  71.7142427  79.7111736
  40.8540899  72.0772408  80.5475197  40.5328221  71.0009436  79.5325068
  42.3451773  69.2795307  72.2314307  43.1798664  69.7185111  72.3951867
  42.4810901  68.8033960  71.4122552  39.3943278  66.8375042  78.1791794
  39.8697400  67.0302688  77.3710646  38.4708844  66.8934228  77.9335178
  26.2826785  67.9999209  67.7622873  26.0372827  67.0961539  67.9603083
  26.4522700  68.0016360  66.8202351  33.9723495  58.8722886  77.1447628
  34.4905439  59.6083912  76.8194117  33.6178628  59.1786879  77.9794387
  25.5522433  63.7327567  65.2609034  24.8591678  63.8071922  64.6049070
  25.3074184  62.9687910  65.7830551  34.2236089  55.2923168  72.6648525
  34.5037843  54.6246357  73.2908951  35.0086696  55.4852264  72.1523189
  32.0269558  74.4682162  64.2273551  31.4543525  75.0872349  63.7744023
  32.6002351  75.0181524  64.7613473  38.0944947  63.7140802  76.4120100
  39.0462370  63.8138900  76.4332324  37.9248398  62.9219071  76.9218184
  36.1159327  60.7996385  76.5979501  35.5209259  61.0801398  75.9025989
  35.8309024  61.2890286  77.3696242  35.2466817  74.7519312  65.3582133
  36.1797491  74.6864874  65.5615009  35.1590030  75.5875579  64.8996666
  40.5733025  66.9346922  75.5262400  40.5409345  65.9962922  75.7122083
  41.1833649  67.0130958  74.7928224  32.4116356  65.8042975  61.5689604
  33.3575461  65.6749183  61.6378022  32.0330601  65.0657637  62.0459032
  40.7227514  63.7257965  75.5720683  40.2066562  62.9416422  75.3850612
  41.6067462  63.3976682  75.7367202  38.3838241  57.4698981  71.5316495
  38.1863062  57.1614069  72.4159827  38.9937946  58.1960620  71.6614425
  46.3909575  67.9962929  74.6668436  47.1212964  67.7348217  75.2276140
  45.7816521  67.2591651  74.7070504  44.4724872  66.1370791  75.2642888
  43.7458036  66.0026756  74.6559379  44.0572159  66.4447620  76.0699606
  32.2955049  69.8560721  83.0290261  33.2158058  70.0339320  83.2230307
  32.2604632  68.9116766  82.8769960  30.5959273  63.7292951  61.5044489
  29.6890729  63.4326064  61.5807202  30.8735254  63.4322769  60.6378775
  21.5137214  65.0499314  71.9543535  21.1939998  64.1964623  71.6617909
  20.9670642  65.2647893  72.7101503  25.2917121  67.7661755  75.6713042
  25.5103131  68.6978863  75.6901076  25.7042895  67.4069730  76.4567846
  32.2121339  58.2729841  67.6588730  31.4022067  57.9276926  68.0343976
  32.9005756  57.9637385  68.2476342  34.1411887  57.3507888  69.2813027
  34.6942926  57.7703341  69.9403050  34.3781974  56.4243636  69.3235983
  30.1644986  63.3394961  85.0615791  30.0641713  64.2889318  84.9927882
  29.9466529  63.0113200  84.1891861  29.3658058  60.5879886  61.6456468
  30.2277222  60.9134785  61.9052285  29.5508402  59.8011382  61.1329534
  21.3825474  68.6702226  73.9236657  20.6888945  68.2556179  73.4106611
  22.1298465  68.7122762  73.3270076  37.5190694  59.4608413  68.7891691
  36.9389363  60.1193217  68.4069743  37.2526627  58.6385757  68.3779109
  35.9694261  58.8613470  70.9913011  36.4694039  58.9730005  70.1827330
  36.6129869  58.5574523  71.6313820  30.0276257  66.7692100  83.8780852
  29.5443338  67.5692460  84.0844741  30.1137196  66.7800045  82.9248296
  23.2962216  68.6020480  71.8002672  23.2732904  68.7008167  70.8484555
  23.6062853  69.4485631  72.1219838  25.9549594  70.6596635  75.9149286
  26.9092848  70.6280577  75.8479218  25.7562118  70.1987259  76.7299512
  26.5448976  69.2297751  78.4820084  27.3641865  69.7241830  78.5054921
  26.8185784  68.3129719  78.4537651  36.3015572  61.6208503  67.8448039
  35.4141427  61.9058154  67.6268234  36.7169561  61.4602267  66.9975316
  39.6530109  61.6455024  71.5602379  40.4290499  62.1351477  71.8326995
  38.9278243  62.0713078  72.0174248  42.0902667  62.3582643  72.6176319
  42.6847158  62.1178379  71.9069627  42.1629251  61.6389774  73.2449855
  24.3099823  76.2016254  72.9319484  24.1754291  75.4416655  72.3657482
  23.8931885  76.9257154  72.4648273  36.2756596  67.1363039  68.0598329
  36.2191798  67.5931591  67.2205962  36.8284939  66.3753724  67.8821172
  40.0861402  62.9252771  68.8848449  39.8298336  62.5249407  69.7156657
  39.4614270  63.6396565  68.7598588  44.3973740  65.6648844  71.3919740
  43.8373298  65.7342034  72.1651302  43.7917243  65.4889829  70.6719237
  27.4668949  77.0985571  73.1437927  27.3501333  78.0431004  73.0416617
  26.6461395  76.7959133  73.5323726  37.0091375  68.3267820  65.3550859
  36.9540179  68.1612092  64.4139303  36.3837431  69.0343853  65.5113048
  21.7983890  63.5635885  79.1812281  22.4442754  63.0534839  79.6699506
  21.5901042  64.3004566  79.7555706  34.3237283  70.6316732  84.6804421
  35.1928442  70.8057384  84.3191056  33.8444034  71.4511149  84.5580151
  30.3187501  57.8275929  64.9336177  30.3066171  58.7717769  65.0904448
  31.2110923  57.6446075  64.6395638  28.4923463  77.7513833  76.3593855
  29.3950710  77.7837443  76.6760350  28.2660833  76.8214284  76.3740191
  30.2477065  76.5044820  73.0203934  29.2972696  76.5046681  72.9068306
  30.5509551  75.7577554  72.5039968  34.1339620  54.4218706  69.1882114
  33.3672016  53.8677193  69.3338796  34.5450325  54.4940575  70.0496265
  26.1381381  60.7103502  83.2787295  27.0012843  60.3540307  83.4890620
  25.5646792  60.3717397  83.9662699  45.9829758  82.3405358  74.0849696
  46.6208168  82.2212105  73.3813036  45.8650601  83.2886202  74.1437648
  42.7919465  82.2932786  74.0211221  42.4537976  82.1773851  73.1331756
  43.6609233  81.8923951  74.0012227  38.6506280  84.1468263  70.0108112
  38.0871145  84.0558200  69.2424399  38.5358675  83.3268167  70.4910604
  43.2739248  83.4467638  79.9797426  43.2627888  83.0520436  79.1077930
  43.4359887  82.7133711  80.5731198  36.1970712  85.6419454  72.8492332
  36.9892004  85.3010279  72.4338631  36.4367362  85.7514429  73.7694486
  44.2305839  87.8139230  65.3222577  43.5793819  88.3993311  64.9356590
  45.0250202  88.3445425  65.3817614  38.1561466  84.9028367  65.7209711
  38.9292342  84.3557355  65.5822587  38.5086865  85.7672617  65.9324172
  39.9946509  86.2304750  78.9276610  39.7036375  87.1350381  78.8123277
  40.6303493  86.2721277  79.6420680  40.9202716  83.6081598  75.5177970
  41.5166288  83.3837621  74.8034933  40.9777687  82.8666344  76.1203418
  45.5371027  80.0656812  71.1602904  46.3234116  79.6476235  70.8093321
  45.8009731  80.9702904  71.3284553  45.7081104  85.5029662  65.8591561
  45.0726937  85.5764289  66.5712466  45.3778511  86.0923261  65.1810640
  50.9379454  80.0032045  72.0635883  51.6704626  79.4331262  72.2973712
  50.1818810  79.6153646  72.5042388  42.5555574  82.4259287  69.2599225
  42.1913781  81.8989908  69.9712147  43.4122690  82.0357756  69.0865711
  48.4604874  73.7153619  76.5230491  48.1288199  74.5849030  76.2991706
  47.8650488  73.3989903  77.2024522  44.9536394  85.9166165  75.9226404
  44.6537117  86.8191204  75.8142211  44.6087453  85.6498348  76.7747557
  38.4048875  82.3679962  71.9563108  37.4799372  82.2356176  72.1640800
  38.6533289  83.1474181  72.4533051  48.3533538  78.4348705  73.6023841
  47.4450415  78.3664114  73.3082602  48.3021133  78.9120650  74.4305667
  35.7657686  82.0113236  72.7906897  35.8950068  82.2647715  73.7046309
  35.0855138  82.6040944  72.4711553  39.9357174  92.6810486  68.8897372
  39.8581203  93.6318311  68.9685852  39.3318817  92.3356358  69.5472298
  42.4274403  79.8538351  81.5458739  41.6507737  80.4132271  81.5361603
  43.0664966  80.3395134  82.0673609  50.2195184  76.6365144  75.3801715
  49.5769564  76.9297677  74.7341510  49.7150113  76.5218064  76.1854912
  47.8735348  80.3828317  66.0687574  48.7853204  80.6155704  65.8935272
  47.3644995  80.9665361  65.5062653  40.6820776  82.6623804  81.1076706
  41.4235460  83.2008848  80.8311529  39.9757761  83.2890093  81.2648257
  46.1576115  84.8052945  79.7048867  46.5659471  84.3635355  78.9603499
  45.4353377  84.2305572  79.9583060  42.5107185  79.7425552  77.0782424
  43.3568381  80.1664965  77.2217073  42.4505823  79.0859176  77.7720987
  46.4804930  85.3654135  73.4601156  45.8513792  85.5299850  72.7577224
  46.0930592  85.7795745  74.2312120  50.3594162  86.3008573  70.8145520
  49.6745200  86.6807475  70.2642553  50.4438011  86.9103900  71.5477467
  45.6606631  77.4029920  78.7363598  45.4167563  78.1571981  78.1997873
  45.9366561  77.7815268  79.5710845  47.6145093  83.9468532  77.4140863
  47.8261989  84.5900292  76.7375244  47.5674842  83.1130849  76.9462793
  45.2171322  76.5586353  74.3177435  44.3555801  76.8567607  74.6094173
  45.2433757  76.7756752  73.3858468  42.0332892  85.1028544  70.7251241
  42.4971237  85.3816247  69.9355864  41.7689690  84.2011988  70.5424332
  38.9256973  84.6500025  73.6631004  39.4958330  85.0787293  73.0248489
  39.5165085  84.3682610  74.3615190  39.4182139  79.8163453  81.9092016
  38.7880800  80.4979733  82.1427412  39.3118227  79.7046534  80.9645154
  34.7127112  79.4835249  72.8357940  33.9226166  79.7392777  72.3598050
  35.2038359  80.2983586  72.9409980  48.7290921  86.8240488  75.5863221
  49.5508365  86.4220675  75.3045902  48.7253324  86.7208722  76.5379336
  36.6641857  79.8479828  69.7941416  35.8673021  79.9598522  70.3124912
  36.4367449  80.1866480  68.9282307  42.4947525  86.3724531  77.7423931
  42.5591957  86.8344938  78.5782103  41.7858449  85.7421896  77.8706241
  32.9964815  79.7365739  75.2672931  33.2472853  80.6212749  75.5330506
  33.5324363  79.5570341  74.4948022  56.8196914  83.1679236  71.9348192
  56.0660623  82.5986634  71.7792196  56.9544456  83.1341901  72.8818827
  42.2095543  88.0392639  67.6102911  42.0741217  88.8844174  68.0387759
  42.7505355  88.2411916  66.8468845  38.6962882  74.1184218  84.2717267
  38.3029828  73.5650417  84.9464911  39.5129022  74.4294797  84.6623784
  35.6624940  85.5568077  68.1830836  36.1749460  86.3511327  68.3336401
  36.3147653  84.8594367  68.1164438  37.4719825  88.6733833  70.2653590
  37.6486453  89.5951798  70.0774574  38.2676658  88.3592252  70.6947969
  41.6130843  75.5342098  81.8637523  42.3540557  76.1349251  81.7841986
  41.8448766  74.7919735  81.3055566  36.7572181  80.7198465  80.1415753
  36.6425696  79.8183722  80.4422852  35.9016699  80.9662162  79.7900569
  43.8364019  88.6616205  81.7403253  43.3927873  87.8752584  81.4224158
  44.4981232  88.8495356  81.0747144  38.5951140  90.1912007  76.2663932
  39.1458565  90.0629070  75.4940926  37.7562616  90.4906896  75.9158825
  45.9345257  88.9419005  79.7684655  45.9163732  89.7627886  79.2764924
  46.8565177  88.8173080  79.9934796  42.3918311  86.4563135  80.6108163
  42.9246648  85.6951423  80.3807471  41.8632392  86.1636786  81.3532318
  45.5588006  71.5623200  76.1401805  45.2152275  72.4524842  76.0640915
  45.9266969  71.3724858  75.2771390  33.6273857  83.8856731  68.9590407
  34.4649079  84.2953739  68.7424115  33.8052124  82.9456173  68.9290601
  43.1085400  76.3981512  69.7059478  42.2526996  76.0088363  69.5265117
  43.5212352  76.4773473  68.8459264  44.6384546  73.9327856  74.1051038
  44.1349342  73.8957991  73.2918843  44.9315153  74.8420598  74.1647695
  40.8827432  74.0166585  73.1117220  41.7480429  73.8209394  72.7523109
  40.9504941  73.7876937  74.0386577  50.4972563  84.3064166  66.5827413
  49.7202006  83.9675326  66.1382576  51.1764044  84.3116789  65.9082379
  43.7571024  85.5849127  68.1226975  43.2292385  84.8501887  67.8100213
  43.2558527  86.3623803  67.8766943  48.7363870  83.7798147  73.2394021
  48.0787544  84.4697409  73.3274150  49.5404269  84.1694579  73.5828008
  38.4889751  76.2468793  70.4833587  39.0633503  76.0243975  69.7506780
  39.0760734  76.3157488  71.2362188  47.5469329  82.1342520  71.2897963
  48.0601210  82.7672512  71.7919673  48.1970553  81.5343716  70.9241323
  44.8091703  92.1126844  64.0458634  44.1353402  92.4158541  64.6543592
  45.1957525  92.9155925  63.6964091  44.0250160  79.6091976  73.5356304
  43.1072721  79.8306923  73.3777992  44.4410303  79.6838286  72.6768011
  44.8085207  81.0083391  68.6658984  45.5557026  81.5204789  68.3566106
  45.0776797  80.6867444  69.5263378  43.0811857  83.5041932  65.6485938
  42.1723077  83.2200965  65.7458408  43.1106941  83.9241011  64.7889245
  48.3131125  87.1148522  69.4177106  47.8593452  86.2739431  69.4742296
  47.6825092  87.7509920  69.7551886  47.2564044  78.0440508  70.6477773
  46.5186801  77.5317894  70.9788016  47.5090818  77.6040889  69.8361050
  46.7564064  88.9525018  70.3526924  47.0487038  89.5130075  69.6339290
  47.2662685  89.2453579  71.1080083  33.6500028  81.2247446  69.6301140
  33.4524428  80.6316807  68.9052207  33.0946692  80.9199656  70.3477079
  41.6296752  81.1170553  71.7495734  41.6845361  80.1644389  71.6738210
  40.8187954  81.2729992  72.2337032  42.7787945  85.0450676  62.9874017
  42.3407375  84.3286535  62.5279654  43.5198386  85.2726791  62.4259108
  39.5689111  79.7347612  69.5086112  38.7556977  80.0341783  69.9151305
  40.0648106  79.3403301  70.2260595  41.7197689  89.7305369  71.4420377
  41.6773868  89.9566216  70.5128909  42.6360388  89.4968744  71.5906178
  45.1663323  80.1989437  78.3401006  45.5212711  80.4260910  79.1995472
  45.8135454  80.5307814  77.7178262  50.8961060  83.3207873  69.0450335
  50.7578959  83.5109469  68.1171525  50.5397279  84.0827256  69.5018387
  39.0603186  77.3065968  75.1247347  39.7002566  77.1654727  74.4270311
  38.2280717  77.0200481  74.7485949  50.9230440  85.3884400  74.0561607
  51.3566946  85.2959689  74.9044661  51.6362020  85.3641900  73.4181623
  39.8363490  86.6068398  71.2382340  40.6304089  86.1118719  71.0364915
  39.1255182  86.0786262  70.8750045  44.6558335  88.9886494  75.5894708
  44.7095357  89.5577430  76.3572423  43.7873116  89.1588379  75.2248745
  36.0631803  77.2766293  69.9020334  36.3238620  78.1911626  69.7929495
  36.8848975  76.8090736  70.0516947  37.5356728  78.6904050  77.0719159
  38.2079781  78.4821412  76.4231808  36.7086514  78.4926136  76.6324391
  51.7845989  85.4308100  76.5894492  51.9781879  86.3353911  76.8353767
  51.6846607  84.9715520  77.4233077  43.4382300  75.3165991  79.0884820
  42.7910215  76.0155941  78.9949296  44.2083315  75.7502135  79.4561068
  46.8461098  85.5814843  82.1635373  46.6946604  85.3525395  81.2465457
  46.8365777  86.5385445  82.1766718  43.6146434  83.1546756  77.1481639
  44.5438494  83.3057916  76.9750607  43.1937464  83.2430777  76.2930286
  42.4134766  87.1797420  74.9180177  42.2745852  86.8116205  75.7906115
  41.6249362  87.6945060  74.7464135  43.0082918  92.2806517  66.2605714
  43.1834674  91.8094560  67.0751336  42.3215706  92.9072283  66.4886974
  43.9639981  86.5579023  72.3069015  43.6289814  86.5179793  73.2026665
  43.4643927  85.8923739  71.8339425  37.9384225  81.9646653  77.8321596
  37.8004023  81.2326892  78.4333135  38.8489149  81.8755553  77.5505784
  46.8999173  83.9035057  62.5806074  46.2828344  83.1781886  62.4839127
  46.4315661  84.6644418  62.2373149  40.5666526  81.6766612  77.3205276
  41.2766144  81.0359805  77.2791894  40.5235834  81.9279507  78.2431456
  48.5553305  88.6133966  80.2411855  48.4965851  87.9293186  79.5742438
  48.9572823  89.3552956  79.7892481  39.2795460  78.6631830  79.1400915
  38.7432817  78.2122569  79.7922511  38.6912168  78.7977739  78.3971379
  37.5744003  95.4295880  73.0345574  37.8140602  96.0614404  73.7124592
  36.7313200  95.0783920  73.3210933  48.5570712  86.5773550  78.4725834
  47.6697491  86.2399472  78.5952233  49.1269263  85.8456581  78.7094600
  30.2099859  82.9097641  71.7968886  30.8970899  82.5959371  71.2089901
  30.0547988  83.8139006  71.5236137  35.0134581  77.7987838  76.2253910
  34.9292770  77.1913508  75.4904319  34.1917287  78.2896856  76.2263406
  42.0871865  91.2375002  75.4387078  42.0142037  92.0429974  75.9506382
  41.6449258  91.4366968  74.6135099  41.8761645  90.4746772  68.9489899
  41.0929167  91.0168452  69.0428124  42.5754390  90.9920752  69.3484140
  45.1858295  76.2841402  71.5924105  45.6826994  75.5311364  71.2725175
  44.4145276  76.3205718  71.0267314  53.0388052  81.9881767  73.2342396
  53.0277929  82.8706483  72.8636329  52.1705432  81.6353318  73.0396933
  44.5470549  91.1361836  77.5945236  45.2598521  91.7709301  77.5221138
  44.0560577  91.2325702  76.7785238  46.2688076  85.0413089  69.1662528
  45.3344354  85.1614551  68.9967232  46.4464744  84.1385556  68.9022538
  41.7693264  78.4258785  71.3195789  41.3991051  77.8729825  72.0076695
  42.2652356  77.8216918  70.7670789  49.6560627  80.8830408  69.7012562
  50.1221079  81.7158400  69.6272865  50.1068127  80.4175390  70.4057821
  39.5982462  88.8856280  78.4150807  40.2991922  89.5192763  78.5680201
  39.1277577  89.2271011  77.6546446  47.7236858  87.2274229  66.6998714
  47.9996702  87.1130824  67.6092588  46.8541357  86.8291714  66.6610887
  47.6277290  73.2510995  73.7403463  46.7140370  73.4815222  73.9085670
  48.0570391  73.3349439  74.5917496  47.3983748  81.4400887  76.2403357
  46.7455198  81.6876794  75.5855810  47.7764128  80.6265025  75.9065835
  44.3590922  91.4760580  70.3431528  44.5413317  90.6582236  70.8059280
  45.1823908  91.6928272  69.9056418  44.6933088  90.4028765  67.6046576
  45.2220854  89.8921220  66.9916738  44.9561307  90.0871296  68.4692109
  43.4471321  82.1820698  82.7269395  42.7711958  82.0814827  83.3971770
  44.2698955  82.0259912  83.1905392  35.1950180  88.4192635  75.3481910
  35.7803617  87.6736323  75.4809814  34.9975019  88.7296591  76.2318574
  38.0488836  91.4543882  70.3644352  37.3799211  91.9390010  69.8808392
  37.9101705  91.7013102  71.2787731  29.7867835  80.9898235  74.0686353
  29.8251935  80.4561826  74.8623471  29.2808128  80.4633440  73.4497330
  42.1894104  93.4887626  76.9627011  42.7412412  93.6519247  77.7276096
  42.5300298  94.0792063  76.2907035  37.1658597  75.8362775  77.5648895
  37.2299924  76.6977606  77.1526293  37.1025718  75.2236777  76.8321254
  36.6410870  77.9085908  81.2121930  37.2682909  77.5262985  81.8259454
  35.7838789  77.6900110  81.5777622  47.0404978  88.3148883  82.8175665
  47.5844882  88.9278841  82.3230620  46.4591823  88.8728461  83.3342678
  33.4176413  79.7162337  67.1440284  33.7129854  78.8073015  67.0907338
  32.5164448  79.6950076  66.8221287  45.3262491  91.4369601  73.9490693
  45.2013631  90.6359341  73.4401638  45.9841583  91.9315794  73.4604663
  36.9470660  77.7918334  73.1267833  36.2257245  78.4054301  72.9875306
  37.7363915  78.3276098  73.0484479  47.3897400  89.2378621  75.5770243
  46.4427735  89.1183972  75.5048570  47.7380173  88.3501119  75.6596504
  39.7496973  75.1272760  79.4008485  40.2731375  75.3735057  80.1634794
  39.5309306  75.9592795  78.9811622  35.1464254  77.3976435  67.2679610
  34.8176960  76.5173814  67.0854715  35.5003625  77.3424103  68.1555999
  44.3943833  89.0331337  71.7774595  44.2468796  88.1048045  71.9582165
  45.2197327  89.0551428  71.2931670  47.9977955  89.8559896  72.8639468
  48.9224502  89.6502757  72.7263919  47.8293258  89.6076297  73.7728809
  40.9549518  76.0686455  77.0858155  40.6146339  75.2694268  77.4878835
  40.2488524  76.3688166  76.5134988  41.6065990  73.1535768  75.5385478
  42.4292059  72.6796246  75.4164369  41.8504054  73.9326251  76.0384165
  39.1304569  79.8454888  73.3477457  38.9849150  80.1595191  74.2401738
  38.6529772  80.4639789  72.7948356  40.9900952  76.8357436  73.3958346
  40.9762520  75.9398530  73.0590644  41.7073380  76.8428100  74.0296632
  42.8427082  77.2694776  75.4411474  42.5844860  78.1911847  75.4395804
  42.3112123  76.8725211  76.1311938  47.7873271  90.3745564  68.2201559
  47.9610149  89.8091986  67.4675412  48.2802162  91.1746458  68.0381049
  33.6050231  82.3860233  76.2865118  33.0603699  83.1620041  76.4185392
  34.4829581  82.7331037  76.1284239  40.3937848  75.7171816  68.6645917
  40.5153759  74.7888463  68.8636804  40.1039890  75.7310502  67.7524232
  43.2629038  73.4026727  71.8012636  43.2850735  73.4666060  70.8464616
  43.6797097  72.5631236  71.9953143  53.6412662  83.1381986  69.8391859
  54.0843808  82.3889312  69.4410982  52.7639173  83.1292123  69.4565591
  48.7748444  89.6912328  65.3198458  49.4699348  90.3119021  65.5385772
  49.1171594  88.8407679  65.5950835  34.3916253  81.5130129  79.1795275
  33.6497989  81.6612764  79.7659905  34.0708997  81.7738394  78.3162024
  50.6739867  87.1412033  66.8485788  51.1991191  87.4799306  66.1235108
  50.5862219  86.2059049  66.6648923  42.3359915  91.0546107  78.9775665
  42.6447042  90.8095254  79.8498365  43.1335397  91.2592746  78.4894535
  42.3580527  93.2084017  71.2081041  41.9185518  92.7160395  71.9013898
  43.1088644  92.6656984  70.9673117  34.8372866  89.3995558  71.2105670
  35.6630886  89.0999329  70.8304313  34.4866918  88.6303180  71.6595458
  39.8054400  88.7522026  73.2803343  39.1834409  88.0892731  72.9805571
  40.4759267  88.7783158  72.5976991  33.0381472  87.3181884  72.1694603
  32.2013380  86.8904058  71.9878604  33.0105117  87.5114327  73.1065394
  39.8778927  77.2303814  82.8735849  39.9267083  78.1065937  82.4913619
  40.4201441  76.6881207  82.3007492  50.3633773  87.7744937  82.1536986
  49.5729317  87.7569076  81.6141486  50.1267127  88.3133231  82.9086023
  50.4831648  84.6237403  79.4669715  50.5329653  84.4587411  80.4085238
  50.3745571  83.7564662  79.0767596  39.3667907  87.3025949  66.7561804
  39.5156027  87.9861414  66.1028476  40.1734350  87.2831039  67.2711259
  47.7735410  80.6068331  80.7829022  48.6745273  80.4674796  80.4913019
  47.8483385  80.7722786  81.7227199  42.1078216  77.9835186  79.6282208
  41.2381525  78.2768752  79.3564796  42.3437696  78.5675631  80.3489471
  51.9849845  87.0434345  79.7111736  51.6934653  87.4064326  80.5475197
  51.3721976  86.3301353  79.5325068  53.1845527  84.6087225  72.2314307
  54.0192418  85.0477029  72.3951867  53.3204656  84.1325878  71.4122552
  50.2337033  82.1666960  78.1791794  50.7091155  82.3594606  77.3710646
  49.3102598  82.2226145  77.9335178  37.1220540  83.3291127  67.7622873
  36.8766581  82.4253457  67.9603083  37.2916454  83.3308277  66.8202351
  44.8117249  74.2014803  77.1447628  45.3299193  74.9375830  76.8194117
  44.4572382  74.5078796  77.9794387  45.0629844  70.6215086  72.6648525
  45.3431597  69.9538275  73.2908951  45.8480451  70.8144181  72.1523189
  42.8663312  89.7974080  64.2273551  42.2937279  90.4164267  63.7744023
  43.4396106  90.3473441  64.7613473  48.9338702  79.0432720  76.4120100
  49.8856125  79.1430817  76.4332324  48.7642152  78.2510988  76.9218184
  46.9553081  76.1288303  76.5979501  46.3603014  76.4093316  75.9025989
  46.6702778  76.6182204  77.3696242  46.0860572  90.0811230  65.3582133
  47.0191245  90.0156791  65.5615009  45.9983785  90.9167497  64.8996666
  48.7148589  89.3977100  62.3186081  48.6362220  89.0636964  63.2121839
  49.5358255  89.8898868  62.3177553  51.4126780  82.2638839  75.5262400
  51.3803100  81.3254840  75.7122083  52.0227403  82.3422876  74.7928224
  51.5621268  79.0549883  75.5720683  51.0460317  78.2708339  75.3850612
  52.4461217  78.7268599  75.7367202  57.2303330  83.3254846  74.6668436
  57.9606718  83.0640134  75.2276140  56.6210275  82.5883568  74.7070504
  55.3118627  81.4662709  75.2642888  54.5851790  81.3318674  74.6559379
  54.8965914  81.7739537  76.0699606  43.1348803  85.1852638  83.0290261
  44.0551813  85.3631238  83.2230307  43.0998386  84.2408684  82.8769960
  32.3530968  80.3791232  71.9543535  32.0333752  79.5256540  71.6617909
  31.8064396  80.5939810  72.7101503  36.1310876  83.0953673  75.6713042
  36.3496885  84.0270781  75.6901076  36.5436649  82.7361648  76.4567846
  41.0038741  78.6686879  85.0615791  40.9035468  79.6181236  84.9927882
  40.7860283  78.3405118  84.1891861  32.2219228  83.9994144  73.9236657
  31.5282700  83.5848096  73.4106611  32.9692219  84.0414680  73.3270076
  46.8088015  74.1905388  70.9913011  47.3087794  74.3021923  70.1827330
  47.4523623  73.8866441  71.6313820  40.8670011  82.0984018  83.8780852
  40.3837093  82.8984378  84.0844741  40.9530950  82.1091963  82.9248296
  34.1355971  83.9312397  71.8002672  34.1126659  84.0300085  70.8484555
  34.4456607  84.7777548  72.1219838  36.7943349  85.9888552  75.9149286
  37.7486602  85.9572495  75.8479218  36.5955872  85.5279176  76.7299512
  37.3842731  84.5589669  78.4820084  38.2035620  85.0533747  78.5054921
  37.6579538  83.6421637  78.4537651  47.1409327  76.9500421  67.8448039
  46.2535182  77.2350071  67.6268234  47.5563316  76.7894184  66.9975316
  50.4923863  76.9746942  71.5602379  51.2684253  77.4643394  71.8326995
  49.7671997  77.4004996  72.0174248  52.9296422  77.6874561  72.6176319
  53.5240912  77.4470297  71.9069627  53.0023005  76.9681692  73.2449855
  35.1493577  91.5308172  72.9319484  35.0148045  90.7708573  72.3657482
  34.7325640  92.2549072  72.4648273  46.2852540  86.7145095  61.9396059
  46.9888390  86.9195098  62.5553715  45.5615189  87.2821857  62.2045143
  47.1150351  82.4654957  68.0598329  47.0585552  82.9223508  67.2205962
  47.6678693  81.7045641  67.8821172  50.9255157  78.2544689  68.8848449
  50.6692091  77.8541324  69.7156657  50.3008025  78.9688483  68.7598588
  55.2367494  80.9940762  71.3919740  54.6767052  81.0633951  72.1651302
  54.6310998  80.8181746  70.6719237  38.3062703  92.4277489  73.1437927
  38.1895087  93.3722921  73.0416617  37.4855149  92.1251051  73.5323726
  48.1939238  87.1527625  63.9894519  49.0284842  86.7208823  63.8071994
  48.0323581  86.9809638  64.9171414  47.8485130  83.6559738  65.3550859
  47.7933934  83.4904009  64.4139303  47.2231185  84.3635771  65.5113048
  32.6377645  78.8927802  79.1812281  33.2836508  78.3826756  79.6699506
  32.4294796  79.6296484  79.7555706  45.1631037  85.9608650  84.6804421
  46.0322197  86.1349302  84.3191056  44.6837789  86.7803067  84.5580151
  39.3317217  93.0805751  76.3593855  40.2344464  93.1129361  76.6760350
  39.1054587  92.1506202  76.3740191  41.0870819  91.8336737  73.0203934
  40.1366450  91.8338599  72.9068306  41.3903305  91.0869472  72.5039968
  36.9775136  76.0395419  83.2787295  37.8406597  75.6832224  83.4890620
  36.4040547  75.7009314  83.9662699  56.8223513  97.6697276  74.0849696
  57.4601923  97.5504023  73.3813036  56.7044356  98.6178120  74.1437648
  53.6313219  97.6224704  74.0211221  53.2931731  97.5065769  73.1331756
  54.5002987  97.2215869  74.0012227  49.4900035  99.4760180  70.0108112
  48.9264900  99.3850117  69.2424399  49.3752430  98.6560085  70.4910604
  54.1133002  98.7759556  79.9797426  54.1021643  98.3812354  79.1077930
  54.2753642  98.0425628  80.5731198  47.0364467 100.9711372  72.8492332
  47.8285759 100.6302197  72.4338631  47.2761117 101.0806347  73.7694486
  55.0699594 103.1431148  65.3222577  54.4187573 103.7285228  64.9356590
  55.8643956 103.6737343  65.3817614  48.9955221 100.2320285  65.7209711
  49.7686097  99.6849272  65.5822587  49.3480620 101.0964534  65.9324172
  50.8340263 101.5596667  78.9276610  50.5430129 102.4642298  78.8123277
  51.4697248 101.6013195  79.6420680  51.7596470  98.9373516  75.5177970
  52.3560042  98.7129538  74.8034933  51.8171442  98.1958261  76.1203418
  51.3321498  96.3912951  63.3528161  51.5847019  95.8694473  62.5911624
  50.3946058  96.2279097  63.4554845  56.3764781  95.3948730  71.1602904
  57.1627871  94.9768153  70.8093321  56.6403486  96.2994822  71.3284553
  56.5474859 100.8321580  65.8591561  55.9120692 100.9056206  66.5712466
  56.2172265 101.4215179  65.1810640  61.7773208  95.3323963  72.0635883
  62.5098380  94.7623180  72.2973712  61.0212564  94.9445563  72.5042388
  51.0517787  98.2941057  65.5552536  50.9354045  97.6185961  66.2233620
  51.1620047  97.8073431  64.7384689  53.3949328  97.7551204  69.2599225
  53.0307535  97.2281825  69.9712147  54.2516444  97.3649673  69.0865711
  59.2998629  89.0445537  76.5230491  58.9681954  89.9140948  76.2991706
  58.7044242  88.7281821  77.2024522  53.0354815  92.7841104  64.2560574
  53.2029217  93.6521340  64.6231045  52.8451984  92.9468386  63.3321863
  55.7930148 101.2458083  75.9226404  55.4930871 102.1483122  75.8142211
  55.4481208 100.9790266  76.7747557  49.2442630  97.6971880  71.9563108
  48.3193126  97.5648094  72.1640800  49.4927043  98.4766099  72.4533051
  59.1927292  93.7640623  73.6023841  58.2844169  93.6956032  73.3082602
  59.1414888  94.2412568  74.4305667  53.0144036  95.2398762  65.2407240
  52.8943661  95.6855812  66.0792721  52.3196624  95.5884079  64.6820779
  46.6051441  97.3405153  72.7906897  46.7343822  97.5939632  73.7046309
  45.9248892  97.9332861  72.4711553  50.7750928 108.0102403  68.8897372
  50.6974958 108.9610228  68.9685852  50.1712572 107.6648276  69.5472298
  53.2668158  95.1830269  81.5458739  52.4901492  95.7424189  81.5361603
  53.9058721  95.6687052  82.0673609  61.0588939  91.9657062  75.3801715
  60.4163319  92.2589595  74.7341510  60.5543867  91.8509982  76.1854912
  58.7129102  95.7120235  66.0687574  59.6246958  95.9447621  65.8935272
  58.2038749  96.2957279  65.5062653  51.5214530  97.9915722  81.1076706
  52.2629215  98.5300766  80.8311529  50.8151516  98.6182011  81.2648257
  56.9969870 100.1344863  79.7048867  57.4053226  99.6927273  78.9603499
  56.2747131  99.5597490  79.9583060  53.3500940  95.0717469  77.0782424
  54.1962135  95.4956883  77.2217073  53.2899578  94.4151094  77.7720987
  57.3198684 100.6946053  73.4601156  56.6907547 100.8591767  72.7577224
  56.9324347 101.1087663  74.2312120  61.1987916 101.6300491  70.8145520
  60.5138955 102.0099392  70.2642553  61.2831766 102.2395818  71.5477467
  56.5000385  92.7321838  78.7363598  56.2561317  93.4863898  78.1997873
  56.7760316  93.1107185  79.5710845  58.4538848  99.2760450  77.4140863
  58.6655743  99.9192210  76.7375244  58.4068596  98.4422767  76.9462793
  56.0565077  91.8878271  74.3177435  55.1949556  92.1859524  74.6094173
  56.0827512  92.1048670  73.3858468  52.8726646 100.4320461  70.7251241
  53.3364992 100.7108164  69.9355864  52.6083444  99.5303906  70.5424332
  49.7650727  99.9791943  73.6631004  50.3352084 100.4079211  73.0248489
  50.3558839  99.6974528  74.3615190  51.8095532  96.5543614  67.5340806
  52.5119576  97.0064657  68.0014733  51.4776161  95.9127432  68.1620699
  50.2575894  95.1455370  81.9092016  49.6274555  95.8271651  82.1427412
  50.1511982  95.0338452  80.9645154  45.5520866  94.8127166  72.8357940
  44.7619920  95.0684695  72.3598050  46.0432114  95.6275504  72.9409980
  59.5684676 102.1532405  75.5863221  60.3902120 101.7512593  75.3045902
  59.5647079 102.0500640  76.5379336  47.5035612  95.1771746  69.7941416
  46.7066775  95.2890440  70.3124912  47.2761204  95.5158398  68.9282307
  53.3341279 101.7016449  77.7423931  53.3985712 102.1636856  78.5782103
  52.6252203 101.0713814  77.8706241  43.8358569  95.0657657  75.2672931
  44.0866608  95.9504667  75.5330506  44.3718118  94.8862258  74.4948022
  67.6590669  98.4971154  71.9348192  66.9054377  97.9278552  71.7792196
  67.7938210  98.4633818  72.8818827  53.0489297 103.3684556  67.6102911
  52.9134972 104.2136092  68.0387759  53.5899110 103.5703834  66.8468845
  49.5356637  89.4476136  84.2717267  49.1423582  88.8942335  84.9464911
  50.3522777  89.7586715  84.6623784  46.5018694 100.8859994  68.1830836
  47.0143215 101.6803245  68.3336401  47.1541407 100.1886285  68.1164438
  48.3113579 104.0025751  70.2653590  48.4880207 104.9243715  70.0774574
  49.1070413 103.6884170  70.6947969  52.4524598  90.8634015  81.8637523
  53.1934311  91.4641168  81.7841986  52.6842520  90.1211653  81.3055566
  47.5965936  96.0490382  80.1415753  47.4819451  95.1475640  80.4422852
  46.7410453  96.2954079  79.7900569  54.6757773 103.9908123  81.7403253
  54.2321628 103.2044501  81.4224158  55.3374987 104.1787273  81.0747144
  49.4344895 105.5203924  76.2663932  49.9852320 105.3920988  75.4940926
  48.5956370 105.8198813  75.9158825  56.7739011 104.2710923  79.7684655
  56.7557487 105.0919804  79.2764924  57.6958932 104.1464998  79.9934796
  53.2312066 101.7855052  80.6108163  53.7640402 101.0243340  80.3807471
  52.7026147 101.4928704  81.3532318  56.3981761  86.8915118  76.1401805
  56.0546030  87.7816760  76.0640915  56.7660723  86.7016776  75.2771390
  44.4667611  99.2148649  68.9590407  45.3042833  99.6245657  68.7424115
  44.6445879  98.2748091  68.9290601  56.3632043  96.8823729  64.6474240
  55.8478667  97.6528334  64.8862627  56.0909352  96.2088865  65.2707301
  53.9479154  91.7273430  69.7059478  53.0920751  91.3380280  69.5265117
  54.3606106  91.8065391  68.8459264  55.4778301  89.2619773  74.1051038
  54.9743097  89.2249908  73.2918843  55.7708908  90.1712516  74.1647695
  51.7221187  89.3458503  73.1117220  52.5874184  89.1501312  72.7523109
  51.7898696  89.1168855  74.0386577  61.3366317  99.6356084  66.5827413
  60.5595760  99.2967243  66.1382576  62.0157798  99.6408707  65.9082379
  56.1518346  94.7550821  66.4734021  55.8468482  95.0696971  67.3244164
  57.1048789  94.8332241  66.5161354  54.5964778 100.9141045  68.1226975
  54.0686140 100.1793804  67.8100213  54.0952281 101.6915721  67.8766943
  59.5757624  99.1090065  73.2394021  58.9181299  99.7989327  73.3274150
  60.3798024  99.4986497  73.5828008  49.3283506  91.5760711  70.4833587
  49.9027258  91.3535892  69.7506780  49.9154488  91.6449405  71.2362188
  58.3863083  97.4634438  71.2897963  58.8994965  98.0964430  71.7919673
  59.0364307  96.8635633  70.9241323  49.6553093  93.6065172  64.5029472
  48.8190405  93.9439859  64.8238747  49.5157863  93.4714152  63.5656609
  51.6306174  88.4501960  69.2108656  50.9770586  88.1350977  68.5865271
  51.5886648  87.8277700  69.9368479  52.7417379  98.7321255  61.1261948
  51.8344440  98.5010508  61.3253097  53.2388410  97.9358874  61.3135930
  55.6485457 107.4418762  64.0458634  54.9747156 107.7450459  64.6543592
  56.0351279 108.2447842  63.6964091  54.8643914  94.9383893  73.5356304
  53.9466475  95.1598840  73.3777992  55.2804058  95.0130204  72.6768011
  55.6478962  96.3375309  68.6658984  56.3950781  96.8496706  68.3566106
  55.9170551  96.0159362  69.5263378  53.9205612  98.8333850  65.6485938
  53.0116831  98.5492883  65.7458408  53.9500696  99.2532928  64.7889245
  59.1524879 102.4440439  69.4177106  58.6987206 101.6031349  69.4742296
  58.5218846 103.0801838  69.7551886  58.0957799  93.3732425  70.6477773
  57.3580556  92.8609812  70.9788016  58.3484572  92.9332807  69.8361050
  57.5957819 104.2816936  70.3526924  57.8880793 104.8421993  69.6339290
  58.1056439 104.5745497  71.1080083  58.1969426  86.1508677  71.2419543
  58.5028303  85.2906041  70.9545458  58.9222031  86.7426298  71.0418536
  44.4893782  96.5539364  69.6301140  44.2918182  95.9608725  68.9052207
  43.9340446  96.2491574  70.3477079  52.4690506  96.4462470  71.7495734
  52.5239116  95.4936307  71.6738210  51.6581708  96.6021909  72.2337032
  53.6181700 100.3742593  62.9874017  53.1801130  99.6578452  62.5279654
  54.3592141 100.6018708  62.4259108  50.4082866  95.0639530  69.5086112
  49.5950731  95.3633701  69.9151305  50.9041860  94.6695219  70.2260595
  52.5591444 105.0597287  71.4420377  52.5167623 105.2858133  70.5128909
  53.4754143 104.8260662  71.5906178  56.0057078  95.5281355  78.3401006
  56.3606465  95.7552828  79.1995472  56.6529209  95.8599731  77.7178262
  61.7354815  98.6499790  69.0450335  61.5972713  98.8401386  68.1171525
  61.3791033  99.4119173  69.5018387  49.8996941  92.6357886  75.1247347
  50.5396320  92.4946645  74.4270311  49.0674471  92.3492399  74.7485949
  61.7624194 100.7176317  74.0561607  62.1960701 100.6251607  74.9044661
  62.4755775 100.6933818  73.4181623  50.6757245 101.9360316  71.2382340
  51.4697843 101.4410636  71.0364915  49.9648937 101.4078179  70.8750045
  55.4952089 104.3178412  75.5894708  55.5489111 104.8869348  76.3572423
  54.6266870 104.4880297  75.2248745  46.9840008  96.0803398  67.3142093
  46.0537596  96.0187853  67.5312055  47.0797480  95.5579351  66.5178734
  46.9025557  92.6058211  69.9020334  47.1632374  93.5203544  69.7929495
  47.7242729  92.1382653  70.0516947  48.3750482  94.0195968  77.0719159
  49.0473536  93.8113330  76.4231808  47.5480269  93.8218054  76.6324391
  62.6239744 100.7600018  76.5894492  62.8175634 101.6645829  76.8353767
  62.5240362 100.3007437  77.4233077  54.2776054  90.6457909  79.0884820
  53.6303969  91.3447858  78.9949296  55.0477070  91.0794053  79.4561068
  57.6854852 100.9106761  82.1635373  57.5340359 100.6817313  81.2465457
  57.6759532 101.8677362  82.1766718  54.4540189  98.4838674  77.1481639
  55.3832249  98.6349833  76.9750607  54.0331219  98.5722694  76.2930286
  53.2528521 102.5089338  74.9180177  53.1139606 102.1408122  75.7906115
  52.4643117 103.0236977  74.7464135  53.8476673 107.6098435  66.2605714
  54.0228428 107.1386478  67.0751336  53.1609461 108.2364201  66.4886974
  54.8033736 101.8870941  72.3069015  54.4683568 101.8471711  73.2026665
  54.3037681 101.2215657  71.8339425  48.7777980  97.2938571  77.8321596
  48.6397778  96.5618810  78.4333135  49.6882903  97.2047471  77.5505784
  57.7392927  99.2326975  62.5806074  57.1222098  98.5073803  62.4839127
  57.2709416  99.9936335  62.2373149  51.4060280  97.0058530  77.3205276
  52.1159899  96.3651722  77.2791894  51.3629589  97.2571425  78.2431456
  59.3947059 103.9425883  80.2411855  59.3359605 103.2585104  79.5742438
  59.7966577 104.6844873  79.7892481  50.1189214  93.9923748  79.1400915
  49.5826571  93.5414486  79.7922511  49.5305923  94.1269657  78.3971379
  48.4137758 110.7587797  73.0345574  48.6534356 111.3906321  73.7124592
  47.5706954 110.4075837  73.3210933  49.5291473  93.4512399  61.7027379
  48.6520940  93.3301200  61.3389625  50.0049226  92.6598478  61.4506267
  59.3964466 101.9065467  78.4725834  58.5091245 101.5691389  78.5952233
  59.9663017 101.1748499  78.7094600  41.0493613  98.2389559  71.7968886
  41.7364653  97.9251289  71.2089901  40.8941742  99.1430924  71.5236137
  45.8528336  93.1279756  76.2253910  45.7686524  92.5205425  75.4904319
  45.0311042  93.6188774  76.2263406  52.9265620 106.5666920  75.4387078
  52.8535791 107.3721891  75.9506382  52.4843013 106.7658886  74.6135099
  52.7155399 105.8038690  68.9489899  51.9322921 106.3460370  69.0428124
  53.4148144 106.3212669  69.3484140  56.0252049  91.6133319  71.5924105
  56.5220749  90.8603282  71.2725175  55.2539031  91.6497636  71.0267314
  63.8781807  97.3173685  73.2342396  63.8671683  98.1998400  72.8636329
  63.0099186  96.9645236  73.0396933  55.3864303 106.4653754  77.5945236
  56.0992275 107.1001219  77.5221138  54.8954332 106.5617620  76.7785238
  57.1081830 100.3705006  69.1662528  56.1738109 100.4906469  68.9967232
  57.2858499  99.4677473  68.9022538  52.6087018  93.7550702  71.3195789
  52.2384806  93.2021743  72.0076695  53.1046111  93.1508836  70.7670789
  60.4954381  96.2122326  69.7012562  60.9614834  97.0450317  69.6272865
  60.9461882  95.7467307  70.4057821  50.4376217 104.2148197  78.4150807
  51.1385676 104.8484680  78.5680201  49.9671332 104.5562929  77.6546446
  58.5630613 102.5566147  66.6998714  58.8390456 102.4422742  67.6092588
  57.6935111 102.1583632  66.6610887  58.4671044  88.5802913  73.7403463
  57.5534124  88.8107140  73.9085670  58.8964146  88.6641357  74.5917496
  58.2377503  96.7692805  76.2403357  57.5848953  97.0168712  75.5855810
  58.6157883  95.9556943  75.9065835  55.1984677 106.8052498  70.3431528
  55.3807071 105.9874154  70.8059280  56.0217663 107.0220190  69.9056418
  55.5326842 105.7320683  67.6046576  56.0614609 105.2213138  66.9916738
  55.7955062 105.4163213  68.4692109  54.2865076  97.5112616  82.7269395
  53.6105713  97.4106745  83.3971770  55.1092710  97.3551829  83.1905392
  46.0343935 103.7484552  75.3481910  46.6197372 103.0028240  75.4809814
  45.8368773 104.0588509  76.2318574  48.8882590 106.7835800  70.3644352
  48.2192965 107.2681927  69.8808392  48.7495460 107.0305020  71.2787731
  40.6261590  96.3190152  74.0686353  40.6645689  95.7853743  74.8623471
  40.1201882  95.7925358  73.4497330  53.0287859 108.8179543  76.9627011
  53.5806167 108.9811165  77.7276096  53.3694052 109.4083981  76.2907035
  48.0052352  91.1654693  77.5648895  48.0693678  92.0269524  77.1526293
  47.9419472  90.5528695  76.8321254  47.4804624  93.2377826  81.2121930
  48.1076663  92.8554903  81.8259454  46.6232543  93.0192027  81.5777622
  57.8798733 103.6440801  82.8175665  58.4238637 104.2570759  82.3230620
  57.2985578 104.2020379  83.3342678  44.2570167  95.0454255  67.1440284
  44.5523608  94.1364933  67.0907338  43.3558203  95.0241994  66.8221287
  56.1656246 106.7661519  73.9490693  56.0407385 105.9651259  73.4401638
  56.8235337 107.2607712  73.4604663  47.7864414  93.1210251  73.1267833
  47.0651000  93.7346219  72.9875306  48.5757670  93.6568016  73.0484479
  58.2291154 104.5670539  75.5770243  57.2821490 104.4475890  75.5048570
  58.5773927 103.6793037  75.6596504  50.5890728  90.4564678  79.4008485
  51.1125129  90.7026974  80.1634794  50.3703061  91.2884713  78.9811622
  45.9858009  92.7268352  67.2679610  45.6570715  91.8465731  67.0854715
  46.3397379  92.6716021  68.1555999  55.2337588 104.3623255  71.7774595
  55.0862550 103.4339962  71.9582165  56.0591081 104.3843346  71.2931670
  49.0999832  93.0141322  67.6355087  49.4395904  93.5427243  66.9133696
  49.5471952  93.3521728  68.4113654  58.8371709 105.1851814  72.8639468
  59.7618257 104.9794675  72.7263919  58.6687013 104.9368215  73.7728809
  51.7943273  91.3978373  77.0858155  51.4540093  90.5986186  77.4878835
  51.0882279  91.6980084  76.5134988  52.4459745  88.4827685  75.5385478
  53.2685814  88.0088163  75.4164369  52.6897808  89.2618169  76.0384165
  51.0867979  91.5115944  65.8348380  51.8076342  91.8897196  65.3312097
  50.4633283  92.2304821  65.9383358  55.2299102  92.2161093  66.7706712
  55.4462716  93.0985731  66.4695540  54.7493169  91.8247306  66.0412354
  49.9698323  95.1746806  73.3477457  49.8242904  95.4887109  74.2401738
  49.4923527  95.7931706  72.7948356  51.8294706  92.1649354  73.3958346
  51.8156275  91.2690447  73.0590644  52.5467134  92.1720018  74.0296632
  53.6820837  92.5986694  75.4411474  53.4238615  93.5203765  75.4395804
  53.1505877  92.2017129  76.1311938  58.6267026 105.7037481  68.2201559
  58.8003903 105.1383904  67.4675412  59.1195917 106.5038376  68.0381049
  44.4443985  97.7152150  76.2865118  43.8997454  98.4911958  76.4185392
  45.3223335  98.0622955  76.1284239  51.2331602  91.0463734  68.6645917
  51.3547513  90.1180380  68.8636804  50.9433644  91.0602420  67.7524232
  54.1022792  88.7318645  71.8012636  54.1244489  88.7957978  70.8464616
  54.5190851  87.8923153  71.9953143  64.4806417  98.4673904  69.8391859
  64.9237563  97.7181229  69.4410982  63.6032927  98.4584041  69.4565591
  59.6142198 105.0204246  65.3198458  60.3093103 105.6410938  65.5385772
  59.9565348 104.1699597  65.5950835  45.2310007  96.8422047  79.1795275
  44.4891743  96.9904682  79.7659905  44.9102752  97.1030312  78.3162024
  61.5133621 102.4703951  66.8485788  62.0384945 102.8091224  66.1235108
  61.4255974 101.5350966  66.6648923  53.1753670 106.3838025  78.9775665
  53.4840796 106.1387172  79.8498365  53.9729152 106.5884663  78.4894535
  53.1974282 108.5375934  71.2081041  52.7579272 108.0452313  71.9013898
  53.9482399 107.9948902  70.9673117  45.6766621 104.7287475  71.2105670
  46.5024641 104.4291247  70.8304313  45.3260673 103.9595098  71.6595458
  50.6448154 104.0813944  73.2803343  50.0228163 103.4184649  72.9805571
  51.3153021 104.1075075  72.5976991  43.8775226 102.6473802  72.1694603
  43.0407134 102.2195976  71.9878604  43.8498871 102.8406245  73.1065394
  50.7172682  92.5595732  82.8735849  50.7660837  93.4357854  82.4913619
  51.2595196  92.0173125  82.3007492  61.2027527 103.1036855  82.1536986
  60.4123071 103.0860994  81.6141486  60.9660882 103.6425148  82.9086023
  61.3225402  99.9529321  79.4669715  61.3723407  99.7879329  80.4085238
  61.2139326  99.0856580  79.0767596  50.2061661 102.6317867  66.7561804
  50.3549781 103.3153331  66.1028476  51.0128105 102.6122957  67.2711259
  58.6129165  95.9360249  80.7829022  59.5139027  95.7966714  80.4913019
  58.6877139  96.1014704  81.7227199  52.9471970  93.3127104  79.6282208
  52.0775279  93.6060670  79.3564796  53.1831450  93.8967549  80.3489471
  62.8243599 102.3726263  79.7111736  62.5328407 102.7356243  80.5475197
  62.2115730 101.6593271  79.5325068  64.0239281  99.9379142  72.2314307
  64.8586173 100.3768947  72.3951867  64.1598410  99.4617796  71.4122552
  61.0730787  97.4958877  78.1791794  61.5484909  97.6886524  77.3710646
  60.1496353  97.5518063  77.9335178  47.9614294  98.6583044  67.7622873
  47.7160336  97.7545374  67.9603083  48.1310209  98.6600195  66.8202351
  55.6511004  89.5306721  77.1447628  56.1692948  90.2667748  76.8194117
  55.2966137  89.8370714  77.9794387  47.2309942  94.3911402  65.2609034
  46.5379187  94.4655757  64.6049070  46.9861693  93.6271746  65.7830551
  55.9023598  85.9507003  72.6648525  56.1825352  85.2830192  73.2908951
  56.6874205  86.1436099  72.1523189  53.7057067 105.1265997  64.2273551
  53.1331034 105.7456184  63.7744023  54.2789860 105.6765359  64.7613473
  59.7732456  94.3724637  76.4120100  60.7249879  94.4722735  76.4332324
  59.6035907  93.5802906  76.9218184  57.7946836  91.4580221  76.5979501
  57.1996768  91.7385233  75.9025989  57.5096533  91.9474122  77.3696242
  56.9254326 105.4103147  65.3582133  57.8585000 105.3448709  65.5615009
  56.8377539 106.2459414  64.8996666  59.5542343 104.7269018  62.3186081
  59.4755975 104.3928881  63.2121839  60.3752010 105.2190786  62.3177553
  62.2520534  97.5930757  75.5262400  62.2196854  96.6546758  75.7122083
  62.8621158  97.6714794  74.7928224  54.0903865  96.4626810  61.5689604
  55.0362970  96.3333018  61.6378022  53.7118110  95.7241472  62.0459032
  62.4015023  94.3841800  75.5720683  61.8854071  93.6000257  75.3850612
  63.2854971  94.0560517  75.7367202  60.0625750  88.1282816  71.5316495
  59.8650571  87.8197904  72.4159827  60.6725455  88.8544455  71.6614425
  68.0697084  98.6546764  74.6668436  68.8000473  98.3932052  75.2276140
  67.4604030  97.9175486  74.7070504  66.1512381  96.7954626  75.2642888
  65.4245545  96.6610591  74.6559379  65.7359668  97.1031455  76.0699606
  53.9742558 100.5144556  83.0290261  54.8945567 100.6923155  83.2230307
  53.9392141  99.5700602  82.8769960  52.2746782  94.3876786  61.5044489
  51.3678238  94.0909899  61.5807202  52.5522763  94.0906605  60.6378775
  43.1924723  95.7083150  71.9543535  42.8727507  94.8548458  71.6617909
  42.6458151  95.9231728  72.7101503  46.9704630  98.4245591  75.6713042
  47.1890640  99.3562699  75.6901076  47.3830404  98.0653565  76.4567846
  53.8908848  88.9313676  67.6588730  53.0809576  88.5860761  68.0343976
  54.5793265  88.6221220  68.2476342  55.8199396  88.0091723  69.2813027
  56.3730435  88.4287176  69.9403050  56.0569483  87.0827471  69.3235983
  51.8432495  93.9978797  85.0615791  51.7429222  94.9473154  84.9927882
  51.6254038  93.6697035  84.1891861  51.0445567  91.2463722  61.6456468
  51.9064731  91.5718620  61.9052285  51.2295911  90.4595218  61.1329534
  43.0612983  99.3286061  73.9236657  42.3676454  98.9140014  73.4106611
  43.8085974  99.3706598  73.3270076  59.1978203  90.1192248  68.7891691
  58.6176872  90.7777052  68.4069743  58.9314136  89.2969593  68.3779109
  57.6481770  89.5197306  70.9913011  58.1481548  89.6313840  70.1827330
  58.2917378  89.2158359  71.6313820  51.7063766  97.4275935  83.8780852
  51.2230847  98.2276296  84.0844741  51.7924705  97.4383880  82.9248296
  44.9749725  99.2604315  71.8002672  44.9520413  99.3592002  70.8484555
  45.2850362 100.1069466  72.1219838  47.6337103 101.3180470  75.9149286
  48.5880357 101.2864412  75.8479218  47.4349627 100.8571094  76.7299512
  48.2236485  99.8881586  78.4820084  49.0429374 100.3825665  78.5054921
  48.4973293  98.9713554  78.4537651  57.9803081  92.2792338  67.8448039
  57.0928936  92.5641989  67.6268234  58.3957070  92.1186102  66.9975316
  61.3317617  92.3038859  71.5602379  62.1078008  92.7935312  71.8326995
  60.6065752  92.7296914  72.0174248  63.7690176  93.0166479  72.6176319
  64.3634667  92.7762215  71.9069627  63.8416760  92.2973609  73.2449855
  45.9887332 106.8600090  72.9319484  45.8541800 106.1000491  72.3657482
  45.5719394 107.5840989  72.4648273  57.1246295 102.0437013  61.9396059
  57.8282145 102.2487016  62.5553715  56.4008944 102.6113775  62.2045143
  57.9544105  97.7946874  68.0598329  57.8979306  98.2515426  67.2205962
  58.5072448  97.0337559  67.8821172  61.7648911  93.5836606  68.8848449
  61.5085845  93.1833242  69.7156657  61.1401779  94.2980400  68.7598588
  66.0761249  96.3232680  71.3919740  65.5160807  96.3925869  72.1651302
  65.4704752  96.1473664  70.6719237  49.1456458 107.7569407  73.1437927
  49.0288842 108.7014839  73.0416617  48.3248904 107.4542968  73.5323726
  59.0332992 102.4819542  63.9894519  59.8678596 102.0500741  63.8071994
  58.8717335 102.3101556  64.9171414  58.6878884  98.9851656  65.3550859
  58.6327688  98.8195927  64.4139303  58.0624940  99.6927689  65.5113048
  43.4771399  94.2219720  79.1812281  44.1230263  93.7118674  79.6699506
  43.2688550  94.9588402  79.7555706  56.0024792 101.2900568  84.6804421
  56.8715951 101.4641220  84.3191056  55.5231543 102.1094984  84.5580151
  51.9975010  88.4859765  64.9336177  51.9853680  89.4301605  65.0904448
  52.8898432  88.3029910  64.6395638  50.1710972 108.4097669  76.3593855
  51.0738219 108.4421279  76.6760350  49.9448342 107.4798119  76.3740191
  51.9264574 107.1628655  73.0203934  50.9760205 107.1630517  72.9068306
  52.2297060 106.4161390  72.5039968  55.8127129  85.0802541  69.1882114
  55.0459525  84.5261028  69.3338796  56.2237834  85.1524410  70.0496265
  47.8168890  91.3687337  83.2787295  48.6800352  91.0124142  83.4890620
  47.2434301  91.0301232  83.9662699  67.6617267 112.9989193  74.0849696
  68.2995677 112.8795941  73.3813036  67.5438110 113.9470037  74.1437648
  64.4706974 112.9516622  74.0211221  64.1325485 112.8357686  73.1331756
  65.3396742 112.5507787  74.0012227  60.3293789 114.8052098  70.0108112
  59.7658654 114.7142035  69.2424399  60.2146184 113.9852002  70.4910604
  64.9526757 114.1051473  79.9797426  64.9415397 113.7104272  79.1077930
  65.1147396 113.3717546  80.5731198  57.8758221 116.3003290  72.8492332
  58.6679513 115.9594114  72.4338631  58.1154871 116.4098265  73.7694486
  65.9093348 118.4723066  65.3222577  65.2581328 119.0577146  64.9356590
  66.7037711 119.0029261  65.3817614  59.8348975 115.5612203  65.7209711
  60.6079851 115.0141190  65.5822587  60.1874374 116.4256452  65.9324172
  61.6734018 116.8888585  78.9276610  61.3823884 117.7934216  78.8123277
  62.3091002 116.9305113  79.6420680  62.5990225 114.2665434  75.5177970
  63.1953797 114.0421456  74.8034933  62.6565196 113.5250179  76.1203418
  62.1715253 111.7204869  63.3528161  62.4240774 111.1986390  62.5911624
  61.2339812 111.5571014  63.4554845  67.2158536 110.7240647  71.1602904
  68.0021625 110.3060070  70.8093321  67.4797240 111.6286740  71.3284553
  67.3868613 116.1613498  65.8591561  66.7514446 116.2348124  66.5712466
  67.0566020 116.7507096  65.1810640  72.6166963 110.6615881  72.0635883
  73.3492135 110.0915097  72.2973712  71.8606319 110.2737481  72.5042388
  61.8911542 113.6232975  65.5552536  61.7747800 112.9477878  66.2233620
  62.0013802 113.1365349  64.7384689  64.2343083 113.0843122  69.2599225
  63.8701290 112.5573743  69.9712147  65.0910199 112.6941591  69.0865711
  70.1392383 104.3737455  76.5230491  69.8075708 105.2432866  76.2991706
  69.5437997 104.0573739  77.2024522  63.8748570 108.1133022  64.2560574
  64.0422972 108.9813258  64.6231045  63.6845739 108.2760303  63.3321863
  66.6323903 116.5750001  75.9226404  66.3324626 117.4775039  75.8142211
  66.2874962 116.3082184  76.7747557  60.0836384 113.0263797  71.9563108
  59.1586881 112.8940012  72.1640800  60.3320797 113.8058017  72.4533051
  70.0321047 109.0932541  73.6023841  69.1237924 109.0247949  73.3082602
  69.9808642 109.5704486  74.4305667  63.8537791 110.5690679  65.2407240
  63.7337416 111.0147730  66.0792721  63.1590379 110.9175997  64.6820779
  57.4445195 112.6697071  72.7906897  57.5737576 112.9231550  73.7046309
  56.7642647 113.2624779  72.4711553  64.1061912 110.5122186  81.5458739
  63.3295246 111.0716107  81.5361603  64.7452475 110.9978969  82.0673609
  71.8982693 107.2948979  75.3801715  71.2557073 107.5881512  74.7341510
  71.3937622 107.1801900  76.1854912  69.5522857 111.0412152  66.0687574
  70.4640713 111.2739539  65.8935272  69.0432504 111.6249197  65.5062653
  62.3608285 113.3207640  81.1076706  63.1022969 113.8592684  80.8311529
  61.6545270 113.9473929  81.2648257  67.8363624 115.4636780  79.7048867
  68.2446980 115.0219191  78.9603499  67.1140886 114.8889408  79.9583060
  64.1894694 110.4009387  77.0782424  65.0355890 110.8248801  77.2217073
  64.1293332 109.7443011  77.7720987  68.1592439 116.0237971  73.4601156
  67.5301301 116.1883685  72.7577224  67.7718101 116.4379580  74.2312120
  72.0381671 116.9592409  70.8145520  71.3532709 117.3391310  70.2642553
  72.1225520 117.5687735  71.5477467  67.3394140 108.0613755  78.7363598
  67.0955072 108.8155816  78.1997873  67.6154070 108.4399103  79.5710845
  69.2932602 114.6052368  77.4140863  69.5049498 115.2484128  76.7375244
  69.2462351 113.7714684  76.9462793  66.8958831 107.2170188  74.3177435
  66.0343310 107.5151442  74.6094173  66.9221266 107.4340587  73.3858468
  63.7120401 115.7612379  70.7251241  64.1758746 116.0400082  69.9355864
  63.4477199 114.8595824  70.5424332  60.6044482 115.3083860  73.6631004
  61.1745839 115.7371129  73.0248489  61.1952594 115.0266445  74.3615190
  62.6489287 111.8835531  67.5340806  63.3513330 112.3356575  68.0014733
  62.3169915 111.2419350  68.1620699  61.0969648 110.4747288  81.9092016
  60.4668309 111.1563569  82.1427412  60.9905736 110.3630370  80.9645154
  56.3914621 110.1419084  72.8357940  55.6013675 110.3976613  72.3598050
  56.8825868 110.9567422  72.9409980  70.4078430 117.4824323  75.5863221
  71.2295874 117.0804510  75.3045902  70.4040833 117.3792557  76.5379336
  58.3429366 110.5063663  69.7941416  57.5460530 110.6182357  70.3124912
  58.1154958 110.8450315  68.9282307  64.1735034 117.0308366  77.7423931
  64.2379466 117.4928774  78.5782103  63.4645958 116.4005731  77.8706241
  54.6752324 110.3949574  75.2672931  54.9260362 111.2796584  75.5330506
  55.2111872 110.2154176  74.4948022  78.4984423 113.8263072  71.9348192
  77.7448132 113.2570470  71.7792196  78.6331965 113.7925736  72.8818827
  63.8883052 118.6976474  67.6102911  63.7528726 119.5428010  68.0387759
  64.4292864 118.8995752  66.8468845  60.3750391 104.7768054  84.2717267
  59.9817337 104.2234252  84.9464911  61.1916531 105.0878632  84.6623784
  57.3412449 116.2151912  68.1830836  57.8536969 117.0095162  68.3336401
  57.9935162 115.5178202  68.1164438  59.1507334 119.3317668  70.2653590
  59.3273962 120.2535633  70.0774574  59.9464167 119.0176087  70.6947969
  63.2918352 106.1925933  81.8637523  64.0328066 106.7933086  81.7841986
  63.5236275 105.4503571  81.3055566  58.4359690 111.3782300  80.1415753
  58.3213205 110.4767557  80.4422852  57.5804208 111.6245997  79.7900569
  65.5151528 119.3200040  81.7403253  65.0715382 118.5336419  81.4224158
  66.1768741 119.5079191  81.0747144  60.2738649 120.8495842  76.2663932
  60.8246074 120.7212905  75.4940926  59.4350125 121.1490731  75.9158825
  67.6132766 119.6002840  79.7684655  67.5951241 120.4211721  79.2764924
  68.5352686 119.4756916  79.9934796  64.0705820 117.1146970  80.6108163
  64.6034157 116.3535258  80.3807471  63.5419901 116.8220622  81.3532318
  67.2375515 102.2207036  76.1401805  66.8939784 103.1108677  76.0640915
  67.6054478 102.0308693  75.2771390  55.3061366 114.5440566  68.9590407
  56.1436588 114.9537575  68.7424115  55.4839633 113.6040008  68.9290601
  67.2025798 112.2115647  64.6474240  66.6872421 112.9820252  64.8862627
  66.9303106 111.5380783  65.2707301  64.7872909 107.0565348  69.7059478
  63.9314505 106.6672198  69.5265117  65.1999861 107.1357308  68.8459264
  66.3172055 104.5911691  74.1051038  65.8136851 104.5541826  73.2918843
  66.6102662 105.5004434  74.1647695  62.5614941 104.6750421  73.1117220
  63.4267938 104.4793229  72.7523109  62.6292450 104.4460772  74.0386577
  72.1760072 114.9648002  66.5827413  71.3989515 114.6259161  66.1382576
  72.8551553 114.9700625  65.9082379  66.9912101 110.0842739  66.4734021
  66.6862237 110.3988888  67.3244164  67.9442543 110.1624159  66.5161354
  65.4358533 116.2432962  68.1226975  64.9079894 115.5085722  67.8100213
  64.9346036 117.0207639  67.8766943  70.4151379 114.4381983  73.2394021
  69.7575053 115.1281244  73.3274150  71.2191778 114.8278415  73.5828008
  60.1677260 106.9052629  70.4833587  60.7421012 106.6827810  69.7506780
  60.7548243 106.9741323  71.2362188  69.2256838 112.7926356  71.2897963
  69.7388719 113.4256347  71.7919673  69.8758062 112.1927551  70.9241323
  60.4946848 108.9357090  64.5029472  59.6584160 109.2731776  64.8238747
  60.3551617 108.8006069  63.5656609  62.4699928 103.7793878  69.2108656
  61.8164340 103.4642895  68.5865271  62.4280402 103.1569618  69.9368479
  63.5811133 114.0613173  61.1261948  62.6738195 113.8302426  61.3253097
  64.0782165 113.2650792  61.3135930  66.4879212 122.7710680  64.0458634
  65.8140911 123.0742377  64.6543592  66.8745034 123.5739760  63.6964091
  65.7037669 110.2675811  73.5356304  64.7860230 110.4890758  73.3777992
  66.1197812 110.3422122  72.6768011  66.4872716 111.6667227  68.6658984
  67.2344535 112.1788624  68.3566106  66.7564306 111.3451279  69.5263378
  64.7599366 114.1625767  65.6485938  63.8510586 113.8784800  65.7458408
  64.7894450 114.5824846  64.7889245  69.9918634 117.7732357  69.4177106
  69.5380961 116.9323267  69.4742296  69.3612601 118.4093755  69.7551886
  68.9351553 108.7024343  70.6477773  68.1974310 108.1901729  70.9788016
  69.1878327 108.2624725  69.8361050  68.4351573 119.6108854  70.3526924
  68.7274547 120.1713911  69.6339290  68.9450194 119.9037415  71.1080083
  69.0363181 101.4800595  71.2419543  69.3422058 100.6197958  70.9545458
  69.7615786 102.0718215  71.0418536  55.3287537 111.8831282  69.6301140
  55.1311937 111.2900642  68.9052207  54.7734201 111.5783492  70.3477079
  63.3084260 111.7754388  71.7495734  63.3632870 110.8228224  71.6738210
  62.4975463 111.9313827  72.2337032  64.4575454 115.7034511  62.9874017
  64.0194884 114.9870370  62.5279654  65.1985895 115.9310626  62.4259108
  61.2476620 110.3931448  69.5086112  60.4344486 110.6925618  69.9151305
  61.7435615 109.9987137  70.2260595  63.3985198 120.3889205  71.4420377
  63.3561377 120.6150051  70.5128909  64.3147897 120.1552579  71.5906178
  66.8450832 110.8573272  78.3401006  67.2000220 111.0844745  79.1995472
  67.4922963 111.1891649  77.7178262  72.5748569 113.9791708  69.0450335
  72.4366468 114.1693304  68.1171525  72.2184788 114.7411091  69.5018387
  60.7390695 107.9649803  75.1247347  61.3790074 107.8238562  74.4270311
  59.9068226 107.6784317  74.7485949  72.6017949 116.0468235  74.0561607
  73.0354455 115.9543524  74.9044661  73.3149529 116.0225736  73.4181623
  61.5150999 117.2652234  71.2382340  62.3091598 116.7702554  71.0364915
  60.8042691 116.7370097  70.8750045  66.3345844 119.6470329  75.5894708
  66.3882866 120.2161266  76.3572423  65.4660625 119.8172214  75.2248745
  57.8233763 111.4095315  67.3142093  56.8931351 111.3479771  67.5312055
  57.9191235 110.8871268  66.5178734  57.7419312 107.9350128  69.9020334
  58.0026129 108.8495462  69.7929495  58.5636484 107.4674571  70.0516947
  59.2144237 109.3487885  77.0719159  59.8867290 109.1405248  76.4231808
  58.3874023 109.1509971  76.6324391  73.4633498 116.0891936  76.5894492
  73.6569388 116.9937746  76.8353767  73.3634116 115.6299355  77.4233077
  65.1169809 105.9749826  79.0884820  64.4697724 106.6739776  78.9949296
  65.8870824 106.4085970  79.4561068  68.5248607 116.2398679  82.1635373
  68.3734113 116.0109230  81.2465457  68.5153286 117.1969280  82.1766718
  65.2933943 113.8130591  77.1481639  66.2226003 113.9641751  76.9750607
  64.8724973 113.9014612  76.2930286  64.0922275 117.8381256  74.9180177
  63.9533361 117.4700040  75.7906115  63.3036871 118.3528895  74.7464135
  64.6870427 122.9390352  66.2605714  64.8622183 122.4678395  67.0751336
  64.0003215 123.5656118  66.4886974  65.6427490 117.2162858  72.3069015
  65.3077323 117.1763628  73.2026665  65.1431436 116.5507574  71.8339425
  59.6171734 112.6230488  77.8321596  59.4791532 111.8910727  78.4333135
  60.5276658 112.5339389  77.5505784  68.5786682 114.5618893  62.5806074
  67.9615852 113.8365721  62.4839127  68.1103170 115.3228253  62.2373149
  62.2454035 112.3350448  77.3205276  62.9553653 111.6943640  77.2791894
  62.2023343 112.5863343  78.2431456  70.2340814 119.2717801  80.2411855
  70.1753360 118.5877021  79.5742438  70.6360332 120.0136791  79.7892481
  60.9582969 109.3215666  79.1400915  60.4220326 108.8706404  79.7922511
  60.3699677 109.4561575  78.3971379  60.3685228 108.7804317  61.7027379
  59.4914694 108.6593118  61.3389625  60.8442981 107.9890395  61.4506267
  70.2358221 117.2357385  78.4725834  69.3485000 116.8983307  78.5952233
  70.8056772 116.5040416  78.7094600  51.8887368 113.5681477  71.7968886
  52.5758408 113.2543207  71.2089901  51.7335497 114.4722841  71.5236137
  56.6922090 108.4571673  76.2253910  56.6080279 107.8497343  75.4904319
  55.8704796 108.9480692  76.2263406  63.7659374 121.8958837  75.4387078
  63.6929546 122.7013809  75.9506382  63.3236767 122.0950803  74.6135099
  63.5549154 121.1330607  68.9489899  62.7716676 121.6752288  69.0428124
  64.2541899 121.6504587  69.3484140  66.8645804 106.9425237  71.5924105
  67.3614503 106.1895199  71.2725175  66.0932785 106.9789554  71.0267314
  74.7175561 112.6465602  73.2342396  74.7065438 113.5290318  72.8636329
  73.8492941 112.2937153  73.0396933  66.2258058 121.7945671  77.5945236
  66.9386030 122.4293136  77.5221138  65.7348086 121.8909537  76.7785238
  67.9475585 115.6996924  69.1662528  67.0131863 115.8198387  68.9967232
  68.1252253 114.7969391  68.9022538  63.4480773 109.0842620  71.3195789
  63.0778560 108.5313660  72.0076695  63.9439865 108.4800753  70.7670789
  71.3348136 111.5414243  69.7012562  71.8008588 112.3742235  69.6272865
  71.7855636 111.0759225  70.4057821  61.2769971 119.5440115  78.4150807
  61.9779431 120.1776598  78.5680201  60.8065086 119.8854846  77.6546446
  69.4024367 117.8858065  66.6998714  69.6784211 117.7714659  67.6092588
  68.5328866 117.4875550  66.6610887  69.3064799 103.9094830  73.7403463
  68.3927879 104.1399057  73.9085670  69.7357900 103.9933274  74.5917496
  69.0771257 112.0984722  76.2403357  68.4242707 112.3460630  75.5855810
  69.4551637 111.2848861  75.9065835  66.0378431 122.1344416  70.3431528
  66.2200826 121.3166071  70.8059280  66.8611417 122.3512108  69.9056418
  66.3720597 121.0612601  67.6046576  66.9008363 120.5505055  66.9916738
  66.6348816 120.7455131  68.4692109  65.1258830 112.8404533  82.7269395
  64.4499467 112.7398663  83.3971770  65.9486464 112.6843747  83.1905392
  56.8737689 119.0776470  75.3481910  57.4591126 118.3320158  75.4809814
  56.6762528 119.3880427  76.2318574  51.4655344 111.6482070  74.0686353
  51.5039444 111.1145661  74.8623471  50.9595637 111.1217276  73.4497330
  58.8446106 106.4946611  77.5648895  58.9087433 107.3561442  77.1526293
  58.7813227 105.8820612  76.8321254  58.3198379 108.5669743  81.2121930
  58.9470418 108.1846821  81.8259454  57.4626298 108.3483945  81.5777622
  68.7192487 118.9732718  82.8175665  69.2632391 119.5862677  82.3230620
  68.1379332 119.5312297  83.3342678  55.0963922 110.3746172  67.1440284
  55.3917363 109.4656851  67.0907338  54.1951957 110.3533912  66.8221287
  67.0050000 122.0953436  73.9490693  66.8801140 121.2943176  73.4401638
  67.6629091 122.5899630  73.4604663  58.6258169 108.4502169  73.1267833
  57.9044754 109.0638137  72.9875306  59.4151424 108.9859934  73.0484479
  69.0684909 119.8962456  75.5770243  68.1215244 119.7767808  75.5048570
  69.4167682 119.0084955  75.6596504  61.4284482 105.7856595  79.4008485
  61.9518884 106.0318892  80.1634794  61.2096815 106.6176630  78.9811622
  56.8251763 108.0560270  67.2679610  56.4964469 107.1757649  67.0854715
  57.1791134 108.0007939  68.1555999  66.0731342 119.6915173  71.7774595
  65.9256304 118.7631880  71.9582165  66.8984836 119.7135263  71.2931670
  59.9393586 108.3433240  67.6355087  60.2789659 108.8719161  66.9133696
  60.3865707 108.6813646  68.4113654  69.6765464 120.5143731  72.8639468
  70.6012011 120.3086593  72.7263919  69.5080767 120.2660133  73.7728809
  62.6337027 106.7270291  77.0858155  62.2933848 105.9278104  77.4878835
  61.9276033 107.0272001  76.5134988  63.2853499 103.8119603  75.5385478
  64.1079568 103.3380081  75.4164369  63.5291563 104.5910087  76.0384165
  61.9261733 106.8407861  65.8348380  62.6470096 107.2189114  65.3312097
  61.3027038 107.5596738  65.9383358  66.0692856 107.5453010  66.7706712
  66.2856471 108.4277648  66.4695540  65.5886924 107.1539224  66.0412354
  60.8092078 110.5038724  73.3477457  60.6636658 110.8179027  74.2401738
  60.3317281 111.1223624  72.7948356  62.6688461 107.4941272  73.3958346
  62.6550029 106.5982365  73.0590644  63.3860889 107.5011935  74.0296632
  64.5214591 107.9278612  75.4411474  64.2632369 108.8495682  75.4395804
  63.9899632 107.5309046  76.1311938  69.4660780 121.0329399  68.2201559
  69.6397658 120.4675821  67.4675412  69.9589671 121.8330294  68.0381049
  55.2837740 113.0444068  76.2865118  54.7391208 113.8203876  76.4185392
  56.1617090 113.3914872  76.1284239  62.0725357 106.3755652  68.6645917
  62.1941268 105.4472298  68.8636804  61.7827399 106.3894338  67.7524232
  64.9416547 104.0610562  71.8012636  64.9638244 104.1249895  70.8464616
  65.3584606 103.2215071  71.9953143  75.3200171 113.7965822  69.8391859
  75.7631317 113.0473147  69.4410982  74.4426682 113.7875958  69.4565591
  70.4535953 120.3496163  65.3198458  71.1486857 120.9702856  65.5385772
  70.7959103 119.4991515  65.5950835  56.0703762 112.1713964  79.1795275
  55.3285498 112.3196600  79.7659905  55.7496506 112.4322230  78.3162024
  72.3527376 117.7995869  66.8485788  72.8778700 118.1383142  66.1235108
  72.2649728 116.8642884  66.6648923  64.0147424 121.7129942  78.9775665
  64.3234551 121.4679089  79.8498365  64.8122906 121.9176581  78.4894535
  56.5160375 120.0579393  71.2105670  57.3418395 119.7583165  70.8304313
  56.1654427 119.2887015  71.6595458  61.4841909 119.4105861  73.2803343
  60.8621918 118.7476566  72.9805571  62.1546776 119.4366993  72.5976991
  54.7168981 117.9765719  72.1694603  53.8800889 117.5487894  71.9878604
  54.6892626 118.1698163  73.1065394  61.5566436 107.8887649  82.8735849
  61.6054592 108.7649772  82.4913619  62.0988950 107.3465042  82.3007492
  72.0421282 118.4328772  82.1536986  71.2516825 118.4152911  81.6141486
  71.8054636 118.9717066  82.9086023  72.1619157 115.2821239  79.4669715
  72.2117162 115.1171246  80.4085238  72.0533080 114.4148498  79.0767596
  61.0455416 117.9609785  66.7561804  61.1943536 118.6445249  66.1028476
  61.8521859 117.9414875  67.2711259  69.4522919 111.2652167  80.7829022
  70.3532782 111.1258632  80.4913019  69.5270894 111.4306622  81.7227199
  63.7865725 108.6419022  79.6282208  62.9169034 108.9352588  79.3564796
  64.0225205 109.2259467  80.3489471  73.6637354 117.7018180  79.7111736
  73.3722162 118.0648161  80.5475197  73.0509485 116.9885189  79.5325068
  74.8633036 115.2671060  72.2314307  75.6979927 115.7060864  72.3951867
  74.9992165 114.7909713  71.4122552  71.9124542 112.8250795  78.1791794
  72.3878664 113.0178441  77.3710646  70.9890107 112.8809981  77.9335178
  58.8008049 113.9874962  67.7622873  58.5554090 113.0837292  67.9603083
  58.9703963 113.9892113  66.8202351  66.4904758 104.8598639  77.1447628
  67.0086702 105.5959665  76.8194117  66.1359891 105.1662632  77.9794387
  58.0703696 109.7203320  65.2609034  57.3772941 109.7947675  64.6049070
  57.8255448 108.9563663  65.7830551  66.7417353 101.2798921  72.6648525
  67.0219106 100.6122110  73.2908951  67.5267959 101.4728017  72.1523189
  64.5450821 120.4557915  64.2273551  63.9724788 121.0748102  63.7744023
  65.1183615 121.0057277  64.7613473  70.6126211 109.7016555  76.4120100
  71.5643634 109.8014653  76.4332324  70.4429661 108.9094824  76.9218184
  68.6340590 106.7872138  76.5979501  68.0390522 107.0677151  75.9025989
  68.3490287 107.2766039  77.3696242  67.7648081 120.7395065  65.3582133
  68.6978754 120.6740627  65.5615009  67.6771294 121.5751332  64.8996666
  70.3936098 120.0560935  62.3186081  70.3149729 119.7220799  63.2121839
  71.2145764 120.5482703  62.3177553  73.0914289 112.9222675  75.5262400
  73.0590609 111.9838675  75.7122083  73.7014912 113.0006711  74.7928224
  64.9297620 111.7918728  61.5689604  65.8756724 111.6624936  61.6378022
  64.5511865 111.0533390  62.0459032  73.2408777 109.7133718  75.5720683
  72.7247826 108.9292175  75.3850612  74.1248726 109.3852435  75.7367202
  70.9019504 103.4574734  71.5316495  70.7044325 103.1489822  72.4159827
  71.5119210 104.1836373  71.6614425  78.9090839 113.9838682  74.6668436
  79.6394227 113.7223970  75.2276140  78.2997784 113.2467404  74.7070504
  76.9906136 112.1246544  75.2642888  76.2639299 111.9902509  74.6559379
  76.5753423 112.4323373  76.0699606  64.8136312 115.8436474  83.0290261
  65.7339322 116.0215073  83.2230307  64.7785895 114.8992519  82.8769960
  63.1140537 109.7168704  61.5044489  62.2071992 109.4201817  61.5807202
  63.3916518 109.4198522  60.6378775  54.0318477 111.0375068  71.9543535
  53.7121261 110.1840376  71.6617909  53.4851905 111.2523646  72.7101503
  57.8098385 113.7537509  75.6713042  58.0284394 114.6854616  75.6901076
  58.2224158 113.3945483  76.4567846  64.7302602 104.2605594  67.6588730
  63.9203331 103.9152679  68.0343976  65.4187019 103.9513138  68.2476342
  66.6593151 103.3383641  69.2813027  67.2124189 103.7579094  69.9403050
  66.8963237 102.4119389  69.3235983  62.6826250 109.3270714  85.0615791
  62.5822977 110.2765071  84.9927882  62.4647792 108.9988953  84.1891861
  61.8839321 106.5755639  61.6456468  62.7458485 106.9010538  61.9052285
  62.0689665 105.7887135  61.1329534  53.9006737 114.6577979  73.9236657
  53.2070209 114.2431932  73.4106611  54.6479728 114.6998516  73.3270076
  70.0371958 105.4484166  68.7891691  69.4570627 106.1068970  68.4069743
  69.7707890 104.6261510  68.3779109  68.4875524 104.8489223  70.9913011
  68.9875303 104.9605758  70.1827330  69.1311132 104.5450276  71.6313820
  62.5457520 112.7567853  83.8780852  62.0624602 113.5568213  84.0844741
  62.6318459 112.7675798  82.9248296  55.8143480 114.5896233  71.8002672
  55.7914168 114.6883920  70.8484555  56.1244116 115.4361384  72.1219838
  58.4730858 116.6472388  75.9149286  59.4274111 116.6156330  75.8479218
  58.2743381 116.1863012  76.7299512  59.0630240 115.2173504  78.4820084
  59.8823129 115.7117583  78.5054921  59.3367047 114.3005472  78.4537651
  68.8196836 107.6084256  67.8448039  67.9322691 107.8933907  67.6268234
  69.2350825 107.4478020  66.9975316  72.1711372 107.6330777  71.5602379
  72.9471762 108.1227230  71.8326995  71.4459506 108.0588831  72.0174248
  74.6083931 108.3458396  72.6176319  75.2028421 108.1054132  71.9069627
  74.6810514 107.6265527  73.2449855  67.9640049 117.3728931  61.9396059
  68.6675899 117.5778933  62.5553715  67.2402698 117.9405693  62.2045143
  68.7937860 113.1238792  68.0598329  68.7373061 113.5807344  67.2205962
  69.3466202 112.3629477  67.8821172  72.6042665 108.9128524  68.8848449
  72.3479600 108.5125160  69.7156657  71.9795534 109.6272318  68.7598588
  76.9155003 111.6524597  71.3919740  76.3554561 111.7217787  72.1651302
  76.3098507 111.4765582  70.6719237  69.8726747 117.8111460  63.9894519
  70.7072351 117.3792659  63.8071994  69.7111090 117.6393474  64.9171414
  69.5272639 114.3143573  65.3550859  69.4721443 114.1487845  64.4139303
  68.9018694 115.0219606  65.5113048  54.3165154 109.5511638  79.1812281
  54.9624017 109.0410592  79.6699506  54.1082305 110.2880319  79.7555706
  66.8418546 116.6192485  84.6804421  67.7109706 116.7933138  84.3191056
  66.3625298 117.4386902  84.5580151  62.8368764 103.8151682  64.9336177
  62.8247434 104.7593522  65.0904448  63.7292186 103.6321828  64.6395638
  62.7658328 122.4920573  73.0203934  61.8153959 122.4922434  72.9068306
  63.0690814 121.7453307  72.5039968  66.6520884 100.4094459  69.1882114
  65.8853280  99.8552946  69.3338796  67.0631589 100.4816328  70.0496265
  58.6562645 106.6979255  83.2787295  59.5194106 106.3416060  83.4890620
  58.0828056 106.3593150  83.9662699  78.0552290 126.0532565  71.1602904
  78.8415380 125.6351988  70.8093321  78.3190995 126.9578657  71.3284553
  80.9786138 119.7029372  76.5230491  80.6469463 120.5724783  76.2991706
  80.3831751 119.3865656  77.2024522  74.7142324 123.4424939  64.2560574
  74.8816726 124.3105176  64.6231045  74.5239493 123.6052221  63.3321863
  80.8714801 124.4224458  73.6023841  79.9631678 124.3539867  73.3082602
  80.8202397 124.8996403  74.4305667  74.6931545 125.8982597  65.2407240
  74.5731170 126.3439648  66.0792721  73.9984133 126.2467915  64.6820779
  74.9455667 125.8414104  81.5458739  74.1689001 126.4008024  81.5361603
  75.5846230 126.3270887  82.0673609  82.7376447 122.6240897  75.3801715
  82.0950828 122.9173430  74.7341510  82.2331376 122.5093817  76.1854912
  80.3916611 126.3704070  66.0687574  81.3034467 126.6031457  65.8935272
  79.8826258 126.9541114  65.5062653  75.0288449 125.7301305  77.0782424
  75.8749644 126.1540718  77.2217073  74.9687087 125.0734929  77.7720987
  78.1787894 123.3905673  78.7363598  77.9348826 124.1447734  78.1997873
  78.4547825 123.7691021  79.5710845  77.7352586 122.5462106  74.3177435
  76.8737065 122.8443360  74.6094173  77.7615021 122.7632505  73.3858468
  71.2144146 120.1059971  84.2717267  70.8211091 119.5526170  84.9464911
  72.0310286 120.4170550  84.6623784  74.1312107 121.5217851  81.8637523
  74.8721820 122.1225004  81.7841986  74.3630029 120.7795488  81.3055566
  78.0769270 117.5498953  76.1401805  77.7333539 118.4400595  76.0640915
  78.4448232 117.3600611  75.2771390  78.0419552 127.5407565  64.6474240
  77.5266176 128.3112169  64.8862627  77.7696861 126.8672701  65.2707301
  75.6266663 122.3857265  69.7059478  74.7708260 121.9964116  69.5265117
  76.0393615 122.4649226  68.8459264  77.1565810 119.9203609  74.1051038
  76.6530606 119.8833744  73.2918843  77.4496417 120.8296351  74.1647695
  73.4008696 120.0042338  73.1117220  74.2661693 119.8085147  72.7523109
  73.4686205 119.7752690  74.0386577  77.8305855 125.4134657  66.4734021
  77.5255991 125.7280806  67.3244164  78.7836298 125.4916077  66.5161354
  71.0071015 122.2344546  70.4833587  71.5814767 122.0119728  69.7506780
  71.5941997 122.3033241  71.2362188  71.3340602 124.2649007  64.5029472
  70.4977914 124.6023694  64.8238747  71.1945372 124.1297987  63.5656609
  73.3093683 119.1085795  69.2108656  72.6558095 118.7934812  68.5865271
  73.2674157 118.4861536  69.9368479  76.5431423 125.5967729  73.5356304
  75.6253984 125.8182676  73.3777992  76.9591567 125.6714039  72.6768011
  77.3266471 126.9959144  68.6658984  78.0738290 127.5080542  68.3566106
  77.5958060 126.6743197  69.5263378  79.7745308 124.0316261  70.6477773
  79.0368065 123.5193647  70.9788016  80.0272081 123.5916642  69.8361050
  79.8756935 116.8092513  71.2419543  80.1815812 115.9489876  70.9545458
  80.6009540 117.4010133  71.0418536  72.0870375 125.7223365  69.5086112
  71.2738240 126.0217536  69.9151305  72.5829369 125.3279054  70.2260595
  77.6844587 126.1865190  78.3401006  78.0393974 126.4136663  79.1995472
  78.3316718 126.5183567  77.7178262  71.5784450 123.2941721  75.1247347
  72.2183829 123.1530480  74.4270311  70.7461980 123.0076234  74.7485949
  68.5813066 123.2642046  69.9020334  68.8419883 124.1787379  69.7929495
  69.4030238 122.7966489  70.0516947  70.0537991 124.6779803  77.0719159
  70.7261045 124.4697165  76.4231808  69.2267778 124.4801889  76.6324391
  75.9563563 121.3041744  79.0884820  75.3091478 122.0031694  78.9949296
  76.7264579 121.7377888  79.4561068  71.7976723 124.6507583  79.1400915
  71.2614080 124.1998322  79.7922511  71.2093432 124.7853492  78.3971379
  71.2078982 124.1096235  61.7027379  70.3308449 123.9885036  61.3389625
  71.6836735 123.3182313  61.4506267  67.5315845 123.7863591  76.2253910
  67.4474033 123.1789261  75.4904319  66.7098551 124.2772609  76.2263406
  77.7039558 122.2717155  71.5924105  78.2008258 121.5187117  71.2725175
  76.9326540 122.3081471  71.0267314  74.2874527 124.4134538  71.3195789
  73.9172315 123.8605578  72.0076695  74.7833620 123.8092671  70.7670789
  80.1458553 119.2386748  73.7403463  79.2321633 119.4690975  73.9085670
  80.5751655 119.3225192  74.5917496  79.9165012 127.4276640  76.2403357
  79.2636462 127.6752547  75.5855810  80.2945392 126.6140778  75.9065835
  69.6839861 121.8238528  77.5648895  69.7481187 122.6853359  77.1526293
  69.6206981 121.2112530  76.8321254  69.1592133 123.8961661  81.2121930
  69.7864172 123.5138738  81.8259454  68.3020052 123.6775863  81.5777622
  69.4651923 123.7794087  73.1267833  68.7438509 124.3930054  72.9875306
  70.2545179 124.3151851  73.0484479  72.2678237 121.1148513  79.4008485
  72.7912638 121.3610810  80.1634794  72.0490570 121.9468548  78.9811622
  67.6645518 123.3852188  67.2679610  67.3358224 122.5049567  67.0854715
  68.0184888 123.3299856  68.1555999  70.7787341 123.6725157  67.6355087
  71.1183413 124.2011079  66.9133696  71.2259461 124.0105564  68.4113654
  73.4730782 122.0562208  77.0858155  73.1327602 121.2570021  77.4878835
  72.7669788 122.3563919  76.5134988  74.1247253 119.1411521  75.5385478
  74.9473323 118.6671999  75.4164369  74.3685317 119.9202004  76.0384165
  72.7655488 122.1699779  65.8348380  73.4863850 122.5481032  65.3312097
  72.1420792 122.8888656  65.9383358  76.9086611 122.8744928  66.7706712
  77.1250225 123.7569566  66.4695540  76.4280678 122.4831141  66.0412354
  73.5082215 122.8233189  73.3958346  73.4943784 121.9274283  73.0590644
  74.2254643 122.8303853  74.0296632  75.3608346 123.2570529  75.4411474
  75.1026124 124.1787600  75.4395804  74.8293386 122.8600964  76.1311938
  72.9119111 121.7047570  68.6645917  73.0335022 120.7764216  68.8636804
  72.6221153 121.7186255  67.7524232  75.7810301 119.3902480  71.8012636
  75.8031998 119.4541813  70.8464616  76.1978360 118.5506989  71.9953143
  72.3960191 123.2179567  82.8735849  72.4448346 124.0941690  82.4913619
  72.9382705 122.6756960  82.3007492  80.2916674 126.5944085  80.7829022
  81.1926536 126.4550549  80.4913019  80.3664648 126.7598539  81.7227199
  74.6259479 123.9710939  79.6282208  73.7562788 124.2644505  79.3564796
  74.8618959 124.5551384  80.3489471  77.3298513 120.1890556  77.1447628
  77.8480457 120.9251583  76.8194117  76.9753646 120.4954550  77.9794387
  68.9097451 125.0495237  65.2609034  68.2166695 125.1239592  64.6049070
  68.6649202 124.2855581  65.7830551  77.5811107 116.6090839  72.6648525
  77.8612861 115.9414028  73.2908951  78.3661714 116.8019934  72.1523189
  81.4519965 125.0308473  76.4120100  82.4037388 125.1306570  76.4332324
  81.2823416 124.2386741  76.9218184  79.4734345 122.1164056  76.5979501
  78.8784277 122.3969069  75.9025989  79.1884042 122.6057957  77.3696242
  75.7691374 127.1210645  61.5689604  76.7150479 126.9916854  61.6378022
  75.3905619 126.3825307  62.0459032  84.0802532 125.0425636  75.5720683
  83.5641580 124.2584092  75.3850612  84.9642480 124.7144352  75.7367202
  81.7413259 118.7866651  71.5316495  81.5438080 118.4781740  72.4159827
  82.3512964 119.5128290  71.6614425  73.9534291 125.0460622  61.5044489
  73.0465747 124.7493734  61.5807202  74.2310272 124.7490440  60.6378775
  75.5696357 119.5897511  67.6588730  74.7597085 119.2444596  68.0343976
  76.2580774 119.2805055  68.2476342  77.4986905 118.6675558  69.2813027
  78.0517944 119.0871012  69.9403050  77.7356992 117.7411306  69.3235983
  73.5220004 124.6562632  85.0615791  73.4216731 125.6056989  84.9927882
  73.3041546 124.3280871  84.1891861  72.7233076 121.9047557  61.6456468
  73.5852240 122.2302455  61.9052285  72.9083420 121.1179053  61.1329534
  80.8765712 120.7776083  68.7891691  80.2964381 121.4360887  68.4069743
  80.6101645 119.9553428  68.3779109  79.3269279 120.1781141  70.9913011
  79.8269057 120.2897676  70.1827330  79.9704887 119.8742194  71.6313820
  79.6590590 122.9376174  67.8448039  78.7716445 123.2225824  67.6268234
  80.0744579 122.7769937  66.9975316  83.0105126 122.9622695  71.5602379
  83.7865517 123.4519147  71.8326995  82.2853261 123.3880749  72.0174248
  85.4477685 123.6750314  72.6176319  86.0422176 123.4346050  71.9069627
  85.5204269 122.9557445  73.2449855  83.4436420 124.2420442  68.8848449
  83.1873354 123.8417077  69.7156657  82.8189288 124.9564236  68.7598588
  73.6762519 119.1443600  64.9336177  73.6641189 120.0885440  65.0904448
  74.5685941 118.9613745  64.6395638  77.4914638 115.7386377  69.1882114
  76.7247034 115.1844863  69.3338796  77.9025343 115.8108245  70.0496265
  69.4956399 122.0271172  83.2787295  70.3587861 121.6707977  83.4890620
  68.9221810 121.6885067  83.9662699  13.4648496  13.3591728  60.8095003
  14.1026906  13.2398475  60.1058343  13.3469339  14.3072572  60.8682955
  10.2738202  13.3119156  60.7456527   9.9356714  13.1960220  59.8577062
  11.1427971  12.9110321  60.7257534   6.1325018  15.1654632  56.7353418
   5.5689883  15.0744569  55.9669706   6.0177413  14.3454537  57.2155911
  10.7557985  14.4654008  66.7042733  10.7446626  14.0706806  65.8323237
  10.9178625  13.7320080  67.2976504   3.6789450  16.6605824  59.5737639
   4.4710742  16.3196648  59.1583938   3.9186100  16.7700799  60.4939792
  11.7124577  18.8325600  52.0467883  11.0612557  19.4179680  51.6601897
  12.5068940  19.3631795  52.1062921   5.6380204  15.9214737  52.4455018
   6.4111080  15.3743724  52.3067893   5.9905603  16.7858986  52.6569479
   7.4765247  17.2491119  65.6521917   7.1855113  18.1536750  65.5368583
   8.1122231  17.2907647  66.3665986   8.4021453  14.6267968  62.2423277
   8.9985026  14.4023990  61.5280240   8.4596425  13.8852713  62.8448724
  13.0189765  11.0843182  57.8848211  13.8052854  10.6662605  57.5338628
  13.2828469  11.9889274  58.0529859  13.1899842  16.5216032  52.5836868
  12.5545675  16.5950658  53.2957772  12.8597248  17.1109631  51.9055947
  18.4198192  11.0218415  58.7881189  19.1523364  10.4517632  59.0219019
  17.6637547  10.6340015  59.2287695   7.6942771  13.9835509  52.2797842
   7.5779029  13.3080413  52.9478927   7.8045030  13.4967883  51.4629996
  10.0374311  13.4445656  55.9844532   9.6732519  12.9176277  56.6957453
  10.8941427  13.0544125  55.8111017  12.4355132  16.9352535  62.6471711
  12.1355855  17.8377574  62.5387518  12.0906191  16.6684718  63.4992864
  15.8352275   9.4535075  60.3269148  14.9269153   9.3850483  60.0327909
  15.7839871   9.9307020  61.1550973   7.4175911  23.6996855  55.6142678
   7.3399941  24.6504680  55.6931159   6.8137555  23.3542728  56.2717605
  17.7013922   7.6551513  62.1047022  17.0588302   7.9484047  61.4586816
  17.1968850   7.5404434  62.9100219  15.3554085  11.4014687  52.7932881
  16.2671942  11.6342073  52.6180579  14.8463733  11.9851731  52.2307960
   8.1639513  13.6810174  67.8322012   8.9054198  14.2195218  67.5556836
   7.4576499  14.3076463  67.9893564  13.6394853  15.8239314  66.4294174
  14.0478209  15.3821725  65.6848806  12.9172115  15.2491942  66.6828367
  13.9623668  16.3840505  60.1846463  13.3332530  16.5486219  59.4822530
  13.5749330  16.7982115  60.9557427  17.8412900  17.3194943  57.5390826
  17.1563938  17.6993844  56.9887860  17.9256749  17.9290270  58.2722774
  15.0963831  14.9654902  64.1386170  15.3080727  15.6086662  63.4620551
  15.0493580  14.1317218  63.6708100   9.5151630  16.1214913  57.4496548
   9.9789975  16.4002616  56.6601170   9.2508428  15.2198358  57.2669638
   6.4075711  15.6686395  60.3876311   6.9777068  16.0973663  59.7493795
   6.9983823  15.3868979  61.0860497  16.2109659  17.8426857  62.3108527
  17.0327103  17.4407045  62.0291209  16.2072062  17.7395092  63.2624643
   9.9766263  17.3910901  64.4669238  10.0410695  17.8531308  65.3027410
   9.2677187  16.7608266  64.5951548  24.3015652  14.1865606  58.6593499
  23.5479361  13.6173004  58.5037503  24.4363193  14.1528270  59.6064133
   9.6914280  19.0579008  54.3348218   9.5559955  19.9030544  54.7633066
  10.2324093  19.2598286  53.5714152   3.1443678  16.5754446  54.9076143
   3.6568198  17.3697696  55.0581708   3.7966391  15.8780737  54.8409745
   4.9538562  19.6920202  56.9898896   5.1305191  20.6138167  56.8019880
   5.7495396  19.3778622  57.4193276  11.3182757  19.6802575  68.4648560
  10.8746611  18.8938953  68.1469465  11.9799970  19.8681725  67.7992451
   6.0769878  21.2098376  62.9909239   6.6277303  21.0815440  62.2186233
   5.2381354  21.5093265  62.6404131  13.4163995  19.9605375  66.4929961
  13.3982470  20.7814256  66.0010231  14.3383915  19.8359450  66.7180103
   9.8737049  17.4749504  67.3353470  10.4065386  16.7137792  67.1052778
   9.3451130  17.1823156  68.0777624  13.0057027  12.5718181  51.3719547
  12.4903650  13.3422786  51.6107934  12.7334335  11.8983317  51.9952608
  17.9791301  15.3250536  53.3072720  17.2020744  14.9861695  52.8627882
  18.6582782  15.3303159  52.6327685  12.7943330  10.4445273  53.1979328
  12.4893465  10.7591422  54.0489471  13.7473772  10.5226693  53.2406661
  11.2389762  16.6035497  54.8472282  10.7111123  15.8688256  54.5345519
  10.7377264  17.3810173  54.6012250  16.2182608  14.7984517  59.9639328
  15.5606282  15.4883778  60.0519457  17.0223007  15.1880949  60.3073314
  15.0288066  13.1528890  58.0143270  15.5419948  13.7858882  58.5164980
  15.6789290  12.5530085  57.6486630   9.3842362  14.4215707  47.8507255
   8.4769424  14.1904960  48.0498404   9.8813394  13.6253326  48.0381236
  12.2910441  23.1313214  50.7703941  11.6172139  23.4344911  51.3788899
  12.6776263  23.9342294  50.4209398  11.5068897  10.6278345  60.2601610
  10.5891459  10.8493292  60.1023298  11.9229041  10.7024656  59.4013318
  12.2903945  12.0269761  55.3904291  13.0375764  12.5391158  55.0811413
  12.5595535  11.7053814  56.2508684  10.5630595  14.5228302  52.3731245
   9.6541815  14.2387334  52.4703715  10.5925679  14.9427380  51.5134552
  15.7949863  18.1334891  56.1422412  15.3412190  17.2925801  56.1987603
  15.1643829  18.7696290  56.4797193  14.7382782   9.0626877  57.3723080
  14.0005539   8.5504263  57.7033322  14.9909556   8.6227259  56.5606357
  14.2382802  19.9711388  57.0772231  14.5305776  20.5316445  56.3584596
  14.7481422  20.2639949  57.8325390  10.2606683  16.0637045  49.7119323
   9.8226113  15.3472904  49.2524961  11.0017124  16.2913160  49.1504415
   9.2016427  20.7491739  58.1665684   9.1592606  20.9752585  57.2374216
  10.1179126  20.5155114  58.3151485  12.6482061  11.2175806  65.0646313
  13.0031449  11.4447280  65.9240779  13.2954192  11.5494183  64.4423568
  18.3779798  14.3394242  55.7695642  18.2397696  14.5295838  54.8416831
  18.0216017  15.1013625  56.2263693  18.4049177  16.4070769  60.7806914
  18.8385684  16.3146058  61.6289968  19.1180758  16.3828270  60.1426930
   7.3182228  17.6254768  57.9627647   8.1122826  17.1305088  57.7610221
   6.6073920  17.0972631  57.5995352  12.1377072  20.0072863  62.3140014
  12.1914095  20.5763800  63.0817730  11.2691854  20.1774749  61.9494051
  19.2664727  16.4494470  63.3139799  19.4600617  17.3540281  63.5599074
  19.1665345  15.9901889  64.1478384  14.3279836  16.6001213  68.8880680
  14.1765342  16.3711764  67.9710763  14.3184515  17.5571814  68.9012025
  11.0965172  14.1733126  63.8726946  12.0257232  14.3244285  63.6995913
  10.6756202  14.2617146  63.0175593   9.8953504  18.1983790  61.6425484
   9.7564590  17.8302574  62.5151422   9.1068100  18.7131429  61.4709441
  10.4901656  23.2992886  52.9851020  10.6653412  22.8280930  53.7996643
   9.8034444  23.9258653  53.2132281  11.4458719  17.5765393  59.0314321
  11.1108552  17.5366163  59.9271971  10.9462665  16.9110109  58.5584732
  14.3817911  14.9221427  49.3051381  13.7647081  14.1968255  49.2084434
  13.9134399  15.6830787  48.9618455   8.0485264  12.6952982  64.0450582
   8.7584882  12.0546174  64.0037201   8.0054572  12.9465877  64.9676763
  16.0372042  19.6320335  66.9657161  15.9784588  18.9479555  66.2987744
  16.4391561  20.3739325  66.5137787   5.0562741  26.4482249  59.7590880
   5.2959339  27.0800773  60.4369899   4.2131938  26.0970289  60.0456240
  16.0389450  17.5959919  65.1971141  15.1516228  17.2585841  65.3197540
  16.6088001  16.8642951  65.4339906   9.5690603  22.2561372  62.1632384
   9.4960774  23.0616343  62.6751689   9.1267996  22.4553337  61.3380406
   9.3580383  21.4933142  55.6735206   8.5747905  22.0354822  55.7673430
  10.0573128  22.0107121  56.0729447  20.5206790  13.0068137  59.9587703
  20.5096666  13.8892852  59.5881636  19.6524170  12.6539687  59.7642240
  12.0289287  22.1548206  64.3190543  12.7417259  22.7895670  64.2466444
  11.5379315  22.2512072  63.5030545  13.7506813  16.0599458  55.8907835
  12.8163092  16.1800921  55.7212539  13.9283482  15.1571925  55.6267844
  17.1379365  11.9016778  56.4257869  17.6039817  12.7344769  56.3518171
  17.5886865  11.4361759  57.1303127   7.0801200  19.9042649  65.1396114
   7.7810660  20.5379132  65.2925508   6.6096315  20.2457381  64.3791753
  15.2055596  18.2460599  53.4244021  15.4815440  18.1317193  54.3337895
  14.3360095  17.8478084  53.3856194  14.8802486  12.4587257  62.9648664
  14.2273936  12.7063164  62.3101117  15.2582866  11.6451395  62.6311141
  11.8409660  22.4946950  57.0676834  12.0232054  21.6768606  57.5304587
  12.6642646  22.7114642  56.6301724  12.1751825  21.4215135  54.3291883
  12.7039592  20.9107589  53.7162045  12.4380045  21.1057665  55.1937416
  10.9290059  13.2007068  69.4514701  10.2530696  13.1001197  70.1217076
  11.7517693  13.0446281  69.9150698   2.6768918  19.4379004  62.0727216
   3.2622355  18.6922692  62.2055121   2.4793757  19.7482961  62.9563880
   5.5307573  22.4730252  57.0889659   4.8617949  22.9576379  56.6053699
   5.3920443  22.7199472  58.0033037   9.6712842  24.5073995  63.6872317
  10.2231150  24.6705617  64.4521402  10.0119035  25.0978433  63.0152342
  14.5223716  19.3335253  69.5420972  15.0663620  19.9465211  69.0475926
  13.9410561  19.8914831  70.0587985  12.8081229  22.4555971  60.6735999
  12.6832369  21.6545710  60.1646945  13.4660320  22.9502164  60.1849969
  14.8716138  20.2564991  62.3015549  13.9246473  20.1370342  62.2293876
  15.2198911  19.3687489  62.3841811  11.8762571  20.0517707  58.5019902
  11.7287533  19.1234414  58.6827472  12.7016064  20.0737798  58.0176977
  15.4796693  20.8746266  59.5884774  16.4043240  20.6689127  59.4509226
  15.3111996  20.6262667  60.4974116  15.2692009  21.3931933  54.9446866
  15.4428886  20.8278356  54.1920718  15.7620900  22.1932828  54.7626356
  21.1231400  14.1568356  56.5637166  21.5662546  13.4075681  56.1656289
  20.2457910  14.1478492  56.1810898  16.2567181  20.7098697  52.0443764
  16.9518086  21.3305390  52.2631079  16.5990332  19.8594049  52.3196142
  18.1558605  18.1598403  53.5731095  18.6809929  18.4985676  52.8480415
  18.0680957  17.2245418  53.3894230   9.8178653  22.0732477  65.7020972
  10.1265780  21.8281623  66.5743671  10.6154135  22.2779115  65.2139842
   9.8399265  24.2270386  57.9326348   9.4004256  23.7346765  58.6259205
  10.5907382  23.6843354  57.6918423   2.3191604  20.4181927  57.9350976
   3.1449624  20.1185699  57.5549620   1.9685656  19.6489550  58.3840765
   7.2873137  19.7708395  60.0048650   6.6653147  19.1079100  59.7050878
   7.9578004  19.7969527  59.3222298  17.8452511  18.7931307  68.8782293
  17.0548054  18.7755446  68.3386792  17.6085865  19.3319600  69.6331329
  17.9650386  15.6423773  66.1915021  18.0148391  15.4773780  67.1330544
  17.8564309  14.7751032  65.8012902   6.8486644  18.3212319  53.4807110
   6.9974765  19.0047783  52.8273783   7.6553088  18.3017409  53.9956566
  15.2554148  11.6254701  67.5074328  16.1564011  11.4861166  67.2158326
  15.3302123  11.7909156  68.4472506  19.4668582  18.0620715  66.4357043
  19.1753391  18.4250695  67.2720504  18.8540714  17.3487723  66.2570375
  20.6664265  15.6273594  58.9559613  21.5011156  16.0663398  59.1197174
  20.8023394  15.1512248  58.1367859  17.7155771  13.1853329  64.9037101
  18.1909892  13.3780975  64.0955952  16.7921336  13.2412515  64.6580485
  10.3482050  20.8160449  50.9518858   9.7756017  21.4350636  50.4989330
  10.9214844  21.3659811  51.4858780  16.4157440  10.0619089  63.1365407
  17.3674863  10.1617187  63.1577631  16.2460890   9.2697358  63.6463491
  13.5679310  21.0997599  52.0827440  14.5009983  21.0343161  52.2860316
  13.4802522  21.9353866  51.6241973  16.1967326  20.4163470  49.0431388
  16.1180958  20.0823333  49.9367146  17.0176993  20.9085238  49.0422860
  18.8945518  13.2825209  62.2507706  18.8621838  12.3441210  62.4367390
  19.5046141  13.3609246  61.5173531  10.7328848  12.1521262  48.2934910
  11.6787953  12.0227470  48.3623328  10.3543093  11.4135924  48.7704338
  19.0440006  10.0736252  62.2965989  18.5279055   9.2894709  62.1095918
  19.9279955   9.7454969  62.4612509  24.7122067  14.3441216  61.3913743
  25.4425456  14.0826504  61.9521446  24.1029013  13.6069938  61.4315811
  22.7937364  12.4849078  61.9888194  22.0670528  12.3505043  61.3804686
  22.3784651  12.7925907  62.7944912  10.6167541  16.2039008  69.7535567
  11.5370550  16.3817607  69.9475614  10.5817124  15.2595053  69.6015267
   8.3488749  13.1170387  70.6026159   7.8655831  13.9170747  70.8090048
   8.4349688  13.1278332  69.6493603   4.2762086  17.0074922  62.6394593
   5.2305340  16.9758864  62.5724524   4.0774610  16.5465546  63.4544819
   4.8661468  15.5776038  65.2065390   5.6854357  16.0720117  65.2300228
   5.1398276  14.6608006  65.1782958  17.9742601   7.9933311  58.2847685
  18.7502991   8.4829764  58.5572302  17.2490735   8.4191366  58.7419555
  20.4115159   8.7060931  59.3421626  21.0059650   8.4656667  58.6314934
  20.4841743   7.9868061  59.9695162   2.6312315  22.5494542  59.6564791
   2.4966783  21.7894942  59.0902789   2.2144377  23.2735441  59.1893580
  13.7671278  17.7331465  48.6641366  14.4707128  17.9381468  49.2799022
  13.0433927  18.3008227  48.9290449  14.5969088  13.4841326  54.7843636
  14.5404290  13.9409878  53.9451269  15.1497431  12.7232011  54.6066479
  18.4073894   9.2731058  55.6093756  18.1510829   8.8727694  56.4401963
  17.7826762   9.9874852  55.4843895  22.7186232  12.0127131  58.1165047
  22.1585790  12.0820321  58.8896609  22.1129736  11.8368116  57.3964543
   5.7881441  23.4463859  59.8683233   5.6713825  24.3909291  59.7661924
   4.9673887  23.1437420  60.2569032  15.6757976  18.1713994  50.7139826
  16.5103579  17.7395193  50.5317301  15.5142318  17.9996008  51.6416720
  15.3303868  14.6746108  52.0796165  15.2752671  14.5090379  51.1384609
  14.7049923  15.3822140  52.2358355  12.6449775  16.9795019  71.4049728
  13.5140935  17.1535672  71.0436363  12.1656526  17.7989436  71.2825457
   6.8135955  24.0992120  63.0839162   7.7163202  24.1315731  63.4005657
   6.5873325  23.1692571  63.0985497   8.5689557  22.8523107  59.7449240
   7.6185188  22.8524969  59.6313613   8.8722043  22.1055842  59.2285275
  24.3042251  28.6883645  60.8095003  24.9420661  28.5690393  60.1058343
  24.1863093  29.6364489  60.8682955  21.1131957  28.6411073  60.7456527
  20.7750468  28.5252138  59.8577062  21.9821725  28.2402239  60.7257534
  16.9718773  30.4946550  56.7353418  16.4083638  30.4036487  55.9669706
  16.8571168  29.6746454  57.2155911  21.5951740  29.7945925  66.7042733
  21.5840381  29.3998723  65.8323237  21.7572379  29.0611998  67.2976504
  14.5183205  31.9897741  59.5737639  15.3104496  31.6488566  59.1583938
  14.7579855  32.0992717  60.4939792  22.5518331  34.1617518  52.0467883
  21.9006311  34.7471598  51.6601897  23.3462694  34.6923712  52.1062921
  16.4773958  31.2506655  52.4455018  17.2504834  30.7035642  52.3067893
  16.8299357  32.1150904  52.6569479  18.3159001  32.5783037  65.6521917
  18.0248867  33.4828668  65.5368583  18.9515985  32.6199565  66.3665986
  19.2415208  29.9559886  62.2423277  19.8378780  29.7315908  61.5280240
  19.2990179  29.2144631  62.8448724  18.8140236  27.4099321  50.0773468
  19.0665757  26.8880842  49.3156931  17.8764795  27.2465466  50.1800151
  23.8583519  26.4135099  57.8848211  24.6446608  25.9954522  57.5338628
  24.1222223  27.3181191  58.0529859  24.0293596  31.8507950  52.5836868
  23.3939429  31.9242576  53.2957772  23.6991003  32.4401548  51.9055947
  29.2591946  26.3510332  58.7881189  29.9917118  25.7809549  59.0219019
  28.5031302  25.9631933  59.2287695  18.5336525  29.3127427  52.2797842
  18.4172783  28.6372330  52.9478927  18.6438785  28.8259801  51.4629996
  20.8768066  28.7737574  55.9844532  20.5126273  28.2468195  56.6957453
  21.7335182  28.3836043  55.8111017  26.7817367  20.0631907  63.2475798
  26.4500691  20.9327317  63.0237013  26.1862980  19.7468191  63.9269828
  20.5173553  23.8027474  50.9805880  20.6847955  24.6707710  51.3476351
  20.3270722  23.9654755  50.0567170  23.2748886  32.2644453  62.6471711
  22.9749609  33.1669491  62.5387518  22.9299946  31.9976636  63.4992864
  16.7261368  28.7158249  58.6808415  15.8011864  28.5834463  58.8886107
  16.9745781  29.4952469  59.1778357  26.6746030  24.7826993  60.3269148
  25.7662907  24.7142401  60.0327909  26.6233626  25.2598938  61.1550973
  20.4962774  26.2585131  51.9652547  20.3762399  26.7042182  52.8038027
  19.8015362  26.6070449  51.4066085  14.0870179  28.3591523  59.5152204
  14.2162560  28.6126002  60.4291616  13.4067630  28.9519231  59.1956859
  18.2569666  39.0288773  55.6142678  18.1793696  39.9796598  55.6931159
  17.6531309  38.6834645  56.2717605  20.7486896  26.2016638  68.2704045
  19.9720230  26.7610558  68.2606910  21.3877459  26.6873421  68.7918915
  28.5407676  22.9843431  62.1047022  27.8982057  23.2775964  61.4586816
  28.0362605  22.8696351  62.9100219  26.1947840  26.7306604  52.7932881
  27.1065696  26.9633991  52.6180579  25.6857487  27.3143648  52.2307960
  19.0033268  29.0102092  67.8322012  19.7447952  29.5487136  67.5556836
  18.2970253  29.6368380  67.9893564  24.4788608  31.1531232  66.4294174
  24.8871964  30.7113643  65.6848806  23.7565869  30.5783860  66.6828367
  20.8319678  26.0903839  63.8027731  21.6780873  26.5143252  63.9462380
  20.7718315  25.4337463  64.4966294  24.8017422  31.7132423  60.1846463
  24.1726285  31.8778137  59.4822530  24.4143084  32.1274032  60.9557427
  28.6806654  32.6486861  57.5390826  27.9957692  33.0285762  56.9887860
  28.7650503  33.2582187  58.2722774  23.9819123  23.7508207  65.4608904
  23.7380055  24.5050268  64.9243180  24.2579054  24.1293555  66.2956151
  25.9357586  30.2946820  64.1386170  26.1474481  30.9378580  63.4620551
  25.8887334  29.4609136  63.6708100  23.5383815  22.9064640  61.0422742
  22.6768294  23.2045894  61.3339480  23.5646249  23.1235039  60.1103775
  20.3545384  31.4506831  57.4496548  20.8183730  31.7294534  56.6601170
  20.0902182  30.5490275  57.2669638  17.2469465  30.9978312  60.3876311
  17.8170822  31.4265581  59.7493795  17.8377577  30.7160897  61.0860497
  19.2914270  27.5729983  54.2586113  19.9938314  28.0251027  54.7260039
  18.9594899  26.9313802  54.8866006  17.7394632  26.1641740  68.6337322
  17.1093292  26.8458021  68.8672719  17.6330720  26.0524821  67.6890460
  13.0339604  25.8313536  59.5603246  12.2438658  26.0871064  59.0843357
  13.5250852  26.6461874  59.6655287  27.0503414  33.1718775  62.3108527
  27.8720857  32.7698962  62.0291209  27.0465817  33.0687009  63.2624643
  14.9854350  26.1958115  56.5186723  14.1885513  26.3076809  57.0370219
  14.7579942  26.5344767  55.6527614  20.8160017  32.7202818  64.4669238
  20.8804450  33.1823226  65.3027410  20.1070941  32.0900183  64.5951548
  11.3177307  26.0844026  61.9918237  11.5685346  26.9691036  62.2575813
  11.8536856  25.9048628  61.2193329  35.1409407  29.5157524  58.6593499
  34.3873115  28.9464922  58.5037503  35.2756948  29.4820188  59.6064133
  20.5308035  34.3870926  54.3348218  20.3953710  35.2322462  54.7633066
  21.0717847  34.5890203  53.5714152  17.0175374  20.4662506  70.9962573
  16.6242320  19.9128704  71.6710217  17.8341515  20.7773084  71.3869091
  13.9837432  31.9046364  54.9076143  14.4961953  32.6989614  55.0581708
  14.6360145  31.2072654  54.8409745  15.7932317  35.0212120  56.9898896
  15.9698945  35.9430085  56.8019880  16.5889150  34.7070539  57.4193276
  19.9343335  21.8820385  68.5882830  20.6753049  22.4827538  68.5087292
  20.1661258  21.1398023  68.0300872  15.0784673  27.0676752  66.8661060
  14.9638189  26.1662009  67.1668158  14.2229191  27.3140449  66.5145876
  22.1576511  35.0094492  68.4648560  21.7140365  34.2230871  68.1469465
  22.8193725  35.1973643  67.7992451  16.9163632  36.5390294  62.9909239
  17.4671057  36.4107357  62.2186233  16.0775108  36.8385183  62.6404131
  24.2557749  35.2897292  66.4929961  24.2376225  36.1106173  66.0010231
  25.1777669  35.1651367  66.7180103  20.7130803  32.8041422  67.3353470
  21.2459140  32.0429710  67.1052778  20.1844885  32.5115074  68.0777624
  23.8800498  17.9101488  62.8647112  23.5364768  18.8003129  62.7886222
  24.2479461  17.7203145  62.0016697  11.9486349  30.2335018  55.6835714
  12.7861571  30.6432027  55.4669421  12.1264617  29.2934460  55.6535908
  23.8450781  27.9010099  51.3719547  23.3297405  28.6714703  51.6107934
  23.5728090  27.2275235  51.9952608  21.4297892  22.7459800  56.4304785
  20.5739488  22.3566650  56.2510424  21.8424844  22.8251760  55.5704571
  22.9597039  20.2806143  60.8296345  22.4561834  20.2436278  60.0164150
  23.2527646  21.1898886  60.8893001  19.2039925  20.3644873  59.8362526
  20.0692921  20.1687681  59.4768416  19.2717434  20.1355224  60.7631883
  28.8185055  30.6542453  53.3072720  28.0414498  30.3153613  52.8627882
  29.4976536  30.6595077  52.6327685  23.6337084  25.7737191  53.1979328
  23.3287220  26.0883340  54.0489471  24.5867526  25.8518611  53.2406661
  22.0783516  31.9327414  54.8472282  21.5504878  31.1980174  54.5345519
  21.5771019  32.7102091  54.6012250  27.0576362  30.1276435  59.9639328
  26.4000037  30.8175696  60.0519457  27.8616761  30.5172867  60.3073314
  16.8102244  22.5947081  57.2078893  17.3845996  22.3722262  56.4752086
  17.3973226  22.6635775  57.9607495  25.8681821  28.4820807  58.0143270
  26.3813703  29.1150799  58.5164980  26.5183045  27.8822003  57.6486630
  17.1371831  24.6251542  51.2274779  16.3009143  24.9626228  51.5484053
  16.9976600  24.4900521  50.2901916  19.1124911  19.4688329  55.9353963
  18.4589324  19.1537347  55.3110577  19.0705386  18.8464070  56.6613786
  20.2236116  29.7507624  47.8507255  19.3163178  29.5196878  48.0498404
  20.7207148  28.9545244  48.0381236  23.1304195  38.4605132  50.7703941
  22.4565894  38.7636828  51.3788899  23.5170017  39.2634212  50.4209398
  22.3462652  25.9570263  60.2601610  21.4285213  26.1785210  60.1023298
  22.7622795  26.0316573  59.4013318  23.1297700  27.3561679  55.3904291
  23.8769519  27.8683076  55.0811413  23.3989289  27.0345731  56.2508684
  21.4024350  29.8520219  52.3731245  20.4935569  29.5679252  52.4703715
  21.4319434  30.2719298  51.5134552  26.6343617  33.4626809  56.1422412
  26.1805944  32.6217719  56.1987603  26.0037584  34.0988207  56.4797193
  25.5776537  24.3918795  57.3723080  24.8399294  23.8796181  57.7033322
  25.8303310  23.9519176  56.5606357  25.0776556  35.3003306  57.0772231
  25.3699531  35.8608363  56.3584596  25.5875177  35.5931867  57.8325390
  25.6788164  17.1695047  57.9664849  25.9847041  16.3092410  57.6790764
  26.4040769  17.7612667  57.7663843  11.9712520  27.5725733  56.3546447
  11.7736920  26.9795094  55.6297514  11.4159184  27.2677944  57.0722386
  19.9509244  27.4648840  58.4741040  20.0057854  26.5122676  58.3983517
  19.1400446  27.6208279  58.9582339  21.1000438  31.3928963  49.7119323
  20.6619867  30.6764822  49.2524961  21.8410878  31.6205078  49.1504415
  17.8901604  26.0825900  56.2331419  17.0769469  26.3820070  56.6396611
  18.3860598  25.6881588  56.9505901  20.0410182  36.0783657  58.1665684
  19.9986360  36.3044503  57.2374216  20.9572880  35.8447031  58.3151485
  23.4875815  26.5467724  65.0646313  23.8425203  26.7739197  65.9240779
  24.1347947  26.8786101  64.4423568  29.2173552  29.6686160  55.7695642
  29.0791451  29.8587756  54.8416831  28.8609771  30.4305543  56.2263693
  17.3815678  23.6544255  61.8492654  18.0215058  23.5133014  61.1515617
  16.5493209  23.3678769  61.4731256  29.2442932  31.7362687  60.7806914
  29.6779439  31.6437976  61.6289968  29.9574513  31.7120188  60.1426930
  18.1575982  32.9546686  57.9627647  18.9516581  32.4597006  57.7610221
  17.4467675  32.4264549  57.5995352  22.9770827  35.3364781  62.3140014
  23.0307849  35.9055717  63.0817730  22.1085608  35.5066666  61.9494051
  14.4658746  27.0989767  54.0387399  13.5356334  27.0374223  54.2557361
  14.5616218  26.5765720  53.2424040  14.3844295  23.6244580  56.6265641
  14.6451112  24.5389913  56.5174801  15.2061467  23.1569023  56.7762254
  15.8569220  25.0382337  63.7964465  16.5292274  24.8299700  63.1477114
  15.0299007  24.8404423  63.3569698  30.1058482  31.7786388  63.3139799
  30.2994372  32.6832198  63.5599074  30.0059100  31.3193807  64.1478384
  21.7594792  21.6644278  65.8130126  21.1122707  22.3634228  65.7194603
  22.5295808  22.0980422  66.1806374  25.1673590  31.9293130  68.8880680
  25.0159097  31.7003682  67.9710763  25.1578270  32.8863732  68.9012025
  21.9358927  29.5025043  63.8726946  22.8650987  29.6536203  63.6995913
  21.5149957  29.5909064  63.0175593  20.7347258  33.5275708  61.6425484
  20.5958344  33.1594492  62.5151422  19.9461855  34.0423347  61.4709441
  21.3295410  38.6284804  52.9851020  21.5047166  38.1572847  53.7996643
  20.6428198  39.2550570  53.2132281  22.2852474  32.9057310  59.0314321
  21.9502306  32.8658080  59.9271971  21.7856419  32.2402026  58.5584732
  16.2596717  28.3124940  64.5566903  16.1216515  27.5805179  65.1578442
  17.1701641  28.2233840  64.2751090  25.2211665  30.2513345  49.3051381
  24.6040836  29.5260173  49.2084434  24.7528154  31.0122705  48.9618455
  18.8879018  28.0244900  64.0450582  19.5978637  27.3838092  64.0037201
  18.8448326  28.2757795  64.9676763  26.8765797  34.9612253  66.9657161
  26.8178343  34.2771473  66.2987744  27.2785315  35.7031243  66.5137787
  17.6007952  25.0110118  65.8646222  17.0645309  24.5600856  66.5167818
  17.0124661  25.1456026  65.1216686  15.8956496  41.7774167  59.7590880
  16.1353094  42.4092691  60.4369899  15.0525692  41.4262207  60.0456240
  17.0110211  24.4698769  48.4272685  16.1339677  24.3487570  48.0634932
  17.4867964  23.6784847  48.1751574  26.8783204  32.9251837  65.1971141
  25.9909983  32.5877759  65.3197540  27.4481755  32.1934868  65.4339906
   8.5312351  29.2575929  58.5214192   9.2183391  28.9437659  57.9335208
   8.3760480  30.1617293  58.2481444  13.3347073  24.1466125  62.9499216
  13.2505262  23.5391795  62.2149626  12.5129780  24.6375144  62.9508713
  20.4084357  37.5853289  62.1632384  20.3354529  38.3908261  62.6751689
  19.9661751  37.7845255  61.3380406  20.1974137  36.8225059  55.6735206
  19.4141659  37.3646740  55.7673430  20.8966882  37.3399039  56.0729447
  23.5070787  22.6319689  58.3169411  24.0039487  21.8789651  57.9970481
  22.7357769  22.6684005  57.7512621  31.3600545  28.3360054  59.9587703
  31.3490421  29.2184770  59.5881636  30.4917924  27.9831605  59.7642240
  22.8683041  37.4840123  64.3190543  23.5811013  38.1187588  64.2466444
  22.3773070  37.5803989  63.5030545  24.5900568  31.3891376  55.8907835
  23.6556847  31.5092838  55.7212539  24.7677236  30.4863843  55.6267844
  20.0905756  24.7737072  58.0441096  19.7203543  24.2208112  58.7322001
  20.5864848  24.1695205  57.4916096  27.9773119  27.2308695  56.4257869
  28.4433571  28.0636687  56.3518171  28.4280620  26.7653677  57.1303127
  17.9194955  35.2334567  65.1396114  18.6204414  35.8671050  65.2925508
  17.4490070  35.5749298  64.3791753  26.0449350  33.5752517  53.4244021
  26.3209194  33.4609111  54.3337895  25.1753849  33.1770001  53.3856194
  25.9489782  19.5989282  60.4648770  25.0352862  19.8293509  60.6330977
  26.3782883  19.6827726  61.3162802  25.7196241  27.7879174  62.9648664
  25.0667691  28.0355082  62.3101117  26.0976620  26.9743312  62.6311141
  22.6803414  37.8238867  57.0676834  22.8625809  37.0060523  57.5304587
  23.5036400  38.0406560  56.6301724  23.0145580  36.7507053  54.3291883
  23.5433346  36.2399507  53.7162045  23.2773799  36.4349583  55.1937416
  21.7683814  28.5298985  69.4514701  21.0924451  28.4293115  70.1217076
  22.5911447  28.3738199  69.9150698  13.5162673  34.7670922  62.0727216
  14.1016109  34.0214610  62.2055121  13.3187511  35.0774879  62.9563880
  16.3701328  37.8022169  57.0889659  15.7011703  38.2868297  56.6053699
  16.2314198  38.0491390  58.0033037   8.1080327  27.3376522  60.7931660
   8.1464427  26.8040113  61.5868778   7.6020620  26.8111728  60.1742637
  20.5106596  39.8365913  63.6872317  21.0624904  39.9997534  64.4521402
  20.8512790  40.4270351  63.0152342  15.4871090  22.1841063  64.2894202
  15.5512416  23.0455893  63.8771600  15.4238210  21.5715064  63.5566560
  14.9623362  24.2564195  67.9367236  15.5895401  23.8741272  68.5504760
  14.1051281  24.0378397  68.3022929  25.3617471  34.6627170  69.5420972
  25.9057375  35.2757129  69.0475926  24.7804316  35.2206749  70.0587985
  11.7388905  26.0640624  53.8685591  12.0342346  25.1551303  53.8152645
  10.8376941  26.0428364  53.5466593  23.6474984  37.7847888  60.6735999
  23.5226123  36.9837628  60.1646945  24.3054075  38.2794082  60.1849969
  15.2683152  24.1396621  59.8513140  14.5469738  24.7532588  59.7120613
  16.0576408  24.6754386  59.7729786  25.7109892  35.5856908  62.3015549
  24.7640228  35.4662260  62.2293876  26.0592665  34.6979406  62.3841811
  18.0709465  21.4751047  66.1253791  18.5943867  21.7213344  66.8880101
  17.8521799  22.3071082  65.7056929  13.4676747  23.7454722  53.9924916
  13.1389453  22.8652101  53.8100022  13.8216117  23.6902391  54.8801305
  22.7156325  35.3809625  58.5019902  22.5681288  34.4526332  58.6827472
  23.5409819  35.4029715  58.0176977  16.5818570  24.0327692  54.3600394
  16.9214642  24.5613613  53.6379002  17.0290690  24.3708098  55.1358960
  26.3190447  36.2038183  59.5884774  27.2436995  35.9981045  59.4509226
  26.1505751  35.9554584  60.4974116  19.2762010  22.4164742  63.8103462
  18.9358831  21.6172555  64.2124142  18.5701017  22.7166453  63.2380295
  19.9278482  19.5014055  62.2630785  20.7504552  19.0274533  62.1409675
  20.1716546  20.2804539  62.7629471  18.5686717  22.5302313  52.5593687
  19.2895079  22.9083566  52.0557403  17.9452021  23.2491190  52.6628665
  22.7117840  23.2347462  53.4952019  22.9281454  24.1172100  53.1940847
  22.2311907  22.8433676  52.7657661  17.4517061  26.1933175  60.0722764
  17.3061642  26.5073479  60.9647045  16.9742265  26.8118076  59.5193662
  19.3113444  23.1835723  60.1203653  19.2975013  22.2876817  59.7835951
  20.0285872  23.1906387  60.7541939  21.1639575  23.6173064  62.1656781
  20.9057352  24.5390134  62.1641111  20.6324615  23.2203498  62.8557245
  26.1085763  36.7223851  54.9446866  26.2822641  36.1570273  54.1920718
  26.6014655  37.5224746  54.7626356  11.9262723  28.7338520  63.0110425
  11.3816191  29.5098328  63.1430699  12.8042073  29.0809324  62.8529546
  18.7150340  22.0650104  55.3891223  18.8366251  21.1366750  55.5882111
  18.4252382  22.0788790  54.4769539  21.5841530  19.7505014  58.5257943
  21.6063227  19.8144347  57.5709923  22.0009589  18.9109523  58.7198449
  31.9625155  29.4860274  56.5637166  32.4056301  28.7367599  56.1656289
  31.0851665  29.4770410  56.1810898  27.0960936  36.0390615  52.0443764
  27.7911841  36.6597308  52.2631079  27.4384086  35.1885966  52.3196142
  12.7128745  27.8608416  65.9040582  11.9710481  28.0091051  66.4905212
  12.3921489  28.1216682  65.0407331  28.9952359  33.4890321  53.5731095
  29.5203683  33.8277593  52.8480415  28.9074712  32.5537336  53.3894230
  20.6572408  37.4024394  65.7020972  20.9659534  37.1573541  66.5743671
  21.4547890  37.6071033  65.2139842  20.6793020  39.5562304  57.9326348
  20.2398010  39.0638683  58.6259205  21.4301137  39.0135272  57.6918423
  13.1585359  35.7473845  57.9350976  13.9843379  35.4477617  57.5549620
  12.8079411  34.9781467  58.3840765  18.1266892  35.1000313  60.0048650
  17.5046901  34.4371018  59.7050878  18.7971759  35.1261445  59.3222298
  11.3593964  33.6660171  58.8939910  10.5225872  33.2382346  58.7123911
  11.3317609  33.8592615  59.8310701  18.1991419  23.5782101  69.5981156
  18.2479575  24.4544224  69.2158925  18.7413934  23.0359494  69.0252799
  28.6846265  34.1223224  68.8782293  27.8941809  34.1047363  68.3386792
  28.4479620  34.6611518  69.6331329  28.8044140  30.9715691  66.1915021
  28.8542145  30.8065698  67.1330544  28.6958063  30.1042950  65.8012902
  17.6880399  33.6504236  53.4807110  17.8368519  34.3339701  52.8273783
  18.4946842  33.6309326  53.9956566  26.0947903  26.9546619  67.5074328
  26.9957765  26.8153084  67.2158326  26.1695877  27.1201074  68.4472506
  20.4290708  24.3313473  66.3527514  19.5594017  24.6247040  66.0810103
  20.6650188  24.9153918  67.0734778  30.3062337  33.3912632  66.4357043
  30.0147145  33.7542613  67.2720504  29.6934468  32.6779641  66.2570375
  31.5058019  30.9565512  58.9559613  32.3404911  31.3955316  59.1197174
  31.6417148  30.4804165  58.1367859  28.5549525  28.5145247  64.9037101
  29.0303647  28.7072893  64.0955952  27.6315091  28.5704433  64.6580485
  15.4433032  29.6769414  54.4868179  15.1979074  28.7731744  54.6848389
  15.6128946  29.6786564  53.5447657  23.1329742  20.5493090  63.8692935
  23.6511686  21.2854117  63.5439423  22.7784874  20.8557084  64.7039694
  14.7128679  25.4097772  51.9854341  14.0197924  25.4842127  51.3294377
  14.4680431  24.6458115  52.5075858  23.3842336  16.9693373  59.3893831
  23.6644090  16.3016562  60.0154258  24.1692943  17.1622469  58.8768495
  21.1875804  36.1452367  50.9518858  20.6149771  36.7642554  50.4989330
  21.7608598  36.6951729  51.4858780  27.2551194  25.3911007  63.1365407
  28.2068617  25.4909105  63.1577631  27.0854645  24.5989275  63.6463491
  25.2765574  22.4766590  63.3224807  24.6815506  22.7571603  62.6271296
  24.9915270  22.9660491  64.0941549  24.4073064  36.4289517  52.0827440
  25.3403737  36.3635079  52.2860316  24.3196277  37.2645784  51.6241973
  27.0361081  35.7455387  49.0431388  26.9574712  35.4115251  49.9367146
  27.8570748  36.2377155  49.0422860  29.7339272  28.6117127  62.2507706
  29.7015592  27.6733127  62.4367390  30.3439896  28.6901163  61.5173531
  21.5722603  27.4813180  48.2934910  22.5181708  27.3519388  48.3623328
  21.1936848  26.7427842  48.7704338  29.8833760  25.4028170  62.2965989
  29.3672809  24.6186627  62.1095918  30.7673709  25.0746887  62.4612509
  27.5444487  19.1469186  58.2561802  27.3469309  18.8384274  59.1405134
  28.1544193  19.8730825  58.3859732  35.5515822  29.6733133  61.3913743
  36.2819210  29.4118422  61.9521446  34.9422767  28.9361855  61.4315811
  33.6331119  27.8140996  61.9888194  32.9064283  27.6796961  61.3804686
  33.2178406  28.1217825  62.7944912  21.4561295  31.5330926  69.7535567
  22.3764305  31.7109525  69.9475614  21.4210878  30.5886971  69.6015267
  19.7565520  25.4063156  48.2289795  18.8496975  25.1096269  48.3052509
  20.0341501  25.1092974  47.3624082  10.6743460  26.7269519  58.6788842
  10.3546245  25.8734828  58.3863216  10.1276889  26.9418098  59.4346809
  14.4523368  29.4431960  62.3958348  14.6709378  30.3749068  62.4146382
  14.8649142  29.0839935  63.1813152  21.3727586  19.9500046  54.3834037
  20.5628314  19.6047131  54.7589283  22.0612003  19.6407589  54.9721648
  23.3018134  19.0278093  56.0058333  23.8549173  19.4473546  56.6648357
  23.5388220  18.1013841  56.0481289  19.3251233  25.0165166  71.7861097
  19.2247960  25.9659523  71.7173188  19.1072775  24.6883405  70.9137167
  18.5264305  22.2650091  48.3701775  19.3883469  22.5904990  48.6297592
  18.7114649  21.4781587  47.8574840  10.5431720  30.3472431  60.6481963
   9.8495192  29.9326384  60.1351918  11.2904711  30.3892967  60.0515382
  26.6796941  21.1378618  55.5136998  26.0995610  21.7963422  55.1315050
  26.4132874  20.3155962  55.1024415  25.1300507  20.5383675  57.7158318
  25.6300286  20.6500210  56.9072637  25.7736115  20.2344728  58.3559126
  19.1882503  28.4462305  70.6026159  18.7049585  29.2462665  70.8090048
  19.2743442  28.4570250  69.6493603  12.4568463  30.2790685  58.5247978
  12.4339151  30.3778372  57.5729861  12.7669099  31.1255835  58.8465144
  15.1155841  32.3366840  62.6394593  16.0699094  32.3050782  62.5724524
  14.9168364  31.8757463  63.4544819  15.7055223  30.9067956  65.2065390
  16.5248112  31.4012034  65.2300228  15.9792031  29.9899924  65.1782958
  25.4621819  23.2978708  54.5693346  24.5747674  23.5828359  54.3513541
  25.8775808  23.1372471  53.7220623  28.8136355  23.3225229  58.2847685
  29.5896745  23.8121681  58.5572302  28.0884489  23.7483283  58.7419555
  31.2508914  24.0352848  59.3421626  31.8453405  23.7948584  58.6314934
  31.3235498  23.3159979  59.9695162  13.4706070  37.8786459  59.6564791
  13.3360538  37.1186860  59.0902789  13.0538132  38.6027359  59.1893580
  24.6065033  33.0623383  48.6641366  25.3100883  33.2673385  49.2799022
  23.8827681  33.6300145  48.9290449  25.4362843  28.8133244  54.7843636
  25.3798044  29.2701795  53.9451269  25.9891185  28.0523929  54.6066479
  29.2467649  24.6022976  55.6093756  28.9904583  24.2019612  56.4401963
  28.6220517  25.3166770  55.4843895  33.5579987  27.3419049  58.1165047
  32.9979545  27.4112238  58.8896609  32.9523490  27.1660034  57.3964543
  16.6275195  38.7755776  59.8683233  16.5107580  39.7201209  59.7661924
  15.8067642  38.4729338  60.2569032  26.5151730  33.5005912  50.7139826
  27.3497334  33.0687110  50.5317301  26.3536073  33.3287926  51.6416720
  26.1697622  30.0038025  52.0796165  26.1146426  29.8382297  51.1384609
  25.5443677  30.7114058  52.2358355  10.9590137  25.2406090  65.9057587
  11.6049001  24.7305044  66.3944813  10.7507288  25.9774771  66.4801013
  23.4843529  32.3086937  71.4049728  24.3534689  32.4827589  71.0436363
  23.0050281  33.1281354  71.2825457  19.4793748  19.5046134  51.6581484
  19.4672417  20.4487974  51.8149755  20.3717170  19.3216280  51.3640945
  17.6529710  39.4284038  63.0839162  18.5556956  39.4607648  63.4005657
  17.4267080  38.4984489  63.0985497  19.4083312  38.1815025  59.7449240
  18.4578943  38.1816886  59.6313613  19.7115798  37.4347759  59.2285275
  23.2945867  16.0988911  55.9127420  22.5278263  15.5447398  56.0584103
  23.7056572  16.1710780  56.7741572  15.2987628  22.3873707  70.0032602
  16.1619090  22.0310512  70.2135926  14.7253039  22.0487602  70.6908006
  31.9525711  43.9702991  60.7456527  31.6144223  43.8544056  59.8577062
  32.8215480  43.5694156  60.7257534  27.8112527  45.8238468  56.7353418
  27.2477392  45.7328405  55.9669706  27.6964922  45.0038372  57.2155911
  32.4345494  45.1237843  66.7042733  32.4234135  44.7290641  65.8323237
  32.5966134  44.3903915  67.2976504  25.3576959  47.3189659  59.5737639
  26.1498251  46.9780484  59.1583938  25.5973609  47.4284634  60.4939792
  27.3167713  46.5798572  52.4455018  28.0898589  46.0327559  52.3067893
  27.6693112  47.4442822  52.6569479  29.1552756  47.9074955  65.6521917
  28.8642621  48.8120586  65.5368583  29.7909740  47.9491482  66.3665986
  30.0808962  45.2851803  62.2423277  30.6772535  45.0607826  61.5280240
  30.1383934  44.5436549  62.8448724  29.6533991  42.7391239  50.0773468
  29.9059511  42.2172760  49.3156931  28.7158550  42.5757384  50.1800151
  29.3730280  44.6419344  52.2797842  29.2566538  43.9664248  52.9478927
  29.4832539  44.1551718  51.4629996  31.7161820  44.1029492  55.9844532
  31.3520028  43.5760113  56.6957453  32.5728936  43.7127961  55.8111017
  37.6211121  35.3923824  63.2475798  37.2894446  36.2619235  63.0237013
  37.0256734  35.0760108  63.9269828  34.1142641  47.5936370  62.6471711
  33.8143364  48.4961409  62.5387518  33.7693700  47.3268553  63.4992864
  27.5655122  44.0450167  58.6808415  26.6405619  43.9126381  58.8886107
  27.8139535  44.8244386  59.1778357  24.9263933  43.6883441  59.5152204
  25.0556314  43.9417920  60.4291616  24.2461384  44.2811149  59.1956859
  31.5880650  41.5308556  68.2704045  30.8113984  42.0902476  68.2606910
  32.2271213  42.0165339  68.7918915  29.8427022  44.3394009  67.8322012
  30.5841707  44.8779053  67.5556836  29.1364008  44.9660298  67.9893564
  35.3182362  46.4823150  66.4294174  35.7265718  46.0405560  65.6848806
  34.5959624  45.9075777  66.6828367  31.6713432  41.4195757  63.8027731
  32.5174627  41.8435170  63.9462380  31.6112070  40.7629381  64.4966294
  35.6411177  47.0424340  60.1846463  35.0120039  47.2070055  59.4822530
  35.2536839  47.4565950  60.9557427  34.8212877  39.0800125  65.4608904
  34.5773809  39.8342185  64.9243180  35.0972808  39.4585473  66.2956151
  36.7751340  45.6238737  64.1386170  36.9868235  46.2670497  63.4620551
  36.7281089  44.7901054  63.6708100  31.1939139  46.7798749  57.4496548
  31.6577484  47.0586451  56.6601170  30.9295937  45.8782193  57.2669638
  28.0863220  46.3270230  60.3876311  28.6564577  46.7557498  59.7493795
  28.6771332  46.0452815  61.0860497  30.1308025  42.9021901  54.2586113
  30.8332068  43.3542945  54.7260039  29.7988653  42.2605720  54.8866006
  28.5788386  41.4933658  68.6337322  27.9487047  42.1749938  68.8672719
  28.4724474  41.3816739  67.6890460  23.8733359  41.1605454  59.5603246
  23.0832413  41.4162982  59.0843357  24.3644606  41.9753791  59.6655287
  25.8248104  41.5250033  56.5186723  25.0279267  41.6368727  57.0370219
  25.5973696  41.8636685  55.6527614  31.6553772  48.0494736  64.4669238
  31.7198204  48.5115143  65.3027410  30.9464696  47.4192101  64.5951548
  22.1571062  41.4135944  61.9918237  22.4079100  42.2982954  62.2575813
  22.6930610  41.2340546  61.2193329  27.8569129  35.7954423  70.9962573
  27.4636075  35.2420622  71.6710217  28.6735269  36.1065002  71.3869091
  24.8231187  47.2338282  54.9076143  25.3355707  48.0281532  55.0581708
  25.4753900  46.5364572  54.8409745  26.6326071  50.3504038  56.9898896
  26.8092700  51.2722003  56.8019880  27.4282905  50.0362457  57.4193276
  30.7737090  37.2112302  68.5882830  31.5146803  37.8119456  68.5087292
  31.0055013  36.4689940  68.0300872  25.9178428  42.3968670  66.8661060
  25.8031943  41.4953927  67.1668158  25.0622946  42.6432366  66.5145876
  32.9970266  50.3386410  68.4648560  32.5534120  49.5522789  68.1469465
  33.6587479  50.5265561  67.7992451  27.7557387  51.8682212  62.9909239
  28.3064812  51.7399275  62.2186233  26.9168863  52.1677101  62.6404131
  35.0951504  50.6189210  66.4929961  35.0769979  51.4398091  66.0010231
  36.0171424  50.4943285  66.7180103  31.5524558  48.1333339  67.3353470
  32.0852895  47.3721628  67.1052778  31.0238639  47.8406991  68.0777624
  34.7194253  33.2393405  62.8647112  34.3758522  34.1295047  62.7886222
  35.0873215  33.0495063  62.0016697  22.7880103  45.5626936  55.6835714
  23.6255325  45.9723944  55.4669421  22.9658371  44.6226378  55.6535908
  33.7990793  35.6098061  60.8296345  33.2955589  35.5728196  60.0164150
  34.0921400  36.5190803  60.8893001  30.0433679  35.6936790  59.8362526
  30.9086676  35.4979599  59.4768416  30.1111188  35.4647142  60.7631883
  27.6495998  37.9238998  57.2078893  28.2239750  37.7014180  56.4752086
  28.2366981  37.9927693  57.9607495  27.9765585  39.9543459  51.2274779
  27.1402898  40.2918146  51.5484053  27.8370355  39.8192439  50.2901916
  29.9518666  34.7980247  55.9353963  29.2983078  34.4829264  55.3110577
  29.9099140  34.1755988  56.6613786  31.0629871  45.0799542  47.8507255
  30.1556933  44.8488796  48.0498404  31.5600903  44.2837161  48.0381236
  33.1856406  41.2862181  60.2601610  32.2678968  41.5077128  60.1023298
  33.6016550  41.3608491  59.4013318  32.2418104  45.1812137  52.3731245
  31.3329323  44.8971170  52.4703715  32.2713188  45.6011216  51.5134552
  36.5181919  32.4986965  57.9664849  36.8240795  31.6384328  57.6790764
  37.2434523  33.0904585  57.7663843  22.8106275  42.9017651  56.3546447
  22.6130674  42.3087012  55.6297514  22.2552939  42.5969861  57.0722386
  30.7902998  42.7940758  58.4741040  30.8451608  41.8414594  58.3983517
  29.9794200  42.9500197  58.9582339  28.7295358  41.4117817  56.2331419
  27.9163224  41.7111988  56.6396611  29.2254352  41.0173506  56.9505901
  34.3269570  41.8759642  65.0646313  34.6818958  42.1031115  65.9240779
  34.9741701  42.2078019  64.4423568  28.2209433  38.9836173  61.8492654
  28.8608812  38.8424932  61.1515617  27.3886964  38.6970686  61.4731256
  28.9969737  48.2838603  57.9627647  29.7910335  47.7888923  57.7610221
  28.2861429  47.7556466  57.5995352  33.8164581  50.6656699  62.3140014
  33.8701604  51.2347635  63.0817730  32.9479363  50.8358584  61.9494051
  25.3052500  42.4281685  54.0387399  24.3750088  42.3666141  54.2557361
  25.4009972  41.9057638  53.2424040  25.2238049  38.9536498  56.6265641
  25.4844867  39.8681831  56.5174801  26.0455222  38.4860940  56.7762254
  26.6962975  40.3674255  63.7964465  27.3686028  40.1591617  63.1477114
  25.8692761  40.1696341  63.3569698  32.5988547  36.9936196  65.8130126
  31.9516462  37.6926146  65.7194603  33.3689562  37.4272340  66.1806374
  36.0067345  47.2585048  68.8880680  35.8552851  47.0295600  67.9710763
  35.9972024  48.2155650  68.9012025  32.7752681  44.8316961  63.8726946
  33.7044741  44.9828120  63.6995913  32.3543711  44.9200982  63.0175593
  31.5741013  48.8567625  61.6425484  31.4352099  48.4886410  62.5151422
  30.7855609  49.3715265  61.4709441  27.0990472  43.6416858  64.5566903
  26.9610270  42.9097097  65.1578442  28.0095395  43.5525758  64.2751090
  29.7272773  43.3536817  64.0450582  30.4372391  42.7130010  64.0037201
  29.6842081  43.6049712  64.9676763  37.7159551  50.2904171  66.9657161
  37.6572097  49.6063391  66.2987744  38.1179070  51.0323161  66.5137787
  28.4401707  40.3402035  65.8646222  27.9039064  39.8892774  66.5167818
  27.8518415  40.4747944  65.1216686  26.7350250  57.1066085  59.7590880
  26.9746848  57.7384609  60.4369899  25.8919447  56.7554125  60.0456240
  27.8503966  39.7990687  48.4272685  26.9733432  39.6779487  48.0634932
  28.3261719  39.0076765  48.1751574  37.7176959  48.2543755  65.1971141
  36.8303737  47.9169676  65.3197540  38.2875510  47.5226786  65.4339906
  19.3706106  44.5867846  58.5214192  20.0577146  44.2729576  57.9335208
  19.2154234  45.4909211  58.2481444  24.1740828  39.4758043  62.9499216
  24.0899017  38.8683712  62.2149626  23.3523534  39.9667061  62.9508713
  31.2478112  52.9145207  62.1632384  31.1748283  53.7200178  62.6751689
  30.8055505  53.1137173  61.3380406  33.7076795  52.8132041  64.3190543
  34.4204768  53.4479506  64.2466444  33.2166824  52.9095907  63.5030545
  30.9299510  40.1028989  58.0441096  30.5597298  39.5500030  58.7322001
  31.4258603  39.4987123  57.4916096  28.7588709  50.5626484  65.1396114
  29.4598169  51.1962967  65.2925508  28.2883824  50.9041216  64.3791753
  36.7883536  34.9281200  60.4648770  35.8746616  35.1585427  60.6330977
  37.2176638  35.0119644  61.3162802  32.6077568  43.8590903  69.4514701
  31.9318205  43.7585032  70.1217076  33.4305202  43.7030117  69.9150698
  24.3556427  50.0962840  62.0727216  24.9409864  49.3506527  62.2055121
  24.1581266  50.4066796  62.9563880  18.9474082  42.6668440  60.7931660
  18.9858181  42.1332030  61.5868778  18.4414375  42.1403645  60.1742637
  31.3500351  55.1657830  63.6872317  31.9018659  55.3289452  64.4521402
  31.6906544  55.7562268  63.0152342  26.3264844  37.5132980  64.2894202
  26.3906171  38.3747811  63.8771600  26.2631964  36.9006982  63.5566560
  25.8017117  39.5856113  67.9367236  26.4289155  39.2033190  68.5504760
  24.9445036  39.3670315  68.3022929  36.2011225  49.9919088  69.5420972
  36.7451129  50.6049046  69.0475926  35.6198070  50.5498666  70.0587985
  22.5782659  41.3932542  53.8685591  22.8736100  40.4843220  53.8152645
  21.6770695  41.3720281  53.5466593  26.1076906  39.4688538  59.8513140
  25.3863492  40.0824506  59.7120613  26.8970162  40.0046303  59.7729786
  36.5503647  50.9148826  62.3015549  35.6033982  50.7954177  62.2293876
  36.8986420  50.0271324  62.3841811  28.9103220  36.8042965  66.1253791
  29.4337622  37.0505262  66.8880101  28.6915553  37.6363000  65.7056929
  24.3070501  39.0746640  53.9924916  23.9783207  38.1944018  53.8100022
  24.6609872  39.0194308  54.8801305  27.4212324  39.3619609  54.3600394
  27.7608397  39.8905531  53.6379002  27.8684445  39.7000015  55.1358960
  30.1155765  37.7456660  63.8103462  29.7752585  36.9464473  64.2124142
  29.4094771  38.0458371  63.2380295  30.7672237  34.8305972  62.2630785
  31.5898306  34.3566451  62.1409675  31.0110300  35.6096456  62.7629471
  29.4080471  37.8594231  52.5593687  30.1288834  38.2375484  52.0557403
  28.7845775  38.5783108  52.6628665  28.2910816  41.5225093  60.0722764
  28.1455396  41.8365396  60.9647045  27.8136019  42.1409993  59.5193662
  30.1507198  38.5127641  60.1203653  30.1368767  37.6168734  59.7835951
  30.8679627  38.5198305  60.7541939  32.0033329  38.9464981  62.1656781
  31.7451107  39.8682052  62.1641111  31.4718370  38.5495416  62.8557245
  22.7656478  44.0630438  63.0110425  22.2209946  44.8390245  63.1430699
  23.6435828  44.4101242  62.8529546  29.5544094  37.3942021  55.3891223
  29.6760006  36.4658668  55.5882111  29.2646137  37.4080707  54.4769539
  32.4235285  35.0796932  58.5257943  32.4456982  35.1436265  57.5709923
  32.8403344  34.2401440  58.7198449  23.5522500  43.1900334  65.9040582
  22.8104236  43.3382969  66.4905212  23.2315244  43.4508599  65.0407331
  31.4966162  52.7316312  65.7020972  31.8053289  52.4865459  66.5743671
  32.2941644  52.9362950  65.2139842  23.9979113  51.0765763  57.9350976
  24.8237133  50.7769534  57.5549620  23.6473165  50.3073385  58.3840765
  28.9660646  50.4292231  60.0048650  28.3440656  49.7662936  59.7050878
  29.6365513  50.4553363  59.3222298  22.1987718  48.9952089  58.8939910
  21.3619627  48.5674263  58.7123911  22.1711364  49.1884532  59.8310701
  29.0385174  38.9074019  69.5981156  29.0873329  39.7836142  69.2158925
  29.5807688  38.3651412  69.0252799  39.5240020  49.4515142  68.8782293
  38.7335563  49.4339281  68.3386792  39.2873374  49.9903436  69.6331329
  39.6437895  46.3007608  66.1915021  39.6935900  46.1357616  67.1330544
  39.5351818  45.4334867  65.8012902  28.5274153  48.9796154  53.4807110
  28.6762274  49.6631618  52.8273783  29.3340597  48.9601244  53.9956566
  36.9341657  42.2838536  67.5074328  37.8351520  42.1445001  67.2158326
  37.0089632  42.4492991  68.4472506  31.2684462  39.6605391  66.3527514
  30.3987772  39.9538957  66.0810103  31.5043943  40.2445836  67.0734778
  26.2826786  45.0061332  54.4868179  26.0372828  44.1023662  54.6848389
  26.4522701  45.0078482  53.5447657  33.9723496  35.8785008  63.8692935
  34.4905440  36.6146035  63.5439423  33.6178629  36.1849001  64.7039694
  25.5522434  40.7389689  51.9854341  24.8591679  40.8134044  51.3294377
  25.3074186  39.9750033  52.5075858  34.2236090  32.2985291  59.3893831
  34.5037844  31.6308480  60.0154258  35.0086697  32.4914386  58.8768495
  36.1159328  37.8058508  63.3224807  35.5209260  38.0863521  62.6271296
  35.8309025  38.2952409  64.0941549  32.4116357  42.8105097  48.2934910
  33.3575462  42.6811305  48.3623328  32.0330602  42.0719759  48.7704338
  38.3838242  34.4761103  58.2561802  38.1863063  34.1676191  59.1405134
  38.9937947  35.2022742  58.3859732  32.2955050  46.8622843  69.7535567
  33.2158059  47.0401442  69.9475614  32.2604633  45.9178889  69.6015267
  30.5959275  40.7355074  48.2289795  29.6890730  40.4388186  48.3052509
  30.8735256  40.4384892  47.3624082  21.5137215  42.0561437  58.6788842
  21.1939999  41.2026745  58.3863216  20.9670643  42.2710015  59.4346809
  25.2917122  44.7723878  62.3958348  25.5103132  45.7040986  62.4146382
  25.7042896  44.4131852  63.1813152  32.2121340  35.2791963  54.3834037
  31.4022069  34.9339048  54.7589283  32.9005757  34.9699507  54.9721648
  34.1411889  34.3570010  56.0058333  34.6942927  34.7765464  56.6648357
  34.3781975  33.4305758  56.0481289  30.1644988  40.3457084  71.7861097
  30.0641715  41.2951441  71.7173188  29.9466530  40.0175323  70.9137167
  29.3658059  37.5942009  48.3701775  30.2277223  37.9196907  48.6297592
  29.5508403  36.8073505  47.8574840  21.3825475  45.6764349  60.6481963
  20.6888946  45.2618301  60.1351918  22.1298466  45.7184885  60.0515382
  35.9694262  35.8675593  57.7158318  36.4694040  35.9792128  56.9072637
  36.6129870  35.5636646  58.3559126  30.0276258  43.7754223  70.6026159
  29.5443340  44.5754583  70.8090048  30.1137197  43.7862168  69.6493603
  23.2962217  45.6082602  58.5247978  23.2732906  45.7070290  57.5729861
  23.6062854  46.4547753  58.8465144  25.9549595  47.6658757  62.6394593
  26.9092849  47.6342700  62.5724524  25.7562119  47.2049381  63.4544819
  26.5448977  46.2359873  65.2065390  27.3641866  46.7303952  65.2300228
  26.8185785  45.3191842  65.1782958  24.3099824  53.2078377  59.6564791
  24.1754292  52.4478778  59.0902789  23.8931886  53.9319277  59.1893580
  27.4668950  54.1047694  59.8683233  27.3501334  55.0493126  59.7661924
  26.6461396  53.8021255  60.2569032  21.7983892  40.5698007  65.9057587
  22.4442755  40.0596961  66.3944813  21.5901043  41.3066689  66.4801013
  34.3237284  47.6378855  71.4049728  35.1928443  47.8119507  71.0436363
  33.8444035  48.4573272  71.2825457  30.3187502  34.8338052  51.6581484
  30.3066172  35.7779892  51.8149755  31.2110924  34.6508197  51.3640945
  28.4923464  54.7575956  63.0839162  29.3950711  54.7899566  63.4005657
  28.2660834  53.8276407  63.0985497  34.1339622  31.4280829  55.9127420
  33.3672017  30.8739315  56.0584103  34.5450327  31.5002697  56.7741572
  26.1381383  37.7165624  70.0032602  27.0012844  37.3602429  70.2135926
  25.5646793  37.3779519  70.6908006  43.2739249  60.4529761  66.7042733
  43.2627890  60.0582559  65.8323237  43.4359888  59.7195833  67.2976504
  42.4274405  56.8600474  68.2704045  41.6507739  57.4194394  68.2606910
  43.0664968  57.3457257  68.7918915  40.6820777  59.6685927  67.8322012
  41.4235461  60.2070971  67.5556836  39.9757762  60.2952216  67.9893564
  39.4182141  56.8225575  68.6337322  38.7880801  57.5041856  68.8672719
  39.3118229  56.7108657  67.6890460  38.6962883  51.1246341  70.9962573
  38.3029829  50.5712540  71.6710217  39.5129024  51.4356919  71.3869091
  36.7572182  57.7260587  66.8661060  36.6425698  56.8245845  67.1668158
  35.9016700  57.9724284  66.5145876  43.8364020  65.6678328  68.4648560
  43.3927874  64.8814706  68.1469465  44.4981234  65.8557478  67.7992451
  37.5356729  55.6966173  63.7964465  38.2079783  55.4883535  63.1477114
  36.7086516  55.4988259  63.3569698  37.9384226  58.9708776  64.5566903
  37.8004024  58.2389015  65.1578442  38.8489150  58.8817676  64.2751090
  40.5666527  58.6828735  64.0450582  41.2766146  58.0421927  64.0037201
  40.5235835  58.9341630  64.9676763  39.2795461  55.6693953  65.8646222
  38.7432818  55.2184691  66.5167818  38.6912170  55.8039862  65.1216686
  30.2099860  59.9159764  58.5214192  30.8970900  59.6021494  57.9335208
  30.0547989  60.8201129  58.2481444  35.0134582  54.8049961  62.9499216
  34.9292771  54.1975630  62.2149626  34.1917289  55.2958979  62.9508713
  43.4471323  59.1882821  69.4514701  42.7711960  59.0876950  70.1217076
  44.2698956  59.0322034  69.9150698  35.1950182  65.4254757  62.0727216
  35.7803618  64.6798445  62.2055121  34.9975020  65.7358714  62.9563880
  29.7867836  57.9960357  60.7931660  29.8251936  57.4623948  61.5868778
  29.2808129  57.4695563  60.1742637  37.1658599  52.8424898  64.2894202
  37.2299925  53.7039729  63.8771600  37.1025719  52.2298900  63.5566560
  36.6410871  54.9148030  67.9367236  37.2682910  54.5325108  68.5504760
  35.7838790  54.6962232  68.3022929  47.0404980  65.3211006  69.5420972
  47.5844884  65.9340964  69.0475926  46.4591825  65.8790584  70.0587985
  33.6050232  59.3922355  63.0110425  33.0603700  60.1682163  63.1430699
  34.4829582  59.7393160  62.8529546  34.3916254  58.5192251  65.9040582
  33.6497990  58.6674887  66.4905212  34.0708998  58.7800517  65.0407331
  42.3359917  68.0608230  65.7020972  42.6447043  67.8157376  66.5743671
  43.1335399  68.2654868  65.2139842  33.0381473  64.3244007  58.8939910
  32.2013381  63.8966181  58.7123911  33.0105118  64.5176450  59.8310701
  39.8778928  54.2365936  69.5981156  39.9267084  55.1128059  69.2158925
  40.4201443  53.6943329  69.0252799  50.3633774  64.7807060  68.8782293
  49.5729318  64.7631199  68.3386792  50.1267129  65.3195353  69.6331329
  43.1348804  62.1914761  69.7535567  44.0551814  62.3693360  69.9475614
  43.0998387  61.2470806  69.6015267  36.1310877  60.1015796  62.3958348
  36.3496887  61.0332904  62.4146382  36.5436651  59.7423770  63.1813152
  41.0038742  55.6749002  71.7861097  40.9035469  56.6243358  71.7173188
  40.7860284  55.3467240  70.9137167  32.2219229  61.0056266  60.6481963
  31.5282701  60.5910219  60.1351918  32.9692220  61.0476803  60.0515382
  40.8670012  59.1046140  70.6026159  40.3837094  59.9046500  70.8090048
  40.9530951  59.1154085  69.6493603  36.7943350  62.9950675  62.6394593
  37.7486603  62.9634617  62.5724524  36.5955873  62.5341299  63.4544819
  35.1493579  68.5370295  59.6564791  35.0148046  67.7770695  59.0902789
  34.7325641  69.2611194  59.1893580  32.6377646  55.8989925  65.9057587
  33.2836510  55.3888879  66.3944813  32.4294797  56.6358607  66.4801013
  45.1631038  62.9670772  71.4049728  46.0322198  63.1411425  71.0436363
  44.6837790  63.7865189  71.2825457  36.9775137  53.0457542  70.0032602
  37.8406599  52.6894347  70.2135926  36.4040548  52.7071437  70.6908006
  50.8340264  78.5658790  65.6521917  50.5430130  79.4704421  65.5368583
  51.4697249  78.6075318  66.3665986  55.7930150  78.2520206  62.6471711
  55.4930873  79.1545244  62.5387518  55.4481209  77.9852389  63.4992864
  57.3198686  77.7008176  60.1846463  56.6907548  77.8653890  59.4822530
  56.9324348  78.1149785  60.9557427  58.4538849  76.2822573  64.1386170
  58.6655744  76.9254333  63.4620551  58.4068597  75.4484889  63.6708100
  59.5684677  79.1594528  62.3108527  60.3902121  78.7574715  62.0291209
  59.5647080  79.0562762  63.2624643  53.3341281  78.7078571  64.4669238
  53.3985713  79.1698979  65.3027410  52.6252205  78.0775936  64.5951548
  49.5356638  66.4538259  70.9962573  49.1423583  65.9004457  71.6710217
  50.3522778  66.7648837  71.3869091  54.6757775  80.9970245  68.4648560
  54.2321629  80.2106624  68.1469465  55.3374988  81.1849396  67.7992451
  49.4344896  82.5266047  62.9909239  49.9852321  82.3983110  62.2186233
  48.5956372  82.8260936  62.6404131  56.7739013  81.2773045  66.4929961
  56.7557488  82.0981926  66.0010231  57.6958933  81.1527121  66.7180103
  59.5757626  76.1152188  59.9639328  58.9181300  76.8051449  60.0519457
  60.3798025  76.5048620  60.3073314  57.5957820  81.2879059  57.0772231
  57.8880794  81.8484116  56.3584596  58.1056440  81.5807620  57.8325390
  52.5591445  82.0659410  58.1665684  52.5167624  82.2920256  57.2374216
  53.4754144  81.8322784  58.3151485  55.4952090  81.3240534  62.3140014
  55.5489113  81.8931471  63.0817730  54.6266872  81.4942419  61.9494051
  53.2528522  79.5151461  61.6425484  53.1139608  79.1470245  62.5151422
  52.4643118  80.0299100  61.4709441  53.8476674  84.6160557  52.9851020
  54.0228429  84.1448600  53.7996643  53.1609462  85.2426323  53.2132281
  54.8033737  78.8933063  59.0314321  54.4683570  78.8533833  59.9271971
  54.3037683  78.2277779  58.5584732  59.3947060  80.9488006  66.9657161
  59.3359606  80.2647226  66.2987744  59.7966579  81.6906996  66.5137787
  59.3964468  78.9127590  65.1971141  58.5091246  78.5753512  65.3197540
  59.9663019  78.1810621  65.4339906  52.9265621  83.5729042  62.1632384
  52.8535792  84.3784014  62.6751689  52.4843014  83.7721008  61.3380406
  52.7155401  82.8100812  55.6735206  51.9322922  83.3522493  55.7673430
  53.4148146  83.3274792  56.0729447  55.3864304  83.4715876  64.3190543
  56.0992277  84.1063341  64.2466444  54.8954333  83.5679742  63.5030545
  50.4376218  81.2210320  65.1396114  51.1385677  81.8546803  65.2925508
  49.9671333  81.5625051  64.3791753  58.2377504  73.7754927  62.9648664
  57.5848954  74.0230835  62.3101117  58.6157884  72.9619065  62.6311141
  55.1984678  83.8114620  57.0676834  55.3807072  82.9936276  57.5304587
  56.0217664  84.0282313  56.6301724  55.5326843  82.7382806  54.3291883
  56.0614610  82.2275260  53.7162045  55.7955063  82.4225336  55.1937416
  53.0287860  85.8241666  63.6872317  53.5806168  85.9873287  64.4521402
  53.3694053  86.4146104  63.0152342  57.8798734  80.6502923  69.5420972
  58.4238638  81.2632882  69.0475926  57.2985579  81.2082502  70.0587985
  56.1656247  83.7723641  60.6735999  56.0407387  82.9713381  60.1646945
  56.8235338  84.2669835  60.1849969  58.2291156  81.5732661  62.3015549
  57.2821491  81.4538013  62.2293876  58.5773929  80.6855159  62.3841811
  55.2337589  81.3685378  58.5019902  55.0862551  80.4402085  58.6827472
  56.0591082  81.3905468  58.0176977  58.8371711  82.1913936  59.5884774
  59.7618258  81.9856798  59.4509226  58.6687014  81.9430338  60.4974116
  53.1753671  83.3900147  65.7020972  53.4840798  83.1449294  66.5743671
  53.9729153  83.5946786  65.2139842  50.6448155  81.0876066  60.0048650
  50.0228165  80.4246771  59.7050878  51.3153022  81.1137198  59.3222298
  61.2027529  80.1098977  68.8782293  60.4123072  80.0923116  68.3386792
  60.9660883  80.6487271  69.6331329  61.3225404  76.9591444  66.1915021
  61.3723409  76.7941451  67.1330544  61.2139327  76.0918703  65.8012902
  62.8243600  79.3788385  66.4357043  62.5328409  79.7418366  67.2720504
  62.2115732  78.6655394  66.2570375  61.0730789  74.5021000  64.9037101
  61.5484910  74.6948646  64.0955952  60.1496354  74.5580186  64.6580485
  50.1710973  85.4159791  63.0839162  51.0738220  85.4483401  63.4005657
  49.9448343  84.4860242  63.0985497  67.6617269  90.0051316  60.8095003
  68.2995679  89.8858063  60.1058343  67.5438111  90.9532160  60.8682955
  64.4706975  89.9578744  60.7456527  64.1325486  89.8419809  59.8577062
  65.3396743  89.5569909  60.7257534  60.3293791  91.8114221  56.7353418
  59.7658656  91.7204158  55.9669706  60.2146186  90.9914125  57.2155911
  64.9526758  91.1113596  66.7042733  64.9415399  90.7166394  65.8323237
  65.1147397  90.3779669  67.2976504  57.8758222  93.3065412  59.5737639
  58.6679514  92.9656237  59.1583938  58.1154873  93.4160387  60.4939792
  65.9093349  95.4785188  52.0467883  65.2581329  96.0639269  51.6601897
  66.7037712  96.0091383  52.1062921  59.8348976  92.5674325  52.4455018
  60.6079852  92.0203313  52.3067893  60.1874375  93.4318575  52.6569479
  61.6734019  93.8950708  65.6521917  61.3823885  94.7996339  65.5368583
  62.3091003  93.9367235  66.3665986  62.5990226  91.2727556  62.2423277
  63.1953798  91.0483579  61.5280240  62.6565197  90.5312302  62.8448724
  62.1715254  88.7266992  50.0773468  62.4240775  88.2048513  49.3156931
  61.2339813  88.5633137  50.1800151  67.2158537  87.7302770  57.8848211
  68.0021626  87.3122193  57.5338628  67.4797241  88.6348862  58.0529859
  67.3868614  93.1675620  52.5836868  66.7514447  93.2410247  53.2957772
  67.0566021  93.7569219  51.9055947  72.6166964  87.6678003  58.7881189
  73.3492136  87.0977220  59.0219019  71.8606320  87.2799604  59.2287695
  61.8911543  90.6295098  52.2797842  61.7747801  89.9540001  52.9478927
  62.0013803  90.1427471  51.4629996  64.2343084  90.0905245  55.9844532
  63.8701291  89.5635866  56.6957453  65.0910200  89.7003714  55.8111017
  70.1392385  81.3799577  63.2475798  69.8075709  82.2494988  63.0237013
  69.5437998  81.0635861  63.9269828  66.6323904  93.5812123  62.6471711
  66.3324627  94.4837162  62.5387518  66.2874964  93.3144306  63.4992864
  60.0836386  90.0325920  58.6808415  59.1586882  89.9002134  58.8886107
  60.3320799  90.8120139  59.1778357  70.0321048  86.0994663  60.3269148
  69.1237925  86.0310072  60.0327909  69.9808644  86.5766608  61.1550973
  63.8537792  87.5752802  51.9652547  63.7337417  88.0209853  52.8038027
  63.1590380  87.9238119  51.4066085  57.4445197  89.6759194  59.5152204
  57.5737578  89.9293673  60.4291616  56.7642648  90.2686902  59.1956859
  61.6144684 100.3456444  55.6142678  61.5368714 101.2964269  55.6931159
  61.0106327 100.0002316  56.2717605  64.1061914  87.5184309  68.2704045
  63.3295248  88.0778229  68.2606910  64.7452477  88.0041092  68.7918915
  71.8982694  84.3011102  62.1047022  71.2557074  84.5943635  61.4586816
  71.3937623  84.1864022  62.9100219  69.5522858  88.0474275  52.7932881
  70.4640714  88.2801662  52.6180579  69.0432505  88.6311319  52.2307960
  62.3608286  90.3269762  67.8322012  63.1022970  90.8654806  67.5556836
  61.6545271  90.9536051  67.9893564  67.8363626  92.4698903  66.4294174
  68.2446982  92.0281313  65.6848806  67.1140887  91.8951530  66.6828367
  64.1894696  87.4071510  63.8027731  65.0355891  87.8310923  63.9462380
  64.1293333  86.7505134  64.4966294  68.1592440  93.0300093  60.1846463
  67.5301303  93.1945808  59.4822530  67.7718102  93.4441703  60.9557427
  72.0381672  93.9654531  57.5390826  71.3532710  94.3453433  56.9887860
  72.1225521  94.5749858  58.2722774  67.3394141  85.0675878  65.4608904
  67.0955073  85.8217938  64.9243180  67.6154071  85.4461226  66.2956151
  69.2932604  91.6114490  64.1386170  69.5049499  92.2546250  63.4620551
  69.2462352  90.7776807  63.6708100  66.8958833  84.2232311  61.0422742
  66.0343312  84.5213565  61.3339480  66.9221267  84.4402710  60.1103775
  63.7120402  92.7674502  57.4496548  64.1758748  93.0462205  56.6601170
  63.4477200  91.8657946  57.2669638  60.6044483  92.3145983  60.3876311
  61.1745840  92.7433251  59.7493795  61.1952595  92.0328568  61.0860497
  62.6489288  88.8897654  54.2586113  63.3513331  89.3418698  54.7260039
  62.3169917  88.2481473  54.8866006  61.0969650  87.4809411  68.6337322
  60.4668310  88.1625691  68.8672719  60.9905738  87.3692492  67.6890460
  56.3914622  87.1481207  59.5603246  55.6013676  87.4038735  59.0843357
  56.8825869  87.9629544  59.6655287  70.4078432  94.4886446  62.3108527
  71.2295875  94.0866633  62.0291209  70.4040835  94.3854680  63.2624643
  58.3429367  87.5125786  56.5186723  57.5460531  87.6244480  57.0370219
  58.1154960  87.8512438  55.6527614  64.1735035  94.0370489  64.4669238
  64.2379468  94.4990896  65.3027410  63.4645959  93.4067854  64.5951548
  54.6752325  87.4011697  61.9918237  54.9260364  88.2858707  62.2575813
  55.2111873  87.2216299  61.2193329  78.4984425  90.8325194  58.6593499
  77.7448133  90.2632592  58.5037503  78.6331966  90.7987859  59.6064133
  63.8883053  95.7038597  54.3348218  63.7528728  96.5490132  54.7633066
  64.4292865  95.9057874  53.5714152  60.3750392  81.7830176  70.9962573
  59.9817338  81.2296375  71.6710217  61.1916533  82.0940755  71.3869091
  57.3412450  93.2214035  54.9076143  57.8536971  94.0157285  55.0581708
  57.9935163  92.5240325  54.8409745  59.1507335  96.3379791  56.9898896
  59.3273963  97.2597756  56.8019880  59.9464168  96.0238210  57.4193276
  63.2918353  83.1988055  68.5882830  64.0328067  83.7995209  68.5087292
  63.5236276  82.4565693  68.0300872  58.4359691  88.3844423  66.8661060
  58.3213207  87.4829680  67.1668158  57.5804209  88.6308119  66.5145876
  65.5151529  96.3262163  68.4648560  65.0715383  95.5398542  68.1469465
  66.1768743  96.5141314  67.7992451  60.2738650  97.8557965  62.9909239
  60.8246075  97.7275028  62.2186233  59.4350126  98.1552854  62.6404131
  67.6132767  96.6064963  66.4929961  67.5951243  97.4273844  66.0010231
  68.5352687  96.4819038  66.7180103  64.0705821  94.1209092  67.3353470
  64.6034158  93.3597381  67.1052778  63.5419902  93.8282744  68.0777624
  55.3061367  91.5502689  55.6835714  56.1436589  91.9599697  55.4669421
  55.4839635  90.6102131  55.6535908  67.2025799  89.2177770  51.3719547
  66.6872422  89.9882374  51.6107934  66.9303108  88.5442906  51.9952608
  64.7872910  84.0627470  56.4304785  63.9314506  83.6734321  56.2510424
  65.1999862  84.1419431  55.5704571  62.5614943  81.6812543  59.8362526
  63.4267939  81.4855352  59.4768416  62.6292452  81.4522895  60.7631883
  72.1760073  91.9710124  53.3072720  71.3989516  91.6321284  52.8627882
  72.8551554  91.9762747  52.6327685  66.9912102  87.0904862  53.1979328
  66.6862238  87.4051011  54.0489471  67.9442544  87.1686282  53.2406661
  65.4358534  93.2495085  54.8472282  64.9079896  92.5147845  54.5345519
  64.9346037  94.0269761  54.6012250  70.4151380  91.4444105  59.9639328
  69.7575055  92.1343367  60.0519457  71.2191779  91.8340537  60.3073314
  60.1677262  83.9114751  57.2078893  60.7421014  83.6889933  56.4752086
  60.7548244  83.9803446  57.9607495  69.2256839  89.7988478  58.0143270
  69.7388721  90.4318470  58.5164980  69.8758063  89.1989674  57.6486630
  63.5811134  91.0675295  47.8507255  62.6738196  90.8364549  48.0498404
  64.0782166  90.2712914  48.0381236  66.4879213  99.7772802  50.7703941
  65.8140912 100.0804499  51.3788899  66.8745035 100.5801883  50.4209398
  65.7037670  87.2737934  60.2601610  64.7860231  87.4952881  60.1023298
  66.1197813  87.3484244  59.4013318  66.4872718  88.6729349  55.3904291
  67.2344536  89.1850747  55.0811413  66.7564307  88.3513402  56.2508684
  64.7599368  91.1687890  52.3731245  63.8510587  90.8846923  52.4703715
  64.7894452  91.5886969  51.5134552  69.9918635  94.7794480  56.1422412
  69.5380962  93.9385389  56.1987603  69.3612602  95.4155878  56.4797193
  68.9351555  85.7086466  57.3723080  68.1974311  85.1963852  57.7033322
  69.1878328  85.2686847  56.5606357  68.4351574  96.6170976  57.0772231
  68.7274549  97.1776033  56.3584596  68.9450195  96.9099537  57.8325390
  55.3287538  88.8893404  56.3546447  55.1311938  88.2962765  55.6297514
  54.7734202  88.5845614  57.0722386  63.3084262  88.7816511  58.4741040
  63.3632872  87.8290347  58.3983517  62.4975464  88.9375950  58.9582339
  64.4575456  92.7096634  49.7119323  64.0194885  91.9932493  49.2524961
  65.1985896  92.9372749  49.1504415  61.2476622  87.3993570  56.2331419
  60.4344487  87.6987741  56.6396611  61.7435616  87.0049259  56.9505901
  63.3985200  97.3951327  58.1665684  63.3561378  97.6212174  57.2374216
  64.3147898  97.1614702  58.3151485  66.8450833  87.8635395  65.0646313
  67.2000221  88.0906868  65.9240779  67.4922965  88.1953772  64.4423568
  72.5748570  90.9853831  55.7695642  72.4366469  91.1755427  54.8416831
  72.2184789  91.7473214  56.2263693  60.7390696  84.9711926  61.8492654
  61.3790076  84.8300685  61.1515617  59.9068227  84.6846439  61.4731256
  72.6017950  93.0530358  60.7806914  73.0354457  92.9605647  61.6289968
  73.3149531  93.0287858  60.1426930  61.5151000  94.2714356  57.9627647
  62.3091599  93.7764676  57.7610221  60.8042693  93.7432219  57.5995352
  66.3345845  96.6532452  62.3140014  66.3882867  97.2223388  63.0817730
  65.4660626  96.8234337  61.9494051  57.8233764  88.4157438  54.0387399
  56.8931352  88.3541894  54.2557361  57.9191236  87.8933391  53.2424040
  57.7419313  84.9412251  56.6265641  58.0026130  85.8557584  56.5174801
  58.5636485  84.4736693  56.7762254  59.2144238  86.3550008  63.7964465
  59.8867292  86.1467370  63.1477114  58.3874025  86.1572094  63.3569698
  73.4633499  93.0954058  63.3139799  73.6569390  93.9999869  63.5599074
  73.3634118  92.6361478  64.1478384  65.1169810  82.9811949  65.8130126
  64.4697725  83.6801899  65.7194603  65.8870826  83.4148093  66.1806374
  68.5248608  93.2460801  68.8880680  68.3734115  93.0171353  67.9710763
  68.5153288  94.2031403  68.9012025  65.2933945  90.8192714  63.8726946
  66.2226005  90.9703874  63.6995913  64.8724975  90.9076735  63.0175593
  64.0922276  94.8443378  61.6425484  63.9533362  94.4762163  62.5151422
  63.3036873  95.3591018  61.4709441  64.6870428  99.9452475  52.9851020
  64.8622184  99.4740518  53.7996643  64.0003216 100.5718241  53.2132281
  65.6427491  94.2224981  59.0314321  65.3077324  94.1825751  59.9271971
  65.1431437  93.5569697  58.5584732  59.6171735  89.6292611  64.5566903
  59.4791533  88.8972850  65.1578442  60.5276659  89.5401511  64.2751090
  68.5786683  91.5681015  49.3051381  67.9615854  90.8427844  49.2084434
  68.1103172  92.3290376  48.9618455  62.2454036  89.3412570  64.0450582
  62.9553655  88.7005763  64.0037201  62.2023344  89.5925465  64.9676763
  70.2340815  96.2779924  66.9657161  70.1753361  95.5939144  66.2987744
  70.6360333  97.0198914  66.5137787  60.9582970  86.3277788  65.8646222
  60.4220327  85.8768527  66.5167818  60.3699679  86.4623697  65.1216686
  59.2531514 103.0941838  59.7590880  59.4928112 103.7260362  60.4369899
  58.4100710 102.7429878  60.0456240  70.2358222  94.2419508  65.1971141
  69.3485001  93.9045429  65.3197540  70.8056773  93.5102539  65.4339906
  51.8887369  90.5743599  58.5214192  52.5758409  90.2605329  57.9335208
  51.7335498  91.4784964  58.2481444  56.6922091  85.4633796  62.9499216
  56.6080280  84.8559466  62.2149626  55.8704798  85.9542814  62.9508713
  63.7659375  98.9020960  62.1632384  63.6929547  99.7075932  62.6751689
  63.3236769  99.1012926  61.3380406  63.5549155  98.1392730  55.6735206
  62.7716677  98.6814410  55.7673430  64.2541900  98.6566710  56.0729447
  66.8645805  83.9487360  58.3169411  67.3614505  83.1957322  57.9970481
  66.0932787  83.9851676  57.7512621  74.7175563  89.6527725  59.9587703
  74.7065439  90.5352440  59.5881636  73.8492942  89.2999276  59.7642240
  66.2258059  98.8007794  64.3190543  66.9386031  99.4355259  64.2466444
  65.7348088  98.8971660  63.5030545  67.9475586  92.7059047  55.8907835
  67.0131865  92.8260509  55.7212539  68.1252254  91.8031513  55.6267844
  63.4480774  86.0904742  58.0441096  63.0778561  85.5375783  58.7322001
  63.9439866  85.4862876  57.4916096  71.3348137  88.5476366  56.4257869
  71.8008589  89.3804358  56.3518171  71.7855638  88.0821348  57.1303127
  61.2769972  96.5502238  65.1396114  61.9779432  97.1838720  65.2925508
  60.8065087  96.8916969  64.3791753  69.4024368  94.8920187  53.4244021
  69.6784212  94.7776782  54.3337895  68.5328867  94.4937672  53.3856194
  69.3064800  80.9156953  60.4648770  68.3927880  81.1461180  60.6330977
  69.7357901  80.9995397  61.3162802  69.0771258  89.1046845  62.9648664
  68.4242709  89.3522752  62.3101117  69.4551638  88.2910983  62.6311141
  66.0378432  99.1406538  57.0676834  66.2200827  98.3228194  57.5304587
  66.8611418  99.3574230  56.6301724  66.3720598  98.0674723  54.3291883
  66.9008364  97.5567178  53.7162045  66.6348817  97.7517253  55.1937416
  65.1258831  89.8466656  69.4514701  64.4499469  89.7460785  70.1217076
  65.9486465  89.6905870  69.9150698  56.8737691  96.0838593  62.0727216
  57.4591127  95.3382280  62.2055121  56.6762529  96.3942549  62.9563880
  59.7276346  99.1189840  57.0889659  59.0586721  99.6035968  56.6053699
  59.5889215  99.3659060  58.0033037  51.4655345  88.6544193  60.7931660
  51.5039445  88.1207783  61.5868778  50.9595638  88.1279398  60.1742637
  63.8681614 101.1533583  63.6872317  64.4199922 101.3165205  64.4521402
  64.2087808 101.7438021  63.0152342  58.8446108  83.5008733  64.2894202
  58.9087434  84.3623564  63.8771600  58.7813228  82.8882735  63.5566560
  58.3198380  85.5731866  67.9367236  58.9470419  85.1908943  68.5504760
  57.4626299  85.3546068  68.3022929  68.7192489  95.9794841  69.5420972
  69.2632393  96.5924799  69.0475926  68.1379334  96.5374419  70.0587985
  55.0963923  87.3808295  53.8685591  55.3917364  86.4718973  53.8152645
  54.1951959  87.3596034  53.5466593  67.0050002  99.1015559  60.6735999
  66.8801141  98.3005299  60.1646945  67.6629093  99.5961752  60.1849969
  58.6258170  85.4564291  59.8513140  57.9044756  86.0700259  59.7120613
  59.4151426  85.9922056  59.7729786  69.0684910  96.9024579  62.3015549
  68.1215246  96.7829930  62.2293876  69.4167683  96.0147077  62.3841811
  61.4284483  82.7918718  66.1253791  61.9518885  83.0381015  66.8880101
  61.2096817  83.6238753  65.7056929  56.8251764  85.0622393  53.9924916
  56.4964471  84.1819771  53.8100022  57.1791135  85.0070061  54.8801305
  66.0731343  96.6977295  58.5019902  65.9256306  95.7694003  58.6827472
  66.8984837  96.7197386  58.0176977  59.9393588  85.3495362  54.3600394
  60.2789660  85.8781284  53.6379002  60.3865708  85.6875768  55.1358960
  69.6765465  97.5205854  59.5884774  70.6012013  97.3148715  59.4509226
  69.5080769  97.2722255  60.4974116  62.6337028  83.7332413  63.8103462
  62.2933849  82.9340226  64.2124142  61.9276035  84.0334124  63.2380295
  63.2853500  80.8181726  62.2630785  64.1079570  80.3442204  62.1409675
  63.5291564  81.5972209  62.7629471  60.8092079  87.5100846  60.0722764
  60.6636660  87.8241149  60.9647045  60.3317283  88.1285746  59.5193662
  62.6688462  84.5003394  60.1203653  62.6550031  83.6044487  59.7835951
  63.3860890  84.5074058  60.7541939  64.5214593  84.9340734  62.1656781
  64.2632370  85.8557805  62.1641111  63.9899633  84.5371169  62.8557245
  69.4660781  98.0391521  54.9446866  69.6397659  97.4737944  54.1920718
  69.9589673  98.8392416  54.7626356  55.2837741  90.0506191  63.0110425
  54.7391209  90.8265999  63.1430699  56.1617091  90.3976995  62.8529546
  75.3200173  90.8027944  56.5637166  75.7631319  90.0535270  56.1656289
  74.4426683  90.7938081  56.1810898  70.4535954  97.3558286  52.0443764
  71.1486858  97.9764979  52.2631079  70.7959104  96.5053637  52.3196142
  56.0703763  89.1776087  65.9040582  55.3285499  89.3258722  66.4905212
  55.7496507  89.4384352  65.0407331  72.3527377  94.8057991  53.5731095
  72.8778701  95.1445264  52.8480415  72.2649730  93.8705007  53.3894230
  64.0147426  98.7192065  65.7020972  64.3234552  98.4741212  66.5743671
  64.8122908  98.9238704  65.2139842  64.0368038 100.8729975  57.9326348
  63.5973028 100.3806353  58.6259205  64.7876155 100.3302942  57.6918423
  56.5160377  97.0641516  57.9350976  57.3418397  96.7645287  57.5549620
  56.1654429  96.2949138  58.3840765  61.4841910  96.4167984  60.0048650
  60.8621919  95.7538689  59.7050878  62.1546777  96.4429116  59.3222298
  54.7168982  94.9827842  58.8939910  53.8800890  94.5550016  58.7123911
  54.6892627  95.1760285  59.8310701  61.5566437  84.8949772  69.5981156
  61.6054593  85.7711895  69.2158925  62.0988952  84.3527165  69.0252799
  72.0421283  95.4390895  68.8782293  71.2516827  95.4215034  68.3386792
  71.8054638  95.9779189  69.6331329  72.1619158  92.2883361  66.1915021
  72.2117163  92.1233369  67.1330544  72.0533081  91.4210620  65.8012902
  61.0455417  94.9671907  53.4807110  61.1943537  95.6507372  52.8273783
  61.8521860  94.9476997  53.9956566  69.4522921  88.2714289  67.5074328
  70.3532783  88.1320754  67.2158326  69.5270895  88.4368744  68.4472506
  63.7865726  85.6481144  66.3527514  62.9169035  85.9414710  66.0810103
  64.0225206  86.2321589  67.0734778  73.6637355  94.7080303  66.4357043
  73.3722163  95.0710283  67.2720504  73.0509486  93.9947311  66.2570375
  74.8633037  92.2733183  58.9559613  75.6979929  92.7122987  59.1197174
  74.9992166  91.7971836  58.1367859  71.9124543  89.8312918  64.9037101
  72.3878665  90.0240564  64.0955952  70.9890109  89.8872103  64.6580485
  58.8008050  90.9937085  54.4868179  58.5554092  90.0899415  54.6848389
  58.9703964  90.9954235  53.5447657  66.4904760  81.8660761  63.8692935
  67.0086704  82.6021788  63.5439423  66.1359892  82.1724754  64.7039694
  64.5450822  97.4620038  50.9518858  63.9724789  98.0810225  50.4989330
  65.1183616  98.0119399  51.4858780  70.6126212  86.7078678  63.1365407
  71.5643635  86.8076775  63.1577631  70.4429663  85.9156946  63.6463491
  68.6340592  83.7934261  63.3224807  68.0390524  84.0739274  62.6271296
  68.3490288  84.2828162  64.0941549  67.7648082  97.7457188  52.0827440
  68.6978755  97.6802749  52.2860316  67.6771295  98.5813455  51.6241973
  70.3936099  97.0623058  49.0431388  70.3149730  96.7282922  49.9367146
  71.2145766  97.5544826  49.0422860  73.0914290  89.9284797  62.2507706
  73.0590610  88.9900798  62.4367390  73.7014914  90.0068834  61.5173531
  73.2408778  86.7195841  62.2965989  72.7247827  85.9354297  62.1095918
  74.1248727  86.3914557  62.4612509  78.9090840  90.9900804  61.3913743
  79.6394228  90.7286092  61.9521446  78.2997785  90.2529526  61.4315811
  76.9906137  89.1308667  61.9888194  76.2639301  88.9964632  61.3804686
  76.5753424  89.4385495  62.7944912  64.8136313  92.8498596  69.7535567
  65.7339323  93.0277195  69.9475614  64.7785896  91.9054642  69.6015267
  54.0318478  88.0437190  58.6788842  53.7121263  87.1902498  58.3863216
  53.4851907  88.2585768  59.4346809  57.8098386  90.7599631  62.3958348
  58.0284396  91.6916739  62.4146382  58.2224160  90.4007606  63.1813152
  62.6826251  86.3332837  71.7861097  62.5822978  87.2827194  71.7173188
  62.4647793  86.0051076  70.9137167  53.9006738  91.6640102  60.6481963
  53.2070210  91.2494054  60.1351918  54.6479729  91.7060638  60.0515382
  62.5457521  89.7629976  70.6026159  62.0624603  90.5630336  70.8090048
  62.6318460  89.7737921  69.6493603  55.8143481  91.5958355  58.5247978
  55.7914169  91.6946043  57.5729861  56.1244117  92.4423506  58.8465144
  58.4730859  93.6534510  62.6394593  59.4274112  93.6218453  62.5724524
  58.2743382  93.1925134  63.4544819  59.0630241  92.2235626  65.2065390
  59.8823130  92.7179705  65.2300228  59.3367049  91.3067595  65.1782958
  72.1711373  84.6392900  58.2847685  72.9471763  85.1289352  58.5572302
  71.4459507  85.0650954  58.7419555  74.6083932  85.3520519  59.3421626
  75.2028423  85.1116255  58.6314934  74.6810516  84.6327650  59.9695162
  56.8281088  99.1954130  59.6564791  56.6935555  98.4354531  59.0902789
  56.4113150  99.9195030  59.1893580  67.9640051  94.3791053  48.6641366
  68.6675901  94.5841056  49.2799022  67.2402699  94.9467815  48.9290449
  68.7937861  90.1300915  54.7843636  68.7373062  90.5869466  53.9451269
  69.3466203  89.3691599  54.6066479  76.9155005  88.6586720  58.1165047
  76.3554563  88.7279909  58.8896609  76.3098508  88.4827704  57.3964543
  59.9850213 100.0923447  59.8683233  59.8682598 101.0368879  59.7661924
  59.1642660  99.7897008  60.2569032  69.8726748  94.8173583  50.7139826
  70.7072352  94.3854781  50.5317301  69.7111091  94.6455596  51.6416720
  69.5272640  91.3205696  52.0796165  69.4721444  91.1549967  51.1384609
  68.9018695  92.0281729  52.2358355  54.3165155  86.5573760  65.9057587
  54.9624019  86.0472714  66.3944813  54.1082306  87.2942442  66.4801013
  66.8418547  93.6254608  71.4049728  67.7109707  93.7995260  71.0436363
  66.3625299  94.4449025  71.2825457  61.0104728 100.7451709  63.0839162
  61.9131974 100.7775319  63.4005657  60.7842098  99.8152160  63.0985497
  62.7658330  99.4982695  59.7449240  61.8153961  99.4984557  59.6313613
  63.0690816  98.7515430  59.2285275  58.6562646  83.7041377  70.0032602
  59.5194108  83.3478182  70.2135926  58.0828057  83.3655272  70.6908006
  78.5011023 105.3343234  60.8095003  79.1389433 105.2149981  60.1058343
  78.3831866 106.2824078  60.8682955  75.3100729 105.2870662  60.7456527
  74.9719241 105.1711727  59.8577062  76.1790498 104.8861827  60.7257534
  71.1687545 107.1406138  56.7353418  70.6052410 107.0496075  55.9669706
  71.0539940 106.3206043  57.2155911  75.7920512 106.4405514  66.7042733
  75.7809153 106.0458312  65.8323237  75.9541152 105.7071586  67.2976504
  68.7151977 108.6357330  59.5737639  69.5073269 108.2948155  59.1583938
  68.9548627 108.7452305  60.4939792  76.7487104 110.8077106  52.0467883
  76.0975084 111.3931186  51.6601897  77.5431467 111.3383301  52.1062921
  70.6742731 107.8966243  52.4455018  71.4473607 107.3495230  52.3067893
  71.0268130 108.7610492  52.6569479  72.5127773 109.2242625  65.6521917
  72.2217639 110.1288256  65.5368583  73.1484758 109.2659153  66.3665986
  73.4383980 106.6019474  62.2423277  74.0347553 106.3775496  61.5280240
  73.4958952 105.8604219  62.8448724  73.0109009 104.0558909  50.0773468
  73.2634529 103.5340431  49.3156931  72.0733568 103.8925055  50.1800151
  78.0552292 103.0594688  57.8848211  78.8415381 102.6414111  57.5338628
  78.3190996 103.9640780  58.0529859  78.2262369 108.4967538  52.5836868
  77.5908202 108.5702164  53.2957772  77.8959775 109.0861137  51.9055947
  83.4560719 102.9969921  58.7881189  84.1885891 102.4269138  59.0219019
  82.7000074 102.6091521  59.2287695  72.7305297 105.9587015  52.2797842
  72.6141556 105.2831919  52.9478927  72.8407557 105.4719389  51.4629996
  75.0736838 105.4197162  55.9844532  74.7095046 104.8927783  56.6957453
  75.9303954 105.0295631  55.8111017  80.9786139  96.7091495  63.2475798
  80.6469464  97.5786906  63.0237013  80.3831752  96.3927779  63.9269828
  74.7142325 100.4487062  50.9805880  74.8816728 101.3167298  51.3476351
  74.5239494 100.6114344  50.0567170  77.4717659 108.9104041  62.6471711
  77.1718382 109.8129080  62.5387518  77.1268718 108.6436224  63.4992864
  70.9230140 105.3617838  58.6808415  69.9980637 105.2294052  58.8886107
  71.1714553 106.1412057  59.1778357  80.8714802 101.4286581  60.3269148
  79.9631680 101.3601990  60.0327909  80.8202398 101.9058526  61.1550973
  74.6931546 102.9044719  51.9652547  74.5731171 103.3501770  52.8038027
  73.9984135 103.2530037  51.4066085  68.2838951 105.0051111  59.5152204
  68.4131332 105.2585590  60.4291616  67.6036402 105.5978819  59.1956859
  72.4538438 115.6748361  55.6142678  72.3762468 116.6256186  55.6931159
  71.8500082 115.3294234  56.2717605  74.9455668 102.8476227  68.2704045
  74.1689002 103.4070147  68.2606910  75.5846231 103.3333010  68.7918915
  82.7376449  99.6303019  62.1047022  82.0950829  99.9235553  61.4586816
  82.2331377  99.5155940  62.9100219  80.3916612 103.3766193  52.7932881
  81.3034469 103.6093579  52.6180579  79.8826259 103.9603237  52.2307960
  73.2002040 105.6561680  67.8322012  73.9416725 106.1946724  67.5556836
  72.4939026 106.2827969  67.9893564  78.6757380 107.7990820  66.4294174
  79.0840736 107.3573231  65.6848806  77.9534642 107.2243448  66.6828367
  75.0288450 102.7363427  63.8027731  75.8749645 103.1602841  63.9462380
  74.9687088 102.0797052  64.4966294  78.9986195 108.3592011  60.1846463
  78.3695057 108.5237725  59.4822530  78.6111857 108.7733621  60.9557427
  82.8775427 109.2946449  57.5390826  82.1926465 109.6745350  56.9887860
  82.9619276 109.9041776  58.2722774  78.1787895 100.3967796  65.4608904
  77.9348827 101.1509856  64.9243180  78.4547826 100.7753143  66.2956151
  80.1326358 106.9406408  64.1386170  80.3443253 107.5838168  63.4620551
  80.0856106 106.1068725  63.6708100  77.7352587  99.5524229  61.0422742
  76.8737066  99.8505482  61.3339480  77.7615022  99.7694628  60.1103775
  74.5514157 108.0966419  57.4496548  75.0152502 108.3754122  56.6601170
  74.2870955 107.1949864  57.2669638  71.4438238 107.6437901  60.3876311
  72.0139595 108.0725169  59.7493795  72.0346350 107.3620485  61.0860497
  73.4883043 104.2189572  54.2586113  74.1907086 104.6710615  54.7260039
  73.1563671 103.5773390  54.8866006  71.9363404 102.8101328  68.6337322
  71.3062065 103.4917609  68.8672719  71.8299492 102.6984410  67.6890460
  67.2308377 102.4773124  59.5603246  66.4407431 102.7330653  59.0843357
  67.7219624 103.2921462  59.6655287  81.2472186 109.8178363  62.3108527
  82.0689630 109.4158551  62.0291209  81.2434589 109.7146598  63.2624643
  69.1823122 102.8417703  56.5186723  68.3854285 102.9536398  57.0370219
  68.9548714 103.1804356  55.6527614  75.0128790 109.3662407  64.4669238
  75.0773222 109.8282814  65.3027410  74.3039713 108.7359772  64.5951548
  65.5146080 102.7303615  61.9918237  65.7654118 103.6150625  62.2575813
  66.0505628 102.5508216  61.2193329  89.3378179 106.1617112  58.6593499
  88.5841888 105.5924510  58.5037503  89.4725720 106.1279776  59.6064133
  74.7276807 111.0330514  54.3348218  74.5922482 111.8782050  54.7633066
  75.2686620 111.2349792  53.5714152  71.2144147  97.1122094  70.9962573
  70.8211092  96.5588293  71.6710217  72.0310287  97.4232673  71.3869091
  68.1806205 108.5505952  54.9076143  68.6930725 109.3449202  55.0581708
  68.8328917 107.8532243  54.8409745  69.9901089 111.6671709  56.9898896
  70.1667718 112.5889673  56.8019880  70.7857923 111.3530128  57.4193276
  74.1312108  98.5279973  68.5882830  74.8721821  99.1287126  68.5087292
  74.3630031  97.7857611  68.0300872  69.2753446 103.7136340  66.8661060
  69.1606961 102.8121598  67.1668158  68.4197964 103.9600037  66.5145876
  76.3545284 111.6554081  68.4648560  75.9109138 110.8690459  68.1469465
  77.0162497 111.8433231  67.7992451  71.1132405 113.1849882  62.9909239
  71.6639830 113.0566946  62.2186233  70.2743881 113.4844771  62.6404131
  78.4526522 111.9356881  66.4929961  78.4344997 112.7565762  66.0010231
  79.3746442 111.8110956  66.7180103  74.9099576 109.4501010  67.3353470
  75.4427913 108.6889298  67.1052778  74.3813657 109.1574662  68.0777624
  78.0769271  94.5561076  62.8647112  77.7333540  95.4462718  62.7886222
  78.4448233  94.3662734  62.0016697  66.1455121 106.8794607  55.6835714
  66.9830343 107.2891615  55.4669421  66.3233389 105.9394049  55.6535908
  78.0419554 104.5469687  51.3719547  77.5266177 105.3174292  51.6107934
  77.7696862 103.8734823  51.9952608  75.6266665  99.3919388  56.4304785
  74.7708261  99.0026238  56.2510424  76.0393616  99.4711349  55.5704571
  77.1565811  96.9265731  60.8296345  76.6530607  96.8895866  60.0164150
  77.4496418  97.8358474  60.8893001  73.4008697  97.0104461  59.8362526
  74.2661694  96.8147270  59.4768416  73.4686206  96.7814813  60.7631883
  83.0153828 107.3002042  53.3072720  82.2383270 106.9613201  52.8627882
  83.6945309 107.3054665  52.6327685  77.8305857 102.4196779  53.1979328
  77.5255992 102.7342928  54.0489471  78.7836299 102.4978199  53.2406661
  76.2752289 108.5787003  54.8472282  75.7473650 107.8439762  54.5345519
  75.7739791 109.3561679  54.6012250  81.2545135 106.7736023  59.9639328
  80.5968809 107.4635284  60.0519457  82.0585534 107.1632455  60.3073314
  71.0071016  99.2406669  57.2078893  71.5814768  99.0181850  56.4752086
  71.5941999  99.3095363  57.9607495  80.0650593 105.1280396  58.0143270
  80.5782475 105.7610388  58.5164980  80.7151817 104.5281591  57.6486630
  71.3340603 101.2711130  51.2274779  70.4977916 101.6085816  51.5484053
  71.1945373 101.1360110  50.2901916  73.3093684  96.1147918  55.9353963
  72.6558096  95.7996935  55.3110577  73.2674158  95.4923658  56.6613786
  74.4204889 106.3967213  47.8507255  73.5131950 106.1656466  48.0498404
  74.9175921 105.6004832  48.0381236  77.3272968 115.1064720  50.7703941
  76.6534666 115.4096417  51.3788899  77.7138790 115.9093800  50.4209398
  76.5431424 102.6029851  60.2601610  75.6253986 102.8244798  60.1023298
  76.9591568 102.6776162  59.4013318  77.3266472 104.0021267  55.3904291
  78.0738291 104.5142664  55.0811413  77.5958062 103.6805320  56.2508684
  75.5993122 106.4979808  52.3731245  74.6904341 106.2138841  52.4703715
  75.6288206 106.9178886  51.5134552  80.8312390 110.1086397  56.1422412
  80.3774717 109.2677307  56.1987603  80.2006356 110.7447796  56.4797193
  79.7745309 101.0378383  57.3723080  79.0368066 100.5255769  57.7033322
  80.0272083 100.5978765  56.5606357  79.2745329 111.9462894  57.0772231
  79.5668303 112.5067951  56.3584596  79.7843949 112.2391455  57.8325390
  79.8756936  93.8154635  57.9664849  80.1815813  92.9551999  57.6790764
  80.6009541  94.4072255  57.7663843  66.1681293 104.2185322  56.3546447
  65.9705692 103.6254683  55.6297514  65.6127957 103.9137532  57.0722386
  74.1478016 104.1108428  58.4741040  74.2026626 103.1582265  58.3983517
  73.3369218 104.2667867  58.9582339  75.2969210 108.0388551  49.7119323
  74.8588640 107.3224410  49.2524961  76.0379651 108.2664666  49.1504415
  72.0870376 102.7285488  56.2331419  71.2738242 103.0279659  56.6396611
  72.5829370 102.3341177  56.9505901  74.2378954 112.7243245  58.1665684
  74.1955133 112.9504091  57.2374216  75.1541653 112.4906620  58.3151485
  77.6844588 103.1927313  65.0646313  78.0393976 103.4198786  65.9240779
  78.3316719 103.5245689  64.4423568  83.4142325 106.3145748  55.7695642
  83.2760223 106.5047344  54.8416831  83.0578544 107.0765131  56.2263693
  71.5784451 100.3003844  61.8492654  72.2183830 100.1592603  61.1515617
  70.7461981 100.0138357  61.4731256  83.4411704 108.3822275  60.7806914
  83.8748211 108.2897565  61.6289968  84.1543285 108.3579776  60.1426930
  72.3544755 109.6006274  57.9627647  73.1485353 109.1056594  57.7610221
  71.6436447 109.0724137  57.5995352  77.1739599 111.9824370  62.3140014
  77.2276622 112.5515306  63.0817730  76.3054381 112.1526255  61.9494051
  68.6627518 103.7449356  54.0387399  67.7325106 103.6833811  54.2557361
  68.7584990 103.2225309  53.2424040  68.5813067 100.2704169  56.6265641
  68.8419885 101.1849502  56.5174801  69.4030240  99.8028611  56.7762254
  70.0537993 101.6841926  63.7964465  70.7261046 101.4759288  63.1477114
  69.2267779 101.4864012  63.3569698  84.3027254 108.4245976  63.3139799
  84.4963144 109.3291787  63.5599074  84.2027872 107.9653395  64.1478384
  75.9563565  98.3103867  65.8130126  75.3091480  99.0093816  65.7194603
  76.7264580  98.7440011  66.1806374  79.3642363 108.5752719  68.8880680
  79.2127869 108.3463271  67.9710763  79.3547042 109.5323320  68.9012025
  76.1327699 106.1484632  63.8726946  77.0619759 106.2995791  63.6995913
  75.7118729 106.2368652  63.0175593  74.9316031 110.1735296  61.6425484
  74.7927117 109.8054080  62.5151422  74.1430627 110.6882935  61.4709441
  75.5264183 115.2744392  52.9851020  75.7015938 114.8032436  53.7996643
  74.8396971 115.9010159  53.2132281  76.4821246 109.5516899  59.0314321
  76.1471079 109.5117669  59.9271971  75.9825192 108.8861615  58.5584732
  70.4565490 104.9584529  64.5566903  70.3185288 104.2264768  65.1578442
  71.3670413 104.8693429  64.2751090  79.4180438 106.8972933  49.3051381
  78.8009608 106.1719761  49.2084434  78.9496926 107.6582293  48.9618455
  73.0847791 104.6704488  64.0450582  73.7947409 104.0297680  64.0037201
  73.0417099 104.9217383  64.9676763  81.0734569 111.6071841  66.9657161
  81.0147115 110.9231062  66.2987744  81.4754088 112.3490831  66.5137787
  71.7976725 101.6569706  65.8646222  71.2614082 101.2060444  66.5167818
  71.2093433 101.7915615  65.1216686  70.0925268 118.4233755  59.7590880
  70.3321866 119.0552279  60.4369899  69.2494465 118.0721795  60.0456240
  71.2078984 101.1158357  48.4272685  70.3308450 100.9947158  48.0634932
  71.6836737 100.3244436  48.1751574  81.0751977 109.5711425  65.1971141
  80.1878755 109.2337347  65.3197540  81.6450528 108.8394457  65.4339906
  62.7281124 105.9035517  58.5214192  63.4152163 105.5897247  57.9335208
  62.5729252 106.8076882  58.2481444  67.5315846 100.7925714  62.9499216
  67.4474035 100.1851383  62.2149626  66.7098552 101.2834732  62.9508713
  74.6053130 114.2312878  62.1632384  74.5323301 115.0367849  62.6751689
  74.1630523 114.4304844  61.3380406  74.3942910 113.4684648  55.6735206
  73.6110431 114.0106328  55.7673430  75.0935655 113.9858627  56.0729447
  77.7039560  99.2779277  58.3169411  78.2008259  98.5249240  57.9970481
  76.9326541  99.3143594  57.7512621  85.5569317 104.9819643  59.9587703
  85.5459193 105.8644358  59.5881636  84.6886697 104.6291194  59.7642240
  77.0651813 114.1299712  64.3190543  77.7779786 114.7647177  64.2466444
  76.5741842 114.2263578  63.5030545  78.7869340 108.0350964  55.8907835
  77.8525619 108.1552427  55.7212539  78.9646009 107.1323431  55.6267844
  74.2874528 101.4196660  58.0441096  73.9172316 100.8667701  58.7322001
  74.7833621 100.8154794  57.4916096  82.1741892 103.8768284  56.4257869
  82.6402344 104.7096275  56.3518171  82.6249392 103.4113265  57.1303127
  72.1163727 111.8794155  65.1396114  72.8173186 112.5130638  65.2925508
  71.6458842 112.2208887  64.3791753  80.2418123 110.2212105  53.4244021
  80.5177967 110.1068700  54.3337895  79.3722622 109.8229590  53.3856194
  80.1458554  96.2448871  60.4648770  79.2321634  96.4753098  60.6330977
  80.5751656  96.3287315  61.3162802  79.9165013 104.4338763  62.9648664
  79.2636463 104.6814670  62.3101117  80.2945393 103.6202901  62.6311141
  76.8772187 114.4698456  57.0676834  77.0594581 113.6520112  57.5304587
  77.7005173 114.6866148  56.6301724  77.2114352 113.3966641  54.3291883
  77.7402119 112.8859096  53.7162045  77.4742572 113.0809171  55.1937416
  75.9652586 105.1758574  69.4514701  75.2893223 105.0752703  70.1217076
  76.7880220 105.0197787  69.9150698  67.7131445 111.4130510  62.0727216
  68.2984882 110.6674198  62.2055121  67.5156284 111.7234467  62.9563880
  70.5670100 114.4481758  57.0889659  69.8980476 114.9327885  56.6053699
  70.4282970 114.6950978  58.0033037  62.3049100 103.9836110  60.7931660
  62.3433199 103.4499701  61.5868778  61.7989393 103.4571316  60.1742637
  74.7075369 116.4825501  63.6872317  75.2593677 116.6457123  64.4521402
  75.0481562 117.0729939  63.0152342  69.6839862  98.8300651  64.2894202
  69.7481189  99.6915482  63.8771600  69.6206982  98.2174653  63.5566560
  69.1592135 100.9023783  67.9367236  69.7864173 100.5200861  68.5504760
  68.3020053 100.6837985  68.3022929  79.5586243 111.3086759  69.5420972
  80.1026147 111.9216717  69.0475926  78.9773088 111.8666337  70.0587985
  65.9357677 102.7100213  53.8685591  66.2311118 101.8010891  53.8152645
  65.0345713 102.6887952  53.5466593  77.8443756 114.4307477  60.6735999
  77.7194896 113.6297217  60.1646945  78.5022847 114.9253670  60.1849969
  69.4651924 100.7856209  59.8513140  68.7438510 101.3992177  59.7120613
  70.2545180 101.3213974  59.7729786  79.9078665 112.2316497  62.3015549
  78.9609000 112.1121848  62.2293876  80.2561438 111.3438995  62.3841811
  72.2678238  98.1210636  66.1253791  72.7912640  98.3672932  66.8880101
  72.0490571  98.9530670  65.7056929  67.6645519 100.3914310  53.9924916
  67.3358225  99.5111689  53.8100022  68.0184890 100.3361979  54.8801305
  76.9125098 112.0269213  58.5019902  76.7650060 111.0985920  58.6827472
  77.7378591 112.0489304  58.0176977  70.7787342 100.6787280  54.3600394
  71.1183415 101.2073201  53.6379002  71.2259463 101.0167686  55.1358960
  80.5159220 112.8497772  59.5884774  81.4405767 112.6440633  59.4509226
  80.3474523 112.6014173  60.4974116  73.4730783  99.0624331  63.8103462
  73.1327603  98.2632144  64.2124142  72.7669789  99.3626042  63.2380295
  74.1247255  96.1473643  62.2630785  74.9473324  95.6734121  62.1409675
  74.3685318  96.9264127  62.7629471  72.7655489  99.1761902  52.5593687
  73.4863852  99.5543154  52.0557403  72.1420793  99.8950778  52.6628665
  76.9086612  99.8807051  53.4952019  77.1250227 100.7631688  53.1940847
  76.4280679  99.4893264  52.7657661  71.6485834 102.8392764  60.0722764
  71.5030414 103.1533067  60.9647045  71.1711037 103.4577664  59.5193662
  73.5082216  99.8295312  60.1203653  73.4943785  98.9336405  59.7835951
  74.2254645  99.8365976  60.7541939  75.3608347 100.2632652  62.1656781
  75.1026125 101.1849723  62.1641111  74.8293387  99.8663087  62.8557245
  80.3054536 113.3683439  54.9446866  80.4791413 112.8029862  54.1920718
  80.7983427 114.1684334  54.7626356  66.1231496 105.3798108  63.0110425
  65.5784964 106.1557916  63.1430699  67.0010846 105.7268913  62.8529546
  72.9119112  98.7109692  55.3891223  73.0335024  97.7826338  55.5882111
  72.6221155  98.7248378  54.4769539  75.7810303  96.3964603  58.5257943
  75.8032000  96.4603936  57.5709923  76.1978362  95.5569111  58.7198449
  86.1593927 106.1319862  56.5637166  86.6025073 105.3827187  56.1656289
  85.2820437 106.1229998  56.1810898  81.2929708 112.6850204  52.0443764
  81.9880613 113.3056896  52.2631079  81.6352858 111.8345555  52.3196142
  66.9097518 104.5068005  65.9040582  66.1679254 104.6550640  66.4905212
  66.5890262 104.7676270  65.0407331  83.1921131 110.1349909  53.5731095
  83.7172456 110.4737182  52.8480415  83.1043484 109.1996924  53.3894230
  74.8541180 114.0483983  65.7020972  75.1628307 113.8033129  66.5743671
  75.6516662 114.2530621  65.2139842  74.8761792 116.2021892  57.9326348
  74.4366783 115.7098271  58.6259205  75.6269909 115.6594860  57.6918423
  67.3554131 112.3933433  57.9350976  68.1812151 112.0937205  57.5549620
  67.0048183 111.6241056  58.3840765  72.3235664 111.7459901  60.0048650
  71.7015674 111.0830606  59.7050878  72.9940531 111.7721033  59.3222298
  65.5562736 110.3119760  58.8939910  64.7194645 109.8841934  58.7123911
  65.5286382 110.5052203  59.8310701  72.3960192 100.2241689  69.5981156
  72.4448347 101.1003812  69.2158925  72.9382706  99.6819083  69.0252799
  82.8815038 110.7682813  68.8782293  82.0910581 110.7506952  68.3386792
  82.6448392 111.3071106  69.6331329  83.0012913 107.6175279  66.1915021
  83.0510918 107.4525287  67.1330544  82.8926836 106.7502538  65.8012902
  71.8849171 110.2963825  53.4807110  72.0337292 110.9799289  52.8273783
  72.6915615 110.2768915  53.9956566  80.2916675 103.6006207  67.5074328
  81.1926538 103.4612672  67.2158326  80.3664649 103.7660662  68.4472506
  74.6259480 100.9773062  66.3527514  73.7562790 101.2706628  66.0810103
  74.8618961 101.5613507  67.0734778  84.5031109 110.0372221  66.4357043
  84.2115918 110.4002201  67.2720504  83.8903241 109.3239229  66.2570375
  85.7026792 107.6025100  58.9559613  86.5373683 108.0414904  59.1197174
  85.8385921 107.1263754  58.1367859  82.7518298 105.1604835  64.9037101
  83.2272419 105.3532482  64.0955952  81.8283863 105.2164021  64.6580485
  69.6401804 106.3229002  54.4868179  69.3947846 105.4191332  54.6848389
  69.8097719 106.3246153  53.5447657  77.3298514  97.1952679  63.8692935
  77.8480458  97.9313706  63.5439423  76.9753647  97.5016672  64.7039694
  68.9097452 102.0557360  51.9854341  68.2166697 102.1301715  51.3294377
  68.6649204 101.2917704  52.5075858  77.5811108  93.6152961  59.3893831
  77.8612862  92.9476150  60.0154258  78.3661715  93.8082057  58.8768495
  75.3844577 112.7911955  50.9518858  74.8118544 113.4102142  50.4989330
  75.9577370 113.3411317  51.4858780  81.4519967 102.0370595  63.1365407
  82.4037390 102.1368693  63.1577631  81.2823417 101.2448864  63.6463491
  79.4734346  99.1226179  63.3224807  78.8784278  99.4031191  62.6271296
  79.1884043  99.6120079  64.0941549  78.6041837 113.0749105  52.0827440
  79.5372510 113.0094667  52.2860316  78.5165049 113.9105372  51.6241973
  81.2329853 112.3914976  49.0431388  81.1543485 112.0574839  49.9367146
  82.0539520 112.8836744  49.0422860  83.9308044 105.2576715  62.2507706
  83.8984365 104.3192716  62.4367390  84.5408668 105.3360752  61.5173531
  75.7691375 104.1272768  48.2934910  76.7150480 103.9978976  48.3623328
  75.3905620 103.3887430  48.7704338  84.0802533 102.0487758  62.2965989
  83.5641582 101.2646215  62.1095918  84.9642481 101.7206475  62.4612509
  81.7413260  95.7928774  58.2561802  81.5438081  95.4843862  59.1405134
  82.3512965  96.5190413  58.3859732  89.7484594 106.3192722  61.3913743
  90.4787983 106.0578010  61.9521446  89.1391540 105.5821444  61.4315811
  87.8299891 104.4600584  61.9888194  87.1033055 104.3256549  61.3804686
  87.4147178 104.7677413  62.7944912  75.6530068 108.1790514  69.7535567
  76.5733077 108.3569113  69.9475614  75.6179651 107.2346559  69.6015267
  73.9534292 102.0522744  48.2289795  73.0465748 101.7555857  48.3052509
  74.2310273 101.7552562  47.3624082  64.8712233 103.3729108  58.6788842
  64.5515017 102.5194416  58.3863216  64.3245661 103.5877686  59.4346809
  68.6492140 106.0891549  62.3958348  68.8678150 107.0208657  62.4146382
  69.0617914 105.7299523  63.1813152  75.5696358  96.5959634  54.3834037
  74.7597087  96.2506719  54.7589283  76.2580775  96.2867178  54.9721648
  77.4986906  95.6737681  56.0058333  78.0517945  96.0933134  56.6648357
  77.7356993  94.7473429  56.0481289  73.5220006 101.6624755  71.7861097
  73.4216733 102.6119112  71.7173188  73.3041548 101.3342993  70.9137167
  72.7233077  98.9109680  48.3701775  73.5852241  99.2364578  48.6297592
  72.9083421  98.1241175  47.8574840  64.7400493 106.9932019  60.6481963
  64.0463964 106.5785972  60.1351918  65.4873484 107.0352556  60.0515382
  80.8765714  97.7838206  55.5136998  80.2964383  98.4423010  55.1315050
  80.6101646  96.9615551  55.1024415  79.3269280  97.1843264  57.7158318
  79.8269058  97.2959798  56.9072637  79.9704888  96.8804317  58.3559126
  73.3851276 105.0921893  70.6026159  72.9018357 105.8922253  70.8090048
  73.4712215 105.1029838  69.6493603  66.6537235 106.9250273  58.5247978
  66.6307923 107.0237960  57.5729861  66.9637872 107.7715424  58.8465144
  69.3124613 108.9826428  62.6394593  70.2667867 108.9510370  62.5724524
  69.1137137 108.5217052  63.4544819  69.9023995 107.5527544  65.2065390
  70.7216884 108.0471623  65.2300228  70.1760803 106.6359512  65.1782958
  79.6590592  99.9438296  54.5693346  78.7716447 100.2287947  54.3513541
  80.0744581  99.7832060  53.7220623  83.0105128  99.9684817  58.2847685
  83.7865518 100.4581270  58.5572302  82.2853262 100.3942872  58.7419555
  85.4477686 100.6812437  59.3421626  86.0422177 100.4408173  58.6314934
  85.5204270  99.9619567  59.9695162  67.6674842 114.5246048  59.6564791
  67.5329310 113.7646448  59.0902789  67.2506904 115.2486947  59.1893580
  78.8033805 109.7082971  48.6641366  79.5069655 109.9132974  49.2799022
  78.0796454 110.2759733  48.9290449  79.6331615 105.4592832  54.7843636
  79.5766817 105.9161384  53.9451269  80.1859958 104.6983517  54.6066479
  83.4436421 101.2482564  55.6093756  83.1873355 100.8479200  56.4401963
  82.8189289 101.9626358  55.4843895  87.7548759 103.9878637  58.1165047
  87.1948317 104.0571827  58.8896609  87.1492262 103.8119622  57.3964543
  70.8243968 115.4215365  59.8683233  70.7076352 116.3660797  59.7661924
  70.0036414 115.1188926  60.2569032  80.7120502 110.1465500  50.7139826
  81.5466106 109.7146699  50.5317301  80.5504845 109.9747514  51.6416720
  80.3666395 106.6497614  52.0796165  80.3115198 106.4841885  51.1384609
  79.7412450 107.3573647  52.2358355  65.1558910 101.8865678  65.9057587
  65.8017773 101.3764632  66.3944813  64.9476061 102.6234360  66.4801013
  77.6812302 108.9546525  71.4049728  78.5503461 109.1287178  71.0436363
  77.2019053 109.7740942  71.2825457  73.6762520  96.1505723  51.6581484
  73.6641190  97.0947563  51.8149755  74.5685942  95.9675868  51.3640945
  71.8498482 116.0743626  63.0839162  72.7525729 116.1067237  63.4005657
  71.6235852 115.1444077  63.0985497  73.6052084 114.8274613  59.7449240
  72.6547715 114.8276475  59.6313613  73.9084570 114.0807348  59.2285275
  77.4914640  92.7448499  55.9127420  76.7247035  92.1906986  56.0584103
  77.9025345  92.8170368  56.7741572  69.4956401  99.0333295  70.0032602
  70.3587862  98.6770100  70.2135926  68.9221811  98.6947190  70.6908006
  89.3404778 120.6635151  60.8095003  89.9783187 120.5441899  60.1058343
  89.2225620 121.6115995  60.8682955  86.1494484 120.6162580  60.7456527
  85.8112995 120.5003644  59.8577062  87.0184252 120.2153745  60.7257534
  82.0081300 122.4698056  56.7353418  81.4446165 122.3787993  55.9669706
  81.8933695 121.6497960  57.2155911  86.6314267 121.7697431  66.7042733
  86.6202908 121.3750230  65.8323237  86.7934906 121.0363504  67.2976504
  79.5545731 123.9649248  59.5737639  80.3467023 123.6240072  59.1583938
  79.7942382 124.0744223  60.4939792  81.5136485 123.2258161  52.4455018
  82.2867361 122.6787148  52.3067893  81.8661884 124.0902410  52.6569479
  83.3521528 124.5534543  65.6521917  83.0611394 125.4580174  65.5368583
  83.9878512 124.5951071  66.3665986  84.2777735 121.9311392  62.2423277
  84.8741307 121.7067414  61.5280240  84.3352706 121.1896137  62.8448724
  83.8502763 119.3850827  50.0773468  84.1028284 118.8632348  49.3156931
  82.9127322 119.2216972  50.1800151  88.8946046 118.3886605  57.8848211
  89.6809135 117.9706028  57.5338628  89.1584750 119.2932697  58.0529859
  83.5699052 121.2878933  52.2797842  83.4535310 120.6123836  52.9478927
  83.6801312 120.8011307  51.4629996  85.9130593 120.7489080  55.9844532
  85.5488800 120.2219701  56.6957453  86.7697709 120.3587549  55.8111017
  91.8179893 112.0383413  63.2475798  91.4863218 112.9078824  63.0237013
  91.2225507 111.7219697  63.9269828  85.5536080 115.7778980  50.9805880
  85.7210482 116.6459216  51.3476351  85.3633249 115.9406261  50.0567170
  81.7623895 120.6909755  58.6808415  80.8374391 120.5585970  58.8886107
  82.0108308 121.4703975  59.1778357  91.7108557 116.7578499  60.3269148
  90.8025434 116.6893907  60.0327909  91.6596153 117.2350444  61.1550973
  85.5325301 118.2336637  51.9652547  85.4124926 118.6793688  52.8038027
  84.8377889 118.5821955  51.4066085  79.1232706 120.3343029  59.5152204
  79.2525087 120.5877508  60.4291616  78.4430157 120.9270737  59.1956859
  85.7849423 118.1768144  68.2704045  85.0082757 118.7362064  68.2606910
  86.4239986 118.6624927  68.7918915  93.5770203 114.9594937  62.1047022
  92.9344583 115.2527470  61.4586816  93.0725132 114.8447857  62.9100219
  91.2310367 118.7058110  52.7932881  92.1428223 118.9385497  52.6180579
  90.7220014 119.2895155  52.2307960  84.0395795 120.9853598  67.8322012
  84.7810479 121.5238642  67.5556836  83.3332780 121.6119886  67.9893564
  85.8682205 118.0655345  63.8027731  86.7143400 118.4894758  63.9462380
  85.8080842 117.4088969  64.4966294  89.0181650 115.7259713  65.4608904
  88.7742582 116.4801774  64.9243180  89.2941580 116.1045061  66.2956151
  88.5746342 114.8816146  61.0422742  87.7130821 115.1797400  61.3339480
  88.6008776 115.0986545  60.1103775  85.3907911 123.4258337  57.4496548
  85.8546257 123.7046040  56.6601170  85.1264709 122.5241781  57.2669638
  82.2831992 122.9729818  60.3876311  82.8533349 123.4017087  59.7493795
  82.8740104 122.6912403  61.0860497  84.3276797 119.5481489  54.2586113
  85.0300840 120.0002533  54.7260039  83.9957426 118.9065308  54.8866006
  82.7757159 118.1393246  68.6337322  82.1455819 118.8209527  68.8672719
  82.6693247 118.0276327  67.6890460  78.0702131 117.8065042  59.5603246
  77.2801185 118.0622570  59.0843357  78.5613378 118.6213380  59.6655287
  80.0216876 118.1709621  56.5186723  79.2248040 118.2828315  57.0370219
  79.7942469 118.5096273  55.6527614  76.3539834 118.0595532  61.9918237
  76.6047872 118.9442542  62.2575813  76.8899382 117.8800134  61.2193329
  82.0537901 112.4414012  70.9962573  81.6604847 111.8880210  71.6710217
  82.8704042 112.7524590  71.3869091  79.0199959 123.8797870  54.9076143
  79.5324480 124.6741120  55.0581708  79.6722672 123.1824160  54.8409745
  84.9705862 113.8571891  68.5882830  85.7115576 114.4579044  68.5087292
  85.2023785 113.1149529  68.0300872  80.1147200 119.0428258  66.8661060
  80.0000716 118.1413515  67.1668158  79.2591718 119.2891955  66.5145876
  88.9163025 109.8852994  62.8647112  88.5727295 110.7754635  62.7886222
  89.2841988 109.6954651  62.0016697  76.9848876 122.2086524  55.6835714
  77.8224098 122.6183533  55.4669421  77.1627144 121.2685966  55.6535908
  88.8813308 119.8761605  51.3719547  88.3659931 120.6466210  51.6107934
  88.6090616 119.2026741  51.9952608  86.4660419 114.7211306  56.4304785
  85.6102015 114.3318156  56.2510424  86.8787371 114.8003266  55.5704571
  87.9959566 112.2557649  60.8296345  87.4924361 112.2187784  60.0164150
  88.2890173 113.1650392  60.8893001  84.2402452 112.3396379  59.8362526
  85.1055448 112.1439187  59.4768416  84.3079961 112.1106730  60.7631883
  88.6699611 117.7488697  53.1979328  88.3649747 118.0634846  54.0489471
  89.6230053 117.8270117  53.2406661  81.8464771 114.5698587  57.2078893
  82.4208523 114.3473768  56.4752086  82.4335753 114.6387281  57.9607495
  82.1734358 116.6003048  51.2274779  81.3371670 116.9377734  51.5484053
  82.0339127 116.4652027  50.2901916  84.1487438 111.4439835  55.9353963
  83.4951851 111.1288853  55.3110577  84.1067913 110.8215576  56.6613786
  85.2598643 121.7259131  47.8507255  84.3525705 121.4948384  48.0498404
  85.7569675 120.9296750  48.0381236  87.3825179 117.9321769  60.2601610
  86.4647740 118.1536716  60.1023298  87.7985322 118.0068079  59.4013318
  88.1660227 119.3313185  55.3904291  88.9132045 119.8434582  55.0811413
  88.4351816 119.0097237  56.2508684  86.4386877 121.8271725  52.3731245
  85.5298096 121.5430758  52.4703715  86.4681960 122.2470804  51.5134552
  90.6139064 116.3670301  57.3723080  89.8761820 115.8547687  57.7033322
  90.8665837 115.9270683  56.5606357  90.7150691 109.1446553  57.9664849
  91.0209568 108.2843916  57.6790764  91.4403296 109.7364173  57.7663843
  77.0075047 119.5477240  56.3546447  76.8099447 118.9546600  55.6297514
  76.4521711 119.2429450  57.0722386  84.9871771 119.4400346  58.4741040
  85.0420381 118.4874182  58.3983517  84.1762973 119.5959785  58.9582339
  82.9264131 118.0577406  56.2331419  82.1131996 118.3571576  56.6396611
  83.4223125 117.6633095  56.9505901  88.5238342 118.5219230  65.0646313
  88.8787730 118.7490703  65.9240779  89.1710474 118.8537607  64.4423568
  82.4178205 115.6295761  61.8492654  83.0577585 115.4884520  61.1515617
  81.5855736 115.3430275  61.4731256  83.1938509 124.9298192  57.9627647
  83.9879108 124.4348512  57.7610221  82.4830202 124.4016055  57.5995352
  79.5021273 119.0741273  54.0387399  78.5718861 119.0125729  54.2557361
  79.5978745 118.5517226  53.2424040  79.4206822 115.5996086  56.6265641
  79.6813639 116.5141420  56.5174801  80.2423994 115.1320529  56.7762254
  80.8931747 117.0133843  63.7964465  81.5654801 116.8051206  63.1477114
  80.0661534 116.8155929  63.3569698  86.7957319 113.6395784  65.8130126
  86.1485234 114.3385734  65.7194603  87.5658335 114.0731928  66.1806374
  86.9721454 121.4776549  63.8726946  87.9013514 121.6287709  63.6995913
  86.5512484 121.5660570  63.0175593  81.2959244 120.2876446  64.5566903
  81.1579042 119.5556685  65.1578442  82.2064168 120.1985347  64.2751090
  83.9241545 119.9996406  64.0450582  84.6341164 119.3589598  64.0037201
  83.8810853 120.2509301  64.9676763  82.6370479 116.9861624  65.8646222
  82.1007836 116.5352362  66.5167818  82.0487188 117.1207532  65.1216686
  82.0472738 116.4450275  48.4272685  81.1702204 116.3239076  48.0634932
  82.5230491 115.6536353  48.1751574  73.5674878 121.2327435  58.5214192
  74.2545918 120.9189165  57.9335208  73.4123007 122.1368799  58.2481444
  78.3709600 116.1217631  62.9499216  78.2867789 115.5143301  62.2149626
  77.5492307 116.6126650  62.9508713  88.5433314 114.6071195  58.3169411
  89.0402014 113.8541157  57.9970481  87.7720296 114.6435512  57.7512621
  85.1268283 116.7488578  58.0441096  84.7566070 116.1959618  58.7322001
  85.6227375 116.1446711  57.4916096  90.9852309 111.5740788  60.4648770
  90.0715389 111.8045015  60.6330977  91.4145410 111.6579232  61.3162802
  90.7558767 119.7630680  62.9648664  90.1030218 120.0106588  62.3101117
  91.1339147 118.9494818  62.6311141  86.8046340 120.5050491  69.4514701
  86.1286977 120.4044621  70.1217076  87.6273974 120.3489705  69.9150698
  78.5525200 126.7422428  62.0727216  79.1378636 125.9966116  62.2055121
  78.3550038 127.0526385  62.9563880  73.1442854 119.3128028  60.7931660
  73.1826954 118.7791619  61.5868778  72.6383147 118.7863234  60.1742637
  80.5233617 114.1592569  64.2894202  80.5874943 115.0207400  63.8771600
  80.4600737 113.5466570  63.5566560  79.9985889 116.2315701  67.9367236
  80.6257928 115.8492778  68.5504760  79.1413808 116.0129903  68.3022929
  76.7751432 118.0392130  53.8685591  77.0704873 117.1302809  53.8152645
  75.8739468 118.0179870  53.5466593  80.3045679 116.1148127  59.8513140
  79.5832265 116.7284095  59.7120613  81.0938935 116.6505892  59.7729786
  83.1071992 113.4502553  66.1253791  83.6306394 113.6964850  66.8880101
  82.8884326 114.2822588  65.7056929  78.5039273 115.7206228  53.9924916
  78.1751980 114.8403607  53.8100022  78.8578644 115.6653897  54.8801305
  81.6181097 116.0079198  54.3600394  81.9577169 116.5365119  53.6379002
  82.0653217 116.3459604  55.1358960  84.3124537 114.3916248  63.8103462
  83.9721358 113.5924062  64.2124142  83.6063544 114.6917959  63.2380295
  84.9641009 111.4765561  62.2630785  85.7867079 111.0026039  62.1409675
  85.2079073 112.2556045  62.7629471  83.6049244 114.5053819  52.5593687
  84.3257606 114.8835072  52.0557403  82.9814548 115.2242696  52.6628665
  87.7480367 115.2098968  53.4952019  87.9643981 116.0923606  53.1940847
  87.2674434 114.8185182  52.7657661  82.4879588 118.1684682  60.0722764
  82.3424169 118.4824985  60.9647045  82.0104792 118.7869582  59.5193662
  84.3475971 115.1587230  60.1203653  84.3337540 114.2628323  59.7835951
  85.0648399 115.1657893  60.7541939  86.2002102 115.5924570  62.1656781
  85.9419879 116.5141640  62.1641111  85.6687142 115.1955004  62.8557245
  76.9625250 120.7090026  63.0110425  76.4178718 121.4849834  63.1430699
  77.8404600 121.0560830  62.8529546  83.7512867 114.0401610  55.3891223
  83.8728778 113.1118256  55.5882111  83.4614909 114.0540296  54.4769539
  86.6204057 111.7256520  58.5257943  86.6425754 111.7895853  57.5709923
  87.0372116 110.8861029  58.7198449  77.7491272 119.8359922  65.9040582
  77.0073008 119.9842558  66.4905212  77.4284016 120.0968188  65.0407331
  78.1947886 127.7225351  57.9350976  79.0205906 127.4229123  57.5549620
  77.8441938 126.9532973  58.3840765  76.3956491 125.6411677  58.8939910
  75.5588399 125.2133852  58.7123911  76.3680136 125.8344121  59.8310701
  83.2353946 115.5533607  69.5981156  83.2842102 116.4295730  69.2158925
  83.7776461 115.0111000  69.0252799  91.1310429 118.9298125  67.5074328
  92.0320292 118.7904590  67.2158326  91.2058404 119.0952580  68.4472506
  85.4653235 116.3064980  66.3527514  84.5956544 116.5998546  66.0810103
  85.7012715 116.8905425  67.0734778  80.4795559 121.6520920  54.4868179
  80.2341601 120.7483250  54.6848389  80.6491473 121.6538071  53.5447657
  88.1692269 112.5244596  63.8692935  88.6874213 113.2605623  63.5439423
  87.8147401 112.8308590  64.7039694  79.7491206 117.3849278  51.9854341
  79.0560451 117.4593633  51.3294377  79.5042958 116.6209621  52.5075858
  88.4204863 108.9444879  59.3893831  88.7006617 108.2768068  60.0154258
  89.2055470 109.1373975  58.8768495  92.2913721 117.3662513  63.1365407
  93.2431144 117.4660611  63.1577631  92.1217172 116.5740782  63.6463491
  90.3128101 114.4518096  63.3224807  89.7178033 114.7323109  62.6271296
  90.0277797 114.9411997  64.0941549  86.6085130 119.4564686  48.2934910
  87.5544235 119.3270894  48.3623328  86.2299375 118.7179348  48.7704338
  94.9196287 117.3779676  62.2965989  94.4035336 116.5938133  62.1095918
  95.8036236 117.0498393  62.4612509  92.5807014 111.1220692  58.2561802
  92.3831835 110.8135780  59.1405134  93.1906720 111.8482331  58.3859732
  84.7928047 117.3814662  48.2289795  83.8859502 117.0847775  48.3052509
  85.0704028 117.0844480  47.3624082  75.7105987 118.7021025  58.6788842
  75.3908772 117.8486334  58.3863216  75.1639416 118.9169604  59.4346809
  79.4885895 121.4183466  62.3958348  79.7071905 122.3500574  62.4146382
  79.9011669 121.0591441  63.1813152  86.4090113 111.9251552  54.3834037
  85.5990841 111.5798637  54.7589283  87.0974530 111.6159096  54.9721648
  88.3380661 111.0029599  56.0058333  88.8911700 111.4225052  56.6648357
  88.5750747 110.0765347  56.0481289  84.3613760 116.9916672  71.7861097
  84.2610487 117.9411029  71.7173188  84.1435302 116.6634911  70.9137167
  83.5626832 114.2401597  48.3701775  84.4245996 114.5656496  48.6297592
  83.7477176 113.4533093  47.8574840  75.5794247 122.3223937  60.6481963
  74.8857719 121.9077890  60.1351918  76.3267238 122.3644473  60.0515382
  91.7159468 113.1130124  55.5136998  91.1358137 113.7714928  55.1315050
  91.4495401 112.2907468  55.1024415  90.1663034 112.5135181  57.7158318
  90.6662813 112.6251716  56.9072637  90.8098642 112.2096234  58.3559126
  84.2245030 120.4213811  70.6026159  83.7412112 121.2214171  70.8090048
  84.3105969 120.4321756  69.6493603  77.4930990 122.2542191  58.5247978
  77.4701678 122.3529878  57.5729861  77.8031626 123.1007342  58.8465144
  80.1518368 124.3118346  62.6394593  81.1061621 124.2802288  62.5724524
  79.9530891 123.8508970  63.4544819  80.7417750 122.8819462  65.2065390
  81.5610639 123.3763540  65.2300228  81.0154558 121.9651430  65.1782958
  90.4984346 115.2730214  54.5693346  89.6110201 115.5579865  54.3513541
  90.9138335 115.1123977  53.7220623  93.8498882 115.2976735  58.2847685
  94.6259272 115.7873188  58.5572302  93.1247016 115.7234789  58.7419555
  96.2871441 116.0104354  59.3421626  96.8815932 115.7700090  58.6314934
  96.3598025 115.2911485  59.9695162  94.2830176 116.5774482  55.6093756
  94.0267110 116.1771118  56.4401963  93.6583044 117.2918276  55.4843895
  75.9952664 117.2157596  65.9057587  76.6411528 116.7056550  66.3944813
  75.7869815 117.9526277  66.4801013  84.5156275 111.4797640  51.6581484
  84.5034944 112.4239480  51.8149755  85.4079696 111.2967786  51.3640945
  88.3308394 108.0740417  55.9127420  87.5640790 107.5198904  56.0584103
  88.7419099 108.1462286  56.7741572  80.3350155 114.3625213  70.0032602
  81.1981617 114.0062018  70.2135926  79.7615566 114.0239108  70.6908006
  24.3042252   5.6945768  47.5340309  24.9420662   5.5752515  46.8303649
  24.1863095   6.6426612  47.5928262  21.1131958   5.6473196  47.4701834
  20.7750470   5.5314261  46.5822369  21.9821726   5.2464361  47.4502840
  16.9718774   7.5008672  43.4598725  16.4083639   7.4098609  42.6915013
  16.8571169   6.6808577  43.9401218  21.5951741   6.8008048  53.4288040
  21.5840382   6.4060846  52.5568543  21.7572381   6.0674120  54.0221811
  14.5183206   8.9959864  46.2982945  15.3104498   8.6550689  45.8829245
  14.7579856   9.1054839  47.2185099  22.5518333  11.1679640  38.7713190
  21.9006312  11.7533721  38.3847204  23.3462695  11.6985835  38.8308227
  16.4773960   8.2568777  39.1700324  17.2504836   7.7097764  39.0313200
  16.8299359   9.1213027  39.3814786  18.3159002   9.5845160  52.3767224
  18.0248868  10.4890790  52.2613890  18.9515987   9.6261687  53.0911293
  19.2415209   6.9622008  48.9668583  19.8378781   6.7378031  48.2525546
  19.2990181   6.2206754  49.5694031  23.8583520   3.4197222  44.6093517
  24.6446610   3.0016645  44.2583934  24.1222225   4.3243314  44.7775166
  24.0293598   8.8570072  39.3082174  23.3939431   8.9304699  40.0203079
  23.6991004   9.4463671  38.6301253  29.2591947   3.3572455  45.5126496
  29.9917119   2.7871672  45.7464325  28.5031303   2.9694055  45.9533001
  18.5336526   6.3189549  39.0043149  18.4172784   5.6434453  39.6724233
  18.6438786   5.8321923  38.1875302  20.8768067   5.7799697  42.7089838
  20.5126274   5.2530317  43.4202760  21.7335183   5.3898166  42.5356324
  23.2748887   9.2706575  49.3717017  22.9749610  10.1731614  49.2632824
  22.9299947   9.0038758  50.2238170  26.6746031   1.7889115  47.0514455
  25.7662908   1.7204524  46.7573216  26.6233627   2.2661060  47.8796280
  18.2569667  16.0350895  42.3387985  18.1793697  16.9858721  42.4176466
  17.6531311  15.6896768  42.9962911  28.5407678  -0.0094446  48.8292328
  27.8982058   0.2838087  48.1832123  28.0362606  -0.1241526  49.6345525
  26.1947841   3.7368727  39.5178188  27.1065697   3.9696114  39.3425885
  25.6857488   4.3205771  38.9553266  19.0033269   6.0164214  54.5567319
  19.7447954   6.5549258  54.2802142  18.2970255   6.6430503  54.7138871
  24.4788609   8.1593355  53.1539480  24.8871965   7.7175765  52.4094113
  23.7565870   7.5845982  53.4073673  24.8017424   8.7194545  46.9091769
  24.1726286   8.8840259  46.2067837  24.4143086   9.1336155  47.6802733
  28.6806655   9.6548983  44.2636133  27.9957694  10.0347885  43.7133166
  28.7650505  10.2644310  44.9968081  25.9357587   7.3008942  50.8631477
  26.1474482   7.9440702  50.1865858  25.8887335   6.4671259  50.3953407
  20.3545385   8.4568953  44.1741854  20.8183731   8.7356656  43.3846477
  20.0902184   7.5552398  43.9914945  17.2469466   8.0040435  47.1121618
  17.8170824   8.4327703  46.4739102  17.8377578   7.7223020  47.8105803
  27.0503415  10.1780898  49.0353834  27.8720859   9.7761085  48.7536515
  27.0465818  10.0749132  49.9869950  20.8160018   9.7264941  51.1914544
  20.8804451  10.1885348  52.0272716  20.1070942   9.0962306  51.3196854
  35.1409408   6.5219646  45.3838805  34.3873116   5.9527044  45.2282810
  35.2756949   6.4882311  46.3309440  20.5308036  11.3933048  41.0593525
  20.3953711  12.2384584  41.4878372  21.0717849  11.5952326  40.2959458
  13.9837433   8.9108486  41.6321450  14.4961954   9.7051737  41.7827014
  14.6360146   8.2134777  41.5655051  15.7932318  12.0274243  43.7144203
  15.9698947  12.9492207  43.5265187  16.5889152  11.7132662  44.1438583
  22.1576512  12.0156615  55.1893867  21.7140367  11.2292993  54.8714771
  22.8193726  12.2035765  54.5237758  16.9163634  13.5452417  49.7154545
  17.4671059  13.4169480  48.9431539  16.0775110  13.8447306  49.3649438
  24.2557751  12.2959415  53.2175268  24.2376226  13.1168296  52.7255537
  25.1777671  12.1713490  53.4425409  20.7130805   9.8103544  54.0598776
  21.2459141   9.0491833  53.8298084  20.1844886   9.5177196  54.8022931
  23.8450782   4.9072221  38.0964853  23.3297406   5.6776826  38.3353241
  23.5728091   4.2337358  38.7197915  28.8185056   7.6604576  40.0318027
  28.0414499   7.3215736  39.5873189  29.4976537   7.6657199  39.3572992
  23.6337086   2.7799314  39.9224634  23.3287221   3.0945463  40.7734778
  24.5867528   2.8580733  39.9651967  22.0783517   8.9389537  41.5717588
  21.5504879   8.2042296  41.2590826  21.5771020   9.7164213  41.3257557
  27.0576363   7.1338557  46.6884635  26.4000038   7.8237819  46.7764763
  27.8616763   7.5234989  47.0318621  25.8681822   5.4882930  44.7388576
  26.3813704   6.1212922  45.2410286  26.5183046   4.8884126  44.3731936
  20.2236118   6.7569747  34.5752561  19.3163179   6.5259001  34.7743710
  20.7207150   5.9607366  34.7626543  23.1304196  15.4667254  37.4949248
  22.4565895  15.7698951  38.1034205  23.5170018  16.2696335  37.1454705
  22.3462653   2.9632386  46.9846917  21.4285214   3.1847333  46.8268605
  22.7622797   3.0378696  46.1258624  23.1297701   4.3623801  42.1149597
  23.8769520   4.8745198  41.8056719  23.3989290   4.0407854  42.9753991
  21.4024351   6.8582342  39.0976552  20.4935570   6.5741375  39.1949021
  21.4319435   7.2781421  38.2379858  26.6343618  10.4688931  42.8667719
  26.1805946   9.6279841  42.9232910  26.0037585  11.1050330  43.2042499
  25.5776538   1.3980917  44.0968387  24.8399295   0.8858304  44.4278629
  25.8303312   0.9581299  43.2851663  25.0776558  12.3065428  43.8017537
  25.3699532  12.8670485  43.0829903  25.5875178  12.5993989  44.5570696
  21.1000439   8.3991086  36.4364630  20.6619869   7.6826945  35.9770267
  21.8410880   8.6267200  35.8749721  20.0410183  13.0845779  44.8910990
  19.9986362  13.3106626  43.9619522  20.9572882  12.8509154  45.0396792
  23.4875817   3.5529847  51.7891620  23.8425204   3.7801320  52.6486085
  24.1347948   3.8848224  51.1668875  29.2173554   6.6748283  42.4940949
  29.0791452   6.8649879  41.5662138  28.8609772   7.4367665  42.9509000
  29.2442933   8.7424810  47.5052220  29.6779440   8.6500099  48.3535274
  29.9574514   8.7182310  46.8672236  18.1575984   9.9608808  44.6872953
  18.9516582   9.4659128  44.4855528  17.4467676   9.4326671  44.3240659
  22.9770828  12.3426904  49.0385321  23.0307850  12.9117840  49.8063037
  22.1085609  12.5128789  48.6739358  30.1058483   8.7848510  50.0385106
  30.2994373   9.6894321  50.2844381  30.0059101   8.3255929  50.8723691
  25.1673591   8.9355253  55.6125986  25.0159098   8.7065805  54.6956070
  25.1578271   9.8925854  55.6257331  21.9358928   6.5087166  50.5972253
  22.8650988   6.6598325  50.4241220  21.5149958   6.5971187  49.7420899
  20.7347260  10.5337830  48.3670790  20.5958345  10.1656615  49.2396728
  19.9461856  11.0485470  48.1954748  21.3295412  15.6346927  39.7096327
  21.5047167  15.1634970  40.5241949  20.6428200  16.2612693  39.9377588
  22.2852475   9.9119433  45.7559628  21.9502307   9.8720203  46.6517278
  21.7856420   9.2464149  45.2830038  25.2211666   7.2575467  36.0296688
  24.6040837   6.5322295  35.9329740  24.7528155   8.0184828  35.6863762
  18.8879019   5.0307022  50.7695889  19.5978638   4.3900214  50.7282507
  18.8448328   5.2819917  51.6922070  26.8765798  11.9674376  53.6902468
  26.8178344  11.2833596  53.0233051  27.2785316  12.7093366  53.2383094
  15.8956497  18.7836289  46.4836187  16.1353095  19.4154814  47.1615206
  15.0525693  18.4324329  46.7701546  26.8783205   9.9313960  51.9216448
  25.9909984   9.5939881  52.0442847  27.4481756   9.1996991  52.1585213
  20.4084359  14.5915412  48.8877691  20.3354530  15.3970383  49.3996995
  19.9661752  14.7907378  48.0625712  20.1974138  13.8287182  42.3980512
  19.4141660  14.3708862  42.4918737  20.8966884  14.3461162  42.7974754
  31.3600546   5.3422177  46.6833009  31.3490422   6.2246892  46.3126942
  30.4917925   4.9893728  46.4887546  22.8683042  14.4902246  51.0435850
  23.5811014  15.1249711  50.9711751  22.3773071  14.5866112  50.2275851
  24.5900569   8.3953499  42.6153141  23.6556848   8.5154961  42.4457846
  24.7677238   7.4925965  42.3513151  27.9773121   4.2370818  43.1503175
  28.4433573   5.0698809  43.0763478  28.4280621   3.7715799  43.8548434
  17.9194956  12.2396689  51.8641420  18.6204415  12.8733172  52.0170815
  17.4490071  12.5811421  51.1037060  26.0449352  10.5814639  40.1489327
  26.3209196  10.4671234  41.0583202  25.1753850  10.1832124  40.1101501
  25.7196242   4.7941297  49.6893971  25.0667692   5.0417204  49.0346424
  26.0976622   3.9805435  49.3556448  22.6803416  14.8300990  43.7922141
  22.8625810  14.0122646  44.2549893  23.5036402  15.0468682  43.3547031
  23.0145581  13.7569175  41.0537190  23.5433348  13.2461630  40.4407352
  23.2773801  13.4411705  41.9182723  21.7683815   5.5361108  56.1760008
  21.0924452   5.4355237  56.8462383  22.5911449   5.3800322  56.6396005
  13.5162674  11.7733044  48.7972523  14.1016111  11.0276732  48.9300427
  13.3187512  12.0837001  49.6809187  16.3701329  14.8084292  43.8134965
  15.7011704  15.2930419  43.3299006  16.2314199  15.0553512  44.7278344
  20.5106598  16.8428035  50.4117624  21.0624906  17.0059657  51.1766709
  20.8512791  17.4332473  49.7397649  25.3617472  11.6689293  56.2666278
  25.9057376  12.2819251  55.7721233  24.7804317  12.2268871  56.7833291
  23.6474985  14.7910011  47.3981306  23.5226124  13.9899751  46.8892251
  24.3054076  15.2856204  46.9095276  25.7109893  12.5919031  49.0260856
  24.7640229  12.4724382  48.9539183  26.0592666  11.7041529  49.1087118
  22.7156327  12.3871747  45.2265208  22.5681289  11.4588455  45.4072778
  23.5409820  12.4091838  44.7422284  26.3190448  13.2100306  46.3130081
  27.2436996  13.0043167  46.1754532  26.1505752  12.9616707  47.2219423
  26.1085765  13.7285973  41.6692173  26.2822642  13.1632396  40.9166025
  26.6014656  14.5286868  41.4871662  31.9625156   6.4922396  43.2882472
  32.4056302   5.7429722  42.8901596  31.0851666   6.4832533  42.9056204
  27.0960937  13.0452738  38.7689071  27.7911842  13.6659430  38.9876385
  27.4384087  12.1948089  39.0441449  28.9952360  10.4952443  40.2976402
  29.5203684  10.8339716  39.5725722  28.9074713   9.5599459  40.1139536
  20.6572409  14.4086517  52.4266278  20.9659535  14.1635664  53.2988978
  21.4547891  14.6133155  51.9385148  20.6793021  16.5624427  44.6571655
  20.2398011  16.0700805  45.3504511  21.4301138  16.0197394  44.4163730
  13.1585360  12.7535967  44.6596283  13.9843380  12.4539739  44.2794926
  12.8079412  11.9843590  45.1086072  18.1266893  12.1062436  46.7293956
  17.5046902  11.4433141  46.4296184  18.7971760  12.1323568  46.0467604
  28.6846266  11.1285347  55.6027600  27.8941810  11.1109486  55.0632099
  28.4479621  11.6673641  56.3576636  28.8044141   7.9777813  52.9160328
  28.8542146   7.8127821  53.8575851  28.6958065   7.1105072  52.5258209
  17.6880400  10.6566359  40.2052417  17.8368520  11.3401823  39.5519090
  18.4946844  10.6371449  40.7201873  26.0947904   3.9608741  54.2319635
  26.9957767   3.8215206  53.9403633  26.1695878   4.1263196  55.1717812
  30.3062338  10.3974755  53.1602350  30.0147147  10.7604735  53.9965811
  29.6934470   9.6841763  52.9815682  31.5058021   7.9627635  45.6804920
  32.3404912   8.4017439  45.8442480  31.6417149   7.4866288  44.8613166
  28.5549526   5.5207369  51.6282408  29.0303648   5.7135016  50.8201259
  27.6315092   5.5766555  51.3825791  21.1875806  13.1514489  37.6764164
  20.6149773  13.7704677  37.2234636  21.7608599  13.7013851  38.2104086
  27.2551195   2.3973130  49.8610713  28.2068618   2.4971227  49.8822937
  27.0854646   1.6051398  50.3708798  24.4073065  13.4351640  38.8072747
  25.3403739  13.3697201  39.0105622  24.3196278  14.2707906  38.3487279
  27.0361082  12.7517510  35.7676694  26.9574714  12.4177374  36.6612452
  27.8570749  13.2439278  35.7668167  29.7339273   5.6179249  48.9753013
  29.7015593   4.6795250  49.1612697  30.3439897   5.6963286  48.2418838
  21.5722604   4.4875302  35.0180217  22.5181709   4.3581510  35.0868635
  21.1936849   3.7489964  35.4949645  29.8833762   2.4090293  49.0211296
  29.3672810   1.6248749  48.8341225  30.7673710   2.0809009  49.1857816
  35.5515823   6.6795256  48.1159050  36.2819212   6.4180544  48.6766753
  34.9422769   5.9423978  48.1561118  33.6331120   4.8203119  48.7133501
  32.9064284   4.6859084  48.1049992  33.2178407   5.1279947  49.5190219
  21.4561297   8.5393048  56.4780874  22.3764306   8.7171647  56.6720920
  21.4210880   7.5949094  56.3260573  19.1882505   5.4524428  57.3271466
  18.7049586   6.2524788  57.5335355  19.2743444   5.4632372  56.3738910
  15.1155842   9.3428962  49.3639899  16.0699096   9.3112905  49.2969831
  14.9168366   8.8819586  50.1790125  15.7055224   7.9130078  51.9310697
  16.5248113   8.4074157  51.9545534  15.9792032   6.9962046  51.9028265
  28.8136357   0.3287352  45.0092992  29.5896747   0.8183804  45.2817609
  28.0884491   0.7545406  45.4664861  31.2508915   1.0414971  46.0666932
  31.8453406   0.8010707  45.3560241  31.3235499   0.3222101  46.6940469
  13.4706071  14.8848582  46.3810097  13.3360539  14.1248983  45.8148095
  13.0538133  15.6089482  45.9138886  24.6065034  10.0685505  35.3886673
  25.3100884  10.2735508  36.0044328  23.8827683  10.6362267  35.6535756
  25.4362844   5.8195367  41.5088943  25.3798046   6.2763918  40.6696575
  25.9891187   5.0586051  41.3311785  29.2467650   1.6085098  42.3339062
  28.9904584   1.2081734  43.1647270  28.6220518   2.3228892  42.2089201
  33.5579988   4.3481172  44.8410354  32.9979546   4.4174361  45.6141916
  32.9523491   4.1722156  44.1209850  16.6275197  15.7817899  46.5928540
  16.5107581  16.7263331  46.4907230  15.8067643  15.4791460  46.9814339
  26.5151731  10.5068035  37.4385133  27.3497335  10.0749233  37.2562607
  26.3536074  10.3350048  38.3662027  26.1697623   7.0100148  38.8041472
  26.1146427   6.8444419  37.8629916  25.5443679   7.7176181  38.9603662
  23.4843531   9.3149060  58.1295035  24.3534690   9.4889712  57.7681670
  23.0050282  10.1343477  58.0070764  17.6529711  16.4346161  49.8084468
  18.5556958  16.4669771  50.1250963  17.4267081  15.5046612  49.8230804
  19.4083313  15.1877147  46.4694547  18.4578944  15.1879009  46.3558919
  19.7115799  14.4409882  45.9530582  35.1436006  21.0237686  47.5340309
  35.7814416  20.9044433  46.8303649  35.0256849  21.9718530  47.5928262
  31.9525713  20.9765114  47.4701834  31.6144224  20.8606178  46.5822369
  32.8215481  20.5756279  47.4502840  27.8112528  22.8300590  43.4598725
  27.2477393  22.7390527  42.6915013  27.6964923  22.0100495  43.9401218
  32.4345496  22.1299965  53.4288040  32.4234136  21.7352764  52.5568543
  32.5966135  21.3966038  54.0221811  25.3576960  24.3251782  46.2982945
  26.1498252  23.9842606  45.8829245  25.5973610  24.4346757  47.2185099
  33.3912087  26.4971558  38.7713190  32.7400067  27.0825638  38.3847204
  34.1856450  27.0277753  38.8308227  27.3167714  23.5860695  39.1700324
  28.0898590  23.0389682  39.0313200  27.6693113  24.4504944  39.3814786
  29.1552757  24.9137077  52.3767224  28.8642623  25.8182708  52.2613890
  29.7909741  24.9553605  53.0911293  30.0808964  22.2913926  48.9668583
  30.6772536  22.0669948  48.2525546  30.1383935  21.5498671  49.5694031
  29.6533992  19.7453361  36.8018774  29.9059513  19.2234882  36.0402237
  28.7158551  19.5819507  36.9045458  34.6977275  18.7489139  44.6093517
  35.4840364  18.3308563  44.2583934  34.9615979  19.6535232  44.7775166
  34.8687352  24.1861990  39.3082174  34.2333185  24.2596616  40.0203079
  34.5384759  24.7755589  38.6301253  40.0985702  18.6864373  45.5126496
  40.8310874  18.1163589  45.7464325  39.3425058  18.2985973  45.9533001
  29.3730281  21.6481467  39.0043149  29.2566539  20.9726370  39.6724233
  29.4832541  21.1613841  38.1875302  31.7161822  21.1091614  42.7089838
  31.3520029  20.5822235  43.4202760  32.5728938  20.7190083  42.5356324
  37.6211122  12.3985947  49.9721105  37.2894447  13.2681358  49.7482319
  37.0256736  12.0822231  50.6515135  31.3567309  16.1381514  37.7051187
  31.5241711  17.0061750  38.0721658  31.1664478  16.3008796  36.7812476
  34.1142642  24.5998493  49.3717017  33.8143365  25.5023532  49.2632824
  33.7693701  24.3330676  50.2238170  27.5655123  21.0512290  45.4053722
  26.6405620  20.9188504  45.6131413  27.8139537  21.8306509  45.9023664
  37.5139786  17.1181033  47.0514455  36.6056663  17.0496441  46.7573216
  37.4627381  17.5952978  47.8796280  31.3356530  18.5939171  38.6897854
  31.2156155  19.0396222  39.5283334  30.6409118  18.9424489  38.1311392
  24.9263934  20.6945563  46.2397511  25.0556316  20.9480042  47.1536922
  24.2461386  21.2873271  45.9202166  29.0963422  31.3642813  42.3387985
  29.0187451  32.3150638  42.4176466  28.4925065  31.0188686  42.9962911
  31.5880651  18.5370679  54.9949352  30.8113985  19.0964599  54.9852216
  32.2271214  19.0227462  55.5164222  39.3801432  15.3197471  48.8292328
  38.7375812  15.6130005  48.1832123  38.8756361  15.2050392  49.6345525
  37.0341596  19.0660645  39.5178188  37.9459452  19.2988031  39.3425885
  36.5251243  19.6497689  38.9553266  29.8427024  21.3456132  54.5567319
  30.5841708  21.8841176  54.2802142  29.1364009  21.9722421  54.7138871
  35.3182363  23.4885272  53.1539480  35.7265719  23.0467683  52.4094113
  34.5959625  22.9137900  53.4073673  31.6713433  18.4257879  50.5273037
  32.5174629  18.8497293  50.6707686  31.6112071  17.7691503  51.2211600
  35.6411178  24.0486463  46.9091769  35.0120040  24.2132177  46.2067837
  35.2536840  24.4628073  47.6802733  39.5200410  24.9840901  44.2636133
  38.8351448  25.3639802  43.7133166  39.6044259  25.5936228  44.9968081
  34.8212879  16.0862248  52.1854211  34.5773811  16.8404308  51.6488487
  35.0972809  16.4647595  53.0201458  36.7751342  22.6300860  50.8631477
  36.9868237  23.2732620  50.1865858  36.7281090  21.7963176  50.3953407
  34.3777570  15.2418681  47.7668049  33.5162050  15.5399934  48.0584786
  34.4040005  15.4589079  46.8349081  31.1939140  23.7860871  44.1741854
  31.6577485  24.0648574  43.3846477  30.9295938  22.8844316  43.9914945
  28.0863221  23.3332353  47.1121618  28.6564578  23.7619621  46.4739102
  28.6771333  23.0514937  47.8105803  30.1308026  19.9084023  40.9831419
  30.8332069  20.3605067  41.4505346  29.7988654  19.2667842  41.6111313
  28.5788387  18.4995780  55.3582629  27.9487048  19.1812061  55.5918026
  28.4724475  18.3878862  54.4135767  23.8733360  18.1667576  46.2848553
  23.0832414  18.4225105  45.8088664  24.3644607  18.9815914  46.3900594
  37.8897169  25.5072815  49.0353834  38.7114613  25.1053003  48.7536515
  37.8859572  25.4041049  49.9869950  25.8248105  18.5312155  43.2432030
  25.0279269  18.6430850  43.7615525  25.5973697  18.8698808  42.3772920
  31.6553773  25.0556859  51.1914544  31.7198205  25.5177266  52.0272716
  30.9464697  24.4254224  51.3196854  22.1571063  18.4198067  48.7163544
  22.4079101  19.3045076  48.9821120  22.6930611  18.2402668  47.9438636
  45.9803163  21.8511564  45.3838805  45.2266871  21.2818962  45.2282810
  46.1150704  21.8174228  46.3309440  31.3701791  26.7224966  41.0593525
  31.2347465  27.5676502  41.4878372  31.9111603  26.9244244  40.2959458
  27.8569130  12.8016546  57.7207880  27.4636076  12.2482744  58.3955524
  28.6735271  13.1127124  58.1114397  24.8231188  24.2400404  41.6321450
  25.3355709  25.0343654  41.7827014  25.4753901  23.5426695  41.5655051
  26.6326073  27.3566160  43.7144203  26.8092701  28.2784125  43.5265187
  27.4282906  27.0424580  44.1438583  30.7737091  14.2174425  55.3128136
  31.5146805  14.8181578  55.2332599  31.0055014  13.4752063  54.7546179
  25.9178429  19.4030792  53.5906366  25.8031944  18.5016050  53.8913465
  25.0622947  19.6494489  53.2391183  32.9970267  27.3448533  55.1893867
  32.5534121  26.5584911  54.8714771  33.6587481  27.5327683  54.5237758
  27.7557388  28.8744334  49.7154545  28.3064813  28.7461398  48.9431539
  26.9168864  29.1739223  49.3649438  35.0951505  27.6251333  53.2175268
  35.0769980  28.4460214  52.7255537  36.0171425  27.5005408  53.4425409
  31.5524559  25.1395462  54.0598776  32.0852896  24.3783750  53.8298084
  31.0238640  24.8469114  54.8022931  34.7194254  10.2455528  49.5892418
  34.3758524  11.1357170  49.5131529  35.0873217  10.0557186  48.7262003
  22.7880105  22.5689058  42.4081020  23.6255327  22.9786067  42.1914728
  22.9658372  21.6288501  42.3781214  34.6844537  20.2364139  38.0964853
  34.1691160  21.0068744  38.3353241  34.4121845  19.5629275  38.7197915
  32.2691648  15.0813840  43.1550092  31.4133244  14.6920690  42.9755730
  32.6818600  15.1605801  42.2949877  33.7990795  12.6160183  47.5541651
  33.2955590  12.5790318  46.7409457  34.0921401  13.5252926  47.6138308
  30.0433680  12.6998913  46.5607833  30.9086677  12.5041722  46.2013723
  30.1111189  12.4709265  47.4877190  39.6578811  22.9896494  40.0318027
  38.8808254  22.6507653  39.5873189  40.3370292  22.9949117  39.3572992
  34.4730840  18.1091231  39.9224634  34.1680976  18.4237380  40.7734778
  35.4261282  18.1872651  39.9651967  32.9177272  24.2681454  41.5717588
  32.3898633  23.5334214  41.2590826  32.4164775  25.0456131  41.3257557
  37.8970118  22.4630475  46.6884635  37.2393792  23.1529736  46.7764763
  38.7010517  22.8526907  47.0318621  27.6495999  14.9301121  43.9324200
  28.2239751  14.7076302  43.1997393  28.2366982  14.9989815  44.6852801
  36.7075577  20.8174848  44.7388576  37.2207458  21.4504840  45.2410286
  37.3576801  20.2176043  44.3731936  27.9765587  16.9605582  37.9520085
  27.1402899  17.2980268  38.2729360  27.8370356  16.8254562  37.0147222
  29.9518667  11.8042370  42.6599269  29.2983080  11.4891387  42.0355884
  29.9099141  11.1818110  43.3859092  31.0629872  22.0861665  34.5752561
  30.1556934  21.8550918  34.7743710  31.5600904  21.2899284  34.7626543
  33.9697951  30.7959172  37.4949248  33.2959650  31.0990869  38.1034205
  34.3563773  31.5988252  37.1454705  33.1856408  18.2924303  46.9846917
  32.2678969  18.5139250  46.8268605  33.6016551  18.3670614  46.1258624
  33.9691455  19.6915719  42.1149597  34.7163274  20.2037116  41.8056719
  34.2383045  19.3699772  42.9753991  32.2418105  22.1874260  39.0976552
  31.3329325  21.9033292  39.1949021  32.2713189  22.6073338  38.2379858
  37.4737373  25.7980849  42.8667719  37.0199700  24.9571759  42.9232910
  36.8431340  26.4342247  43.2042499  36.4170292  16.7272835  44.0968387
  35.6793049  16.2150221  44.4278629  36.6697066  16.2873217  43.2851663
  35.9170312  27.6357346  43.8017537  36.2093287  28.1962403  43.0829903
  36.4268933  27.9285907  44.5570696  36.5181920   9.5049087  44.6910156
  36.8240797   8.6446451  44.4036071  37.2434525  10.0966707  44.4909150
  22.8106276  19.9079774  43.0791754  22.6130676  19.3149134  42.3542820
  22.2552940  19.6031984  43.7967693  30.7903000  19.8002880  45.1986347
  30.8451609  18.8476717  45.1228823  29.9794202  19.9562319  45.6827645
  31.9394193  23.7283003  36.4364630  31.5013623  23.0118862  35.9770267
  32.6804634  23.9559118  35.8749721  28.7295359  18.4179940  42.9576726
  27.9163225  18.7174111  43.3641918  29.2254354  18.0235629  43.6751208
  30.8803937  28.4137697  44.8910990  30.8380116  28.6398543  43.9619522
  31.7966636  28.1801071  45.0396792  34.3269571  18.8821764  51.7891620
  34.6818959  19.1093238  52.6486085  34.9741702  19.2140141  51.1668875
  40.0567308  22.0040200  42.4940949  39.9185207  22.1941796  41.5662138
  39.7003527  22.7659583  42.9509000  28.2209434  15.9898295  48.5737961
  28.8608814  15.8487055  47.8760924  27.3886965  15.7032809  48.1976563
  40.0836688  24.0716727  47.5052220  40.5173194  23.9792016  48.3535274
  40.7968268  24.0474228  46.8672236  28.9969738  25.2900726  44.6872953
  29.7910337  24.7951046  44.4855528  28.2861431  24.7618589  44.3240659
  33.8164583  27.6718821  49.0385321  33.8701605  28.2409758  49.8063037
  32.9479364  27.8420706  48.6739358  25.3052502  19.4343808  40.7632706
  24.3750090  19.3728263  40.9802668  25.4009974  18.9119760  39.9669347
  25.2238051  15.9598620  43.3510948  25.4844868  16.8743954  43.2420108
  26.0455223  15.4923063  43.5007560  26.6962976  17.3736378  50.5209772
  27.3686029  17.1653740  49.8722421  25.8692762  17.1758464  50.0815004
  40.9452237  24.1140428  50.0385106  41.1388127  25.0186238  50.2844381
  40.8452855  23.6547847  50.8723691  32.5988548  13.9998319  52.5375433
  31.9516463  14.6988268  52.4439909  33.3689563  14.4334462  52.9051681
  36.0067346  24.2647171  55.6125986  35.8552852  24.0357722  54.6956070
  35.9972025  25.2217772  55.6257331  32.7752682  21.8379083  50.5972253
  33.7044742  21.9890243  50.4241220  32.3543712  21.9263104  49.7420899
  31.5741014  25.8629748  48.3670790  31.4352100  25.4948532  49.2396728
  30.7855610  26.3777387  48.1954748  32.1689166  30.9638844  39.7096327
  32.3440922  30.4926888  40.5241949  31.4821954  31.5904611  39.9377588
  33.1246229  25.2411351  45.7559628  32.7896062  25.2012121  46.6517278
  32.6250175  24.5756067  45.2830038  27.0990473  20.6478981  51.2812209
  26.9610271  19.9159219  51.8823748  28.0095397  20.5587881  50.9996397
  36.0605421  22.5867385  36.0296688  35.4434592  21.8614213  35.9329740
  35.5921909  23.3476745  35.6863762  29.7272774  20.3598940  50.7695889
  30.4372392  19.7192132  50.7282507  29.6842082  20.6111835  51.6922070
  37.7159553  27.2966293  53.6902468  37.6572099  26.6125513  53.0233051
  38.1179071  28.0385283  53.2383094  28.4401708  17.3464158  52.5891528
  27.9039065  16.8954896  53.2413125  27.8518416  17.4810067  51.8461993
  26.7350251  34.1128207  46.4836187  26.9746850  34.7446731  47.1615206
  25.8919448  33.7616247  46.7701546  27.8503967  16.8052809  35.1517992
  26.9733433  16.6841610  34.7880239  28.3261720  16.0138888  34.8996881
  37.7176960  25.2605877  51.9216448  36.8303739  24.9231799  52.0442847
  38.2875511  24.5288908  52.1585213  19.3706107  21.5929969  45.2459499
  20.0577147  21.2791699  44.6580514  19.2154236  22.4971334  44.9726751
  24.1740829  16.4820166  49.6744523  24.0899018  15.8745835  48.9394933
  23.3523536  16.9729184  49.6754019  31.2478113  29.9207330  48.8877691
  31.1748285  30.7262301  49.3996995  30.8055506  30.1199295  48.0625712
  31.0367893  29.1579100  42.3980512  30.2535415  29.7000780  42.4918737
  31.7360638  29.6753079  42.7974754  34.3464543  14.9673729  45.0414718
  34.8433243  14.2143691  44.7215788  33.5751524  15.0038046  44.4757927
  42.1994300  20.6714095  46.6833009  42.1884177  21.5538810  46.3126942
  41.3311680  20.3185645  46.4887546  33.7076797  29.8194164  51.0435850
  34.4204769  30.4541628  50.9711751  33.2166825  29.9158030  50.2275851
  35.4294324  23.7245416  42.6153141  34.4950602  23.8446879  42.4457846
  35.6070992  22.8217883  42.3513151  30.9299512  17.1091112  44.7686402
  30.5597299  16.5562152  45.4567308  31.4258604  16.5049246  44.2161403
  38.8166875  19.5662736  43.1503175  39.2827327  20.3990727  43.0763478
  39.2674376  19.1007717  43.8548434  28.7588710  27.5688607  51.8641420
  29.4598170  28.2025090  52.0170815  28.2883825  27.9103339  51.1037060
  36.8843106  25.9106557  40.1489327  37.1602950  25.7963151  41.0583202
  36.0147605  25.5124042  40.1101501  36.7883538  11.9343323  47.1894077
  35.8746618  12.1647549  47.3576284  37.2176639  12.0181767  48.0408109
  36.5589996  20.1233215  49.6893971  35.9061446  20.3709122  49.0346424
  36.9370376  19.3097353  49.3556448  33.5197170  30.1592908  43.7922141
  33.7019565  29.3414564  44.2549893  34.3430156  30.3760600  43.3547031
  33.8539336  29.0861093  41.0537190  34.3827102  28.5753547  40.4407352
  34.1167555  28.7703623  41.9182723  32.6077569  20.8653026  56.1760008
  31.9318206  20.7647155  56.8462383  33.4305203  20.7092239  56.6396005
  24.3556428  27.1024962  48.7972523  24.9409865  26.3568650  48.9300427
  24.1581267  27.4128919  49.6809187  27.2095084  30.1376210  43.8134965
  26.5405459  30.6222337  43.3299006  27.0707953  30.3845430  44.7278344
  18.9474083  19.6730562  47.5176966  18.9858183  19.1394153  48.3114084
  18.4414376  19.1465768  46.8987943  31.3500352  32.1719953  50.4117624
  31.9018660  32.3351575  51.1766709  31.6906546  32.7624391  49.7397649
  26.3264845  14.5195103  51.0139509  26.3906172  15.3809934  50.6016906
  26.2631966  13.9069104  50.2811867  25.8017118  16.5918235  54.6612543
  26.4289157  16.2095313  55.2750067  24.9445037  16.3732437  55.0268235
  36.2011226  26.9981211  56.2666278  36.7451130  27.6111169  55.7721233
  35.6198071  27.5560789  56.7833291  22.5782661  18.3994664  40.5930898
  22.8736102  17.4905343  40.5397951  21.6770696  18.3782404  40.2711900
  34.4868739  30.1201929  47.3981306  34.3619879  29.3191668  46.8892251
  35.1447831  30.6148122  46.9095276  26.1076908  16.4750661  46.5758446
  25.3863493  17.0886629  46.4365920  26.8970163  17.0108426  46.4975092
  36.5503648  27.9210949  49.0260856  35.6033983  27.8016300  48.9539183
  36.8986421  27.0333447  49.1087118  28.9103221  13.8105088  52.8499098
  29.4337623  14.0567384  53.6125407  28.6915554  14.6425122  52.4302235
  24.3070502  16.0808762  40.7170223  23.9783208  15.2006141  40.5345329
  24.6609873  16.0256431  41.6046612  33.5550081  27.7163665  45.2265208
  33.4075044  26.7880372  45.4072778  34.3803575  27.7383756  44.7422284
  27.4212325  16.3681732  41.0845700  27.7608398  16.8967653  40.3624309
  27.8684446  16.7062138  41.8604267  37.1584203  28.5392224  46.3130081
  38.0830750  28.3335085  46.1754532  36.9899506  28.2908625  47.2219423
  30.1155766  14.7518783  50.5348769  29.7752587  13.9526596  50.9369448
  29.4094772  15.0520494  49.9625602  30.7672238  11.8368095  48.9876092
  31.5898307  11.3628573  48.8654982  31.0110302  12.6158579  49.4874778
  29.4080473  14.8656354  39.2838993  30.1288835  15.2437606  38.7802710
  28.7845777  15.5845230  39.3873971  33.5511595  15.5701503  40.2197326
  33.7675210  16.4526140  39.9186154  33.0705663  15.1787716  39.4902968
  28.2910817  18.5287216  46.7968070  28.1455398  18.8427519  47.6892352
  27.8136020  19.1472116  46.2438969  30.1507200  15.5189764  46.8448960
  30.1368768  14.6230857  46.5081258  30.8679628  15.5260427  47.4787246
  32.0033330  15.9527104  48.8902087  31.7451108  16.8744175  48.8886418
  31.4718371  15.5557538  49.5802551  36.9479519  29.0577891  41.6692173
  37.1216397  28.4924314  40.9166025  37.4408410  29.8578786  41.4871662
  22.7656479  21.0692560  49.7355731  22.2209947  21.8452368  49.8676006
  23.6435829  21.4163365  49.5774853  29.5544096  14.4004144  42.1136530
  29.6760007  13.4720790  42.3127417  29.2646138  14.4142830  41.2014845
  32.4235286  12.0859054  45.2503250  32.4456983  12.1498388  44.2955229
  32.8403345  11.2463563  45.4443756  42.8018910  21.8214314  43.2882472
  43.2450056  21.0721639  42.8901596  41.9245421  21.8124450  42.9056204
  37.9354692  28.3744655  38.7689071  38.6305596  28.9951348  38.9876385
  38.2777842  27.5240007  39.0441449  23.5522501  20.1962456  52.6285888
  22.8104237  20.3445092  53.2150519  23.2315245  20.4570722  51.7652638
  39.8346115  25.8244361  40.2976402  40.3597439  26.1631634  39.5725722
  39.7468467  24.8891376  40.1139536  31.4966163  29.7378435  52.4266278
  31.8053290  29.4927581  53.2988978  32.2941645  29.9425073  51.9385148
  31.5186776  31.8916344  44.6571655  31.0791766  31.3992723  45.3504511
  32.2694892  31.3489312  44.4163730  23.9979115  28.0827885  44.6596283
  24.8237134  27.7831657  44.2794926  23.6473166  27.3135508  45.1086072
  28.9660648  27.4354353  46.7293956  28.3440657  26.7725058  46.4296184
  29.6365515  27.4615485  46.0467604  22.1987720  26.0014212  45.6185216
  21.3619628  25.5736386  45.4369218  22.1711365  26.1946655  46.5556008
  29.0385175  15.9136141  56.3226462  29.0873331  16.7898264  55.9404232
  29.5807689  15.3713534  55.7498106  39.5240021  26.4577265  55.6027600
  38.7335565  26.4401403  55.0632099  39.2873375  26.9965558  56.3576636
  39.6437896  23.3069731  52.9160328  39.6935901  23.1419738  53.8575851
  39.5351819  22.4396990  52.5258209  28.5274155  25.9858277  40.2052417
  28.6762275  26.6693741  39.5519090  29.3340598  25.9663367  40.7201873
  36.9341658  19.2900659  54.2319635  37.8351521  19.1507124  53.9403633
  37.0089633  19.4555114  55.1717812  31.2684464  16.6667514  53.0772821
  30.3987773  16.9601080  52.8055410  31.5043944  17.2507959  53.7980085
  41.1456093  25.7266673  53.1602350  40.8540901  26.0896653  53.9965811
  40.5328224  25.0133681  52.9815682  42.3451775  23.2919552  45.6804920
  43.1798666  23.7309356  45.8442480  42.4810904  22.8158205  44.8613166
  39.3943281  20.8499287  51.6282408  39.8697403  21.0426933  50.8201259
  38.4708846  20.9058473  51.3825791  26.2826788  22.0123454  41.2113486
  26.0372830  21.1085784  41.4093696  26.4522702  22.0140605  40.2692964
  33.9723497  12.8847131  50.5938242  34.4905441  13.6208158  50.2684730
  33.6178630  13.1911124  51.4285001  25.5522435  17.7451812  38.7099647
  24.8591680  17.8196167  38.0539683  25.3074187  16.9812156  39.2321164
  34.2236092   9.3047413  46.1139138  34.5037845   8.6370602  46.7399565
  35.0086699   9.4976509  45.6013802  32.0269560  28.4806407  37.6764164
  31.4543527  29.0996594  37.2234636  32.6002354  29.0305769  38.2104086
  38.0944950  17.7265047  49.8610713  39.0462373  17.8263145  49.8822937
  37.9248400  16.9343316  50.3708798  36.1159329  14.8120630  50.0470114
  35.5209262  15.0925643  49.3516603  35.8309026  15.3014531  50.8186855
  35.2466820  28.7643557  38.8072747  36.1797493  28.6989119  39.0105622
  35.1590033  29.5999824  38.3487279  37.8754837  28.0809428  35.7676694
  37.7968468  27.7469291  36.6612452  38.6964503  28.5731196  35.7668167
  40.5733028  20.9471167  48.9753013  40.5409348  20.0087168  49.1612697
  41.1833651  21.0255204  48.2418838  32.4116359  19.8167220  35.0180217
  33.3575463  19.6873428  35.0868635  32.0330604  19.0781882  35.4949645
  40.7227516  17.7382210  49.0211296  40.2066565  16.9540667  48.8341225
  41.6067465  17.4100927  49.1857816  38.3838243  11.4823226  44.9807109
  38.1863064  11.1738314  45.8650441  38.9937949  12.2084865  45.1105039
  46.3909578  22.0087174  48.1159050  47.1212966  21.7472462  48.6766753
  45.7816523  21.2715896  48.1561118  44.4724875  20.1495036  48.7133501
  43.7458038  20.0151001  48.1049992  44.0572162  20.4571865  49.5190219
  32.2955051  23.8684966  56.4780874  33.2158061  24.0463565  56.6720920
  32.2604634  22.9241011  56.3260573  30.5959276  17.7417196  34.9535102
  29.6890731  17.4450309  35.0297816  30.8735257  17.4447014  34.0869388
  21.5137216  19.0623560  45.4034149  21.1940000  18.2088868  45.1108523
  20.9670644  19.2772138  46.1592116  25.2917124  21.7786001  49.1203655
  25.5103133  22.7103108  49.1391689  25.7042898  21.4193975  49.9058459
  32.2121341  12.2854086  41.1079343  31.4022070  11.9401171  41.4834589
  32.9005758  11.9761630  41.6966955  34.1411890  11.3632133  42.7303640
  34.6942928  11.7827586  43.3893663  34.3781976  10.4367881  42.7726596
  30.1644989  17.3519206  58.5106404  30.0641716  18.3013563  58.4418495
  29.9466531  17.0237445  57.6382474  29.3658060  14.6004131  35.0947081
  30.2277224  14.9259030  35.3542899  29.5508405  13.8135627  34.5820147
  21.3825476  22.6826471  47.3727270  20.6888948  22.2680424  46.8597225
  22.1298467  22.7247008  46.7760689  37.5190697  13.4732658  42.2382304
  36.9389366  14.1317462  41.8560357  37.2526630  12.6510003  41.8269722
  35.9694263  12.8737716  44.4403625  36.4694042  12.9854250  43.6317943
  36.6129871  12.5698769  45.0804433  30.0276259  20.7816345  57.3271466
  29.5443341  21.5816705  57.5335355  30.1137198  20.7924290  56.3738910
  23.2962219  22.6144725  45.2493285  23.2732907  22.7132412  44.2975168
  23.6062855  23.4609876  45.5710451  25.9549597  24.6720880  49.3639899
  26.9092850  24.6404822  49.2969831  25.7562120  24.2111504  50.1790125
  26.5448979  23.2421996  51.9310697  27.3641868  23.7366075  51.9545534
  26.8185786  22.3253964  51.9028265  36.3015575  15.6332748  41.2938653
  35.4141430  15.9182399  41.0758847  36.7169564  15.4726512  40.4465929
  39.6530111  15.6579269  45.0092992  40.4290501  16.1475722  45.2817609
  38.9278245  16.0837324  45.4664861  42.0902670  16.3706889  46.0666932
  42.6847160  16.1302624  45.3560241  42.1629253  15.6514019  46.6940469
  24.3099825  30.2140499  46.3810097  24.1754293  29.4540900  45.8148095
  23.8931888  30.9381399  45.9138886  35.4458788  25.3977423  35.3886673
  36.1494638  25.6027426  36.0044328  34.7221437  25.9654185  35.6535756
  36.2756599  21.1487284  41.5088943  36.2191800  21.6055836  40.6696575
  36.8284941  20.3877969  41.3311785  40.0861405  16.9377016  42.3339062
  39.8298339  16.5373652  43.1647270  39.4614273  17.6520810  42.2089201
  44.3973742  19.6773089  44.8410354  43.8373300  19.7466279  45.6141916
  43.7917246  19.5014074  44.1209850  27.4668951  31.1109816  46.5928540
  27.3501335  32.0555249  46.4907230  26.6461397  30.8083378  46.9814339
  37.3545486  25.8359952  37.4385133  38.1891090  25.4041151  37.2562607
  37.1929829  25.6641966  38.3662027  37.0091378  22.3392066  38.8041472
  36.9540182  22.1736337  37.8629916  36.3837433  23.0468098  38.9603662
  21.7983893  17.5760130  52.6302894  22.4442757  17.0659084  53.1190119
  21.5901044  18.3128812  53.2046319  34.3237285  24.6440977  58.1295035
  35.1928445  24.8181630  57.7681670  33.8444037  25.4635394  58.0070764
  30.3187503  11.8400175  38.3826790  30.3066173  12.7842014  38.5395061
  31.2110925  11.6570320  38.0886252  28.4923465  31.7638078  49.8084468
  29.3950712  31.7961689  50.1250963  28.2660835  30.8338529  49.8230804
  30.2477067  30.5169065  46.4694547  29.2972698  30.5170927  46.3558919
  30.5509554  29.7701799  45.9530582  34.1339623   8.4342951  42.6372727
  33.3672019   7.8801438  42.7829409  34.5450328   8.5064820  43.4986879
  26.1381384  14.7227747  56.7277908  27.0012845  14.3664552  56.9381233
  25.5646795  14.3841642  57.4153313  38.6506283  38.1592508  43.4598725
  38.0871148  38.0682445  42.6915013  38.5358678  37.3392412  43.9401218
  38.1561469  38.9152613  39.1700324  38.9292345  38.3681600  39.0313200
  38.5086868  39.7796862  39.3814786  40.4927747  35.0745279  36.8018774
  40.7453267  34.5526800  36.0402237  39.5552306  34.9111424  36.9045458
  45.5371029  34.0781057  44.6093517  46.3234119  33.6600480  44.2583934
  45.8009734  34.9827149  44.7775166  50.9379456  34.0156290  45.5126496
  51.6704628  33.4455507  45.7464325  50.1818812  33.6277891  45.9533001
  40.2124035  36.9773385  39.0043149  40.0960293  36.3018288  39.6724233
  40.3226295  36.4905759  38.1875302  42.5555576  36.4383532  42.7089838
  42.1913783  35.9114153  43.4202760  43.4122692  36.0482001  42.5356324
  48.4604877  27.7277864  49.9721105  48.1288202  28.5973275  49.7482319
  47.8650490  27.4114148  50.6515135  42.1961063  31.4673432  37.7051187
  42.3635466  32.3353668  38.0721658  42.0058232  31.6300713  36.7812476
  38.4048878  36.3804207  45.4053722  37.4799374  36.2480421  45.6131413
  38.6533291  37.1598427  45.9023664  42.1750284  33.9231089  38.6897854
  42.0549909  34.3688140  39.5283334  41.4802872  34.2716407  38.1311392
  35.7657689  36.0237481  46.2397511  35.8950070  36.2771960  47.1536922
  35.0855140  36.6165189  45.9202166  50.2195187  30.6489389  48.8292328
  49.5769567  30.9421922  48.1832123  49.7150115  30.5342309  49.6345525
  40.9701780  35.2375941  40.9831419  41.6725824  35.6896985  41.4505346
  40.6382409  34.5959760  41.6111313  39.4182142  33.8287698  55.3582629
  38.7880803  34.5103979  55.5918026  39.3118230  33.7170779  54.4135767
  34.7127114  33.4959494  46.2848553  33.9226168  33.7517022  45.8088664
  35.2038362  34.3107832  46.3900594  36.6641860  33.8604073  43.2432030
  35.8673023  33.9722767  43.7615525  36.4367452  34.1990725  42.3772920
  32.9964817  33.7489984  48.7163544  33.2472856  34.6336994  48.9821120
  33.5324366  33.5694586  47.9438636  38.6962885  28.1308464  57.7207880
  38.3029830  27.5774662  58.3955524  39.5129025  28.4419042  58.1114397
  35.6624942  39.5692322  41.6321450  36.1749463  40.3635572  41.7827014
  36.3147655  38.8718612  41.5655051  41.6130846  29.5466343  55.3128136
  42.3540559  30.1473496  55.2332599  41.8448769  28.8043981  54.7546179
  36.7572184  34.7322710  53.5906366  36.6425699  33.8307967  53.8913465
  35.9016701  34.9786407  53.2391183  45.5588009  25.5747446  49.5892418
  45.2152278  26.4649087  49.5131529  45.9266971  25.3849103  48.7262003
  33.6273859  37.8980976  42.4081020  34.4649081  38.3077984  42.1914728
  33.8052127  36.9580418  42.3781214  45.5238291  35.5656057  38.0964853
  45.0084915  36.3360661  38.3353241  45.2515600  34.8921193  38.7197915
  43.1085402  30.4105758  43.1550092  42.2526999  30.0212608  42.9755730
  43.5212354  30.4897718  42.2949877  44.6384549  27.9452101  47.5541651
  44.1349345  27.9082236  46.7409457  44.9315156  28.8544844  47.6138308
  40.8827435  28.0290831  46.5607833  41.7480432  27.8333639  46.2013723
  40.9504944  27.8001182  47.4877190  45.3124595  33.4383149  39.9224634
  45.0074730  33.7529298  40.7734778  46.2655037  33.5164569  39.9651967
  38.4889754  30.2593038  43.9324200  39.0633506  30.0368220  43.1997393
  39.0760736  30.3281733  44.6852801  47.5469331  36.1466765  44.7388576
  48.0601213  36.7796757  45.2410286  48.1970555  35.5467961  44.3731936
  38.8159341  32.2897499  37.9520085  37.9796653  32.6272186  38.2729360
  38.6764111  32.1546479  37.0147222  40.7912422  27.1334287  42.6599269
  40.1376834  26.8183305  42.0355884  40.7492896  26.5110028  43.3859092
  41.9023627  37.4153582  34.5752561  40.9950688  37.1842836  34.7743710
  42.3994659  36.6191202  34.7626543  44.8085210  35.0207637  42.1149597
  45.5557029  35.5329034  41.8056719  45.0776799  34.6991689  42.9753991
  43.0811860  37.5166177  39.0976552  42.1723079  37.2325210  39.1949021
  43.1106944  37.9365256  38.2379858  47.2564047  32.0564753  44.0968387
  46.5186804  31.5442139  44.4278629  47.5090820  31.6165134  43.2851663
  47.3575674  24.8341005  44.6910156  47.6634551  23.9738368  44.4036071
  48.0828279  25.4258625  44.4909150  33.6500030  35.2371691  43.0791754
  33.4524430  34.6441052  42.3542820  33.0946694  34.9323902  43.7967693
  41.6296754  35.1294798  45.1986347  41.6845364  34.1768634  45.1228823
  40.8187956  35.2854237  45.6827645  39.5689114  33.7471858  42.9576726
  38.7556979  34.0466028  43.3641918  40.0648108  33.3527546  43.6751208
  39.0603189  31.3190213  48.5737961  39.7002568  31.1778972  47.8760924
  38.2280719  31.0324727  48.1976563  36.1446256  34.7635725  40.7632706
  35.2143844  34.7020181  40.9802668  36.2403728  34.2411678  39.9669347
  36.0631805  31.2890538  43.3510948  36.3238622  32.2035871  43.2420108
  36.8848977  30.8214981  43.5007560  37.5356730  32.7028295  50.5209772
  38.2079784  32.4945657  49.8722421  36.7086517  32.5050381  50.0815004
  43.4382302  29.3290236  52.5375433  42.7910218  30.0280186  52.4439909
  44.2083318  29.7626380  52.9051681  37.9384228  35.9770898  51.2812209
  37.8004026  35.2451137  51.8823748  38.8489151  35.8879798  50.9996397
  39.2795462  32.6756076  52.5891528  38.7432819  32.2246814  53.2413125
  38.6912171  32.8101984  51.8461993  38.6897721  32.1344727  35.1517992
  37.8127188  32.0133528  34.7880239  39.1655474  31.3430805  34.8996881
  30.2099861  36.9221887  45.2459499  30.8970901  36.6083617  44.6580514
  30.0547990  37.8263251  44.9726751  35.0134584  31.8112083  49.6744523
  34.9292772  31.2037753  48.9394933  34.1917290  32.3021102  49.6754019
  45.1858297  30.2965647  45.0414718  45.6826997  29.5435609  44.7215788
  44.4145279  30.3329963  44.4757927  41.7693266  32.4383030  44.7686402
  41.3991054  31.8854070  45.4567308  42.2652359  31.8341163  44.2161403
  47.6277292  27.2635240  47.1894077  46.7140372  27.4939467  47.3576284
  48.0570394  27.3473684  48.0408109  29.7867838  35.0022480  47.5176966
  29.8251937  34.4686071  48.3114084  29.2808130  34.4757686  46.8987943
  37.1658600  29.8487021  51.0139509  37.2299926  30.7101851  50.6016906
  37.1025720  29.2361022  50.2811867  36.6410872  31.9210153  54.6612543
  37.2682911  31.5387230  55.2750067  35.7838791  31.7024355  55.0268235
  33.4176415  33.7286582  40.5930898  33.7129856  32.8197261  40.5397951
  32.5164451  33.7074322  40.2711900  36.9470662  31.8042579  46.5758446
  36.2257248  32.4178546  46.4365920  37.7363918  32.3400344  46.4975092
  39.7496976  29.1397005  52.8499098  40.2731377  29.3859302  53.6125407
  39.5309309  29.9717040  52.4302235  35.1464257  31.4100680  40.7170223
  34.8176963  30.5298059  40.5345329  35.5003627  31.3548349  41.6046612
  38.2606080  31.6973650  41.0845700  38.6002152  32.2259571  40.3624309
  38.7078200  32.0354056  41.8604267  40.9549521  30.0810700  50.5348769
  40.6146341  29.2818513  50.9369448  40.2488527  30.3812411  49.9625602
  41.6065993  27.1660013  48.9876092  42.4292062  26.6920491  48.8654982
  41.8504056  27.9450497  49.4874778  40.2474227  30.1948271  39.2838993
  40.9682590  30.5729524  38.7802710  39.6239531  30.9137148  39.3873971
  44.3905350  30.8993420  40.2197326  44.6068964  31.7818058  39.9186154
  43.9099417  30.5079634  39.4902968  39.1304571  33.8579133  46.7968070
  38.9849152  34.1719436  47.6892352  38.6529775  34.4764034  46.2438969
  40.9900954  30.8481681  46.8448960  40.9762523  29.9522775  46.5081258
  41.7073382  30.8552345  47.4787246  40.3937850  29.7296062  42.1136530
  40.5153761  28.8012708  42.3127417  40.1039892  29.7434748  41.2014845
  43.2629041  27.4150972  45.2503250  43.2850737  27.4790305  44.2955229
  43.6797100  26.5755481  45.4443756  33.0381474  41.3306129  45.6185216
  32.2013382  40.9028304  45.4369218  33.0105119  41.5238573  46.5556008
  39.8778930  31.2428059  56.3226462  39.9267085  32.1190182  55.9404232
  40.4201444  30.7005452  55.7498106  39.3667909  41.3150194  40.2052417
  39.5156029  41.9985659  39.5519090  40.1734353  41.2955284  40.7201873
  42.1078218  31.9959431  53.0772821  41.2381528  32.2892997  52.8055410
  42.3437698  32.5799876  53.7980085  37.1220542  37.3415372  41.2113486
  36.8766584  36.4377702  41.4093696  37.2916457  37.3432522  40.2692964
  44.8117252  28.2139048  50.5938242  45.3299196  28.9500075  50.2684730
  44.4572385  28.5203042  51.4285001  36.3916190  33.0743730  38.7099647
  35.6985435  33.1488085  38.0539683  36.1467941  32.3104073  39.2321164
  45.0629846  24.6339331  46.1139138  45.3431600  23.9662520  46.7399565
  45.8480453  24.8268427  45.6013802  46.9553084  30.1412548  50.0470114
  46.3603016  30.4217561  49.3516603  46.6702781  30.6306449  50.8186855
  43.2510113  35.1459138  35.0180217  44.1969218  35.0165346  35.0868635
  42.8724358  34.4073799  35.4949645  49.2231998  26.8115144  44.9807109
  49.0256819  26.5030232  45.8650441  49.8331703  27.5376782  45.1105039
  41.4353030  33.0709114  34.9535102  40.5284486  32.7742227  35.0297816
  41.7129011  32.7738932  34.0869388  32.3530971  34.3915477  45.4034149
  32.0333755  33.5380786  45.1108523  31.8064399  34.6064056  46.1592116
  43.0515096  27.6146004  41.1079343  42.2415824  27.2693089  41.4834589
  43.7399513  27.3053547  41.6966955  44.9805644  26.6924050  42.7303640
  45.5336683  27.1119504  43.3893663  45.2175731  25.7659799  42.7726596
  41.0038743  32.6811124  58.5106404  40.9035470  33.6305481  58.4418495
  40.7860286  32.3529363  57.6382474  40.2051815  29.9296049  35.0947081
  41.0670979  30.2550947  35.3542899  40.3902159  29.1427545  34.5820147
  32.2219231  38.0118389  47.3727270  31.5282702  37.5972342  46.8597225
  32.9692222  38.0538925  46.7760689  48.3584451  28.8024576  42.2382304
  47.7783120  29.4609380  41.8560357  48.0920384  27.9801920  41.8269722
  46.8088018  28.2029633  44.4403625  47.3087796  28.3146168  43.6317943
  47.4523626  27.8990686  45.0804433  34.1355973  37.9436643  45.2493285
  34.1126661  38.0424330  44.2975168  34.4456610  38.7901793  45.5710451
  47.1409329  30.9624666  41.2938653  46.2535184  31.2474317  41.0758847
  47.5563318  30.8018429  40.4465929  50.4923866  30.9871187  45.0092992
  51.2684256  31.4767639  45.2817609  49.7672000  31.4129241  45.4664861
  52.9296424  31.6998806  46.0666932  53.5240915  31.4594542  45.3560241
  53.0023008  30.9805937  46.6940469  32.6377647  32.9052048  52.6302894
  33.2836511  32.3951002  53.1190119  32.4294799  33.6420729  53.2046319
  41.1581258  27.1692092  38.3826790  41.1459928  28.1133932  38.5395061
  42.0504680  26.9862238  38.0886252  44.9733377  23.7634869  42.6372727
  44.2065773  23.2093356  42.7829409  45.3844082  23.8356738  43.4986879
  36.9775138  30.0519665  56.7277908  37.8406600  29.6956469  56.9381233
  36.4040549  29.7133559  57.4153313  68.0697087  52.6671009  48.1159050
  68.8000475  52.4056297  48.6766753  67.4604032  51.9299731  48.1561118
  61.8839324  60.5879885  35.0947081  62.7458488  60.9134783  35.3542899
  62.0689668  59.8011380  34.5820147  78.5011024  82.3405356  47.5340309
  79.1389434  82.2212104  46.8303649  78.3831867  83.2886200  47.5928262
  76.7487105  87.8139229  38.7713190  76.0975085  88.3993309  38.3847204
  77.5431468  88.3445423  38.8308227  72.5127775  86.2304748  52.3767224
  72.2217641  87.1350379  52.2613890  73.1484759  86.2721276  53.0911293
  78.2262370  85.5029661  39.3082174  77.5908203  85.5764287  40.0203079
  77.8959777  86.0923259  38.6301253  83.4560720  80.0032043  45.5126496
  84.1885892  79.4331260  45.7464325  82.7000076  79.6153644  45.9533001
  77.4717660  85.9166163  49.3717017  77.1718383  86.8191202  49.2632824
  77.1268719  85.6498347  50.2238170  80.8714804  78.4348704  47.0514455
  79.9631681  78.3664112  46.7573216  80.8202399  78.9120649  47.8796280
  72.4538440  92.6810484  42.3387985  72.3762469  93.6318309  42.4176466
  71.8500083  92.3356356  42.9962911  82.7376450  76.6365142  48.8292328
  82.0950830  76.9297675  48.1832123  82.2331379  76.5218062  49.6345525
  80.3916614  80.3828315  39.5178188  81.3034470  80.6155702  39.3425885
  79.8826261  80.9665359  38.9553266  78.9986196  85.3654134  46.9091769
  78.3695058  85.5299848  46.2067837  78.6111858  85.7795743  47.6802733
  82.8775428  86.3008572  44.2636133  82.1926466  86.6807473  43.7133166
  82.9619277  86.9103898  44.9968081  80.1326359  83.9468531  50.8631477
  80.3443255  84.5900290  50.1865858  80.0856108  83.1130847  50.3953407
  74.5514158  85.1028542  44.1741854  75.0152503  85.3816245  43.3846477
  74.2870956  84.2011986  43.9914945  81.2472187  86.8240486  49.0353834
  82.0689631  86.4220673  48.7536515  81.2434590  86.7208720  49.9869950
  75.0128791  86.3724529  51.1914544  75.0773223  86.8344937  52.0272716
  74.3039715  85.7421894  51.3196854  89.3378180  83.1679234  45.3838805
  88.5841889  82.5986633  45.2282810  89.4725722  83.1341899  46.3309440
  74.7276809  88.0392637  41.0593525  74.5922483  88.8844173  41.4878372
  75.2686621  88.2411914  40.2959458  69.9901091  88.6733831  43.7144203
  70.1667719  89.5951796  43.5265187  70.7857924  88.3592250  44.1438583
  76.3545285  88.6616203  55.1893867  75.9109139  87.8752582  54.8714771
  77.0162498  88.8495354  54.5237758  71.1132406  90.1912005  49.7154545
  71.6639831  90.0629068  48.9431539  70.2743882  90.4906894  49.3649438
  78.4526523  88.9419003  53.2175268  78.4344998  89.7627884  52.7255537
  79.3746443  88.8173078  53.4425409  78.0419555  81.5531810  38.0964853
  77.5266178  82.3236414  38.3353241  77.7696863  80.8796946  38.7197915
  83.0153829  84.3064164  40.0318027  82.2383272  83.9675324  39.5873189
  83.6945310  84.3116788  39.3572992  77.8305858  79.4258902  39.9224634
  77.5255994  79.7405051  40.7734778  78.7836300  79.5040322  39.9651967
  76.2752290  85.5849125  41.5717588  75.7473651  84.8501885  41.2590826
  75.7739793  86.3623802  41.3257557  81.2545136  83.7798146  46.6884635
  80.5968810  84.4697407  46.7764763  82.0585535  84.1694578  47.0318621
  80.0650595  82.1342518  44.7388576  80.5782476  82.7672510  45.2410286
  80.7151819  81.5343714  44.3731936  74.4204890  83.4029335  34.5752561
  73.5131952  83.1718589  34.7743710  74.9175922  82.6066955  34.7626543
  77.3272969  92.1126843  37.4949248  76.6534668  92.4158539  38.1034205
  77.7138791  92.9155923  37.1454705  75.5993123  83.5041930  39.0976552
  74.6904343  83.2200963  39.1949021  75.6288207  83.9241009  38.2379858
  80.8312391  87.1148520  42.8667719  80.3774718  86.2739430  42.9232910
  80.2006358  87.7509918  43.2042499  79.2745330  88.9525017  43.8017537
  79.5668304  89.5130074  43.0829903  79.7843951  89.2453578  44.5570696
  75.2969211  85.0450674  36.4364630  74.8588641  84.3286533  35.9770267
  76.0379652  85.2726789  35.8749721  74.2378955  89.7305368  44.8910990
  74.1955134  89.9566214  43.9619522  75.1541654  89.4968742  45.0396792
  83.4142326  83.3207871  42.4940949  83.2760225  83.5109467  41.5662138
  83.0578545  84.0827254  42.9509000  83.4411706  85.3884398  47.5052220
  83.8748212  85.2959687  48.3535274  84.1543286  85.3641899  46.8672236
  72.3544756  86.6068397  44.6872953  73.1485355  86.1118717  44.4855528
  71.6436448  86.0786260  44.3240659  77.1739601  88.9886492  49.0385321
  77.2276623  89.5577428  49.8063037  76.3054382  89.1588377  48.6739358
  84.3027255  85.4308099  50.0385106  84.4963145  86.3353909  50.2844381
  84.2027873  84.9715518  50.8723691  79.3642364  85.5814841  55.6125986
  79.2127870  85.3525393  54.6956070  79.3547043  86.5385443  55.6257331
  74.9316032  87.1797419  48.3670790  74.7927118  86.8116203  49.2396728
  74.1430628  87.6945058  48.1954748  75.5264184  92.2806515  39.7096327
  75.7015940  91.8094558  40.5241949  74.8396972  92.9072281  39.9377588
  76.4821247  86.5579021  45.7559628  76.1471080  86.5179791  46.6517278
  75.9825193  85.8923737  45.2830038  79.4180439  83.9035056  36.0296688
  78.8009610  83.1781884  35.9329740  78.9496927  84.6644416  35.6863762
  81.0734571  88.6133964  53.6902468  81.0147117  87.9293184  53.0233051
  81.4754089  89.3552954  53.2383094  70.0925269  95.4295878  46.4836187
  70.3321868  96.0614402  47.1615206  69.2494466  95.0783918  46.7701546
  81.0751978  86.5773548  51.9216448  80.1878757  86.2399470  52.0442847
  81.6450529  85.8456579  52.1585213  74.6053131  91.2375000  48.8877691
  74.5323303  92.0429972  49.3996995  74.1630524  91.4366966  48.0625712
  74.3942911  90.4746770  42.3980512  73.6110433  91.0168450  42.4918737
  75.0935656  90.9920750  42.7974754  85.5569318  81.9881765  46.6833009
  85.5459195  82.8706481  46.3126942  84.6886698  81.6353316  46.4887546
  77.0651815  91.1361834  51.0435850  77.7779787  91.7709299  50.9711751
  76.5741843  91.2325700  50.2275851  78.7869342  85.0413087  42.6153141
  77.8525620  85.1614549  42.4457846  78.9646010  84.1385554  42.3513151
  82.1741893  80.8830406  43.1503175  82.6402345  81.7158398  43.0763478
  82.6249393  80.4175388  43.8548434  72.1163728  88.8856278  51.8641420
  72.8173188  89.5192761  52.0170815  71.6458843  89.2271009  51.1037060
  80.2418124  87.2274228  40.1489327  80.5177968  87.1130822  41.0583202
  79.3722623  86.8291712  40.1101501  79.9165014  81.4400885  49.6893971
  79.2636464  81.6876793  49.0346424  80.2945394  80.6265023  49.3556448
  76.8772188  91.4760578  43.7922141  77.0594583  90.6582234  44.2549893
  77.7005174  91.6928271  43.3547031  77.2114354  90.4028764  41.0537190
  77.7402120  89.8921218  40.4407352  77.4742573  90.0871294  41.9182723
  70.5670102  91.4543880  43.8134965  69.8980477  91.9390008  43.3299006
  70.4282971  91.7013101  44.7278344  74.7075370  93.4887624  50.4117624
  75.2593678  93.6519245  51.1766709  75.0481564  94.0792062  49.7397649
  79.5586244  88.3148881  56.2666278  80.1026148  88.9278840  55.7721233
  78.9773089  88.8728460  56.7833291  77.8443757  91.4369599  47.3981306
  77.7194897  90.6359339  46.8892251  78.5022849  91.9315793  46.9095276
  79.9078666  89.2378619  49.0260856  78.9609001  89.1183971  48.9539183
  80.2561439  88.3501117  49.1087118  76.9125099  89.0331336  45.2265208
  76.7650062  88.1048043  45.4072778  77.7378593  89.0551426  44.7422284
  80.5159221  89.8559894  46.3130081  81.4405768  89.6502756  46.1754532
  80.3474524  89.6076295  47.2219423  76.9086613  76.8869173  40.2197326
  77.1250228  77.7693811  39.9186154  76.4280681  76.4955387  39.4902968
  80.3054537  90.3745562  41.6692173  80.4791415  89.8091984  40.9166025
  80.7983428  91.1746457  41.4871662  86.1593928  83.1381985  43.2882472
  86.6025074  82.3889310  42.8901596  85.2820439  83.1292121  42.9056204
  81.2929710  89.6912326  38.7689071  81.9880614  90.3119019  38.9876385
  81.6352860  88.8407677  39.0441449  83.1921133  87.1412032  40.2976402
  83.7172457  87.4799304  39.5725722  83.1043485  86.2059047  40.1139536
  74.8541181  91.0546105  52.4266278  75.1628308  90.8095252  53.2988978
  75.6516663  91.2592744  51.9385148  74.8761793  93.2084015  44.6571655
  74.4366784  92.7160394  45.3504511  75.6269910  92.6656983  44.4163730
  72.3235666  88.7522024  46.7293956  71.7015675  88.0892729  46.4296184
  72.9940533  88.7783156  46.0467604  82.8815039  87.7744935  55.6027600
  82.0910583  87.7569074  55.0632099  82.6448393  88.3133229  56.3576636
  83.0012914  84.6237402  52.9160328  83.0510919  84.4587409  53.8575851
  82.8926837  83.7564661  52.5258209  71.8849173  87.3025947  40.2052417
  72.0337293  87.9861412  39.5519090  72.6915616  87.2831037  40.7201873
  80.2916676  80.6068330  54.2319635  81.1926539  80.4674795  53.9403633
  80.3664651  80.7722785  55.1717812  84.5031111  87.0434343  53.1602350
  84.2115919  87.4064324  53.9965811  83.8903242  86.3301351  52.9815682
  85.7026793  84.6087223  45.6804920  86.5373684  85.0477027  45.8442480
  85.8385922  84.1325876  44.8613166  82.7518299  82.1666958  51.6282408
  83.2272421  82.3594604  50.8201259  81.8283864  82.2226144  51.3825791
  75.3844578  89.7974078  37.6764164  74.8118545  90.4164265  37.2234636
  75.9577372  90.3473440  38.2104086  81.4519968  79.0432718  49.8610713
  82.4037391  79.1430816  49.8822937  81.2823418  78.2510986  50.3708798
  78.6041838  90.0811228  38.8072747  79.5372511  90.0156790  39.0105622
  78.5165051  90.9167495  38.3487279  81.2329855  89.3977098  35.7676694
  81.1543486  89.0636962  36.6612452  82.0539521  89.8898866  35.7668167
  83.9308046  82.2638838  48.9753013  83.8984366  81.3254838  49.1612697
  84.5408669  82.3422874  48.2418838  75.7691377  81.1334891  35.0180217
  76.7150481  81.0041099  35.0868635  75.3905622  80.3949552  35.4949645
  84.0802534  79.0549881  49.0211296  83.5641583  78.2708338  48.8341225
  84.9642483  78.7268598  49.1857816  89.7484596  83.3254844  48.1159050
  90.4787984  83.0640133  48.6766753  89.1391541  82.5883566  48.1561118
  87.8299893  81.4662707  48.7133501  87.1033056  81.3318672  48.1049992
  87.4147180  81.7739536  49.5190219  85.4477688  77.6874559  46.0666932
  86.0422178  77.4470295  45.3560241  85.5204271  76.9681690  46.6940469
  67.6674843  91.5308170  46.3810097  67.5329311  90.7708571  45.8148095
  67.2506906  92.2549070  45.9138886  78.8033806  86.7145094  35.3886673
  79.5069656  86.9195096  36.0044328  78.0796455  87.2821856  35.6535756
  79.6331617  82.4654955  41.5088943  79.5766818  82.9223506  40.6696575
  80.1859959  81.7045640  41.3311785  83.4436423  78.2544687  42.3339062
  83.1873357  77.8541323  43.1647270  82.8189291  78.9688481  42.2089201
  87.7548760  80.9940760  44.8410354  87.1948318  81.0633949  45.6141916
  87.1492264  80.8181745  44.1209850  70.8243969  92.4277487  46.5928540
  70.7076353  93.3722920  46.4907230  70.0036415  92.1251049  46.9814339
  80.7120504  87.1527623  37.4385133  81.5466108  86.7208821  37.2562607
  80.5504847  86.9809637  38.3662027  80.3666396  83.6559736  38.8041472
  80.3115200  83.4904008  37.8629916  79.7412451  84.3635769  38.9603662
  77.6812303  85.9608648  58.1295035  78.5503463  86.1349300  57.7681670
  77.2019055  86.7803065  58.0070764  71.8498483  93.0805749  49.8084468
  72.7525730  93.1129359  50.1250963  71.6235853  92.1506200  49.8230804
  73.6052085  91.8336736  46.4694547  72.6547716  91.8338597  46.3558919
  73.9084571  91.0869470  45.9530582  89.3404779  97.6697274  47.5340309
  89.9783189  97.5504021  46.8303649  89.2225622  98.6178118  47.5928262
  86.1494485  97.6224702  47.4701834  85.8112997  97.5065767  46.5822369
  87.0184253  97.2215867  47.4502840  82.0081301  99.4760179  43.4598725
  81.4446166  99.3850115  42.6915013  81.8933696  98.6560083  43.9401218
  86.6314268  98.7759554  53.4288040  86.6202909  98.3812352  52.5568543
  86.7934908  98.0425626  54.0221811  79.5545733 100.9711370  46.2982945
  80.3467025 100.6302195  45.8829245  79.7942383 101.0806345  47.2185099
  87.5880860 103.1431146  38.7713190  86.9368839 103.7285227  38.3847204
  88.3825222 103.6737341  38.8308227  81.5136487 100.2320283  39.1700324
  82.2867363  99.6849270  39.0313200  81.8661886 101.0964533  39.3814786
  83.3521529 101.5596666  52.3767224  83.0611395 102.4642297  52.2613890
  83.9878514 101.6013193  53.0911293  84.2777736  98.9373514  48.9668583
  84.8741308  98.7129537  48.2525546  84.3352708  98.1958260  49.5694031
  83.8502764  96.3912950  36.8018774  84.1028285  95.8694471  36.0402237
  82.9127324  96.2279095  36.9045458  88.8946047  95.3948728  44.6093517
  89.6809137  94.9768151  44.2583934  89.1584752  96.2994820  44.7775166
  89.0656125 100.8321578  39.3082174  88.4301958 100.9056205  40.0203079
  88.7353531 101.4215177  38.6301253  94.2954474  95.3323961  45.5126496
  95.0279646  94.7623178  45.7464325  93.5393830  94.9445562  45.9533001
  83.5699053  98.2941055  39.0043149  83.4535311  97.6185959  39.6724233
  83.6801313  97.8073429  38.1875302  85.9130594  97.7551203  42.7089838
  85.5488801  97.2281824  43.4202760  86.7697710  97.3649672  42.5356324
  91.8179895  89.0445535  49.9721105  91.4863220  89.9140946  49.7482319
  91.2225508  88.7281819  50.6515135  85.5536081  92.7841102  37.7051187
  85.7210483  93.6521339  38.0721658  85.3633250  92.9468384  36.7812476
  88.3111414 101.2458081  49.3717017  88.0112137 102.1483120  49.2632824
  87.9662474 100.9790264  50.2238170  81.7623896  97.6971878  45.4053722
  80.8374392  97.5648092  45.6131413  82.0108309  98.4766097  45.9023664
  91.7108558  93.7640621  47.0514455  90.8025435  93.6956030  46.7573216
  91.6596154  94.2412566  47.8796280  85.5325302  95.2398760  38.6897854
  85.4124927  95.6855811  39.5283334  84.8377890  95.5884077  38.1311392
  79.1232707  97.3405152  46.2397511  79.2525088  97.5939630  47.1536922
  78.4430158  97.9332860  45.9202166  83.2932194 108.0102402  42.3387985
  83.2156224 108.9610227  42.4176466  82.6893838 107.6648274  42.9962911
  85.7849424  95.1830267  54.9949352  85.0082758  95.7424187  54.9852216
  86.4239987  95.6687050  55.5164222  93.5770204  91.9657060  48.8292328
  92.9344585  92.2589593  48.1832123  93.0725133  91.8509980  49.6345525
  91.2310368  95.7120233  39.5178188  92.1428224  95.9447620  39.3425885
  90.7220015  96.2957277  38.9553266  84.0395796  97.9915720  54.5567319
  84.7810481  98.5300764  54.2802142  83.3332782  98.6182009  54.7138871
  89.5151136 100.1344861  53.1539480  89.9234492  99.6927271  52.4094113
  88.7928397  99.5597488  53.4073673  85.8682206  95.0717468  50.5273037
  86.7143401  95.4956881  50.6707686  85.8080844  94.4151092  51.2211600
  89.8379950 100.6946051  46.9091769  89.2088813 100.8591766  46.2067837
  89.4505613 101.1087661  47.6802733  93.7169182 101.6300489  44.2636133
  93.0320221 102.0099391  43.7133166  93.8013032 102.2395816  44.9968081
  89.0181651  92.7321836  52.1854211  88.7742583  93.4863896  51.6488487
  89.2941582  93.1107184  53.0201458  90.9720114  99.2760448  50.8631477
  91.1837009  99.9192208  50.1865858  90.9249862  98.4422765  50.3953407
  88.5746343  91.8878269  47.7668049  87.7130822  92.1859522  48.0584786
  88.6008778  92.1048668  46.8349081  85.3907912 100.4320459  44.1741854
  85.8546258 100.7108162  43.3846477  85.1264710  99.5303904  43.9914945
  82.2831993  99.9791941  47.1121618  82.8533350 100.4079209  46.4739102
  82.8740105  99.6974526  47.8105803  84.3276798  96.5543612  40.9831419
  85.0300842  97.0064656  41.4505346  83.9957427  95.9127431  41.6111313
  82.7757160  95.1455368  55.3582629  82.1455821  95.8271649  55.5918026
  82.6693248  95.0338450  54.4135767  78.0702132  94.8127165  46.2848553
  77.2801186  95.0684693  45.8088664  78.5613380  95.6275502  46.3900594
  92.0865942 102.1532404  49.0353834  92.9083386 101.7512591  48.7536515
  92.0828345 102.0500638  49.9869950  80.0216878  95.1771744  43.2432030
  79.2248041  95.2890438  43.7615525  79.7942470  95.5158396  42.3772920
  85.8522545 101.7016447  51.1914544  85.9166978 102.1636854  52.0272716
  85.1433469 101.0713812  51.3196854  76.3539835  95.0657655  48.7163544
  76.6047874  95.9504665  48.9821120  76.8899384  94.8862256  47.9438636
 100.1771935  98.4971152  45.3838805  99.4235643  97.9278550  45.2282810
 100.3119476  98.4633817  46.3309440  85.5670563 103.3684554  41.0593525
  85.4316238 104.2136090  41.4878372  86.1080376 103.5703832  40.2959458
  82.0537903  89.4476134  57.7207880  81.6604848  88.8942333  58.3955524
  82.8704043  89.7586713  58.1114397  79.0199960 100.8859993  41.6321450
  79.5324481 101.6803243  41.7827014  79.6722673 100.1886283  41.5655051
  80.8294845 104.0025749  43.7144203  81.0061473 104.9243713  43.5265187
  81.6251679 103.6884168  44.1438583  84.9705864  90.8634013  55.3128136
  85.7115577  91.4641167  55.2332599  85.2023786  90.1211651  54.7546179
  80.1147202  96.0490381  53.5906366  80.0000717  95.1475638  53.8913465
  79.2591719  96.2954077  53.2391183  87.1939039 103.9908121  55.1893867
  86.7502894 103.2044500  54.8714771  87.8556253 104.1787271  54.5237758
  81.9526161 105.5203923  49.7154545  82.5033586 105.3920986  48.9431539
  81.1137636 105.8198812  49.3649438  89.2920277 104.2710921  53.2175268
  89.2738753 105.0919802  52.7255537  90.2140198 104.1464996  53.4425409
  85.7493332 101.7855050  54.0598776  86.2821668 101.0243339  53.8298084
  85.2207413 101.4928702  54.8022931  88.9163027  86.8915116  49.5892418
  88.5727296  87.7816758  49.5131529  89.2841989  86.7016774  48.7262003
  76.9848877  99.2148647  42.4081020  77.8224099  99.6245655  42.1914728
  77.1627145  98.2748089  42.3781214  88.8813309  96.8823727  38.0964853
  88.3659933  97.6528332  38.3353241  88.6090618  96.2088864  38.7197915
  86.4660420  91.7273428  43.1550092  85.6102017  91.3380279  42.9755730
  86.8787372  91.8065389  42.2949877  87.9959567  89.2619772  47.5541651
  87.4924363  89.2249907  46.7409457  88.2890174  90.1712514  47.6138308
  84.2402453  89.3458501  46.5607833  85.1055450  89.1501310  46.2013723
  84.3079962  89.1168853  47.4877190  93.8547583  99.6356082  40.0318027
  93.0777026  99.2967242  39.5873189  94.5339064  99.6408705  39.3572992
  88.6699612  94.7550820  39.9224634  88.3649748  95.0696969  40.7734778
  89.6230055  94.8332239  39.9651967  87.1146044 100.9141043  41.5717588
  86.5867406 100.1793802  41.2590826  86.6133547 101.6915719  41.3257557
  92.0938890  99.1090063  46.6884635  91.4362565  99.7989325  46.7764763
  92.8979290  99.4986495  47.0318621  81.8464772  91.5760709  43.9324200
  82.4208524  91.3535891  43.1997393  82.4335754  91.6449404  44.6852801
  90.9044349  97.4634436  44.7388576  91.4176231  98.0964428  45.2410286
  91.5545573  96.8635632  44.3731936  82.1734359  93.6065170  37.9520085
  81.3371671  93.9439857  38.2729360  82.0339129  93.4714150  37.0147222
  84.1487440  88.4501958  42.6599269  83.4951852  88.1350975  42.0355884
  84.1067914  87.8277699  43.3859092  85.2598644  98.7321253  34.5752561
  84.3525706  98.5010507  34.7743710  85.7569676  97.9358872  34.7626543
  88.1666723 107.4418760  37.4949248  87.4928422 107.7450457  38.1034205
  88.5532545 108.2447841  37.1454705  87.3825180  94.9383892  46.9846917
  86.4647741  95.1598839  46.8268605  87.7985324  95.0130202  46.1258624
  88.1660228  96.3375307  42.1149597  88.9132047  96.8496704  41.8056719
  88.4351817  96.0159360  42.9753991  86.4386878  98.8333848  39.0976552
  85.5298097  98.5492881  39.1949021  86.4681962  99.2532927  38.2379858
  91.6706145 102.4440438  42.8667719  91.2168472 101.6031347  42.9232910
  91.0400112 103.0801836  43.2042499  90.6139065  93.3732424  44.0968387
  89.8761822  92.8609810  44.4278629  90.8665838  92.9332805  43.2851663
  90.1139085 104.2816934  43.8017537  90.4062059 104.8421991  43.0829903
  90.6237705 104.5745495  44.5570696  90.7150692  86.1508676  44.6910156
  91.0209569  85.2906039  44.4036071  91.4403297  86.7426296  44.4909150
  77.0075048  96.5539362  43.0791754  76.8099448  95.9608723  42.3542820
  76.4521712  96.2491572  43.7967693  84.9871772  96.4462469  45.1986347
  85.0420382  95.4936305  45.1228823  84.1762974  96.6021908  45.6827645
  86.1362966 100.3742592  36.4364630  85.6982396  99.6578451  35.9770267
  86.8773407 100.6018706  35.8749721  82.9264132  95.0639528  42.9576726
  82.1131997  95.3633699  43.3641918  83.4223126  94.6695217  43.6751208
  85.0772710 105.0597285  44.8910990  85.0348889 105.2858132  43.9619522
  85.9935409 104.8260660  45.0396792  88.5238344  95.5281353  51.7891620
  88.8787731  95.7552826  52.6486085  89.1710475  95.8599730  51.1668875
  94.2536081  98.6499789  42.4940949  94.1153979  98.8401385  41.5662138
  93.8972299  99.4119172  42.9509000  82.4178207  92.6357884  48.5737961
  83.0577586  92.4946643  47.8760924  81.5855737  92.3492397  48.1976563
  94.2805460 100.7176316  47.5052220  94.7141967 100.6251605  48.3535274
  94.9937041 100.6933816  46.8672236  83.1938511 101.9360314  44.6872953
  83.9879109 101.4410634  44.4855528  82.4830203 101.4078177  44.3240659
  88.0133355 104.3178410  49.0385321  88.0670377 104.8869346  49.8063037
  87.1448136 104.4880295  48.6739358  79.5021274  96.0803396  40.7632706
  78.5718862  96.0187852  40.9802668  79.5978746  95.5579349  39.9669347
  79.4206823  92.6058209  43.3510948  79.6813640  93.5203542  43.2420108
  80.2423995  92.1382651  43.5007560  80.8931748  94.0195966  50.5209772
  81.5654802  93.8113328  49.8722421  80.0661535  93.8218052  50.0815004
  95.1421010 100.7600016  50.0385106  95.3356900 101.6645827  50.2844381
  95.0421628 100.3007435  50.8723691  86.7957320  90.6457907  52.5375433
  86.1485235  91.3447857  52.4439909  87.5658336  91.0794051  52.9051681
  90.2036118 100.9106759  55.6125986  90.0521625 100.6817311  54.6956070
  90.1940798 101.8677361  55.6257331  86.9721455  98.4838672  50.5972253
  87.9013515  98.6349831  50.4241220  86.5512485  98.5722693  49.7420899
  85.7709787 102.5089336  48.3670790  85.6320872 102.1408121  49.2396728
  84.9824383 103.0236976  48.1954748  86.3657939 107.6098433  39.7096327
  86.5409694 107.1386476  40.5241949  85.6790727 108.2364199  39.9377588
  87.3215002 101.8870939  45.7559628  86.9864834 101.8471709  46.6517278
  86.8218947 101.2215655  45.2830038  81.2959246  97.2938569  51.2812209
  81.1579044  96.5618808  51.8823748  82.2064169  97.2047469  50.9996397
  90.2574193  99.2326973  36.0296688  89.6403364  98.5073801  35.9329740
  89.7890682  99.9936334  35.6863762  83.9241546  97.0058528  50.7695889
  84.6341165  96.3651721  50.7282507  83.8810854  97.2571423  51.6922070
  91.9128325 103.9425882  53.6902468  91.8540871 103.2585102  53.0233051
  92.3147843 104.6844872  53.2383094  82.6370480  93.9923746  52.5891528
  82.1007837  93.5414485  53.2413125  82.0487189  94.1269655  51.8461993
  80.9319024 110.7587796  46.4836187  81.1715622 111.3906320  47.1615206
  80.0888220 110.4075836  46.7701546  82.0472739  93.4512398  35.1517992
  81.1702206  93.3301198  34.7880239  82.5230492  92.6598476  34.8996881
  91.9145732 101.9065466  51.9216448  91.0272511 101.5691387  52.0442847
  92.4844283 101.1748497  52.1585213  73.5674879  98.2389557  45.2459499
  74.2545919  97.9251287  44.6580514  73.4123008  99.1430922  44.9726751
  78.3709602  93.1279754  49.6744523  78.2867790  92.5205423  48.9394933
  77.5492308  93.6188772  49.6754019  85.4446886 106.5666918  48.8877691
  85.3717057 107.3721889  49.3996995  85.0024279 106.7658884  48.0625712
  85.2336665 105.8038688  42.3980512  84.4504187 106.3460368  42.4918737
  85.9329410 106.3212668  42.7974754  88.5433315  91.6133317  45.0414718
  89.0402015  90.8603280  44.7215788  87.7720297  91.6497634  44.4757927
  96.3963073  97.3173683  46.6833009  96.3852949  98.1998398  46.3126942
  95.5280452  96.9645234  46.4887546  87.9045569 106.4653752  51.0435850
  88.6173541 107.1001217  50.9711751  87.4135598 106.5617618  50.2275851
  89.6263096 100.3705005  42.6153141  88.6919375 100.4906467  42.4457846
  89.8039765  99.4677471  42.3513151  85.1268284  93.7550700  44.7686402
  84.7566072  93.2021741  45.4567308  85.6227377  93.1508834  44.2161403
  93.0135647  96.2122324  43.1503175  93.4796100  97.0450316  43.0763478
  93.4643148  95.7467306  43.8548434  82.9557483 104.2148195  51.8641420
  83.6566942 104.8484678  52.0170815  82.4852598 104.5562927  51.1037060
  91.0811879 102.5566145  40.1489327  91.3571722 102.4422740  41.0583202
  90.2116377 102.1583630  40.1101501  90.9852310  88.5802911  47.1894077
  90.0715390  88.8107138  47.3576284  91.4145412  88.6641355  48.0408109
  90.7558769  96.7692803  49.6893971  90.1030219  97.0168710  49.0346424
  91.1339149  95.9556941  49.3556448  87.7165943 106.8052496  43.7922141
  87.8988337 105.9874152  44.2549893  88.5398929 107.0220188  43.3547031
  88.0508108 105.7320681  41.0537190  88.5795874 105.2213136  40.4407352
  88.3136328 105.4163211  41.9182723  86.8046342  97.5112614  56.1760008
  86.1286979  97.4106743  56.8462383  87.6273976  97.3551828  56.6396005
  78.5525201 103.7484550  48.7972523  79.1378638 103.0028238  48.9300427
  78.3550039 104.0588507  49.6809187  81.4063856 106.7835798  43.8134965
  80.7374231 107.2681926  43.3299006  81.2676726 107.0305018  44.7278344
  73.1442856  96.3190151  47.5176966  73.1826955  95.7853741  48.3114084
  72.6383148  95.7925356  46.8987943  85.5469125 108.8179541  50.4117624
  86.0987433 108.9811163  51.1766709  85.8875318 109.4083979  49.7397649
  80.5233618  91.1654691  51.0139509  80.5874944  92.0269522  50.6016906
  80.4600738  90.5528693  50.2811867  79.9985890  93.2377824  54.6612543
  80.6257929  92.8554901  55.2750067  79.1413809  93.0192026  55.0268235
  90.3979999 103.6440799  56.2666278  90.9419903 104.2570757  55.7721233
  89.8166844 104.2020377  56.7833291  76.7751433  95.0454253  40.5930898
  77.0704874  94.1364931  40.5397951  75.8739469  95.0241992  40.2711900
  88.6837512 106.7661517  47.3981306  88.5588651 105.9651257  46.8892251
  89.3416603 107.2607710  46.9095276  80.3045680  93.1210249  46.5758446
  79.5832266  93.7346217  46.4365920  81.0938936  93.6568014  46.4975092
  90.7472420 104.5670537  49.0260856  89.8002756 104.4475888  48.9539183
  91.0955193 103.6793035  49.1087118  83.1071994  90.4564676  52.8499098
  83.6306395  90.7026972  53.6125407  82.8884327  91.2884711  52.4302235
  78.5039275  92.7268351  40.7170223  78.1751981  91.8465729  40.5345329
  78.8578645  92.6716019  41.6046612  87.7518854 104.3623253  45.2265208
  87.6043816 103.4339961  45.4072778  88.5772347 104.3843344  44.7422284
  81.6181098  93.0141320  41.0845700  81.9577170  93.5427242  40.3624309
  82.0653218  93.3521726  41.8604267  91.3552975 105.1851812  46.3130081
  92.2799523 104.9794673  46.1754532  91.1868279 104.9368213  47.2219423
  84.3124539  91.3978371  50.5348769  83.9721359  90.5986184  50.9369448
  83.6063545  91.6980082  49.9625602  84.9641010  88.4827683  48.9876092
  85.7867080  88.0088162  48.8654982  85.2079074  89.2618167  49.4874778
  83.6049245  91.5115942  39.2838993  84.3257607  91.8897195  38.7802710
  82.9814549  92.2304819  39.3873971  87.7480368  92.2161091  40.2197326
  87.9643982  93.0985729  39.9186154  87.2674435  91.8247304  39.4902968
  82.4879589  95.1746804  46.7968070  82.3424170  95.4887107  47.6892352
  82.0104793  95.7931704  46.2438969  84.3475972  92.1649352  46.8448960
  84.3337541  91.2690445  46.5081258  85.0648400  92.1720016  47.4787246
  86.2002103  92.5986692  48.8902087  85.9419881  93.5203763  48.8886418
  85.6687143  92.2017127  49.5802551  91.1448292 105.7037479  41.6692173
  91.3185169 105.1383902  40.9166025  91.6377183 106.5038374  41.4871662
  76.9625251  97.7152148  49.7355731  76.4178719  98.4911956  49.8676006
  77.8404601  98.0622953  49.5774853  83.7512868  91.0463732  42.1136530
  83.8728779  90.1180379  42.3127417  83.4614910  91.0602418  41.2014845
  86.6204058  88.7318643  45.2503250  86.6425755  88.7957976  44.2955229
  87.0372117  87.8923151  45.4443756  96.9987683  98.4673902  43.2882472
  97.4418829  97.7181228  42.8901596  96.1214193  98.4584039  42.9056204
  92.1323464 105.0204244  38.7689071  92.8274369 105.6410937  38.9876385
  92.4746614 104.1699595  39.0441449  77.7491273  96.8422045  52.6285888
  77.0073009  96.9904680  53.2150519  77.4284018  97.1030310  51.7652638
  94.0314887 102.4703949  40.2976402  94.5566211 102.8091222  39.5725722
  93.9437240 101.5350965  40.1139536  85.6934936 106.3838023  52.4266278
  86.0022062 106.1387170  53.2988978  86.4910418 106.5884661  51.9385148
  85.7155548 108.5375933  44.6571655  85.2760538 108.0452311  45.3504511
  86.4663665 107.9948900  44.4163730  78.1947887 104.7287473  44.6596283
  79.0205907 104.4291245  44.2794926  77.8441939 103.9595096  45.1086072
  83.1629420 104.0813942  46.7293956  82.5409429 103.4184647  46.4296184
  83.8334287 104.1075074  46.0467604  76.3956492 102.6473800  45.6185216
  75.5588400 102.2195974  45.4369218  76.3680137 102.8406243  46.5556008
  83.2353948  92.5595730  56.3226462  83.2842103  93.4357853  55.9404232
  83.7776462  92.0173123  55.7498106  93.7208793 103.1036853  55.6027600
  92.9304337 103.0860992  55.0632099  93.4842148 103.6425147  56.3576636
  93.8406668  99.9529319  52.9160328  93.8904673  99.7879327  53.8575851
  93.7320592  99.0856578  52.5258209  82.7242927 102.6317865  40.2052417
  82.8731047 103.3153329  39.5519090  83.5309370 102.6122955  40.7201873
  91.1310431  95.9360247  54.2319635  92.0320293  95.7966712  53.9403633
  91.2058405  96.1014702  55.1717812  85.4653236  93.3127102  53.0772821
  84.5956545  93.6060668  52.8055410  85.7012716  93.8967547  53.7980085
  95.3424865 102.3726261  53.1602350  95.0509673 102.7356241  53.9965811
  94.7296996 101.6593269  52.9815682  96.5420547  99.9379141  45.6804920
  97.3767439 100.3768945  45.8442480  96.6779676  99.4617794  44.8613166
  93.5912053  97.4958876  51.6282408  94.0666175  97.6886522  50.8201259
  92.6677619  97.5518061  51.3825791  80.4795560  98.6583043  41.2113486
  80.2341602  97.7545373  41.4093696  80.6491475  98.6600193  40.2692964
  88.1692270  89.5306719  50.5938242  88.6874214  90.2667746  50.2684730
  87.8147403  89.8370712  51.4285001  79.7491208  94.3911400  38.7099647
  79.0560452  94.4655755  38.0539683  79.5042959  93.6271744  39.2321164
  88.4204864  85.9507002  46.1139138  88.7006618  85.2830191  46.7399565
  89.2055471  86.1436097  45.6013802  86.2238333 105.1265995  37.6764164
  85.6512300 105.7456183  37.2234636  86.7971126 105.6765357  38.2104086
  92.2913722  94.3724636  49.8610713  93.2431145  94.4722733  49.8822937
  92.1217173  93.5802904  50.3708798  90.3128102  91.4580219  50.0470114
  89.7178034  91.7385232  49.3516603  90.0277799  91.9474120  50.8186855
  89.4435592 105.4103146  38.8072747  90.3766265 105.3448707  39.0105622
  89.3558805 106.2459412  38.3487279  92.0723609 104.7269016  35.7676694
  91.9937241 104.3928880  36.6612452  92.8933276 105.2190784  35.7668167
  94.7701800  97.5930755  48.9753013  94.7378120  96.6546756  49.1612697
  95.3802424  97.6714792  48.2418838  86.6085131  96.4626808  35.0180217
  87.5544236  96.3333016  35.0868635  86.2299376  95.7241470  35.4949645
  94.9196289  94.3841799  49.0211296  94.4035337  93.6000255  48.8341225
  95.8036237  94.0560515  49.1857816  92.5807016  88.1282814  44.9807109
  92.3831837  87.8197902  45.8650441  93.1906721  88.8544453  45.1105039
 100.5878350  98.6546762  48.1159050 101.3181739  98.3932050  48.6766753
  99.9785296  97.9175484  48.1561118  98.6693647  96.7954625  48.7133501
  97.9426811  96.6610590  48.1049992  98.2540934  97.1031453  49.5190219
  86.4923824 100.5144554  56.4780874  87.4126833 100.6923153  56.6720920
  86.4573407  99.5700600  56.3260573  84.7928048  94.3876785  34.9535102
  83.8859504  94.0909897  35.0297816  85.0704029  94.0906603  34.0869388
  75.7105989  95.7083148  45.4034149  75.3908773  94.8548456  45.1108523
  75.1639417  95.9231726  46.1592116  79.4885896  98.4245589  49.1203655
  79.7071906  99.3562697  49.1391689  79.9011670  98.0653563  49.9058459
  86.4090114  88.9313674  41.1079343  85.5990842  88.5860759  41.4834589
  87.0974531  88.6221218  41.6966955  88.3380662  88.0091721  42.7303640
  88.8911701  88.4287175  43.3893663  88.5750749  87.0827469  42.7726596
  84.3613761  93.9978795  58.5106404  84.2610488  94.9473152  58.4418495
  84.1435304  93.6697034  57.6382474  83.5626833  91.2463720  35.0947081
  84.4245997  91.5718618  35.3542899  83.7477177  90.4595216  34.5820147
  75.5794249  99.3286060  47.3727270  74.8857720  98.9140012  46.8597225
  76.3267240  99.3706596  46.7760689  91.7159469  90.1192246  42.2382304
  91.1358138  90.7777050  41.8560357  91.4495402  89.2969591  41.8269722
  90.1663036  89.5197304  44.4403625  90.6662814  89.6313839  43.6317943
  90.8098644  89.2158357  45.0804433  84.2245032  97.4275934  57.3271466
  83.7412113  98.2276294  57.5335355  84.3105971  97.4383879  56.3738910
  77.4930991  99.2604313  45.2493285  77.4701679  99.3592001  44.2975168
  77.8031628 100.1069464  45.5710451  80.1518369 101.3180468  49.3639899
  81.1061623 101.2864411  49.2969831  79.9530893 100.8571092  50.1790125
  80.7417751  99.8881584  51.9310697  81.5610640 100.3825663  51.9545534
  81.0154559  98.9713553  51.9028265  90.4984347  92.2792337  41.2938653
  89.6110202  92.5641987  41.0758847  90.9138336  92.1186100  40.4465929
  93.8498883  92.3038858  45.0092992  94.6259274  92.7935310  45.2817609
  93.1247018  92.7296912  45.4664861  96.2871442  93.0166477  46.0666932
  96.8815933  92.7762213  45.3560241  96.3598026  92.2973607  46.6940469
  78.5068598 106.8600088  46.3810097  78.3723066 106.1000489  45.8148095
  78.0900660 107.5840988  45.9138886  89.6427561 102.0437011  35.3886673
  90.3463411 102.2487014  36.0044328  88.9190210 102.6113773  35.6535756
  90.4725371  97.7946873  41.5088943  90.4160572  98.2515424  40.6696575
  91.0253714  97.0337557  41.3311785  94.2830177  93.5836605  42.3339062
  94.0267111  93.1833240  43.1647270  93.6583045  94.2980398  42.2089201
  98.5942515  96.3232678  44.8410354  98.0342073  96.3925867  45.6141916
  97.9886018  96.1473662  44.1209850  81.6637724 107.7569405  46.5928540
  81.5470108 108.7014837  46.4907230  80.8430170 107.4542966  46.9814339
  91.5514258 102.4819541  37.4385133  92.3859862 102.0500739  37.2562607
  91.3898601 102.3101554  38.3662027  91.2060150  98.9851654  38.8041472
  91.1508954  98.8195925  37.8629916  90.5806206  99.6927687  38.9603662
  75.9952665  94.2219718  52.6302894  76.6411529  93.7118672  53.1190119
  75.7869816  94.9588400  53.2046319  88.5206058 101.2900566  58.1295035
  89.3897217 101.4641218  57.7681670  88.0412809 102.1094983  58.0070764
  84.5156276  88.4859763  38.3826790  84.5034946  89.4301603  38.5395061
  85.4079698  88.3029908  38.0886252  82.6892238 108.4097667  49.8084468
  83.5919484 108.4421277  50.1250963  82.4629608 107.4798118  49.8230804
  84.4445840 107.1628653  46.4694547  83.4941471 107.1630515  46.3558919
  84.7478326 106.4161388  45.9530582  88.3308395  85.0802540  42.6372727
  87.5640791  84.5261026  42.7829409  88.7419100  85.1524408  43.4986879
  80.3350156  91.3687335  56.7277908  81.1981618  91.0124140  56.9381233
  79.7615567  91.0301230  57.4153313 100.1798533 112.9989192  47.5340309
 100.8176943 112.8795939  46.8303649 100.0619376 113.9470036  47.5928262
  96.9888240 112.9516620  47.4701834  96.6506751 112.8357684  46.5822369
  97.8578008 112.5507785  47.4502840  92.8475055 114.8052096  43.4598725
  92.2839920 114.7142033  42.6915013  92.7327450 113.9852001  43.9401218
  97.4708023 114.1051472  53.4288040  97.4596663 113.7104270  52.5568543
  97.6328662 113.3717544  54.0221811  90.3939487 116.3003288  46.2982945
  91.1860779 115.9594112  45.8829245  90.6336137 116.4098263  47.2185099
  92.3530241 115.5612201  39.1700324  93.1261117 115.0141188  39.0313200
  92.7055640 116.4256450  39.3814786  94.1915284 116.8888583  52.3767224
  93.9005150 117.7934214  52.2613890  94.8272268 116.9305111  53.0911293
  95.1171491 114.2665432  48.9668583  95.7135063 114.0421454  48.2525546
  95.1746462 113.5250177  49.5694031  94.6896519 111.7204867  36.8018774
  94.9422040 111.1986388  36.0402237  93.7521078 111.5571013  36.9045458
  99.7339802 110.7240646  44.6093517 100.5202891 110.3060069  44.2583934
  99.9978506 111.6286738  44.7775166  94.4092808 113.6232973  39.0043149
  94.2929066 112.9477877  39.6724233  94.5195068 113.1365347  38.1875302
  96.7524349 113.0843120  42.7089838  96.3882556 112.5573741  43.4202760
  97.6091465 112.6941589  42.5356324 102.6573649 104.3737453  49.9721105
 102.3256974 105.2432864  49.7482319 102.0619263 104.0573737  50.6515135
  96.3929836 108.1133020  37.7051187  96.5604238 108.9813256  38.0721658
  96.2027005 108.2760302  36.7812476  92.6017650 113.0263796  45.4053722
  91.6768147 112.8940010  45.6131413  92.8502063 113.8058015  45.9023664
 102.5502313 109.0932539  47.0514455 101.6419190 109.0247947  46.7573216
 102.4989908 109.5704484  47.8796280  96.3719056 110.5690677  38.6897854
  96.2518682 111.0147728  39.5283334  95.6771645 110.9175995  38.1311392
  89.9626461 112.6697069  46.2397511  90.0918842 112.9231548  47.1536922
  89.2823913 113.2624777  45.9202166  96.6243178 110.5122185  54.9949352
  95.8476512 111.0716105  54.9852216  97.2633741 110.9978968  55.5164222
 104.4163959 107.2948977  48.8292328 103.7738339 107.5881511  48.1832123
 103.9118888 107.1801898  49.6345525 102.0704123 111.0412151  39.5178188
 102.9821979 111.2739537  39.3425885 101.5613770 111.6249195  38.9553266
  94.8789551 113.3207638  54.5567319  95.6204235 113.8592682  54.2802142
  94.1726536 113.9473927  54.7138871  96.7075960 110.4009385  50.5273037
  97.5537156 110.8248799  50.6707686  96.6474598 109.7443010  51.2211600
  99.8575406 108.0613754  52.1854211  99.6136338 108.8155814  51.6488487
 100.1335336 108.4399101  53.0201458  99.4140097 107.2170187  47.7668049
  98.5524576 107.5151440  48.0584786  99.4402532 107.4340585  46.8349081
  96.2301667 115.7612377  44.1741854  96.6940012 116.0400080  43.3846477
  95.9658465 114.8595822  43.9914945  93.1225748 115.3083859  47.1121618
  93.6927105 115.7371127  46.4739102  93.7133860 115.0266443  47.8105803
  95.1670553 111.8835530  40.9831419  95.8694596 112.3356573  41.4505346
  94.8351181 111.2419348  41.6111313  93.6150914 110.4747286  55.3582629
  92.9849575 111.1563567  55.5918026  93.5087002 110.3630368  54.4135767
  88.9095887 110.1419082  46.2848553  88.1194941 110.3976611  45.8088664
  89.4007134 110.9567420  46.3900594  90.8610632 110.5063661  43.2432030
  90.0641795 110.6182356  43.7615525  90.6336224 110.8450314  42.3772920
  87.1933590 110.3949573  48.7163544  87.4441628 111.2796583  48.9821120
  87.7293138 110.2154174  47.9438636  92.8931657 104.7768052  57.7207880
  92.4998603 104.2234251  58.3955524  93.7097797 105.0878630  58.1114397
  89.8593715 116.2151910  41.6321450  90.3718235 117.0095160  41.7827014
  90.5116428 115.5178201  41.5655051  95.8099618 106.1925931  55.3128136
  96.5509332 106.7933084  55.2332599  96.0417541 105.4503569  54.7546179
  90.9540956 111.3782298  53.5906366  90.8394471 110.4767556  53.8913465
  90.0985474 111.6245995  53.2391183  99.7556781 102.2207034  49.5892418
  99.4121050 103.1108676  49.5131529 100.1235744 102.0308692  48.7262003
  87.8242632 114.5440564  42.4081020  88.6617854 114.9537573  42.1914728
  88.0020899 113.6040007  42.3781214  99.7207064 112.2115645  38.0964853
  99.2053687 112.9820250  38.3353241  99.4484372 111.5380781  38.7197915
  97.3054175 107.0565346  43.1550092  96.4495771 106.6672196  42.9755730
  97.7181127 107.1357307  42.2949877  98.8353321 104.5911689  47.5541651
  98.3318117 104.5541824  46.7409457  99.1283928 105.5004432  47.6138308
  95.0796207 104.6750419  46.5607833  95.9449204 104.4793228  46.2013723
  95.1473716 104.4460771  47.4877190  99.5093367 110.0842737  39.9224634
  99.2043503 110.3988886  40.7734778 100.4623809 110.1624157  39.9651967
  92.6858526 106.9052627  43.9324200  93.2602278 106.6827808  43.1997393
  93.2729509 106.9741321  44.6852801  93.0128114 108.9357088  37.9520085
  92.1765426 109.2731774  38.2729360  92.8732883 108.8006068  37.0147222
  94.9881194 103.7793876  42.6599269  94.3345606 103.4642893  42.0355884
  94.9461668 103.1569616  43.3859092  96.0992399 114.0613171  34.5752561
  95.1919461 113.8302424  34.7743710  96.5963431 113.2650790  34.7626543
  98.2218934 110.2675809  46.9846917  97.3041496 110.4890756  46.8268605
  98.6379078 110.3422120  46.1258624  99.0053982 111.6667225  42.1149597
  99.7525801 112.1788622  41.8056719  99.2745572 111.3451278  42.9753991
  97.2780632 114.1625766  39.0976552  96.3691852 113.8784798  39.1949021
  97.3075716 114.5824844  38.2379858 101.4532819 108.7024341  44.0968387
 100.7155576 108.1901727  44.4278629 101.7059593 108.2624723  43.2851663
 101.5544447 101.4800593  44.6910156 101.8603324 100.6197957  44.4036071
 102.2797052 102.0718213  44.4909150  87.8468803 111.8831280  43.0791754
  87.6493203 111.2900641  42.3542820  87.2915467 111.5783490  43.7967693
  95.8265526 111.7754386  45.1986347  95.8814136 110.8228223  45.1228823
  95.0156728 111.9313825  45.6827645  93.7657886 110.3931446  42.9576726
  92.9525752 110.6925617  43.3641918  94.2616881 109.9987135  43.6751208
  99.3632098 110.8573271  51.7891620  99.7181486 111.0844744  52.6486085
 100.0104229 111.1891647  51.1668875  93.2571961 107.9649802  48.5737961
  93.8971340 107.8238561  47.8760924  92.4249492 107.6784315  48.1976563
  94.0332265 117.2652232  44.6872953  94.8272864 116.7702552  44.4855528
  93.3223957 116.7370095  44.3240659  90.3415029 111.4095314  40.7632706
  89.4112617 111.3479769  40.9802668  90.4372501 110.8871266  39.9669347
  90.2600578 107.9350127  43.3510948  90.5207395 108.8495460  43.2420108
  91.0817750 107.4674569  43.5007560  91.7325503 109.3487884  50.5209772
  92.4048556 109.1405246  49.8722421  90.9055289 109.1509970  50.0815004
  97.6351075 105.9749825  52.5375433  96.9878990 106.6739774  52.4439909
  98.4052090 106.4085969  52.9051681  97.8115209 113.8130590  50.5972253
  98.7407269 113.9641749  50.4241220  97.3906239 113.9014610  49.7420899
  92.1353000 112.6230487  51.2812209  91.9972798 111.8910726  51.8823748
  93.0457924 112.5339387  50.9996397  94.7635301 112.3350446  50.7695889
  95.4734919 111.6943638  50.7282507  94.7204609 112.5863341  51.6922070
  93.4764235 109.3215664  52.5891528  92.9401592 108.8706402  53.2413125
  92.8880943 109.4561573  51.8461993  92.8866494 108.7804315  35.1517992
  92.0095960 108.6593116  34.7880239  93.3624247 107.9890394  34.8996881
  84.4068634 113.5681475  45.2459499  85.0939674 113.2543205  44.6580514
  84.2516763 114.4722840  44.9726751  89.2103356 108.4571672  49.6744523
  89.1261545 107.8497341  48.9394933  88.3886062 108.9480690  49.6754019
  99.3827070 106.9425235  45.0414718  99.8795769 106.1895197  44.7215788
  98.6114051 106.9789552  44.4757927  95.9662039 109.0842618  44.7686402
  95.5959826 108.5313658  45.4567308  96.4621131 108.4800752  44.2161403
 101.8246065 103.9094829  47.1894077 100.9109144 104.1399055  47.3576284
 102.2539166 103.9933273  48.0408109 101.5952523 112.0984721  49.6893971
 100.9423973 112.3460628  49.0346424 101.9732903 111.2848859  49.3556448
  97.6440096 112.8404532  56.1760008  96.9680733 112.7398661  56.8462383
  98.4667730 112.6843745  56.6396005  89.3918955 119.0776468  48.7972523
  89.9772392 118.3320156  48.9300427  89.1943794 119.3880425  49.6809187
  83.9836610 111.6482068  47.5176966  84.0220710 111.1145659  48.3114084
  83.4776903 111.1217274  46.8987943  91.3627372 106.4946609  51.0139509
  91.4268699 107.3561440  50.6016906  91.2994493 105.8820611  50.2811867
  90.8379645 108.5669741  54.6612543  91.4651684 108.1846819  55.2750067
  89.9807564 108.3483943  55.0268235  87.6145188 110.3746171  40.5930898
  87.9098629 109.4656849  40.5397951  86.7133223 110.3533910  40.2711900
  91.1439435 108.4502167  46.5758446  90.4226020 109.0638135  46.4365920
  91.9332690 108.9859932  46.4975092  93.9465748 105.7856594  52.8499098
  94.4700150 106.0318890  53.6125407  93.7278081 106.6176628  52.4302235
  89.3433029 108.0560268  40.7170223  89.0145735 107.1757647  40.5345329
  89.6972400 108.0007937  41.6046612  92.4574852 108.3433238  41.0845700
  92.7970925 108.8719159  40.3624309  92.9046973 108.6813644  41.8604267
  95.1518293 106.7270289  50.5348769  94.8115114 105.9278102  50.9369448
  94.4457299 107.0272000  49.9625602  95.8034765 103.8119601  48.9876092
  96.6260834 103.3380079  48.8654982  96.0472829 104.5910085  49.4874778
  94.4442999 106.8407860  39.2838993  95.1651362 107.2189112  38.7802710
  93.8208304 107.5596736  39.3873971  98.5874122 107.5453009  40.2197326
  98.8037737 108.4277646  39.9186154  98.1068190 107.1539222  39.4902968
  93.3273344 110.5038722  46.7968070  93.1817924 110.8179025  47.6892352
  92.8498547 111.1223622  46.2438969  95.1869727 107.4941270  46.8448960
  95.1731295 106.5982363  46.5081258  95.9042155 107.5011934  47.4787246
  97.0395857 107.9278610  48.8902087  96.7813635 108.8495681  48.8886418
  96.5080898 107.5309045  49.5802551  87.8019006 113.0444066  49.7355731
  87.2572474 113.8203874  49.8676006  88.6798356 113.3914871  49.5774853
  94.5906623 106.3755650  42.1136530  94.7122534 105.4472296  42.3127417
  94.3008665 106.3894336  41.2014845  97.4597813 104.0610560  45.2503250
  97.4819510 104.1249894  44.2955229  97.8765872 103.2215069  45.4443756
  88.5885028 112.1713962  52.6285888  87.8466764 112.3196598  53.2150519
  88.2677772 112.4322228  51.7652638  89.0341641 120.0579391  44.6596283
  89.8599661 119.7583163  44.2794926  88.6835693 119.2887014  45.1086072
  87.2350246 117.9765718  45.6185216  86.3982155 117.5487892  45.4369218
  87.2073892 118.1698161  46.5556008  94.0747702 107.8887647  56.3226462
  94.1235858 108.7649770  55.9404232  94.6170216 107.3465040  55.7498106
 101.9704185 111.2652165  54.2319635 102.8714048 111.1258630  53.9403633
 102.0452160 111.4306620  55.1717812  96.3046991 108.6419020  53.0772821
  95.4350300 108.9352586  52.8055410  96.5406471 109.2259465  53.7980085
  91.3189314 113.9874960  41.2113486  91.0735356 113.0837290  41.4093696
  91.4885229 113.9892111  40.2692964  99.0086024 104.8598637  50.5938242
  99.5267968 105.5959664  50.2684730  98.6541157 105.1662630  51.4285001
  90.5884962 109.7203318  38.7099647  89.8954207 109.7947673  38.0539683
  90.3436714 108.9563662  39.2321164  99.2598619 101.2798919  46.1139138
  99.5400372 100.6122108  46.7399565 100.0449225 101.4728015  45.6013802
 103.1307477 109.7016553  49.8610713 104.0824900 109.8014651  49.8822937
 102.9610927 108.9094822  50.3708798 101.1521856 106.7872136  50.0470114
 100.5571788 107.0677149  49.3516603 100.8671553 107.2766037  50.8186855
  97.4478886 111.7918726  35.0180217  98.3937990 111.6624934  35.0868635
  97.0693130 111.0533388  35.4949645 105.7590043 109.7133716  49.0211296
 105.2429092 108.9292173  48.8341225 106.6429992 109.3852433  49.1857816
 103.4200770 103.4574732  44.9807109 103.2225591 103.1489820  45.8650441
 104.0300476 104.1836371  45.1105039  95.6321803 109.7168702  34.9535102
  94.7253258 109.4201815  35.0297816  95.9097784 109.4198520  34.0869388
  86.5499743 111.0375066  45.4034149  86.2302527 110.1840374  45.1108523
  86.0033171 111.2523644  46.1592116  90.3279651 113.7537507  49.1203655
  90.5465660 114.6854615  49.1391689  90.7405424 113.3945481  49.9058459
  97.2483868 104.2605592  41.1079343  96.4384597 103.9152677  41.4834589
  97.9368285 103.9513136  41.6966955  99.1774417 103.3383639  42.7303640
  99.7305455 103.7579092  43.3893663  99.4144503 102.4119387  42.7726596
  95.2007516 109.3270712  58.5106404  95.1004243 110.2765069  58.4418495
  94.9829058 108.9988951  57.6382474  94.4020587 106.5755638  35.0947081
  95.2639751 106.9010536  35.3542899  94.5870931 105.7887133  34.5820147
  86.4188003 114.6577977  47.3727270  85.7251475 114.2431930  46.8597225
  87.1660994 114.6998514  46.7760689 102.5553224 105.4484164  42.2382304
 101.9751893 106.1068968  41.8560357 102.2889156 104.6261509  41.8269722
 101.0056790 104.8489222  44.4403625 101.5056569 104.9605756  43.6317943
 101.6492398 104.5450275  45.0804433  95.0638786 112.7567851  57.3271466
  94.5805868 113.5568211  57.5335355  95.1499725 112.7675796  56.3738910
  88.3324746 114.5896231  45.2493285  88.3095434 114.6883918  44.2975168
  88.6425382 115.4361382  45.5710451  90.9912123 116.6472386  49.3639899
  91.9455377 116.6156328  49.2969831  90.7924647 116.1863010  50.1790125
  91.5811506 115.2173502  51.9310697  92.4004395 115.7117581  51.9545534
  91.8548313 114.3005470  51.9028265 101.3378102 107.6084254  41.2938653
 100.4503957 107.8933905  41.0758847 101.7532091 107.4478018  40.4465929
 104.6892638 107.6330775  45.0092992 105.4653028 108.1227228  45.2817609
 103.9640772 108.0588830  45.4664861 107.1265197 108.3458395  46.0666932
 107.7209687 108.1054131  45.3560241 107.1991780 107.6265525  46.6940469
 105.1223931 108.9128522  42.3339062 104.8660866 108.5125158  43.1647270
 104.4976800 109.6272316  42.2089201  86.8346420 109.5511636  52.6302894
  87.4805283 109.0410590  53.1190119  86.6263571 110.2880318  53.2046319
  95.3550030 103.8151681  38.3826790  95.3428700 104.7593520  38.5395061
  96.2473452 103.6321826  38.0886252  99.1702150 100.4094457  42.6372727
  98.4034546  99.8552944  42.7829409  99.5812855 100.4816326  43.4986879
  91.1743911 106.6979253  56.7277908  92.0375372 106.3416058  56.9381233
  90.6009322 106.3593148  57.4153313  35.1436008  -1.9700192  34.2585616
  35.7814418  -2.0893444  33.5548956  35.0256851  -1.0219348  34.3173568
  32.4345497  -0.8637912  40.1533346  32.4234138  -1.2585114  39.2813850
  32.5966136  -1.5971839  40.7467118  29.1552758   1.9199200  39.1012530
  28.8642624   2.8244831  38.9859197  29.7909742   1.9615727  39.8156600
  30.0808965  -0.7023952  35.6913890  30.6772537  -0.9267929  34.9770853
  30.1383936  -1.4439206  36.2939338  40.0985703  -4.3073505  32.2371803
  40.8310875  -4.8774288  32.4709632  39.3425059  -4.6951904  32.6778308
  34.1142643   1.6060615  36.0962324  33.8143366   2.5085654  35.9878131
  33.7693703   1.3392799  36.9483477  29.0963423   8.3704936  29.0633292
  29.0187453   9.3212761  29.1421772  28.4925066   8.0250808  29.7208218
  39.3801433  -7.6740406  35.5537635  38.7375814  -7.3807873  34.9077430
  38.8756362  -7.7887486  36.3590832  29.8427025  -1.6481745  41.2812625
  30.5841709  -1.1096702  41.0047449  29.1364010  -1.0215457  41.4384177
  35.3182365   0.4947395  39.8784787  35.7265721   0.0529806  39.1339419
  34.5959626  -0.0799978  40.1318980  35.6411179   1.0548586  33.6337076
  35.0120042   1.2194300  32.9313144  35.2536841   1.4690195  34.4048040
  39.5200411   1.9903023  30.9881440  38.8351449   2.3701925  30.4378473
  39.6044260   2.5998350  31.7213387  36.7751343  -0.3637018  37.5876783
  36.9868238   0.2794742  36.9111164  36.7281091  -1.1974701  37.1198713
  37.8897171   2.5134938  35.7599140  38.7114614   2.1115125  35.4781822
  37.8859574   2.4103172  36.7115256  31.6553774   2.0618981  37.9159851
  31.7198207   2.5239388  38.7518023  30.9464698   1.4316346  38.0442161
  45.9803164  -1.1426314  32.1084112  45.2266872  -1.7118916  31.9528116
  46.1150705  -1.1763649  33.0554747  32.9970268   4.3510655  41.9139173
  32.5534122   3.5647034  41.5960078  33.6587482   4.5389806  41.2483064
  27.7557389   5.8806457  36.4399852  28.3064815   5.7523520  35.6676846
  26.9168865   6.1801346  36.0894745  35.0951506   4.6313455  39.9420575
  35.0769982   5.4522336  39.4500844  36.0171426   4.5067530  40.1670716
  31.5524560   2.1457585  40.7844083  32.0852897   1.3845873  40.5543391
  31.0238642   1.8531236  41.5268238  37.8970119  -0.5307402  33.4129941
  37.2393794   0.1591859  33.5010070  38.7010518  -0.1410970  33.7563928
  37.4737374   2.8042972  29.5913026  37.0199701   1.9633882  29.6478216
  36.8431341   3.4404370  29.9287806  35.9170313   4.6419468  30.5262844
  36.2093288   5.2024526  29.8075210  36.4268934   4.9348029  31.2816003
  30.8803939   5.4199819  31.6156297  30.8380117   5.6460666  30.6864829
  31.7966637   5.1863194  31.7642098  34.3269572  -4.1116113  38.5136926
  34.6818960  -3.8844640  39.3731392  34.9741704  -3.7797736  37.8914182
  40.0836689   1.0778850  34.2297527  40.5173196   0.9854139  35.0780581
  40.7968270   1.0536350  33.5917543  33.8164584   4.6780944  35.7630627
  33.8701606   5.2471880  36.5308343  32.9479365   4.8482829  35.3984665
  40.9452239   1.1202551  36.7630412  41.1388129   2.0248361  37.0089687
  40.8452857   0.6609970  37.5968997  36.0067347   1.2709293  42.3371293
  35.8552854   1.0419845  41.4201377  35.9972027   2.2279895  42.3502638
  32.7752684  -1.1558794  37.3217559  33.7044744  -1.0047634  37.1486527
  32.3543714  -1.0674773  36.4666206  31.5741015   2.8691870  35.0916097
  31.4352101   2.5010655  35.9642035  30.7855612   3.3839510  34.9200055
  33.1246231   2.2473473  32.4804935  32.7896063   2.2074243  33.3762585
  32.6250176   1.5818189  32.0075345  29.7272775  -2.6338937  37.4941195
  30.4372394  -3.2745745  37.4527814  29.6842083  -2.3826043  38.4167376
  37.7159554   4.3028416  40.4147775  37.6572100   3.6187636  39.7478358
  38.1179072   5.0447406  39.9628401  26.7350253  11.1190330  33.2081494
  26.9746851  11.7508854  33.8860512  25.8919449  10.7678370  33.4946853
  37.7176961   2.2668000  38.6461754  36.8303740   1.9293922  38.7688153
  38.2875512   1.5351031  38.8830520  31.2478114   6.9269452  35.6122998
  31.1748286   7.7324424  36.1242302  30.8055508   7.1261418  34.7871019
  42.1994302  -2.3223783  33.4078316  42.1884178  -1.4399067  33.0372249
  41.3311681  -2.6752232  33.2132853  33.7076798   6.8256286  37.7681156
  34.4204770   7.4603751  37.6957058  33.2166827   6.9220152  36.9521158
  28.7588712   4.5750730  38.5886727  29.4598171   5.2087213  38.7416121
  28.2883827   4.9165461  37.8282366  36.5589998  -2.8704663  36.4139277
  35.9061448  -2.6228755  35.7591730  36.9370377  -3.6840525  36.0801755
  33.5197171   7.1655030  30.5167448  33.7019566   6.3476686  30.9795200
  34.3430157   7.3822723  30.0792338  32.6077571  -2.1284852  42.9005315
  31.9318208  -2.2290723  43.5707690  33.4305204  -2.2845638  43.3641312
  24.3556430   4.1087085  35.5217830  24.9409866   3.3630773  35.6545734
  24.1581268   4.4191041  36.4054494  31.3500353   9.1782076  37.1362930
  31.9018661   9.3413697  37.9012016  31.6906547   9.7686513  36.4642955
  36.2011228   4.0043333  42.9911585  36.7451132   4.6173291  42.4966540
  35.6198073   4.5622912  43.5078598  34.4868741   7.1264051  34.1226613
  34.3619880   6.3253791  33.6137558  35.1447832   7.6210245  33.6340583
  36.5503649   4.9273071  35.7506163  35.6033985   4.8078422  35.6784489
  36.8986422   4.0395569  35.8332424  33.5550082   4.7225787  31.9510515
  33.4075045   3.7942495  32.1318085  34.3803576   4.7445878  31.4667590
  37.1584204   5.5454346  33.0375388  38.0830752   5.3397208  32.8999839
  36.9899508   5.2970747  33.9464729  36.9479520   6.0640014  28.3937479
  37.1216398   5.4986436  27.6411332  37.4408412   6.8640909  28.2116969
  42.8018912  -1.1723563  30.0127779  43.2450058  -1.9216238  29.6146902
  41.9245422  -1.1813427  29.6301511  31.4966165   6.7440557  39.1511585
  31.8053291   6.4989704  40.0234284  32.2941647   6.9487196  38.6630455
  31.5186777   8.8978467  31.3816961  31.0791767   8.4054846  32.0749818
  32.2694894   8.3551435  31.1409037  28.9660649   4.4416476  33.4539263
  28.3440658   3.7787181  33.1541491  29.6365516   4.4677608  32.7712911
  39.5240022   3.4639387  42.3272906  38.7335566   3.4463526  41.7877406
  39.2873377   4.0027681  43.0821943  39.6437897   0.3131854  39.6405635
  39.6935902   0.1481861  40.5821158  39.5351820  -0.5540887  39.2503515
  36.9341660  -3.7037218  40.9564941  37.8351522  -3.8430754  40.6648939
  37.0089634  -3.5382764  41.8963119  41.1456094   2.7328795  39.8847656
  40.8540902   3.0958776  40.7211117  40.5328225   2.0195803  39.7060988
  42.3451776   0.2981675  32.4050226  43.1798668   0.7371479  32.5687787
  42.4810905  -0.1779672  31.5858472  39.3943282  -2.1438590  38.3527714
  39.8697404  -1.9510944  37.5446566  38.4708848  -2.0879404  38.1071098
  38.0944951  -5.2672830  36.5856020  39.0462374  -5.1674733  36.6068244
  37.9248402  -6.0594562  37.0954104  40.5733029  -2.0466710  35.6998319
  40.5409349  -2.9850710  35.8858003  41.1833653  -1.9682674  34.9664144
  40.7227517  -5.2555667  35.7456603  40.2066566  -6.0397210  35.5586532
  41.6067466  -5.5836950  35.9103122  46.3909579  -0.9850704  34.8404356
  47.1212967  -1.2465416  35.4012060  45.7816524  -1.7221982  34.8806424
  44.4724876  -2.8442841  35.4378807  43.7458040  -2.9786876  34.8295299
  44.0572163  -2.5366012  36.2435526  32.2955052   0.8747089  43.2026181
  33.2158062   1.0525688  43.3966227  32.2604635  -0.0696866  43.0505880
  30.0276260  -2.2121532  44.0516772  29.5443342  -1.4121172  44.2580661
  30.1137199  -2.2013587  43.0984216  25.9549598   1.6783003  36.0885206
  26.9092851   1.6466945  36.0215138  25.7562121   1.2173626  36.9035432
  26.5448980   0.2484119  38.6556004  27.3641869   0.7428197  38.6790841
  26.8185788  -0.6683913  38.6273571  24.3099827   7.2202622  33.1055404
  24.1754295   6.4603023  32.5393402  23.8931889   7.9443522  32.6384193
  44.3973744  -3.3164788  31.5655660  43.8373302  -3.2471599  32.3387222
  43.7917247  -3.4923803  30.8455157  27.4668952   8.1171939  33.3173847
  27.3501337   9.0617372  33.2152537  26.6461399   7.8145501  33.7059646
  34.3237286   1.6503100  44.8540341  35.1928446   1.8243752  44.4926976
  33.8444038   2.4697517  44.7316071  28.4923467   8.7700201  36.5329775
  29.3950713   8.8023811  36.8496270  28.2660837   7.8400652  36.5476111
  30.2477069   7.5231188  33.1939854  29.2972700   7.5233049  33.0804226
  30.5509555   6.7763922  32.6775888  45.9829762  13.3591726  34.2585616
  46.6208172  13.2398473  33.5548956  45.8650605  14.3072570  34.3173568
  42.7919468  13.3119154  34.1947141  42.4537980  13.1960219  33.3067676
  43.6609237  12.9110319  34.1748147  38.6506284  15.1654630  30.1844032
  38.0871149  15.0744567  29.4160319  38.5358679  14.3454535  30.6646524
  43.2739251  14.4654006  40.1533346  43.2627892  14.0706804  39.2813850
  43.4359891  13.7320078  40.7467118  36.1970716  16.6605822  33.0228252
  36.9892008  16.3196647  32.6074551  36.4367366  16.7700797  33.9430405
  44.2305843  18.8325598  25.4958497  43.5793823  19.4179679  25.1092510
  45.0250206  19.3631793  25.5553534  38.1561470  15.9214735  25.8945631
  38.9292346  15.3743722  25.7558507  38.5086869  16.7858985  26.1060092
  39.9946513  17.2491118  39.1012530  39.7036378  18.1536748  38.9859197
  40.6303497  17.2907645  39.8156600  40.9202719  14.6267966  35.6913890
  41.5166292  14.4023988  34.9770853  40.9777691  13.8852712  36.2939338
  40.4927748  12.0807401  23.5264081  40.7453268  11.5588923  22.7647544
  39.5552307  11.9173547  23.6290764  45.5371031  11.0843180  31.3338824
  46.3234120  10.6662603  30.9829241  45.8009735  11.9889272  31.5020472
  45.7081108  16.5216030  26.0327481  45.0726941  16.5950657  26.7448385
  45.3778514  17.1109629  25.3546560  50.9379458  11.0218413  32.2371803
  51.6704630  10.4517630  32.4709632  50.1818813  10.6340013  32.6778308
  40.2124037  13.9835507  25.7288456  40.0960295  13.3080411  26.3969540
  40.3226296  13.4967881  24.9120609  42.5555577  13.4445654  29.4335145
  42.1913785  12.9176275  30.1448066  43.4122693  13.0544124  29.2601630
  48.4604878   4.7339987  36.6966411  48.1288203   5.6035398  36.4727626
  47.8650491   4.4176271  37.3760442  44.9536398  16.9352533  36.0962324
  44.6537121  17.8377572  35.9878131  44.6087457  16.6684716  36.9483477
  38.4048879  13.3866330  32.1299028  37.4799376  13.2542544  32.3376720
  38.6533292  14.1660549  32.6268971  48.3533541   9.4535073  33.7759761
  47.4450419   9.3850482  33.4818522  48.3021137   9.9307018  34.6041587
  42.1750285  10.9293212  25.4143160  42.0549910  11.3750262  26.2528641
  41.4802874  11.2778529  24.8556698  35.7657690  13.0299603  32.9642817
  35.8950071  13.2834082  33.8782229  35.0855141  13.6227311  32.6447472
  39.9357177  23.6996853  29.0633292  39.8581207  24.6504678  29.1421772
  39.3318821  23.3542726  29.7208218  42.4274407  10.8724719  41.7194658
  41.6507741  11.4318639  41.7097523  43.0664970  11.3581502  42.2409529
  50.2195188   7.6551512  35.5537635  49.5769568   7.9484045  34.9077430
  49.7150116   7.5404432  36.3590832  47.8735351  11.4014685  26.2423494
  48.7853208  11.6342072  26.0671192  47.3644999  11.9851729  25.6798573
  40.6820779  13.6810172  41.2812625  41.4235464  14.2195216  41.0047449
  39.9757765  14.3076461  41.4384177  46.1576119  15.8239313  39.8784787
  46.5659475  15.3821723  39.1339419  45.4353381  15.2491940  40.1318980
  42.5107189  10.7611919  37.2518344  43.3568384  11.1851333  37.3952993
  42.4505827  10.1045544  37.9456907  46.4804934  16.3840503  33.6337076
  45.8513796  16.5486217  32.9313144  46.0930596  16.7982113  34.4048040
  50.3594166  17.3194941  30.9881440  49.6745204  17.6993842  30.4378473
  50.4438015  17.9290268  31.7213387  45.6606634   8.4216288  38.9099518
  45.4167566   9.1758348  38.3733793  45.9366565   8.8001635  39.7446765
  47.6145097  14.9654900  37.5876783  47.8261993  15.6086660  36.9111164
  47.5674846  14.1317217  37.1198713  45.2171326   7.5772721  34.4913355
  44.3555805   7.8753974  34.7830093  45.2433761   7.7943120  33.5594388
  42.0332896  16.1214911  30.8987161  42.4971241  16.4002614  30.1091783
  41.7689694  15.2198356  30.7160252  38.9256977  15.6686393  33.8366924
  39.4958334  16.0973661  33.1984409  39.5165089  15.3868978  34.5351110
  40.9701782  12.2438064  27.7076726  41.6725825  12.6959107  28.1750652
  40.6382410  11.6021883  28.3356619  39.4182143  10.8349820  42.0827935
  38.7880804  11.5166101  42.3163332  39.3118231  10.7232902  41.1381074
  34.7127116  10.5021616  33.0093860  33.9226170  10.7579145  32.5333970
  35.2038363  11.3169954  33.1145900  48.7290925  17.8426856  35.7599140
  49.5508369  17.4407043  35.4781822  48.7253328  17.7395090  36.7115256
  36.6641861  10.8666196  29.9677336  35.8673024  10.9784890  30.4860832
  36.4367453  11.2052848  29.1018227  42.4947529  17.3910899  37.9159851
  42.5591961  17.8531306  38.7518023  41.7858453  16.7608264  38.0442161
  32.9964819  10.7552107  35.4408850  33.2472857  11.6399117  35.7066426
  33.5324367  10.5756708  34.6683942  56.8196918  14.1865604  32.1084112
  56.0660627  13.6173002  31.9528116  56.9544459  14.1528269  33.0554747
  42.2095546  19.0579006  27.7838831  42.0741221  19.9030542  28.2123679
  42.7505359  19.2598284  27.0204765  38.6962886   5.1370586  44.4453187
  38.3029832   4.5836785  45.1200831  39.5129026   5.4481165  44.8359704
  35.6624944  16.5754444  28.3566756  36.1749464  17.3697695  28.5072321
  36.3147657  15.8780735  28.2900358  37.4719828  19.6920201  30.4389510
  37.6486457  20.6138165  30.2510493  38.2676662  19.3778620  30.8683889
  41.6130847   6.5528465  42.0373443  42.3540560   7.1535618  41.9577906
  41.8448770   5.8106103  41.4791486  36.7572185  11.7384833  40.3151673
  36.6425700  10.8370090  40.6158772  35.9016703  11.9848529  39.9636489
  43.8364023  19.6802573  41.9139173  43.3927877  18.8938951  41.5960078
  44.4981236  19.8681723  41.2483064  38.5951144  21.2098374  36.4399852
  39.1458569  21.0815438  35.6676846  37.7562620  21.5093263  36.0894745
  45.9345261  19.9605373  39.9420575  45.9163736  20.7814254  39.4500844
  46.8565181  19.8359448  40.1670716  42.3918315  17.4749502  40.7844083
  42.9246652  16.7137790  40.5543391  41.8632396  17.1823154  41.5268238
  45.5588010   2.5809568  36.3137725  45.2152279   3.4711210  36.2376835
  45.9266972   2.3911226  35.4507310  33.6273860  14.9043099  29.1326327
  34.4649082  15.3140107  28.9160035  33.8052128  13.9642541  29.1026521
  45.5238293  12.5718179  24.8210160  45.0084916  13.3422784  25.0598547
  45.2515601  11.8983316  25.4443221  43.1085404   7.4167880  29.8795398
  42.2527000   7.0274731  29.7001037  43.5212355   7.4959841  29.0195184
  44.6384550   4.9514223  34.2786958  44.1349346   4.9144359  33.4654763
  44.9315157   5.8606966  34.3383615  40.8827436   5.0352953  33.2853140
  41.7480433   4.8395762  32.9259029  40.9504945   4.8063305  34.2122497
  50.4972567  15.3250534  26.7563333  49.7202010  14.9861693  26.3118495
  51.1764048  15.3303157  26.0818298  45.3124596  10.4445271  26.6469941
  45.0074731  10.7591421  27.4980084  46.2655038  10.5226691  26.6897274
  43.7571028  16.6035495  28.2962895  43.2292389  15.8688254  27.9836132
  43.2558530  17.3810171  28.0502863  48.7363874  14.7984515  33.4129941
  48.0787548  15.4883777  33.5010070  49.5404273  15.1880947  33.7563928
  38.4889755   7.2655161  30.6569507  39.0633507   7.0430343  29.9242700
  39.0760738   7.3343856  31.4098108  47.5469332  13.1528888  31.4633883
  48.0601214  13.7858880  31.9655593  48.1970556  12.5530083  31.0977243
  40.7912423   4.1396410  29.3844576  40.1376835   3.8245427  28.7601191
  40.7492897   3.5172150  30.1104399  41.9023628  14.4215705  21.2997868
  40.9950690  14.1904958  21.4989017  42.3994660  13.6253324  21.4871850
  44.8091707  23.1313212  24.2194554  44.1353405  23.4344909  24.8279512
  45.1957529  23.9342293  23.8700011  44.0250163  10.6278343  33.7092224
  43.1072725  10.8493290  33.5513912  44.4410307  10.7024654  32.8503931
  44.8085211  12.0269759  28.8394904  45.5557030  12.5391156  28.5302026
  45.0776801  11.7053812  29.6999297  43.0811861  14.5228300  25.8221858
  42.1723081  14.2387333  25.9194328  43.1106945  14.9427378  24.9625165
  48.3131129  18.1334889  29.5913026  47.8593456  17.2925799  29.6478216
  47.6825095  18.7696288  29.9287806  47.2564048   9.0626875  30.8213693
  46.5186805   8.5504262  31.1523936  47.5090822   8.6227257  30.0096970
  46.7564068  19.9711386  30.5262844  47.0487042  20.5316443  29.8075210
  47.2662688  20.2639947  31.2816003  47.3575676   1.8403127  31.4155462
  47.6634552   0.9800491  31.1281378  48.0828280   2.4320748  31.2154456
  33.6500032  12.2433814  29.8037060  33.4524431  11.6503175  29.0788127
  33.0946696  11.9386024  30.5212999  41.6296755  12.1356920  31.9231654
  41.6845365  11.1830757  31.8474130  40.8187957  12.2916360  32.4072952
  42.7787949  16.0637044  23.1609937  42.3407379  15.3472902  22.7015574
  43.5198390  16.2913158  22.5995028  39.5689115  10.7533980  29.6822032
  38.7556981  11.0528151  30.0887225  40.0648109  10.3589669  30.3996515
  41.7197693  20.7491737  31.6156297  41.6773872  20.9752583  30.6864829
  42.6360392  20.5155112  31.7642098  45.1663327  11.2175805  38.5136926
  45.5212715  11.4447278  39.3731392  45.8135458  11.5494182  37.8914182
  50.8961064  14.3394241  29.2186255  50.7578962  14.5295837  28.2907445
  50.5397283  15.1013623  29.6754306  39.0603190   8.3252336  35.2983267
  39.7002569   8.1841095  34.6006231  38.2280721   8.0386849  34.9221869
  50.9230443  16.4070768  34.2297527  51.3566950  16.3146057  35.0780581
  51.6362024  16.3828268  33.5917543  39.8363494  17.6254766  31.4118260
  40.6304092  17.1305086  31.2100835  39.1255186  17.0972629  31.0485965
  44.6558338  20.0072862  35.7630627  44.7095361  20.5763798  36.5308343
  43.7873120  20.1774747  35.3984665  36.1446257  11.7697848  27.4878012
  35.2143845  11.7082303  27.7047975  36.2403729  11.2473801  26.6914654
  36.0631806   8.2952661  30.0756254  36.3238624   9.2097994  29.9665415
  36.8848979   7.8277103  30.2252867  37.5356732   9.7090418  37.2455079
  38.2079785   9.5007780  36.5967728  36.7086518   9.5112504  36.8060311
  51.7845993  16.4494468  36.7630412  51.9781883  17.3540279  37.0089687
  51.6846611  15.9901887  37.5968997  43.4382304   6.3352359  39.2620740
  42.7910219   7.0342308  39.1685216  44.2083319   6.7688503  39.6296988
  46.8461102  16.6001211  42.3371293  46.6946608  16.3711763  41.4201377
  46.8365781  17.5571812  42.3502638  43.6146438  14.1733124  37.3217559
  44.5438498  14.3244283  37.1486527  43.1937468  14.2617145  36.4666206
  42.4134770  18.1983788  35.0916097  42.2745856  17.8302573  35.9642035
  41.6249366  18.7131428  34.9200055  43.0082922  23.2992885  26.4341633
  43.1834678  22.8280928  27.2487256  42.3215710  23.9258651  26.6622894
  43.9639985  17.5765391  32.4804935  43.6289818  17.5366161  33.3762585
  43.4643931  16.9110107  32.0075345  37.9384229  12.9833021  38.0057516
  37.8004027  12.2513260  38.6069055  38.8489152  12.8941921  37.7241704
  46.8999177  14.9221425  22.7541994  46.2828347  14.1968253  22.6575047
  46.4315665  15.6830785  22.4109069  40.5666530  12.6952980  37.4941195
  41.2766148  12.0546172  37.4527814  40.5235838  12.9465875  38.4167376
  48.5553308  19.6320334  40.4147775  48.4965854  18.9479554  39.7478358
  48.9572827  20.3739324  39.9628401  39.2795464   9.6818198  39.3136835
  38.7432821   9.2308937  39.9658431  38.6912172   9.8164107  38.5707299
  37.5744007  26.4482247  33.2081494  37.8140605  27.0800772  33.8860512
  36.7313204  26.0970287  33.4946853  48.5570716  17.5959918  38.6461754
  47.6697494  17.2585839  38.7688153  49.1269267  16.8642949  38.8830520
  30.2099863  13.9284009  31.9704806  30.8970903  13.6145739  31.3825821
  30.0547991  14.8325374  31.6972057  35.0134585   8.8174206  36.3989829
  34.9292774   8.2099875  35.6640239  34.1917291   9.3083224  36.3999326
  42.0871869  22.2561370  35.6122998  42.0142040  23.0616341  36.1242302
  41.6449262  22.4553336  34.7871019  41.8761649  21.4933140  29.1225819
  41.0929170  22.0354820  29.2164044  42.5754394  22.0107120  29.5220060
  45.1858299   7.3027769  31.7660025  45.6826998   6.5497732  31.4461095
  44.4145280   7.3392086  31.2003234  53.0388056  13.0068135  33.4078316
  53.0277932  13.8892850  33.0372249  52.1705436  12.6539686  33.2132853
  44.5470553  22.1548204  37.7681156  45.2598525  22.7895669  37.6957058
  44.0560581  22.2512070  36.9521158  46.2688079  16.0599457  29.3398448
  45.3344358  16.1800919  29.1703152  46.4464748  15.1571923  29.0758458
  41.7693267   9.4445152  31.4931709  41.3991055   8.8916193  32.1812615
  42.2652360   8.8403286  30.9406709  49.6560631  11.9016776  29.8748482
  50.1221083  12.7344767  29.8008785  50.1068131  11.4361757  30.5793741
  39.5982466  19.9042647  38.5886727  40.2991926  20.5379130  38.7416121
  39.1277581  20.2457379  37.8282366  47.7236862  18.2460597  26.8734634
  47.9996706  18.1317192  27.7828508  46.8541361  17.8478082  26.8346807
  47.6277294   4.2697363  33.9139383  46.7140373   4.5001590  34.0821590
  48.0570395   4.3535807  34.7653416  47.3983752  12.4587255  36.4139277
  46.7455202  12.7063162  35.7591730  47.7764132  11.6451393  36.0801755
  44.3590926  22.4946948  30.5167448  44.5413320  21.6768604  30.9795200
  45.1823912  22.7114640  30.0792338  44.6933091  21.4215133  27.7782496
  45.2220858  20.9107588  27.1652658  44.9561311  21.1057663  28.6428029
  43.4471325  13.2007066  42.9005315  42.7711962  13.1001195  43.5707690
  44.2698959  13.0446280  43.3641312  35.1950184  19.4379002  35.5217830
  35.7803621  18.6922690  35.6545734  34.9975023  19.7482959  36.4054494
  38.0488839  22.4730250  30.5380272  37.3799215  22.9576377  30.0544312
  37.9101709  22.7199470  31.4523651  29.7867839  12.0084603  34.2422273
  29.8251938  11.4748193  35.0359391  29.2808132  11.4819808  33.6233250
  42.1894108  24.5073993  37.1362930  42.7412416  24.6705615  37.9012016
  42.5300301  25.0978431  36.4642955  37.1658601   6.8549143  37.7384815
  37.2299928   7.7163974  37.3262213  37.1025721   6.2423145  37.0057174
  36.6410874   8.9272276  41.3857849  37.2682912   8.5449353  41.9995374
  35.7838793   8.7086478  41.7513542  47.0404982  19.3335251  42.9911585
  47.5844886  19.9465209  42.4966540  46.4591827  19.8914829  43.5078598
  33.4176416  10.7348705  27.3176204  33.7129857   9.8259383  27.2643258
  32.5164452  10.7136444  26.9957207  45.3262495  22.4555969  34.1226613
  45.2013635  21.6545709  33.6137558  45.9841586  22.9502162  33.6340583
  36.9470663   8.8104701  33.3003753  36.2257249   9.4240669  33.1611226
  37.7363919   9.3462466  33.2220399  47.3897404  20.2564989  35.7506163
  46.4427739  20.1370340  35.6784489  47.7380177  19.3687487  35.8332424
  39.7496977   6.1459128  39.5744405  40.2731379   6.3921424  40.3370714
  39.5309310   6.9779163  39.1547542  35.1464258   8.4162802  27.4415529
  34.8176964   7.5360181  27.2590635  35.5003629   8.3610471  28.3291919
  44.3943837  20.0517705  31.9510515  44.2468799  19.1234413  32.1318085
  45.2197330  20.0737796  31.4667590  38.2606081   8.7035772  27.8091007
  38.6002154   9.2321693  27.0869615  38.7078202   9.0416178  28.5849574
  47.9977959  20.8746264  33.0375388  48.9224506  20.6689125  32.8999839
  47.8293262  20.6262665  33.9464729  40.9549522   7.0872823  37.2594075
  40.6146342   6.2880636  37.6614755  40.2488528   7.3874534  36.6870908
  41.6065994   4.1722135  35.7121398  42.4292063   3.6982614  35.5900289
  41.8504057   4.9512619  36.2120084  40.2474228   7.2010394  26.0084300
  40.9682591   7.5791647  25.5048017  39.6239532   7.9199271  26.1119278
  44.3905351   7.9055543  26.9442632  44.6068966   8.7880181  26.6431460
  43.9099418   7.5141756  26.2148274  39.1304573  10.8641256  33.5213377
  38.9849153  11.1781559  34.4137658  38.6529776  11.4826156  32.9684275
  40.9900955   7.8543804  33.5694266  40.9762524   6.9584897  33.2326564
  41.7073384   7.8614468  34.2032552  42.8427086   8.2881144  35.6147394
  42.5844864   9.2098215  35.6131724  42.3112127   7.8911579  36.3047858
  47.7873275  21.3931931  28.3937479  47.9610152  20.8278354  27.6411332
  48.2802166  22.1932826  28.2116969  33.6050235  13.4046600  36.4601038
  33.0603703  14.1806408  36.5921312  34.4829585  13.7517405  36.3020159
  40.3937851   6.7358184  28.8381836  40.5153763   5.8074830  29.0372724
  40.1039894   6.7496870  27.9260152  43.2629042   4.4213095  31.9748556
  43.2850739   4.4852428  31.0200536  43.6797101   3.5817603  32.1689062
  53.6412666  14.1568354  30.0127779  54.0843812  13.4075679  29.6146902
  52.7639176  14.1478491  29.6301511  48.7748447  20.7098696  25.4934377
  49.4699352  21.3305388  25.7121692  49.1171598  19.8594047  25.7686755
  34.3916257  12.5316497  39.3531195  33.6497993  12.6799132  39.9395825
  34.0709001  12.7924762  38.4897944  50.6739871  18.1598401  27.0221708
  51.1991195  18.4985674  26.2971028  50.5862223  17.2245417  26.8384843
  42.3359919  22.0732475  39.1511585  42.6447046  21.8281622  40.0234284
  43.1335401  22.2779113  38.6630455  42.3580531  24.2270385  31.3816961
  41.9185522  23.7346763  32.0749818  43.1088648  23.6843352  31.1409037
  34.8372870  20.4181925  31.3841589  35.6630890  20.1185697  31.0040233
  34.4866922  19.6489548  31.8331378  39.8054403  19.7708394  33.4539263
  39.1834413  19.1079099  33.1541491  40.4759270  19.7969526  32.7712911
  33.0381475  18.3368252  32.3430523  32.2013384  17.9090426  32.1614524
  33.0105121  18.5300695  33.2801314  39.8778931   8.2490182  43.0471769
  39.9267086   9.1252304  42.6649539  40.4201445   7.7067575  42.4743412
  50.3633777  18.7931305  42.3272906  49.5729320  18.7755444  41.7877406
  50.1267131  19.3319599  43.0821943  50.4831652  15.6423771  39.6405635
  50.5329657  15.4773779  40.5821158  50.3745575  14.7751030  39.2503515
  39.3667910  18.3212317  26.9297724  39.5156031  19.0047781  26.2764396
  40.1734354  18.3017407  27.4447179  47.7735414  11.6254699  40.9564941
  48.6745277  11.4861164  40.6648939  47.8483389  11.7909154  41.8963119
  42.1078219   9.0021554  39.8018128  41.2381529   9.2955120  39.5300716
  42.3437700   9.5861999  40.5225391  51.9849848  18.0620713  39.8847656
  51.6934657  18.4250693  40.7211117  51.3721980  17.3487721  39.7060988
  53.1845531  15.6273593  32.4050226  54.0192422  16.0663397  32.5687787
  53.3204660  15.1512246  31.5858472  50.2337037  13.1853327  38.3527714
  50.7091158  13.3780974  37.5446566  49.3102602  13.2412513  38.1071098
  37.1220543  14.3477495  27.9358793  36.8766585  13.4439825  28.1339003
  37.2916458  14.3494645  26.9938271  44.8117253   5.2201171  37.3183548
  45.3299197   5.9562198  36.9930037  44.4572386   5.5265164  38.1530307
  45.0629847   1.6401454  32.8384445  45.3431601   0.9724643  33.4644871
  45.8480454   1.8330549  32.3259109  42.8663316  20.8160447  24.4009471
  42.2937283  21.4350635  23.9479943  43.4396110  21.3659809  24.9349393
  48.9338706  10.0619087  36.5856020  49.8856129  10.1617185  36.6068244
  48.7642156   9.2697356  37.0954104  46.9553085   7.1474671  36.7715421
  46.3603017   7.4279683  36.0761909  46.6702782   7.6368572  37.5432162
  46.0860576  21.0997598  25.5318053  47.0191249  21.0343159  25.7350929
  45.9983788  21.9353864  25.0732586  48.7148592  20.4163468  22.4922001
  48.6362224  20.0823331  23.3857759  49.5358259  20.9085236  22.4913473
  51.4126783  13.2825207  35.6998319  51.3803104  12.3441208  35.8858003
  52.0227407  13.3609244  34.9664144  43.2510114  12.1521260  21.7425524
  44.1969219  12.0227468  21.8113942  42.8724359  11.4135922  22.2194952
  51.5621272  10.0736251  35.7456603  51.0460321   9.2894707  35.5586532
  52.4461221   9.7454967  35.9103122  49.2231999   3.8177266  31.7052415
  49.0256820   3.5092354  32.5895747  49.8331704   4.5438905  31.8350345
  57.2303333  14.3441214  34.8404356  57.9606722  14.0826502  35.4012060
  56.6210279  13.6069936  34.8806424  55.3118630  12.4849077  35.4378807
  54.5851794  12.3505042  34.8295299  54.8965917  12.7925905  36.2435526
  43.1348807  16.2039006  43.2026181  44.0551816  16.3817605  43.3966227
  43.0998390  15.2595052  43.0505880  32.3530972  11.3977600  32.1279455
  32.0333756  10.5442908  31.8353829  31.8064400  11.6126178  32.8837422
  36.1310879  14.1140041  35.8448962  36.3496889  15.0457149  35.8636995
  36.5436653  13.7548015  36.6303766  43.0515097   4.6208126  27.8324650
  42.2415826   4.2755211  28.2079896  43.7399514   4.3115670  28.4212262
  44.9805646   3.6986173  29.4548947  45.5336684   4.1181626  30.1138970
  45.2175732   2.7721921  29.4971903  41.0038745   9.6873247  45.2351711
  40.9035472  10.6367604  45.1663802  40.7860287   9.3591486  44.3627781
  32.2219232  15.0180511  34.0972577  31.5282703  14.6034464  33.5842531
  32.9692223  15.0601048  33.5005996  48.3584453   5.8086698  28.9627611
  47.7783122   6.4671502  28.5805663  48.0920385   4.9864043  28.5515028
  46.8088019   5.2091756  31.1648931  47.3087797   5.3208290  30.3563250
  47.4523627   4.9052809  31.8049740  40.8670015  13.1170386  44.0516772
  40.3837097  13.9170746  44.2580661  40.9530954  13.1278330  43.0984216
  34.1355974  14.9498765  31.9738592  34.1126663  15.0486452  31.0220475
  34.4456611  15.7963916  32.2955758  36.7943352  17.0074920  36.0885206
  37.7486606  16.9758863  36.0215138  36.5955876  16.5465544  36.9035432
  37.3842734  15.5776036  38.6556004  38.2035623  16.0720115  38.6790841
  37.6579542  14.6608004  38.6273571  47.1409331   7.9686789  28.0183959
  46.2535186   8.2536439  27.8004154  47.5563320   7.8080552  27.1711236
  50.4923867   7.9933310  31.7338298  51.2684257   8.4829762  32.0062915
  49.7672001   8.4191364  32.1910168  52.9296425   8.7060929  32.7912239
  53.5240916   8.4656665  32.0805547  53.0023009   7.9868059  33.4185775
  35.1493581  22.5494540  33.1055404  35.0148049  21.7894941  32.5393402
  34.7325643  23.2735440  32.6384193  46.2852544  17.7331463  22.1131979
  46.9888394  17.9381466  22.7289635  45.5615193  18.3008225  22.3781063
  47.1150354  13.4841325  28.2334249  47.0585556  13.9409876  27.3941882
  47.6678697  12.7232009  28.0557092  50.9255160   9.2731056  29.0584369
  50.6692095   8.8727692  29.8892577  50.3008028   9.9874850  28.9334508
  55.2367498  12.0127130  31.5655660  54.6767056  12.0820319  32.3387222
  54.6311002  11.8368114  30.8455157  38.3062707  23.4463857  33.3173847
  38.1895091  24.3909289  33.2152537  37.4855153  23.1437418  33.7059646
  48.1939242  18.1713992  24.1630439  49.0284845  17.7395191  23.9807914
  48.0323584  17.9996006  25.0907334  47.8485134  14.6746106  25.5286779
  47.7933937  14.5090377  24.5875223  47.2231189  15.3822139  25.6848968
  32.6377649   9.9114170  39.3548201  33.2836512   9.4013124  39.8435426
  32.4294800  10.6482852  39.9291626  45.1631041  16.9795018  44.8540341
  46.0322200  17.1535670  44.4926976  44.6837792  17.7989434  44.7316071
  39.3317221  24.0992119  36.5329775  40.2344468  24.1315729  36.8496270
  39.1054591  23.1692570  36.5476111  41.0870823  22.8523105  33.1939854
  40.1366454  22.8524967  33.0804226  41.3903309  22.1055840  32.6775888
  44.9733379   0.7696991  29.3618034  44.2065774   0.2155478  29.5074716
  45.3844084   0.8418860  30.2232185  36.9775140   7.0581787  43.4523215
  37.8406601   6.7018592  43.6626540  36.4040550   6.7195682  44.1398619
  56.8223517  28.6883644  34.2585616  57.4601927  28.5690391  33.5548956
  56.7044359  29.6364488  34.3173568  53.6313223  28.6411072  34.1947141
  53.2931734  28.5252136  33.3067676  54.5002991  28.2402237  34.1748147
  49.4900039  30.4946548  30.1844032  48.9264904  30.4036485  29.4160319
  49.3752434  29.6746453  30.6646524  54.1133006  29.7945923  40.1533346
  54.1021647  29.3998722  39.2813850  54.2753645  29.0611996  40.7467118
  47.0364471  31.9897740  33.0228252  47.8285762  31.6488564  32.6074551
  47.2761121  32.0992715  33.9430405  55.0699597  34.1617516  25.4958497
  54.4187577  34.7471596  25.1092510  55.8643960  34.6923711  25.5553534
  48.9955224  31.2506653  25.8945631  49.7686100  30.7035640  25.7558507
  49.3480623  32.1150902  26.1060092  51.7596474  29.9559884  35.6913890
  52.3560046  29.7315906  34.9770853  51.8171445  29.2144629  36.2939338
  51.3321502  27.4099319  23.5264081  51.5847023  26.8880840  22.7647544
  50.3946061  27.2465465  23.6290764  56.3764785  26.4135097  31.3338824
  57.1627874  25.9954521  30.9829241  56.6403489  27.3181190  31.5020472
  56.5474862  31.8507948  26.0327481  55.9120695  31.9242574  26.7448385
  56.2172269  32.4401547  25.3546560  61.7773212  26.3510331  32.2371803
  62.5098384  25.7809547  32.4709632  61.0212568  25.9631931  32.6778308
  51.0517791  29.3127425  25.7288456  50.9354049  28.6372328  26.3969540
  51.1620051  28.8259799  24.9120609  53.3949332  28.7737572  29.4335145
  53.0307539  28.2468193  30.1448066  54.2516448  28.3836041  29.2601630
  59.2998633  20.0631905  36.6966411  58.9681957  20.9327316  36.4727626
  58.7044246  19.7468189  37.3760442  53.0354819  23.8027472  24.4296494
  53.2029221  24.6707708  24.7966965  52.8451988  23.9654754  23.5057783
  55.7930152  32.2644451  36.0962324  55.4930875  33.1669490  35.9878131
  55.4481212  31.9976634  36.9483477  49.2442634  28.7158248  32.1299028
  48.3193130  28.5834462  32.3376720  49.4927047  29.4952467  32.6268971
  59.1927296  24.7826991  33.7759761  58.2844173  24.7142399  33.4818522
  59.1414892  25.2598936  34.6041587  53.0144040  26.2585129  25.4143160
  52.8943665  26.7042180  26.2528641  52.3196628  26.6070447  24.8556698
  46.6051445  28.3591521  32.9642817  46.7343826  28.6126000  33.8782229
  45.9248896  28.9519229  32.6447472  53.2668162  26.2016637  41.7194658
  52.4901496  26.7610557  41.7097523  53.9058725  26.6873419  42.2409529
  61.0588942  22.9843429  35.5537635  60.4163323  23.2775962  34.9077430
  60.5543871  22.8696350  36.3590832  58.7129106  26.7306603  26.2423494
  59.6246962  26.9633989  26.0671192  58.2038753  27.3143647  25.6798573
  51.5214534  29.0102090  41.2812625  52.2629218  29.5487134  41.0047449
  50.8151519  29.6368379  41.4384177  56.9969874  31.1531230  39.8784787
  57.4053230  30.7113641  39.1339419  56.2747135  30.5783858  40.1318980
  53.3500944  26.0903837  37.2518344  54.1962139  26.5143251  37.3952993
  53.2899581  25.4337461  37.9456907  57.3198688  31.7132421  33.6337076
  56.6907551  31.8778135  32.9313144  56.9324350  32.1274031  34.4048040
  61.1987920  32.6486859  30.9881440  60.5138958  33.0285760  30.4378473
  61.2831769  33.2582185  31.7213387  56.5000389  23.7508205  38.9099518
  56.2561321  24.5050266  38.3733793  56.7760319  24.1293553  39.7446765
  58.4538852  30.2946818  37.5876783  58.6655747  30.9378578  36.9111164
  58.4068600  29.4609134  37.1198713  56.0565081  22.9064638  34.4913355
  55.1949560  23.2045892  34.7830093  56.0827515  23.1235037  33.5594388
  52.8726650  31.4506829  30.8987161  53.3364996  31.7294532  30.1091783
  52.6083448  30.5490274  30.7160252  49.7650731  30.9978311  33.8366924
  50.3352088  31.4265579  33.1984409  50.3558843  30.7160895  34.5351110
  51.8095536  27.5729981  27.7076726  52.5119580  28.0251025  28.1750652
  51.4776165  26.9313800  28.3356619  50.2575898  26.1641738  42.0827935
  49.6274558  26.8458019  42.3163332  50.1511986  26.0524820  41.1381074
  45.5520870  25.8313534  33.0093860  44.7619924  26.0871063  32.5333970
  46.0432118  26.6461872  33.1145900  59.5684680  33.1718773  35.7599140
  60.3902123  32.7698961  35.4781822  59.5647083  33.0687007  36.7115256
  47.5035616  26.1958113  29.9677336  46.7066779  26.3076808  30.4860832
  47.2761208  26.5344766  29.1018227  53.3341283  32.7202817  37.9159851
  53.3985716  33.1823224  38.7518023  52.6252207  32.0900181  38.0442161
  43.8358573  26.0844025  35.4408850  44.0866612  26.9691034  35.7066426
  44.3718122  25.9048626  34.6683942  67.6590673  29.5157522  32.1084112
  66.9054381  28.9464920  31.9528116  67.7938214  29.4820186  33.0554747
  53.0489301  34.3870924  27.7838831  52.9134976  35.2322460  28.2123679
  53.5899113  34.5890202  27.0204765  49.5356640  20.4662504  44.4453187
  49.1423586  19.9128702  45.1200831  50.3522781  20.7773082  44.8359704
  46.5018698  31.9046362  28.3566756  47.0143219  32.6989612  28.5072321
  47.1541411  31.2072653  28.2900358  48.3113583  35.0212118  30.4389510
  48.4880211  35.9430083  30.2510493  49.1070416  34.7070538  30.8683889
  52.4524601  21.8820383  42.0373443  53.1934315  22.4827536  41.9577906
  52.6842524  21.1398021  41.4791486  47.5965939  27.0676750  40.3151673
  47.4819455  26.1662007  40.6158772  46.7410457  27.3140447  39.9636489
  56.7739015  35.2897290  39.9420575  56.7557491  36.1106172  39.4500844
  57.6958935  35.1651366  40.1670716  56.3981764  17.9101486  36.3137725
  56.0546034  18.8003128  36.2376835  56.7660727  17.7203144  35.4507310
  44.4667615  30.2335016  29.1326327  45.3042837  30.6432025  28.9160035
  44.6445883  29.2934459  29.1026521  56.3632047  27.9010097  24.8210160
  55.8478671  28.6714702  25.0598547  56.0909356  27.2275233  25.4443221
  53.9479158  22.7459798  29.8795398  53.0920754  22.3566648  29.7001037
  54.3606110  22.8251759  29.0195184  55.4778305  20.2806141  34.2786958
  54.9743100  20.2436276  33.4654763  55.7708912  21.1898884  34.3383615
  51.7221191  20.3644871  33.2853140  52.5874187  20.1687679  32.9259029
  51.7898700  20.1355223  34.2122497  61.3366321  30.6542452  26.7563333
  60.5595764  30.3153611  26.3118495  62.0157802  30.6595075  26.0818298
  56.1518350  25.7737189  26.6469941  55.8468486  26.0883338  27.4980084
  57.1048792  25.8518609  26.6897274  54.5964782  31.9327412  28.2962895
  54.0686144  31.1980172  27.9836132  54.0952285  32.7102089  28.0502863
  59.5757628  30.1276433  33.4129941  58.9181303  30.8175694  33.5010070
  60.3798027  30.5172865  33.7563928  49.3283510  22.5947079  30.6569507
  49.9027262  22.3722260  29.9242700  49.9154492  22.6635773  31.4098108
  58.3863087  28.4820806  31.4633883  58.8994969  29.1150797  31.9655593
  59.0364311  27.8822001  31.0977243  49.6553097  24.6251540  24.6765392
  48.8190409  24.9626226  24.9974667  49.5157866  24.4900520  23.7392529
  51.6306177  19.4688328  29.3844576  50.9770590  19.1537345  28.7601191
  51.5886652  18.8464068  30.1104399  52.7417382  29.7507623  21.2997868
  51.8344444  29.5196876  21.4989017  53.2388414  28.9545242  21.4871850
  55.6485461  38.4605130  24.2194554  54.9747160  38.7636827  24.8279512
  56.0351283  39.2634210  23.8700011  54.8643918  25.9570261  33.7092224
  53.9466479  26.1785208  33.5513912  55.2804061  26.0316572  32.8503931
  55.6478966  27.3561677  28.8394904  56.3950785  27.8683074  28.5302026
  55.9170555  27.0345730  29.6999297  53.9205616  29.8520218  25.8221858
  53.0116835  29.5679250  25.9194328  53.9500700  30.2719296  24.9625165
  59.1524883  33.4626807  29.5913026  58.6987210  32.6217717  29.6478216
  58.5218850  34.0988205  29.9287806  58.0957803  24.3918793  30.8213693
  57.3580560  23.8796179  31.1523936  58.3484576  23.9519175  30.0096970
  57.5957822  35.3003304  30.5262844  57.8880797  35.8608361  29.8075210
  58.1056443  35.5931865  31.2816003  58.1969430  17.1695045  31.4155462
  58.5028307  16.3092409  31.1281378  58.9222035  17.7612665  31.2154456
  44.4893786  27.5725732  29.8037060  44.2918186  26.9795092  29.0788127
  43.9340450  27.2677942  30.5212999  52.4690510  27.4648838  31.9231654
  52.5239120  26.5122675  31.8474130  51.6581712  27.6208277  32.4072952
  53.6181704  31.3928961  23.1609937  53.1801133  30.6764820  22.7015574
  54.3592144  31.6205076  22.5995028  50.4082870  26.0825898  29.6822032
  49.5950735  26.3820068  30.0887225  50.9041864  25.6881587  30.3996515
  52.5591448  36.0783655  31.6156297  52.5167626  36.3044501  30.6864829
  53.4754146  35.8447029  31.7642098  56.0057081  26.5467722  38.5136926
  56.3606469  26.7739196  39.3731392  56.6529213  26.8786099  37.8914182
  61.7354818  29.6686158  29.2186255  61.5972717  29.8587754  28.2907445
  61.3791037  30.4305541  29.6754306  49.8996944  23.6544253  35.2983267
  50.5396324  23.5133013  34.6006231  49.0674475  23.3678767  34.9221869
  61.7624198  31.7362685  34.2297527  62.1960705  31.6437974  35.0780581
  62.4755779  31.7120186  33.5917543  50.6757248  32.9546684  31.4118260
  51.4697847  32.4597004  31.2100835  49.9648941  32.4264547  31.0485965
  55.4952093  35.3364779  35.7630627  55.5489115  35.9055716  36.5308343
  54.6266874  35.5066664  35.3984665  46.9840012  27.0989766  27.4878012
  46.0537600  27.0374221  27.7047975  47.0797484  26.5765718  26.6914654
  46.9025561  23.6244578  30.0756254  47.1632378  24.5389912  29.9665415
  47.7242733  23.1569021  30.2252867  48.3750486  25.0382336  37.2455079
  49.0473540  24.8299698  36.5967728  47.5480273  24.8404422  36.8060311
  62.6239747  31.7786386  36.7630412  62.8175638  32.6832196  37.0089687
  62.5240366  31.3193805  37.5968997  54.2776058  21.6644277  39.2620740
  53.6303973  22.3634226  39.1685216  55.0477074  22.0980420  39.6296988
  57.6854856  31.9293129  42.3371293  57.5340363  31.7003680  41.4201377
  57.6759536  32.8863730  42.3502638  54.4540193  29.5025041  37.3217559
  55.3832253  29.6536201  37.1486527  54.0331223  29.5909062  36.4666206
  53.2528524  33.5275706  35.0916097  53.1139610  33.1594490  35.9642035
  52.4643121  34.0423345  34.9200055  53.8476676  38.6284802  26.4341633
  54.0228432  38.1572846  27.2487256  53.1609464  39.2550569  26.6622894
  54.8033739  32.9057309  32.4804935  54.4683572  32.8658079  33.3762585
  54.3037685  32.2402024  32.0075345  48.7777983  28.3124939  38.0057516
  48.6397781  27.5805177  38.6069055  49.6882907  28.2233839  37.7241704
  57.7392931  30.2513343  22.7541994  57.1222102  29.5260171  22.6575047
  57.2709420  31.0122703  22.4109069  51.4060284  28.0244898  37.4941195
  52.1159903  27.3838090  37.4527814  51.3629592  28.2757793  38.4167376
  59.3947063  34.9612251  40.4147775  59.3359609  34.2771471  39.7478358
  59.7966581  35.7031241  39.9628401  50.1189218  25.0110116  39.3136835
  49.5826575  24.5600854  39.9658431  49.5305927  25.1456025  38.5707299
  49.5291477  24.4698767  21.8763299  48.6520943  24.3487568  21.5125545
  50.0049230  23.6784845  21.6242187  59.3964470  32.9251835  38.6461754
  58.5091249  32.5877757  38.7688153  59.9663021  32.1934866  38.8830520
  41.0493617  29.2575927  31.9704806  41.7364657  28.9437657  31.3825821
  40.8941746  30.1617292  31.6972057  45.8528339  24.1466123  36.3989829
  45.7686528  23.5391793  35.6640239  45.0311046  24.6375142  36.3999326
  52.7155403  36.8225058  29.1225819  51.9322925  37.3646738  29.2164044
  53.4148148  37.3399037  29.5220060  56.0252053  22.6319687  31.7660025
  56.5220753  21.8789649  31.4461095  55.2539035  22.6684004  31.2003234
  63.8781811  28.3360053  33.4078316  63.8671687  29.2184768  33.0372249
  63.0099190  27.9831603  33.2132853  57.1081834  31.3891374  29.3398448
  56.1738113  31.5092837  29.1703152  57.2858502  30.4863841  29.0758458
  52.6087022  24.7737070  31.4931709  52.2384809  24.2208110  32.1812615
  53.1046114  24.1695203  30.9406709  60.4954385  27.2308694  29.8748482
  60.9614837  28.0636685  29.8008785  60.9461886  26.7653675  30.5793741
  58.5630616  33.5752515  26.8734634  58.8390460  33.4609109  27.7828508
  57.6935115  33.1770000  26.8346807  58.4671048  19.5989281  33.9139383
  57.5534128  19.8293507  34.0821590  58.8964149  19.6827725  34.7653416
  58.2377506  27.7879172  36.4139277  57.5848957  28.0355080  35.7591730
  58.6157886  26.9743311  36.0801755  55.1984680  37.8238866  30.5167448
  55.3807075  37.0060522  30.9795200  56.0217666  38.0406558  30.0792338
  55.5326846  36.7507051  27.7782496  56.0614612  36.2399505  27.1652658
  55.7955065  36.4349581  28.6428029  54.2865080  28.5298984  42.9005315
  53.6105717  28.4293113  43.5707690  55.1092713  28.3738197  43.3641312
  46.0343939  34.7670920  35.5217830  46.6197375  34.0214608  35.6545734
  45.8368777  35.0774877  36.4054494  48.8882594  37.8022167  30.5380272
  48.2192969  38.2868295  30.0544312  48.7495464  38.0491388  31.4523651
  40.6261593  27.3376520  34.2422273  40.6645693  26.8040111  35.0359391
  40.1201886  26.8111726  33.6233250  48.0052356  22.1841061  37.7384815
  48.0693682  23.0455892  37.3262213  47.9419476  21.5715062  37.0057174
  47.4804628  24.2564193  41.3857849  48.1076667  23.8741271  41.9995374
  46.6232547  24.0378395  41.7513542  57.8798737  34.6627168  42.9911585
  58.4238641  35.2757127  42.4966540  57.2985582  35.2206747  43.5078598
  44.2570171  26.0640622  27.3176204  44.5523612  25.1551301  27.2643258
  43.3558207  26.0428362  26.9957207  56.1656250  37.7847887  34.1226613
  56.0407389  36.9837626  33.6137558  56.8235341  38.2794080  33.6340583
  47.7864418  24.1396619  33.3003753  47.0651004  24.7532587  33.1611226
  48.5757674  24.6754384  33.2220399  58.2291158  35.5856907  35.7506163
  57.2821494  35.4662258  35.6784489  58.5773931  34.6979405  35.8332424
  50.5890731  21.4751046  39.5744405  51.1125133  21.7213342  40.3370714
  50.3703065  22.3071080  39.1547542  45.9858012  23.7454720  27.4415529
  45.6570719  22.8652099  27.2590635  46.3397383  23.6902389  28.3291919
  55.2337591  35.3809623  31.9510515  55.0862554  34.4526330  32.1318085
  56.0591085  35.4029714  31.4667590  49.0999836  24.0327690  27.8091007
  49.4395908  24.5613611  27.0869615  49.5471956  24.3708096  28.5849574
  58.8371713  36.2038182  33.0375388  59.7618261  35.9981043  32.8999839
  58.6687017  35.9554583  33.9464729  51.7943276  22.4164741  37.2594075
  51.4540097  21.6172554  37.6614755  51.0882283  22.7166451  36.6870908
  52.4459748  19.5014053  35.7121398  53.2685818  19.0274531  35.5900289
  52.6897812  20.2804537  36.2120084  51.0867983  22.5302311  26.0084300
  51.8076345  22.9083564  25.5048017  50.4633287  23.2491188  26.1119278
  55.2299106  23.2347460  26.9442632  55.4462720  24.1172098  26.6431460
  54.7493173  22.8433674  26.2148274  49.9698327  26.1933174  33.5213377
  49.8242908  26.5073477  34.4137658  49.4923531  26.8118074  32.9684275
  51.8294710  23.1835722  33.5694266  51.8156279  22.2876815  33.2326564
  52.5467138  23.1906385  34.2032552  53.6820841  23.6173062  35.6147394
  53.4238618  24.5390133  35.6131724  53.1505881  23.2203496  36.3047858
  58.6267029  36.7223849  28.3937479  58.8003907  36.1570271  27.6411332
  59.1195921  37.5224744  28.2116969  44.4443989  28.7338518  36.4601038
  43.8997457  29.5098326  36.5921312  45.3223339  29.0809323  36.3020159
  51.2331606  22.0650102  28.8381836  51.3547517  21.1366748  29.0372724
  50.9433648  22.0788788  27.9260152  54.1022796  19.7505012  31.9748556
  54.1244493  19.8144345  31.0200536  54.5190855  18.9109521  32.1689062
  64.4806421  29.4860272  30.0127779  64.9237567  28.7367597  29.6146902
  63.6032931  29.4770408  29.6301511  59.6142202  36.0390613  25.4934377
  60.3093107  36.6597306  25.7121692  59.9565352  35.1885965  25.7686755
  45.2310011  27.8608414  39.3531195  44.4891747  28.0091050  39.9395825
  44.9102755  28.1216680  38.4897944  61.5133625  33.4890319  27.0221708
  62.0384949  33.8277592  26.2971028  61.4255978  32.5537334  26.8384843
  45.6766625  35.7473843  31.3841589  46.5024645  35.4477615  31.0040233
  45.3260677  34.9781465  31.8331378  50.6448158  35.1000311  33.4539263
  50.0228167  34.4371016  33.1541491  51.3153025  35.1261443  32.7712911
  43.8775230  33.6660170  32.3430523  43.0407138  33.2382344  32.1614524
  43.8498875  33.8592613  33.2801314  50.7172685  23.5782099  43.0471769
  50.7660841  24.4544222  42.6649539  51.2595200  23.0359492  42.4743412
  61.2027531  34.1223223  42.3272906  60.4123075  34.1047361  41.7877406
  60.9660886  34.6611516  43.0821943  61.3225406  30.9715689  39.6405635
  61.3723411  30.8065696  40.5821158  61.2139329  30.1042948  39.2503515
  50.2061665  33.6504235  26.9297724  50.3549785  34.3339699  26.2764396
  51.0128108  33.6309325  27.4447179  58.6129169  26.9546617  40.9564941
  59.5139031  26.8153082  40.6648939  58.6877143  27.1201072  41.8963119
  52.9471974  24.3313472  39.8018128  52.0775283  24.6247038  39.5300716
  53.1831454  24.9153917  40.5225391  62.8243603  33.3912630  39.8847656
  62.5328411  33.7542611  40.7211117  62.2115734  32.6779639  39.7060988
  64.0239285  30.9565510  32.4050226  64.8586177  31.3955314  32.5687787
  64.1598414  30.4804163  31.5858472  61.0730791  28.5145245  38.3527714
  61.5484913  28.7072891  37.5446566  60.1496357  28.5704431  38.1071098
  47.9614298  29.6769412  27.9358793  47.7160340  28.7731742  28.1339003
  48.1310212  29.6786563  26.9938271  55.6511008  20.5493089  37.3183548
  56.1692952  21.2854116  36.9930037  55.2966140  20.8557082  38.1530307
  47.2309945  25.4097770  25.4344954  46.5379190  25.4842125  24.7784990
  46.9861697  24.6458113  25.9566471  55.9023602  16.9693371  32.8384445
  56.1825356  16.3016560  33.4644871  56.6874209  17.1622467  32.3259109
  53.7057070  36.1452365  24.4009471  53.1331037  36.7642552  23.9479943
  54.2789864  36.6951727  24.9349393  59.7732460  25.3911005  36.5856020
  60.7249883  25.4909103  36.6068244  59.6035911  24.5989274  37.0954104
  57.7946840  22.4766588  36.7715421  57.1996772  22.7571601  36.0761909
  57.5096536  22.9660489  37.5432162  56.9254330  36.4289515  25.5318053
  57.8585003  36.3635077  25.7350929  56.8377543  37.2645782  25.0732586
  59.5542347  35.7455386  22.4922001  59.4755978  35.4115249  23.3857759
  60.3752014  36.2377153  22.4913473  62.2520538  28.6117125  35.6998319
  62.2196858  27.6733126  35.8858003  62.8621162  28.6901162  34.9664144
  54.0903869  27.4813178  21.7425524  55.0362974  27.3519386  21.8113942
  53.7118114  26.7427840  22.2194952  62.4015026  25.4028168  35.7456603
  61.8854075  24.6186625  35.5586532  63.2854975  25.0746885  35.9103122
  60.0625753  19.1469184  31.7052415  59.8650575  18.8384272  32.5895747
  60.6725459  19.8730823  31.8350345  68.0697088  29.6733132  34.8404356
  68.8000476  29.4118420  35.4012060  67.4604033  28.9361854  34.8806424
  66.1512385  27.8140994  35.4378807  65.4245549  27.6796959  34.8295299
  65.7359672  28.1217823  36.2435526  53.9742561  31.5330924  43.2026181
  54.8945571  31.7109523  43.3966227  53.9392144  30.5886969  43.0505880
  52.2746786  25.4063154  21.6780409  51.3678241  25.1096267  21.7543122
  52.5522767  25.1092972  20.8114695  43.1924726  26.7269518  32.1279455
  42.8727511  25.8734826  31.8353829  42.6458155  26.9418096  32.8837422
  46.9704634  29.4431959  35.8448962  47.1890644  30.3749066  35.8636995
  47.3830408  29.0839933  36.6303766  53.8908852  19.9500044  27.8324650
  53.0809580  19.6047129  28.2079896  54.5793269  19.6407588  28.4212262
  55.8199400  19.0278091  29.4548947  56.3730439  19.4473544  30.1138970
  56.0569486  18.1013839  29.4971903  51.8432499  25.0165164  45.2351711
  51.7429226  25.9659521  45.1663802  51.6254041  24.6883403  44.3627781
  51.0445571  22.2650089  21.8192388  51.9064735  22.5904988  22.0788205
  51.2295915  21.4781585  21.3065454  43.0612986  30.3472429  34.0972577
  42.3676458  29.9326382  33.5842531  43.8085977  30.3892966  33.5005996
  59.1978207  21.1378616  28.9627611  58.6176876  21.7963420  28.5805663
  58.9314140  20.3155960  28.5515028  57.6481773  20.5383674  31.1648931
  58.1481552  20.6500208  30.3563250  58.2917381  20.2344726  31.8049740
  51.7063769  28.4462303  44.0516772  51.2230851  29.2462663  44.2580661
  51.7924708  28.4570248  43.0984216  44.9749729  30.2790683  31.9738592
  44.9520417  30.3778370  31.0220475  45.2850365  31.1255834  32.2955758
  47.6337107  32.3366838  36.0885206  48.5880360  32.3050780  36.0215138
  47.4349630  31.8757462  36.9035432  48.2236489  30.9067954  38.6556004
  49.0429378  31.4012033  38.6790841  48.4973297  29.9899922  38.6273571
  57.9803085  23.2978706  28.0183959  57.0928940  23.5828357  27.8004154
  58.3957074  23.1372470  27.1711236  61.3317621  23.3225227  31.7338298
  62.1078011  23.8121680  32.0062915  60.6065755  23.7483281  32.1910168
  63.7690180  24.0352846  32.7912239  64.3634671  23.7948582  32.0805547
  63.8416764  23.3159977  33.4185775  45.9887336  37.8786457  33.1055404
  45.8541804  37.1186858  32.5393402  45.5719398  38.6027357  32.6384193
  57.1246299  33.0623381  22.1131979  57.8282149  33.2673383  22.7289635
  56.4008947  33.6300143  22.3781063  57.9544109  28.8133242  28.2334249
  57.8979310  29.2701794  27.3941882  58.5072451  28.0523927  28.0557092
  61.7648915  24.6022974  29.0584369  61.5085849  24.2019610  29.8892577
  61.1401783  25.3166768  28.9334508  66.0761253  27.3419047  31.5655660
  65.5160811  27.4112237  32.3387222  65.4704756  27.1660032  30.8455157
  49.1456461  38.7755774  33.3173847  49.0288846  39.7201207  33.2152537
  48.3248908  38.4729336  33.7059646  59.0332996  33.5005910  24.1630439
  59.8678600  33.0687109  23.9807914  58.8717339  33.3287924  25.0907334
  58.6878888  30.0038023  25.5286779  58.6327692  29.8382295  24.5875223
  58.0624943  30.7114056  25.6848968  43.4771403  25.2406088  39.3548201
  44.1230267  24.7305042  39.8435426  43.2688554  25.9774769  39.9291626
  56.0024795  32.3086935  44.8540341  56.8715955  32.4827588  44.4926976
  55.5231547  33.1281352  44.7316071  51.9975014  19.5046132  25.1072097
  51.9853683  20.4487972  25.2640368  52.8898436  19.3216278  24.8131558
  55.8127133  16.0988909  29.3618034  55.0459529  15.5447396  29.5074716
  56.2237838  16.1710778  30.2232185  47.8168894  22.3873705  43.4523215
  48.6800356  22.0310510  43.6626540  47.2434305  22.0487600  44.1398619
  67.6617271  44.0175561  34.2585616  68.2995681  43.8982309  33.5548956
  67.5438114  44.9656405  34.3173568  64.4706977  43.9702989  34.1947141
  64.1325489  43.8544054  33.3067676  65.3396746  43.5694154  34.1748147
  65.9093352  49.4909433  25.4958497  65.2581332  50.0763514  25.1092510
  66.7037715  50.0215628  25.5553534  59.8348979  46.5798571  25.8945631
  60.6079855  46.0327558  25.7558507  60.1874378  47.4442820  26.1060092
  62.1715257  42.7391237  23.5264081  62.4240777  42.2172758  22.7647544
  61.2339816  42.5757382  23.6290764  67.2158540  41.7427015  31.3338824
  68.0021629  41.3246438  30.9829241  67.4797244  42.6473107  31.5020472
  67.3868617  47.1799865  26.0327481  66.7514450  47.2534492  26.7448385
  67.0566023  47.7693464  25.3546560  72.6166967  41.6802248  32.2371803
  73.3492139  41.1101465  32.4709632  71.8606322  41.2923849  32.6778308
  61.8911545  44.6419343  25.7288456  61.7747804  43.9664246  26.3969540
  62.0013805  44.1551717  24.9120609  64.2343086  44.1029490  29.4335145
  63.8701294  43.5760111  30.1448066  65.0910202  43.7127959  29.2601630
  70.1392387  35.3923822  36.6966411  69.8075712  36.2619233  36.4727626
  69.5438000  35.0760106  37.3760442  63.8748573  39.1319390  24.4296494
  64.0422976  39.9999626  24.7966965  63.6845742  39.2946671  23.5057783
  66.6323907  47.5936368  36.0962324  66.3324630  48.4961407  35.9878131
  66.2874966  47.3268552  36.9483477  70.0321050  40.1118909  33.7759761
  69.1237928  40.0434317  33.4818522  69.9808646  40.5890854  34.6041587
  63.8537794  41.5877047  25.4143160  63.7337419  42.0334098  26.2528641
  63.1590383  41.9362365  24.8556698  61.6144686  54.3580689  29.0633292
  61.5368716  55.3088514  29.1421772  61.0106330  54.0126561  29.7208218
  64.1061916  41.5308554  41.7194658  63.3295250  42.0902474  41.7097523
  64.7452479  42.0165337  42.2409529  71.8982697  38.3135347  35.5537635
  71.2557077  38.6067880  34.9077430  71.3937625  38.1988267  36.3590832
  69.5522860  42.0598520  26.2423494  70.4640717  42.2925907  26.0671192
  69.0432508  42.6435564  25.6798573  67.8363628  46.4823148  39.8784787
  68.2446984  46.0405559  39.1339419  67.1140890  45.9075776  40.1318980
  64.1894698  41.4195755  37.2518344  65.0355893  41.8435168  37.3952993
  64.1293336  40.7629379  37.9456907  68.1592443  47.0424339  33.6337076
  67.5301305  47.2070053  32.9313144  67.7718105  47.4565948  34.4048040
  72.0381675  47.9778776  30.9881440  71.3532713  48.3577678  30.4378473
  72.1225524  48.5874103  31.7213387  67.3394143  39.0800123  38.9099518
  67.0955075  39.8342184  38.3733793  67.6154074  39.4585471  39.7446765
  69.2932606  45.6238736  37.5876783  69.5049501  46.2670495  36.9111164
  69.2462354  44.7901052  37.1198713  66.8958835  38.2356556  34.4913355
  66.0343314  38.5337810  34.7830093  66.9221270  38.4526955  33.5594388
  62.6489291  42.9021899  27.7076726  63.3513334  43.3542943  28.1750652
  62.3169919  42.2605718  28.3356619  61.0969652  41.4933656  42.0827935
  60.4668313  42.1749937  42.3163332  60.9905740  41.3816737  41.1381074
  70.4078434  48.5010691  35.7599140  71.2295878  48.0990878  35.4781822
  70.4040837  48.3978925  36.7115256  58.3429370  41.5250031  29.9677336
  57.5460533  41.6368725  30.4860832  58.1154962  41.8636683  29.1018227
  78.4984427  44.8449439  32.1084112  77.7448136  44.2756837  31.9528116
  78.6331968  44.8112104  33.0554747  63.8883055  49.7162842  27.7838831
  63.7528730  50.5614377  28.2123679  64.4292868  49.9182119  27.0204765
  60.3750395  35.7954422  44.4453187  59.9817340  35.2420620  45.1200831
  61.1916535  36.1065000  44.8359704  57.3412453  47.2338280  28.3566756
  57.8536973  48.0281530  28.5072321  57.9935166  46.5364570  28.2900358
  63.2918356  37.2112301  42.0373443  64.0328069  37.8119454  41.9577906
  63.5236279  36.4689938  41.4791486  67.2375519  33.2393404  36.3137725
  66.8939788  34.1295045  36.2376835  67.6054481  33.0495061  35.4507310
  55.3061369  45.5626934  29.1326327  56.1436591  45.9723942  28.9160035
  55.4839637  44.6226376  29.1026521  67.2025802  43.2302015  24.8210160
  66.6872425  44.0006619  25.0598547  66.9303110  42.5567151  25.4443221
  64.7872913  38.0751715  29.8795398  63.9314509  37.6858566  29.7001037
  65.1999864  38.1543676  29.0195184  66.3172059  35.6098059  34.2786958
  65.8136855  35.5728194  33.4654763  66.6102666  36.5190801  34.3383615
  62.5614945  35.6936788  33.2853140  63.4267942  35.4979597  32.9259029
  62.6292454  35.4647140  34.2122497  72.1760076  45.9834369  26.7563333
  71.3989518  45.6445529  26.3118495  72.8551557  45.9886993  26.0818298
  66.9912105  41.1029107  26.6469941  66.6862240  41.4175256  27.4980084
  67.9442547  41.1810527  26.6897274  65.4358537  47.2619330  28.2962895
  64.9079898  46.5272090  27.9836132  64.9346039  48.0394006  28.0502863
  70.4151383  45.4568351  33.4129941  69.7575057  46.1467612  33.5010070
  71.2191782  45.8464783  33.7563928  60.1677264  37.9238996  30.6569507
  60.7421016  37.7014178  29.9242700  60.7548247  37.9927691  31.4098108
  69.2256841  43.8112723  31.4633883  69.7388723  44.4442715  31.9655593
  69.8758065  43.2113919  31.0977243  60.4946851  39.9543457  24.6765392
  59.6584164  40.2918144  24.9974667  60.3551621  39.8192437  23.7392529
  62.4699932  34.7980245  29.3844576  61.8164344  34.4829262  28.7601191
  62.4280406  34.1755986  30.1104399  63.5811137  45.0799540  21.2997868
  62.6738199  44.8488794  21.4989017  64.0782169  44.2837160  21.4871850
  66.4879216  53.7897048  24.2194554  65.8140914  54.0928744  24.8279512
  66.8745038  54.5926128  23.8700011  65.7037672  41.2862179  33.7092224
  64.7860234  41.5077126  33.5513912  66.1197816  41.3608489  32.8503931
  66.4872720  42.6853595  28.8394904  67.2344539  43.1974992  28.5302026
  66.7564310  42.3637647  29.6999297  64.7599370  45.1812135  25.8221858
  63.8510589  44.8971168  25.9194328  64.7894454  45.6011214  24.9625165
  69.9918638  48.7918725  29.5913026  69.5380965  47.9509635  29.6478216
  69.3612604  49.4280123  29.9287806  68.9351557  39.7210711  30.8213693
  68.1974314  39.2088097  31.1523936  69.1878331  39.2811092  30.0096970
  68.4351577  50.6295221  30.5262844  68.7274551  51.1900279  29.8075210
  68.9450197  50.9223782  31.2816003  69.0363185  32.4986963  31.4155462
  69.3422061  31.6384326  31.1281378  69.7615789  33.0904583  31.2154456
  63.3084264  42.7940756  31.9231654  63.3632874  41.8414592  31.8474130
  62.4975466  42.9500195  32.4072952  64.4575458  46.7220879  23.1609937
  64.0194888  46.0056738  22.7015574  65.1985899  46.9496994  22.5995028
  61.2476624  41.4117816  29.6822032  60.4344490  41.7111986  30.0887225
  61.7435618  41.0173504  30.3996515  66.8450836  41.8759640  38.5136926
  67.2000224  42.1031113  39.3731392  67.4922967  42.2078017  37.8914182
  72.5748573  44.9978076  29.2186255  72.4366471  45.1879672  28.2907445
  72.2184792  45.7597459  29.6754306  60.7390699  38.9836171  35.2983267
  61.3790078  38.8424930  34.6006231  59.9068229  38.6970685  34.9221869
  72.6017952  47.0654603  34.2297527  73.0354459  46.9729892  35.0780581
  73.3149533  47.0412103  33.5917543  66.3345847  50.6656697  35.7630627
  66.3882870  51.2347633  36.5308343  65.4660629  50.8358582  35.3984665
  57.8233766  42.4281683  27.4878012  56.8931354  42.3666139  27.7047975
  57.9191238  41.9057636  26.6914654  57.7419315  38.9536496  30.0756254
  58.0026133  39.8681829  29.9665415  58.5636488  38.4860939  30.2252867
  73.4633502  47.1078304  36.7630412  73.6569392  48.0124114  37.0089687
  73.3634120  46.6485723  37.5968997  65.1169813  36.9936194  39.2620740
  64.4697728  37.6926144  39.1685216  65.8870828  37.4272338  39.6296988
  64.6870431  53.9576720  26.4341633  64.8622186  53.4864763  27.2487256
  64.0003219  54.5842486  26.6622894  68.5786686  45.5805261  22.7541994
  67.9615856  44.8552089  22.6575047  68.1103174  46.3414621  22.4109069
  62.2454039  43.3536816  37.4941195  62.9553657  42.7130008  37.4527814
  62.2023347  43.6049710  38.4167376  70.2340817  50.2904169  40.4147775
  70.1753363  49.6063389  39.7478358  70.6360336  51.0323159  39.9628401
  60.9582973  40.3402033  39.3136835  60.4220330  39.8892772  39.9658431
  60.3699681  40.4747942  38.5707299  60.3685232  39.7990685  21.8763299
  59.4914698  39.6779486  21.5125545  60.8442985  39.0076763  21.6242187
  70.2358225  48.2543753  38.6461754  69.3485003  47.9169675  38.7688153
  70.8056776  47.5226784  38.8830520  63.5549158  52.1516975  29.1225819
  62.7716679  52.6938655  29.2164044  64.2541903  52.6690955  29.5220060
  66.8645808  37.9611605  31.7660025  67.3614507  37.2081567  31.4461095
  66.0932789  37.9975921  31.2003234  74.7175565  43.6651970  33.4078316
  74.7065441  44.5476686  33.0372249  73.8492945  43.3123521  33.2132853
  67.9475588  46.7183292  29.3398448  67.0131867  46.8384754  29.1703152
  68.1252257  45.8155759  29.0758458  63.4480776  40.1028988  31.4931709
  63.0778564  39.5500028  32.1812615  63.9439869  39.4987121  30.9406709
  71.3348140  42.5600611  29.8748482  71.8008592  43.3928603  29.8008785
  71.7855640  42.0945593  30.5793741  69.4024371  48.9044432  26.8734634
  69.6784215  48.7901027  27.7828508  68.5328870  48.5061917  26.8346807
  69.3064802  34.9281198  33.9139383  68.3927882  35.1585425  34.0821590
  69.7357904  35.0119642  34.7653416  69.0771261  43.1171090  36.4139277
  68.4242711  43.3646998  35.7591730  69.4551641  42.3035228  36.0801755
  66.0378435  53.1530783  30.5167448  66.2200829  52.3352439  30.9795200
  66.8611421  53.3698476  30.0792338  66.3720600  52.0798968  27.7782496
  66.9008367  51.5691423  27.1652658  66.6348820  51.7641499  28.6428029
  59.7276348  53.1314085  30.5380272  59.0586724  53.6160213  30.0544312
  59.5889218  53.3783306  31.4523651  58.8446110  37.5132978  37.7384815
  58.9087437  38.3747809  37.3262213  58.7813230  36.9006980  37.0057174
  55.0963925  41.3932540  27.3176204  55.3917366  40.4843219  27.2643258
  54.1951961  41.3720280  26.9957207  67.0050004  53.1139804  34.1226613
  66.8801144  52.3129544  33.6137558  67.6629095  53.6085998  33.6340583
  58.6258172  39.4688537  33.3003753  57.9044758  40.0824504  33.1611226
  59.4151428  40.0046302  33.2220399  69.0684913  50.9148824  35.7506163
  68.1215248  50.7954175  35.6784489  69.4167686  50.0271322  35.8332424
  61.4284486  36.8042963  39.5744405  61.9518888  37.0505260  40.3370714
  61.2096819  37.6362998  39.1547542  56.8251767  39.0746638  27.4415529
  56.4964473  38.1944017  27.2590635  57.1791138  39.0194306  28.3291919
  66.0731346  50.7101540  31.9510515  65.9256308  49.7818248  32.1318085
  66.8984839  50.7321631  31.4667590  59.9393590  39.3619608  27.8091007
  60.2789663  39.8905529  27.0869615  60.3865711  39.7000014  28.5849574
  69.6765468  51.5330099  33.0375388  70.6012015  51.3272961  32.8999839
  69.5080771  51.2846500  33.9464729  62.6337031  37.7456658  37.2594075
  62.2933851  36.9464471  37.6614755  61.9276037  38.0458369  36.6870908
  63.2853503  34.8305971  35.7121398  64.1079572  34.3566449  35.5900289
  63.5291566  35.6096454  36.2120084  61.9261737  37.8594229  26.0084300
  62.6470100  38.2375482  25.5048017  61.3027041  38.5783106  26.1119278
  66.0692860  38.5639378  26.9442632  66.2856475  39.4464016  26.6431460
  65.5886927  38.1725592  26.2148274  60.8092082  41.5225091  33.5213377
  60.6636662  41.8365394  34.4137658  60.3317285  42.1409992  32.9684275
  62.6688464  38.5127639  33.5694266  62.6550033  37.6168733  33.2326564
  63.3860893  38.5198303  34.2032552  64.5214595  38.9464980  35.6147394
  64.2632373  39.8682050  35.6131724  63.9899636  38.5495414  36.3047858
  69.4660784  52.0515767  28.3937479  69.6397661  51.4862189  27.6411332
  69.9589675  52.8516662  28.2116969  62.0725360  37.3942020  28.8381836
  62.1941272  36.4658666  29.0372724  61.7827403  37.4080706  27.9260152
  64.9416551  35.0796930  31.9748556  64.9638248  35.1436263  31.0200536
  65.3584610  34.2401439  32.1689062  75.3200175  44.8152190  30.0127779
  75.7631321  44.0659515  29.6146902  74.4426685  44.8062326  29.6301511
  70.4535956  51.3682531  25.4934377  71.1486861  51.9889224  25.7121692
  70.7959107  50.5177882  25.7686755  72.3527380  48.8182237  27.0221708
  72.8778704  49.1569509  26.2971028  72.2649732  47.8829252  26.8384843
  64.0368040  54.8854220  31.3816961  63.5973031  54.3930599  32.0749818
  64.7876157  54.3427188  31.1409037  61.5566440  38.9074017  43.0471769
  61.6054595  39.7836140  42.6649539  62.0988954  38.3651410  42.4743412
  72.0421286  49.4515140  42.3272906  71.2516829  49.4339279  41.7877406
  71.8054640  49.9903434  43.0821943  72.1619161  46.3007607  39.6405635
  72.2117166  46.1357614  40.5821158  72.0533084  45.4334866  39.2503515
  61.0455419  48.9796152  26.9297724  61.1943540  49.6631617  26.2764396
  61.8521863  48.9601242  27.4447179  69.4522923  42.2838535  40.9564941
  70.3532786  42.1444999  40.6648939  69.5270898  42.4492989  41.8963119
  63.7865728  39.6605389  39.8018128  62.9169038  39.9538955  39.5300716
  64.0225209  40.2445834  40.5225391  73.6637357  48.7204548  39.8847656
  73.3722166  49.0834529  40.7211117  73.0509489  48.0071556  39.7060988
  74.8633040  46.2857428  32.4050226  75.6979931  46.7247232  32.5687787
  74.9992169  45.8096081  31.5858472  71.9124546  43.8437163  38.3527714
  72.3878667  44.0364809  37.5446566  70.9890111  43.8996349  38.1071098
  58.8008052  45.0061330  27.9358793  58.5554094  44.1023660  28.1339003
  58.9703967  45.0078480  26.9938271  66.4904762  35.8785006  37.3183548
  67.0086706  36.6146033  36.9930037  66.1359895  36.1849000  38.1530307
  58.0703700  40.7389688  25.4344954  57.3772945  40.8134043  24.7784990
  57.8255452  39.9750031  25.9566471  66.7417356  32.2985289  32.8384445
  67.0219110  31.6308478  33.4644871  67.5267963  32.4914384  32.3259109
  64.5450825  51.4744283  24.4009471  63.9724792  52.0934470  23.9479943
  65.1183619  52.0243644  24.9349393  70.6126215  40.7202923  36.5856020
  71.5643638  40.8201021  36.6068244  70.4429665  39.9281191  37.0954104
  68.6340594  37.8058506  36.7715421  68.0390526  38.0863519  36.0761909
  68.3490291  38.2952407  37.5432162  67.7648085  51.7581433  25.5318053
  68.6978758  51.6926995  25.7350929  67.6771297  52.5937700  25.0732586
  70.3936101  51.0747303  22.4922001  70.3149733  50.7407167  23.3857759
  71.2145768  51.5669071  22.4913473  73.0914292  43.9409043  35.6998319
  73.0590613  43.0025043  35.8858003  73.7014916  44.0193079  34.9664144
  64.9297623  42.8105096  21.7425524  65.8756728  42.6811304  21.8113942
  64.5511868  42.0719757  22.2194952  73.2408781  40.7320086  35.7456603
  72.7247830  39.9478543  35.5586532  74.1248729  40.4038803  35.9103122
  70.9019508  34.4761102  31.7052415  70.7044329  34.1676190  32.5895747
  71.5119213  35.2022740  31.8350345  78.9090842  45.0025049  34.8404356
  79.6394231  44.7410338  35.4012060  78.2997788  44.2653771  34.8806424
  76.9906139  43.1432912  35.4378807  76.2639303  43.0088877  34.8295299
  76.5753426  43.4509741  36.2435526  63.1140540  40.7355072  21.6780409
  62.2071996  40.4388185  21.7543122  63.3916521  40.4384890  20.8114695
  64.7302606  35.2791962  27.8324650  63.9203335  34.9339047  28.2079896
  65.4187023  34.9699505  28.4212262  66.6593154  34.3570008  29.4548947
  67.2124193  34.7765462  30.1138970  66.8963241  33.4305757  29.4971903
  61.8839325  37.5942007  21.8192388  62.7458489  37.9196905  22.0788205
  62.0689669  36.8073503  21.3065454  70.0371962  36.4670534  28.9627611
  69.4570631  37.1255338  28.5805663  69.7707894  35.6447878  28.5515028
  68.4875528  35.8675591  31.1648931  68.9875306  35.9792126  30.3563250
  69.1311136  35.5636644  31.8049740  68.8196840  38.6270624  28.0183959
  67.9322695  38.9120275  27.8004154  69.2350829  38.4664387  27.1711236
  72.1711376  38.6517145  31.7338298  72.9471766  39.1413597  32.0062915
  71.4459510  39.0775199  32.1910168  74.6083934  39.3644764  32.7912239
  75.2028425  39.1240500  32.0805547  74.6810518  38.6451895  33.4185775
  67.9640053  48.3915299  22.1131979  68.6675903  48.5965301  22.7289635
  67.2402702  48.9592061  22.3781063  68.7937863  44.1425160  28.2334249
  68.7373065  44.5993711  27.3941882  69.3466206  43.3815844  28.0557092
  72.6042669  39.9314892  29.0584369  72.3479603  39.5311527  29.8892577
  71.9795537  40.6458686  28.9334508  76.9155007  42.6710965  31.5655660
  76.3554565  42.7404154  32.3387222  76.3098510  42.4951950  30.8455157
  69.8726750  48.8297828  24.1630439  70.7072354  48.3979026  23.9807914
  69.7111093  48.6579842  25.0907334  69.5272643  45.3329941  25.5286779
  69.4721446  45.1674213  24.5875223  68.9018698  46.0405974  25.6848968
  62.8368768  34.8338050  25.1072097  62.8247438  35.7779890  25.2640368
  63.7292190  34.6508196  24.8131558  66.6520888  31.4280827  29.3618034
  65.8853283  30.8739313  29.5074716  67.0631593  31.5002696  30.2232185
  78.5011026  59.3467479  34.2585616  79.1389436  59.2274226  33.5548956
  78.3831868  60.2948323  34.3173568  75.3100732  59.2994907  34.1947141
  74.9719243  59.1835972  33.3067676  76.1790500  58.8986072  34.1748147
  71.1687548  61.1530383  30.1844032  70.6052413  61.0620320  29.4160319
  71.0539943  60.3330288  30.6646524  75.7920515  60.4529759  40.1533346
  75.7809156  60.0582557  39.2813850  75.9541154  59.7195831  40.7467118
  68.7151979  62.6481575  33.0228252  69.5073271  62.3072400  32.6074551
  68.9548630  62.7576550  33.9430405  76.7487106  64.8201351  25.4958497
  76.0975086  65.4055432  25.1092510  77.5431469  65.3507546  25.5553534
  70.6742733  61.9090488  25.8945631  71.4473609  61.3619475  25.7558507
  71.0268132  62.7734738  26.1060092  73.4383983  60.6143719  35.6913890
  74.0347555  60.3899741  34.9770853  73.4958954  59.8728465  36.2939338
  73.0109011  58.0683154  23.5264081  73.2634532  57.5464676  22.7647544
  72.0733570  57.9049300  23.6290764  78.0552294  57.0718933  31.3338824
  78.8415383  56.6538356  30.9829241  78.3190998  57.9765025  31.5020472
  78.2262371  62.5091783  26.0327481  77.5908204  62.5826410  26.7448385
  77.8959778  63.0985382  25.3546560  83.4560721  57.0094166  32.2371803
  84.1885893  56.4393383  32.4709632  82.7000077  56.6215766  32.6778308
  72.7305300  59.9711260  25.7288456  72.6141558  59.2956164  26.3969540
  72.8407560  59.4843634  24.9120609  75.0736841  59.4321407  29.4335145
  74.7095048  58.9052028  30.1448066  75.9303957  59.0419877  29.2601630
  80.9786142  50.7215740  36.6966411  80.6469466  51.5911151  36.4727626
  80.3831755  50.4052024  37.3760442  74.7142328  54.4611307  24.4296494
  74.8816730  55.3291544  24.7966965  74.5239497  54.6238589  23.5057783
  77.4717661  62.9228286  36.0962324  77.1718384  63.8253325  35.9878131
  77.1268721  62.6560469  36.9483477  70.9230143  59.3742083  32.1299028
  69.9980639  59.2418297  32.3376720  71.1714556  60.1536302  32.6268971
  80.8714805  55.4410826  33.7759761  79.9631682  55.3726235  33.4818522
  80.8202401  55.9182771  34.6041587  74.6931549  56.9168965  25.4143160
  74.5731174  57.3626015  26.2528641  73.9984137  57.2654282  24.8556698
  68.2838954  59.0175356  32.9642817  68.4131335  59.2709835  33.8782229
  67.6036405  59.6103064  32.6447472  74.9455671  56.8600472  41.7194658
  74.1689005  57.4194392  41.7097523  75.5846234  57.3457255  42.2409529
  82.7376451  53.6427265  35.5537635  82.0950832  53.9359798  34.9077430
  82.2331380  53.5280185  36.3590832  80.3916615  57.3890438  26.2423494
  81.3034471  57.6217825  26.0671192  79.8826262  57.9727482  25.6798573
  78.6757383  61.8115066  39.8784787  79.0840739  61.3697476  39.1339419
  77.9534644  61.2367693  40.1318980  75.0288453  56.7487672  37.2518344
  75.8749648  57.1727086  37.3952993  74.9687090  56.0921297  37.9456907
  78.9986197  62.3716256  33.6337076  78.3695060  62.5361970  32.9313144
  78.6111859  62.7857866  34.4048040  82.8775429  63.3070694  30.9881440
  82.1926467  63.6869596  30.4378473  82.9619278  63.9166021  31.7213387
  78.1787898  54.4092041  38.9099518  77.9348830  55.1634101  38.3733793
  78.4547828  54.7877388  39.7446765  80.1326361  60.9530653  37.5876783
  80.3443256  61.5962413  36.9111164  80.0856109  60.1192970  37.1198713
  77.7352590  53.5648474  34.4913355  76.8737069  53.8629727  34.7830093
  77.7615024  53.7818873  33.5594388  74.5514159  62.1090664  30.8987161
  75.0152505  62.3878367  30.1091783  74.2870957  61.2074109  30.7160252
  71.4438240  61.6562146  33.8366924  72.0139597  62.0849414  33.1984409
  72.0346352  61.3744731  34.5351110  73.4883045  58.2313817  27.7076726
  74.1907089  58.6834860  28.1750652  73.1563674  57.5897636  28.3356619
  67.2308379  56.4897369  33.0093860  66.4407433  56.7454898  32.5333970
  67.7219626  57.3045707  33.1145900  81.2472189  63.8302609  35.7599140
  82.0689632  63.4282796  35.4781822  81.2434592  63.7270843  36.7115256
  69.1823125  56.8541949  29.9677336  68.3854288  56.9660643  30.4860832
  68.9548717  57.1928601  29.1018227  75.0128792  63.3786652  37.9159851
  75.0773225  63.8407059  38.7518023  74.3039716  62.7484017  38.0442161
  65.5146082  56.7427860  35.4408850  65.7654121  57.6274870  35.7066426
  66.0505631  56.5632461  34.6683942  89.3378182  60.1741357  32.1084112
  88.5841890  59.6048755  31.9528116  89.4725723  60.1404022  33.0554747
  74.7276810  65.0454759  27.7838831  74.5922485  65.8906295  28.2123679
  75.2686622  65.2474037  27.0204765  71.2144149  51.1246339  44.4453187
  70.8211095  50.5712538  45.1200831  72.0310290  51.4356918  44.8359704
  68.1806207  62.5630197  28.3566756  68.6930728  63.3573448  28.5072321
  68.8328920  61.8656488  28.2900358  69.9901092  65.6795954  30.4389510
  70.1667720  66.6013918  30.2510493  70.7857925  65.3654373  30.8683889
  74.1312110  52.5404218  42.0373443  74.8721824  53.1411371  41.9577906
  74.3630033  51.7981856  41.4791486  78.4526524  65.9481126  39.9420575
  78.4345000  66.7690007  39.4500844  79.3746444  65.8235201  40.1670716
  78.0769273  48.5685321  36.3137725  77.7333543  49.4586963  36.2376835
  78.4448236  48.3786979  35.4507310  66.1455124  60.8918852  29.1326327
  66.9830346  61.3015860  28.9160035  66.3233392  59.9518294  29.1026521
  78.0419556  58.5593932  24.8210160  77.5266180  59.3298537  25.0598547
  77.7696865  57.8859069  25.4443221  75.6266667  53.4043633  29.8795398
  74.7708263  53.0150484  29.7001037  76.0393619  53.4835594  29.0195184
  77.1565814  50.9389976  34.2786958  76.6530609  50.9020112  33.4654763
  77.4496421  51.8482719  34.3383615  73.4008700  51.0228706  33.2853140
  74.2661696  50.8271515  32.9259029  73.4686209  50.7939058  34.2122497
  83.0153830  61.3126287  26.7563333  82.2383273  60.9737447  26.3118495
  83.6945311  61.3178910  26.0818298  77.8305859  56.4321024  26.6469941
  77.5255995  56.7467174  27.4980084  78.7836301  56.5102444  26.6897274
  76.2752291  62.5911248  28.2962895  75.7473653  61.8564007  27.9836132
  75.7739794  63.3685924  28.0502863  81.2545137  60.7860268  33.4129941
  80.5968812  61.4759530  33.5010070  82.0585536  61.1756700  33.7563928
  71.0071019  53.2530914  30.6569507  71.5814771  53.0306096  29.9242700
  71.5942001  53.3219609  31.4098108  80.0650596  59.1404641  31.4633883
  80.5782478  59.7734633  31.9655593  80.7151820  58.5405836  31.0977243
  71.3340606  55.2835375  24.6765392  70.4977918  55.6210062  24.9974667
  71.1945375  55.1484355  23.7392529  73.3093686  50.1272163  29.3844576
  72.6558099  49.8121180  28.7601191  73.2674161  49.5047903  30.1104399
  74.4204891  60.4091458  21.2997868  73.5131953  60.1780712  21.4989017
  74.9175923  59.6129077  21.4871850  77.3272970  69.1188965  24.2194554
  76.6534669  69.4220662  24.8279512  77.7138792  69.9218046  23.8700011
  76.5431427  56.6154097  33.7092224  75.6253988  56.8369044  33.5513912
  76.9591570  56.6900407  32.8503931  77.3266475  58.0145512  28.8394904
  78.0738293  58.5266909  28.5302026  77.5958064  57.6929565  29.6999297
  75.5993125  60.5104053  25.8221858  74.6904344  60.2263086  25.9194328
  75.6288209  60.9303131  24.9625165  80.8312392  64.1210642  29.5913026
  80.3774719  63.2801552  29.6478216  80.2006359  64.7572041  29.9287806
  79.7745312  55.0502628  30.8213693  79.0368068  54.5380015  31.1523936
  80.0272085  54.6103010  30.0096970  79.2745331  65.9587139  30.5262844
  79.5668306  66.5192196  29.8075210  79.7843952  66.2515700  31.2816003
  79.8756939  47.8278880  31.4155462  80.1815816  46.9676244  31.1281378
  80.6009544  48.4196501  31.2154456  66.1681295  58.2309567  29.8037060
  65.9705695  57.6378928  29.0788127  65.6127959  57.9261777  30.5212999
  74.1478019  58.1232674  31.9231654  74.2026629  57.1706510  31.8474130
  73.3369221  58.2792113  32.4072952  75.2969213  62.0512797  23.1609937
  74.8588642  61.3348656  22.7015574  76.0379653  62.2788911  22.5995028
  72.0870379  56.7409733  29.6822032  71.2738244  57.0403904  30.0887225
  72.5829373  56.3465422  30.3996515  74.2378957  66.7367490  31.6156297
  74.1955135  66.9628337  30.6864829  75.1541655  66.5030865  31.7642098
  77.6844590  57.2051558  38.5136926  78.0393978  57.4323031  39.3731392
  78.3316722  57.5369935  37.8914182  83.4142327  60.3269994  29.2186255
  83.2760226  60.5171590  28.2907445  83.0578546  61.0889376  29.6754306
  71.5784453  54.3128089  35.2983267  72.2183833  54.1716848  34.6006231
  70.7461984  54.0262602  34.9221869  83.4411707  62.3946521  34.2297527
  83.8748214  62.3021810  35.0780581  84.1543288  62.3704021  33.5917543
  72.3544757  63.6130519  31.4118260  73.1485356  63.1180839  31.2100835
  71.6436450  63.0848382  31.0485965  77.1739602  65.9948615  35.7630627
  77.2276624  66.5639551  36.5308343  76.3054383  66.1650500  35.3984665
  68.6627521  57.7573601  27.4878012  67.7325109  57.6958056  27.7047975
  68.7584993  57.2349554  26.6914654  68.5813070  54.2828414  30.0756254
  68.8419887  55.1973747  29.9665415  69.4030242  53.8152856  30.2252867
  84.3027256  62.4370221  36.7630412  84.4963147  63.3416032  37.0089687
  84.2027875  61.9777640  37.5968997  75.9563567  52.3228112  39.2620740
  75.3091482  53.0218062  39.1685216  76.7264583  52.7564256  39.6296988
  79.3642365  62.5876964  42.3371293  79.2127872  62.3587516  41.4201377
  79.3547045  63.5447565  42.3502638  76.1327702  60.1608877  37.3217559
  77.0619762  60.3120036  37.1486527  75.7118732  60.2492898  36.4666206
  74.9316033  64.1859541  35.0916097  74.7927119  63.8178326  35.9642035
  74.1430630  64.7007181  34.9200055  75.5264185  69.2868638  26.4341633
  75.7015941  68.8156681  27.2487256  74.8396973  69.9134404  26.6622894
  76.4821248  63.5641144  32.4804935  76.1471081  63.5241914  33.3762585
  75.9825194  62.8985860  32.0075345  79.4180440  60.9097178  22.7541994
  78.8009611  60.1844006  22.6575047  78.9496929  61.6706539  22.4109069
  73.0847793  58.6828733  37.4941195  73.7947412  58.0421925  37.4527814
  73.0417101  58.9341628  38.4167376  81.0734572  65.6196087  40.4147775
  81.0147118  64.9355307  39.7478358  81.4754090  66.3615077  39.9628401
  71.2078986  55.1282603  21.8763299  70.3308452  55.0071403  21.5125545
  71.6836739  54.3368681  21.6242187  81.0751979  63.5835671  38.6461754
  80.1878758  63.2461592  38.7688153  81.6450530  62.8518702  38.8830520
  62.7281126  59.9159762  31.9704806  63.4152166  59.6021492  31.3825821
  62.5729255  60.8201127  31.6972057  74.6053132  68.2437123  35.6122998
  74.5323304  69.0492094  36.1242302  74.1630526  68.4429089  34.7871019
  74.3942912  67.4808893  29.1225819  73.6110434  68.0230573  29.2164044
  75.0935657  67.9982873  29.5220060  77.7039562  53.2903522  31.7660025
  78.2008262  52.5373485  31.4461095  76.9326544  53.3267839  31.2003234
  85.5569320  58.9943888  33.4078316  85.5459196  59.8768603  33.0372249
  84.6886699  58.6415439  33.2132853  77.0651816  68.1423957  37.7681156
  77.7779788  68.7771422  37.6957058  76.5741845  68.2387823  36.9521158
  78.7869343  62.0475210  29.3398448  77.8525622  62.1676672  29.1703152
  78.9646011  61.1447676  29.0758458  74.2874531  55.4320905  31.4931709
  73.9172318  54.8791946  32.1812615  74.7833623  54.8279039  30.9406709
  82.1741894  57.8892529  29.8748482  82.6402346  58.7220520  29.8008785
  82.6249395  57.4237510  30.5793741  80.2418125  64.2336350  26.8734634
  80.5177969  64.1192945  27.7828508  79.3722624  63.8353835  26.8346807
  80.1458557  50.2573116  33.9139383  79.2321637  50.4877343  34.0821590
  80.5751658  50.3411560  34.7653416  79.9165015  58.4463008  36.4139277
  79.2636466  58.6938915  35.7591730  80.2945395  57.6327146  36.0801755
  76.8772189  68.4822701  30.5167448  77.0594584  67.6644357  30.9795200
  77.7005175  68.6990393  30.0792338  77.2114355  67.4090886  27.7782496
  77.7402121  66.8983341  27.1652658  77.4742574  67.0933416  28.6428029
  62.3049102  57.9960356  34.2422273  62.3433202  57.4623946  35.0359391
  61.7989395  57.4695561  33.6233250  74.7075371  70.4949746  37.1362930
  75.2593679  70.6581368  37.9012016  75.0481565  71.0854184  36.4642955
  65.9357680  56.7224458  27.3176204  66.2311121  55.8135136  27.2643258
  65.0345716  56.7012197  26.9957207  77.8443759  68.4431722  34.1226613
  77.7194898  67.6421462  33.6137558  78.5022850  68.9377915  33.6340583
  69.4651927  54.7980454  33.3003753  68.7438513  55.4116422  33.1611226
  70.2545183  55.3338219  33.2220399  79.9078667  66.2440742  35.7506163
  78.9609003  66.1246093  35.6784489  80.2561440  65.3563240  35.8332424
  72.2678240  52.1334881  39.5744405  72.7912642  52.3797177  40.3370714
  72.0490574  52.9654916  39.1547542  67.6645521  54.4038555  27.4415529
  67.3358228  53.5235934  27.2590635  68.0184892  54.3486224  28.3291919
  76.9125100  66.0393458  31.9510515  76.7650063  65.1110166  32.1318085
  77.7378594  66.0613549  31.4667590  70.7787345  54.6911525  27.8091007
  71.1183417  55.2197446  27.0869615  71.2259465  55.0291931  28.5849574
  80.5159222  66.8622017  33.0375388  81.4405770  66.6564878  32.8999839
  80.3474526  66.6138418  33.9464729  73.4730785  53.0748576  37.2594075
  73.1327606  52.2756389  37.6614755  72.7669792  53.3750287  36.6870908
  74.1247257  50.1597888  35.7121398  74.9473327  49.6858367  35.5900289
  74.3685321  50.9388372  36.2120084  72.7655492  53.1886147  26.0084300
  73.4863854  53.5667400  25.5048017  72.1420796  53.9075024  26.1119278
  76.9086615  53.8931296  26.9442632  77.1250229  54.7755934  26.6431460
  76.4280682  53.5017509  26.2148274  71.6485836  56.8517009  33.5213377
  71.5030417  57.1657312  34.4137658  71.1711040  57.4701909  32.9684275
  73.5082219  53.8419557  33.5694266  73.4943788  52.9460650  33.2326564
  74.2254647  53.8490221  34.2032552  75.3608350  54.2756897  35.6147394
  75.1026127  55.1973968  35.6131724  74.8293390  53.8787332  36.3047858
  80.3054538  67.3807684  28.3937479  80.4791416  66.8154107  27.6411332
  80.7983430  68.1808579  28.2116969  72.9119115  52.7233937  28.8381836
  73.0335026  51.7950583  29.0372724  72.6221157  52.7372623  27.9260152
  75.7810305  50.4088848  31.9748556  75.8032002  50.4728181  31.0200536
  76.1978364  49.5693356  32.1689062  86.1593930  60.1444107  30.0127779
  86.6025076  59.3951432  29.6146902  85.2820440  60.1354244  29.6301511
  81.2929711  66.6974449  25.4934377  81.9880615  67.3181141  25.7121692
  81.6352861  65.8469800  25.7686755  83.1921134  64.1474154  27.0221708
  83.7172458  64.4861427  26.2971028  83.1043487  63.2121170  26.8384843
  74.8761795  70.2146138  31.3816961  74.4366785  69.7222516  32.0749818
  75.6269912  69.6719105  31.1409037  67.3554134  66.4057678  31.3841589
  68.1812154  66.1061450  31.0040233  67.0048186  65.6365301  31.8331378
  72.3235667  65.7584147  33.4539263  71.7015676  65.0954852  33.1541491
  72.9940534  65.7845279  32.7712911  65.5562739  64.3244005  32.3430523
  64.7194647  63.8966179  32.1614524  65.5286384  64.5176448  33.2801314
  72.3960194  54.2365935  43.0471769  72.4448350  55.1128057  42.6649539
  72.9382709  53.6943328  42.4743412  82.8815040  64.7807058  42.3272906
  82.0910584  64.7631197  41.7877406  82.6448395  65.3195352  43.0821943
  83.0012915  61.6299524  39.6405635  83.0510920  61.4649532  40.5821158
  82.8926838  60.7626783  39.2503515  71.8849174  64.3088070  26.9297724
  72.0337294  64.9923534  26.2764396  72.6915617  64.2893160  27.4447179
  80.2916678  57.6130452  40.9564941  81.1926540  57.4736917  40.6648939
  80.3664652  57.7784907  41.8963119  74.6259483  54.9897307  39.8018128
  73.7562792  55.2830873  39.5300716  74.8618963  55.5737752  40.5225391
  84.5031112  64.0496466  39.8847656  84.2115920  64.4126446  40.7211117
  83.8903243  63.3363474  39.7060988  85.7026794  61.6149346  32.4050226
  86.5373686  62.0539150  32.5687787  85.8385923  61.1387999  31.5858472
  82.7518300  59.1729080  38.3527714  83.2272422  59.3656727  37.5446566
  81.8283866  59.2288266  38.1071098  69.6401807  60.3353248  27.9358793
  69.3947849  59.4315578  28.1339003  69.8097721  60.3370398  26.9938271
  77.3298517  51.2076924  37.3183548  77.8480461  51.9437951  36.9930037
  76.9753649  51.5140917  38.1530307  68.9097454  56.0681605  25.4344954
  68.2166699  56.1425960  24.7784990  68.6649206  55.3041949  25.9566471
  77.5811111  47.6277207  32.8384445  77.8612865  46.9600396  33.4644871
  78.3661718  47.8206302  32.3259109  75.3844579  66.8036200  24.4009471
  74.8118546  67.4226388  23.9479943  75.9577373  67.3535562  24.9349393
  81.4519969  56.0494841  36.5856020  82.4037392  56.1492938  36.6068244
  81.2823420  55.2573109  37.0954104  79.4734349  53.1350424  36.7715421
  78.8784281  53.4155436  36.0761909  79.1884045  53.6244325  37.5432162
  78.6041839  67.0873351  25.5318053  79.5372512  67.0218912  25.7350929
  78.5165052  67.9229617  25.0732586  81.2329856  66.4039221  22.4922001
  81.1543487  66.0699085  23.3857759  82.0539523  66.8960989  22.4913473
  83.9308047  59.2700960  35.6998319  83.8984367  58.3316961  35.8858003
  84.5408671  59.3484997  34.9664144  75.7691378  58.1397013  21.7425524
  76.7150483  58.0103221  21.8113942  75.3905623  57.4011675  22.2194952
  84.0802535  56.0612004  35.7456603  83.5641584  55.2770460  35.5586532
  84.9642484  55.7330720  35.9103122  81.7413262  49.8053019  31.7052415
  81.5438084  49.4968107  32.5895747  82.3512968  50.5314658  31.8350345
  89.7484597  60.3316967  34.8404356  90.4787985  60.0702255  35.4012060
  89.1391542  59.5945689  34.8806424  87.8299894  58.4724830  35.4378807
  87.1033058  58.3380795  34.8295299  87.4147181  58.7801658  36.2435526
  73.9534295  56.0646990  21.6780409  73.0465750  55.7680102  21.7543122
  74.2310276  55.7676808  20.8114695  64.8712235  57.3853353  32.1279455
  64.5515020  56.5318661  31.8353829  64.3245664  57.6001931  32.8837422
  68.6492143  60.1015794  35.8448962  68.8678153  61.0332902  35.8636995
  69.0617917  59.7423768  36.6303766  75.5696361  50.6083879  27.8324650
  74.7597089  50.2630964  28.2079896  76.2580778  50.2991423  28.4212262
  77.4986909  49.6861926  29.4548947  78.0517948  50.1057380  30.1138970
  77.7356995  48.7597674  29.4971903  72.7233080  52.9233925  21.8192388
  73.5852244  53.2488823  22.0788205  72.9083424  52.1365421  21.3065454
  64.7400495  61.0056264  34.0972577  64.0463967  60.5910217  33.5842531
  65.4873486  61.0476801  33.5005996  80.8765716  51.7962451  28.9627611
  80.2964385  52.4547255  28.5805663  80.6101649  50.9739796  28.5515028
  79.3269282  51.1967509  31.1648931  79.8269061  51.3084043  30.3563250
  79.9704890  50.8928562  31.8049740  66.6537238  60.9374518  31.9738592
  66.6307926  61.0362206  31.0220475  66.9637874  61.7839669  32.2955758
  69.3124616  62.9950673  36.0885206  70.2667869  62.9634616  36.0215138
  69.1137139  62.5341297  36.9035432  79.6590594  53.9562542  28.0183959
  78.7716449  54.2412192  27.8004154  80.0744583  53.7956305  27.1711236
  83.0105130  53.9809063  31.7338298  83.7865520  54.4705515  32.0062915
  82.2853264  54.4067117  32.1910168  85.4477689  54.6936682  32.7912239
  86.0422180  54.4532418  32.0805547  85.5204273  53.9743812  33.4185775
  78.8033808  63.7207216  22.1131979  79.5069658  63.9257219  22.7289635
  78.0796456  64.2883978  22.3781063  79.6331618  59.4717078  28.2334249
  79.5766819  59.9285629  27.3941882  80.1859960  58.7107762  28.0557092
  83.4436424  55.2606809  29.0584369  83.1873358  54.8603445  29.8892577
  82.8189292  55.9750603  28.9334508  87.7548762  58.0002883  31.5655660
  87.1948320  58.0696072  32.3387222  87.1492265  57.8243867  30.8455157
  80.7120505  64.1589746  24.1630439  81.5466109  63.7270944  23.9807914
  80.5504848  63.9871759  25.0907334  80.3666397  60.6621859  25.5286779
  80.3115201  60.4966130  24.5875223  79.7412452  61.3697892  25.6848968
  73.6762523  50.1629968  25.1072097  73.6641192  51.1071808  25.2640368
  74.5685944  49.9800113  24.8131558  73.6052087  68.8398858  33.1939854
  72.6547718  68.8400720  33.0804226  73.9084573  68.0931593  32.6775888
  77.4914642  46.7572744  29.3618034  76.7247038  46.2031231  29.5074716
  77.9025347  46.8294613  30.2232185  89.3404780  74.6759397  34.2585616
  89.9783190  74.5566144  33.5548956  89.2225623  75.6240241  34.3173568
  86.1494486  74.6286825  34.1947141  85.8112998  74.5127889  33.3067676
  87.0184255  74.2277990  34.1748147  82.0081302  76.4822301  30.1844032
  81.4446167  76.3912238  29.4160319  81.8933697  75.6622206  30.6646524
  86.6314269  75.7821676  40.1533346  86.6202910  75.3874475  39.2813850
  86.7934909  75.0487749  40.7467118  79.5545734  77.9773493  33.0228252
  80.3467026  77.6364317  32.6074551  79.7942384  78.0868468  33.9430405
  87.5880861  80.1493269  25.4958497  86.9368841  80.7347349  25.1092510
  88.3825224  80.6799464  25.5553534  81.5136488  77.2382406  25.8945631
  82.2867364  76.6911393  25.7558507  81.8661887  78.1026655  26.1060092
  83.3521530  78.5658788  39.1012530  83.0611396  79.4704419  38.9859197
  83.9878515  78.6075316  39.8156600  84.2777737  75.9435637  35.6913890
  84.8741310  75.7191659  34.9770853  84.3352709  75.2020382  36.2939338
  83.8502766  73.3975072  23.5264081  84.1028286  72.8756593  22.7647544
  82.9127325  73.2341218  23.6290764  88.8946049  72.4010850  31.3338824
  89.6809138  71.9830274  30.9829241  89.1584753  73.3056943  31.5020472
  89.0656126  77.8383701  26.0327481  88.4301959  77.9118327  26.7448385
  88.7353532  78.4277300  25.3546560  94.2954476  72.3386084  32.2371803
  95.0279648  71.7685300  32.4709632  93.5393831  71.9507684  32.6778308
  83.5699054  75.3003178  25.7288456  83.4535313  74.6248081  26.3969540
  83.6801314  74.8135552  24.9120609  85.9130595  74.7613325  29.4335145
  85.5488803  74.2343946  30.1448066  86.7697711  74.3711794  29.2601630
  91.8179896  66.0507658  36.6966411  91.4863221  66.9203069  36.4727626
  91.2225509  65.7343942  37.3760442  85.5536082  69.7903225  24.4296494
  85.7210485  70.6583461  24.7966965  85.3633251  69.9530507  23.5057783
  88.3111416  78.2520204  36.0962324  88.0112139  79.1545243  35.9878131
  87.9662475  77.9852387  36.9483477  81.7623897  74.7034001  32.1299028
  80.8374394  74.5710215  32.3376720  82.0108310  75.4828220  32.6268971
  91.7108559  70.7702744  33.7759761  90.8025437  70.7018152  33.4818522
  91.6596155  71.2474689  34.6041587  85.5325303  72.2460882  25.4143160
  85.4124928  72.6917933  26.2528641  84.8377892  72.5946200  24.8556698
  79.1232708  74.3467274  32.9642817  79.2525089  74.6001753  33.8782229
  78.4430159  74.9394982  32.6447472  83.2932195  85.0164524  29.0633292
  83.2156225  85.9672349  29.1421772  82.6893839  84.6710397  29.7208218
  85.7849425  72.1892390  41.7194658  85.0082759  72.7486310  41.7097523
  86.4239988  72.6749173  42.2409529  93.5770206  68.9719182  35.5537635
  92.9344586  69.2651716  34.9077430  93.0725134  68.8572103  36.3590832
  91.2310369  72.7182356  26.2423494  92.1428226  72.9509742  26.0671192
  90.7220016  73.3019400  25.6798573  84.0395797  74.9977843  41.2812625
  84.7810482  75.5362887  41.0047449  83.3332783  75.6244132  41.4384177
  89.5151137  77.1406983  39.8784787  89.9234493  76.6989394  39.1339419
  88.7928399  76.5659611  40.1318980  85.8682207  72.0779590  37.2518344
  86.7143402  72.5019004  37.3952993  85.8080845  71.4213214  37.9456907
  89.8379952  77.7008174  33.6337076  89.2088814  77.8653888  32.9313144
  89.4505614  78.1149784  34.4048040  93.7169184  78.6362612  30.9881440
  93.0320222  79.0161513  30.4378473  93.8013033  79.2457938  31.7213387
  89.0181652  69.7383958  38.9099518  88.7742584  70.4926019  38.3733793
  89.2941583  70.1169306  39.7446765  90.9720115  76.2822571  37.5876783
  91.1837010  76.9254331  36.9111164  90.9249863  75.4484887  37.1198713
  88.5746344  68.8940392  34.4913355  87.7130823  69.1921645  34.7830093
  88.6008779  69.1110790  33.5594388  85.3907914  77.4382582  30.8987161
  85.8546259  77.7170285  30.1091783  85.1264712  76.5366027  30.7160252
  82.2831995  76.9854064  33.8366924  82.8533352  77.4141332  33.1984409
  82.8740107  76.7036648  34.5351110  84.3276800  73.5605734  27.7076726
  85.0300843  74.0126778  28.1750652  83.9957428  72.9189553  28.3356619
  82.7757161  72.1517491  42.0827935  82.1455822  72.8333772  42.3163332
  82.6693249  72.0400573  41.1381074  78.0702134  71.8189287  33.0093860
  77.2801188  72.0746816  32.5333970  78.5613381  72.6337625  33.1145900
  92.0865943  79.1594526  35.7599140  92.9083387  78.7574714  35.4781822
  92.0828346  79.0562760  36.7115256  80.0216879  72.1833866  29.9677336
  79.2248042  72.2952561  30.4860832  79.7942471  72.5220519  29.1018227
  85.8522547  78.7078570  37.9159851  85.9166979  79.1698977  38.7518023
  85.1433470  78.0775935  38.0442161  76.3539837  72.0719778  35.4408850
  76.6047875  72.9566787  35.7066426  76.8899385  71.8924379  34.6683942
 100.1771936  75.5033275  32.1084112  99.4235645  74.9340673  31.9528116
 100.3119477  75.4695939  33.0554747  85.5670564  80.3746677  27.7838831
  85.4316239  81.2198213  28.2123679  86.1080377  80.5765955  27.0204765
  82.0537904  66.4538257  44.4453187  81.6604849  65.9004455  45.1200831
  82.8704044  66.7648835  44.8359704  79.0199962  77.8922115  28.3566756
  79.5324482  78.6865365  28.5072321  79.6722674  77.1948406  28.2900358
  80.8294846  81.0087871  30.4389510  81.0061475  81.9305836  30.2510493
  81.6251680  80.6946291  30.8683889  84.9705865  67.8696136  42.0373443
  85.7115578  68.4703289  41.9577906  85.2023788  67.1273774  41.4791486
  87.1939041  80.9970244  41.9139173  86.7502895  80.2106622  41.5960078
  87.8556254  81.1849394  41.2483064  81.9526162  82.5266045  36.4399852
  82.5033587  82.3983109  35.6676846  81.1137638  82.8260934  36.0894745
  89.2920279  81.2773044  39.9420575  89.2738754  82.0981925  39.4500844
  90.2140199  81.1527119  40.1670716  85.7493333  78.7917173  40.7844083
  86.2821670  78.0305461  40.5543391  85.2207414  78.4990825  41.5268238
  88.9163028  63.8977239  36.3137725  88.5727297  64.7878881  36.2376835
  89.2841990  63.7078897  35.4507310  76.9848878  76.2210769  29.1326327
  77.8224100  76.6307778  28.9160035  77.1627146  75.2810212  29.1026521
  88.8813311  73.8885850  24.8210160  88.3659934  74.6590455  25.0598547
  88.6090619  73.2150986  25.4443221  86.4660422  68.7335551  29.8795398
  85.6102018  68.3442401  29.7001037  86.8787373  68.8127512  29.0195184
  87.9959568  66.2681894  34.2786958  87.4924364  66.2312029  33.4654763
  88.2890175  67.1774637  34.3383615  84.2402454  66.3520624  33.2853140
  85.1055451  66.1563433  32.9259029  84.3079963  66.1230976  34.2122497
  93.8547585  76.6418205  26.7563333  93.0777027  76.3029364  26.3118495
  94.5339066  76.6470828  26.0818298  88.6699614  71.7612942  26.6469941
  88.3649749  72.0759091  27.4980084  89.6230056  71.8394362  26.6897274
  87.1146046  77.9203165  28.2962895  86.5867407  77.1855925  27.9836132
  86.6133548  78.6977842  28.0502863  92.0938892  76.1152186  33.4129941
  91.4362566  76.8051447  33.5010070  92.8979291  76.5048618  33.7563928
  81.8464773  68.5822832  30.6569507  82.4208525  68.3598013  29.9242700
  82.4335756  68.6511526  31.4098108  90.9044350  74.4696559  31.4633883
  91.4176232  75.1026550  31.9655593  91.5545574  73.8697754  31.0977243
  82.1734360  70.6127293  24.6765392  81.3371673  70.9501979  24.9974667
  82.0339130  70.4776273  23.7392529  84.1487441  65.4564081  29.3844576
  83.4951853  65.1413098  28.7601191  84.1067915  64.8339821  30.1104399
  85.2598646  75.7383376  21.2997868  84.3525707  75.5072629  21.4989017
  85.7569678  74.9420995  21.4871850  88.1666725  84.4480883  24.2194554
  87.4928423  84.7512580  24.8279512  88.5532547  85.2509963  23.8700011
  87.3825181  71.9446014  33.7092224  86.4647743  72.1660961  33.5513912
  87.7985325  72.0192325  32.8503931  88.1660229  73.3437430  28.8394904
  88.9132048  73.8558827  28.5302026  88.4351819  73.0221483  29.6999297
  86.4386879  75.8395971  25.8221858  85.5298098  75.5555003  25.9194328
  86.4681963  76.2595049  24.9625165  91.6706147  79.4502560  29.5913026
  91.2168474  78.6093470  29.6478216  91.0400113  80.0863958  29.9287806
  90.6139066  70.3794546  30.8213693  89.8761823  69.8671932  31.1523936
  90.8665840  69.9394928  30.0096970  90.1139086  81.2879057  30.5262844
  90.4062060  81.8484114  29.8075210  90.6237706  81.5807618  31.2816003
  90.7150693  63.1570798  31.4155462  91.0209570  62.2968162  31.1281378
  91.4403298  63.7488418  31.2154456  77.0075050  73.5601485  29.8037060
  76.8099449  72.9670845  29.0788127  76.4521714  73.2553695  30.5212999
  84.9871773  73.4524591  31.9231654  85.0420383  72.4998428  31.8474130
  84.1762975  73.6084030  32.4072952  86.1362967  77.3804714  23.1609937
  85.6982397  76.6640573  22.7015574  86.8773408  77.6080829  22.5995028
  82.9264133  72.0701651  29.6822032  82.1131999  72.3695822  30.0887225
  83.4223127  71.6757340  30.3996515  85.0772711  82.0659408  31.6156297
  85.0348890  82.2920254  30.6864829  85.9935410  81.8322782  31.7642098
  88.5238345  72.5343475  38.5136926  88.8787733  72.7614949  39.3731392
  89.1710476  72.8661852  37.8914182  94.2536082  75.6561911  29.2186255
  94.1153980  75.8463507  28.2907445  93.8972301  76.4181294  29.6754306
  82.4178208  69.6420006  35.2983267  83.0577587  69.5008766  34.6006231
  81.5855738  69.3554520  34.9221869  94.2805461  77.7238438  34.2297527
  94.7141968  77.6313727  35.0780581  94.9937042  77.6995939  33.5917543
  83.1938512  78.9422437  31.4118260  83.9879110  78.4472757  31.2100835
  82.4830204  78.4140300  31.0485965  88.0133356  81.3240532  35.7630627
  88.0670379  81.8931469  36.5308343  87.1448138  81.4942417  35.3984665
  79.5021275  73.0865519  27.4878012  78.5718863  73.0249974  27.7047975
  79.5978747  72.5641471  26.6914654  79.4206824  69.6120331  30.0756254
  79.6813642  70.5265665  29.9665415  80.2423997  69.1444774  30.2252867
  80.8931750  71.0258089  37.2455079  81.5654803  70.8175451  36.5967728
  80.0661536  70.8280175  36.8060311  95.1421011  77.7662139  36.7630412
  95.3356901  78.6707949  37.0089687  95.0421629  77.3069558  37.5968997
  86.7957322  67.6520030  39.2620740  86.1485237  68.3509979  39.1685216
  87.5658337  68.0856173  39.6296988  90.2036120  77.9168882  42.3371293
  90.0521626  77.6879433  41.4201377  90.1940799  78.8739483  42.3502638
  86.9721456  75.4900794  37.3217559  87.9013516  75.6411954  37.1486527
  86.5512486  75.5784815  36.4666206  85.7709788  79.5151459  35.0916097
  85.6320874  79.1470243  35.9642035  84.9824384  80.0299098  34.9200055
  86.3657940  84.6160555  26.4341633  86.5409695  84.1448599  27.2487256
  85.6790728  85.2426322  26.6622894  87.3215003  78.8933062  32.4804935
  86.9864836  78.8533832  33.3762585  86.8218949  78.2277777  32.0075345
  81.2959247  74.3000692  38.0057516  81.1579045  73.5680930  38.6069055
  82.2064170  74.2109592  37.7241704  90.2574195  76.2389096  22.7541994
  89.6403365  75.5135924  22.6575047  89.7890683  76.9998456  22.4109069
  83.9241548  74.0120651  37.4941195  84.6341166  73.3713843  37.4527814
  83.8810856  74.2633546  38.4167376  91.9128326  80.9488004  40.4147775
  91.8540872  80.2647224  39.7478358  92.3147845  81.6906994  39.9628401
  82.6370482  70.9985869  39.3136835  82.1007839  70.5476607  39.9658431
  82.0487190  71.1331778  38.5707299  80.9319025  87.7649918  33.2081494
  81.1715623  88.3968442  33.8860512  80.0888222  87.4137958  33.4946853
  82.0472741  70.4574520  21.8763299  81.1702207  70.3363321  21.5125545
  82.5230494  69.6660599  21.6242187  91.9145734  78.9127588  38.6461754
  91.0272512  78.5753510  38.7688153  92.4844285  78.1810619  38.8830520
  78.3709603  70.1341877  36.3989829  78.2867792  69.5267546  35.6640239
  77.5492309  70.6250895  36.3999326  85.4446887  83.5729041  35.6122998
  85.3717058  84.3784012  36.1242302  85.0024280  83.7721006  34.7871019
  85.2336667  82.8100811  29.1225819  84.4504188  83.3522491  29.2164044
  85.9329412  83.3274790  29.5220060  88.5433317  68.6195440  31.7660025
  89.0402016  67.8665402  31.4461095  87.7720298  68.6559757  31.2003234
  96.3963074  74.3235806  33.4078316  96.3852950  75.2060521  33.0372249
  95.5280454  73.9707356  33.2132853  87.9045570  83.4715875  37.7681156
  88.6173543  84.1063339  37.6957058  87.4135599  83.5679741  36.9521158
  89.6263097  77.3767127  29.3398448  88.6919376  77.4968590  29.1703152
  89.8039766  76.4739594  29.0758458  85.1268285  70.7612823  31.4931709
  84.7566073  70.2083863  32.1812615  85.6227378  70.1570957  30.9406709
  93.0135649  73.2184447  29.8748482  93.4796101  74.0512438  29.8008785
  93.4643149  72.7529428  30.5793741  82.9557484  81.2210318  38.5886727
  83.6566943  81.8546801  38.7416121  82.4852599  81.5625050  37.8282366
  91.0811880  79.5628268  26.8734634  91.3571724  79.4484862  27.7828508
  90.2116379  79.1645753  26.8346807  90.9852311  65.5865034  33.9139383
  90.0715391  65.8169260  34.0821590  91.4145413  65.6703478  34.7653416
  90.7558770  73.7754926  36.4139277  90.1030220  74.0230833  35.7591730
  91.1339150  72.9619064  36.0801755  87.7165944  83.8114619  30.5167448
  87.8988338  82.9936275  30.9795200  88.5398930  84.0282311  30.0792338
  88.0508109  82.7382804  27.7782496  88.5795876  82.2275258  27.1652658
  88.3136329  82.4225334  28.6428029  86.8046343  74.5174737  42.9005315
  86.1286980  74.4168866  43.5707690  87.6273977  74.3613950  43.3641312
  78.5525202  80.7546673  35.5217830  79.1378639  80.0090361  35.6545734
  78.3550041  81.0650630  36.4054494  81.4063857  83.7897920  30.5380272
  80.7374233  84.2744048  30.0544312  81.2676727  84.0367141  31.4523651
  85.5469126  85.8241664  37.1362930  86.0987434  85.9873286  37.9012016
  85.8875319  86.4146102  36.4642955  80.5233619  68.1716814  37.7384815
  80.5874946  69.0331645  37.3262213  80.4600739  67.5590815  37.0057174
  79.9985892  70.2439946  41.3857849  80.6257930  69.8617024  41.9995374
  79.1413810  70.0254148  41.7513542  90.3980000  80.6502922  42.9911585
  90.9419904  81.2632880  42.4966540  89.8166845  81.2082500  43.5078598
  76.7751434  72.0516375  27.3176204  77.0704875  71.1427054  27.2643258
  75.8739470  72.0304115  26.9957207  88.6837513  83.7723640  34.1226613
  88.5588653  82.9713379  33.6137558  89.3416604  84.2669833  33.6340583
  80.3045681  70.1272372  33.3003753  79.5832267  70.7408340  33.1611226
  81.0938937  70.6630137  33.2220399  90.7472422  81.5732660  35.7506163
  89.8002757  81.4538011  35.6784489  91.0955195  80.6855158  35.8332424
  83.1071995  67.4626799  39.5744405  83.6306397  67.7089095  40.3370714
  82.8884328  68.2946833  39.1547542  78.5039276  69.7330473  27.4415529
  78.1751982  68.8527852  27.2590635  78.8578647  69.6778142  28.3291919
  87.7518855  81.3685376  31.9510515  87.6043817  80.4402083  32.1318085
  88.5772348  81.3905467  31.4667590  81.6181099  70.0203443  27.8091007
  81.9577172  70.5489364  27.0869615  82.0653220  70.3583849  28.5849574
  91.3552977  82.1913935  33.0375388  92.2799524  81.9856796  32.8999839
  91.1868280  81.9430336  33.9464729  84.3124540  68.4040494  37.2594075
  83.9721360  67.6048307  37.6614755  83.6063546  68.7042204  36.6870908
  84.9641012  65.4889806  35.7121398  85.7867081  65.0150284  35.5900289
  85.2079075  66.2680290  36.2120084  83.6049246  68.5178065  26.0084300
  84.3257609  68.8959317  25.5048017  82.9814550  69.2366941  26.1119278
  87.7480369  69.2223213  26.9442632  87.9643984  70.1047851  26.6431460
  87.2674436  68.8309427  26.2148274  82.4879591  72.1808927  33.5213377
  82.3424171  72.4949230  34.4137658  82.0104794  72.7993827  32.9684275
  84.3475973  69.1711475  33.5694266  84.3337542  68.2752568  33.2326564
  85.0648402  69.1782138  34.2032552  86.2002104  69.6048815  35.6147394
  85.9419882  70.5265886  35.6131724  85.6687144  69.2079249  36.3047858
  91.1448293  82.7099602  28.3937479  91.3185170  82.1446025  27.6411332
  91.6377184  83.5100497  28.2116969  76.9625253  74.7214271  36.4601038
  76.4178721  75.4974079  36.5921312  77.8404603  75.0685076  36.3020159
  83.7512869  68.0525855  28.8381836  83.8728781  67.1242501  29.0372724
  83.4614912  68.0664541  27.9260152  86.6204060  65.7380765  31.9748556
  86.6425757  65.8020098  31.0200536  87.0372119  64.8985274  32.1689062
  96.9987684  75.4736025  30.0127779  97.4418830  74.7243350  29.6146902
  96.1214194  75.4646161  29.6301511  92.1323465  82.0266366  25.4934377
  92.8274370  82.6473059  25.7121692  92.4746616  81.1761718  25.7686755
  94.0314888  79.4766072  27.0221708  94.5566213  79.8153345  26.2971028
  93.9437241  78.5413087  26.8384843  85.6934937  83.3900146  39.1511585
  86.0022064  83.1449292  40.0234284  86.4910419  83.5946784  38.6630455
  85.7155549  85.5438055  31.3816961  85.2760540  85.0514434  32.0749818
  86.4663666  85.0011023  31.1409037  78.1947888  81.7349596  31.3841589
  79.0205908  81.4353368  31.0040233  77.8441940  80.9657219  31.8331378
  83.1629421  81.0876064  33.4539263  82.5409431  80.4246769  33.1541491
  83.8334288  81.1137196  32.7712911  76.3956493  79.6535923  32.3430523
  75.5588402  79.2258097  32.1614524  76.3680139  79.8468366  33.2801314
  83.2353949  69.5657852  43.0471769  83.2842104  70.4419975  42.6649539
  83.7776463  69.0235245  42.4743412  93.7208795  80.1098976  42.3272906
  92.9304338  80.0923114  41.7877406  93.4842149  80.6487269  43.0821943
  93.8406670  76.9591442  39.6405635  93.8904675  76.7941449  40.5821158
  93.7320593  76.0918701  39.2503515  82.7242928  79.6379988  26.9297724
  82.8731049  80.3215452  26.2764396  83.5309372  79.6185078  27.4447179
  91.1310432  72.9422370  40.9564941  92.0320295  72.8028835  40.6648939
  91.2058407  73.1076825  41.8963119  85.4653237  70.3189225  39.8018128
  84.5956547  70.6122791  39.5300716  85.7012718  70.9029670  40.5225391
  95.3424866  79.3788383  39.8847656  95.0509675  79.7418364  40.7211117
  94.7296998  78.6655392  39.7060988  96.5420549  76.9441263  32.4050226
  97.3767440  77.3831067  32.5687787  96.6779678  76.4679916  31.5858472
  93.5912055  74.5020998  38.3527714  94.0666176  74.6948644  37.5446566
  92.6677620  74.5580184  38.1071098  80.4795561  75.6645165  27.9358793
  80.2341603  74.7607495  28.1339003  80.6491476  75.6662316  26.9938271
  88.1692271  66.5368842  37.3183548  88.6874215  67.2729869  36.9930037
  87.8147404  66.8432835  38.1530307  79.7491209  71.3973523  25.4344954
  79.0560454  71.4717878  24.7784990  79.5042961  70.6333867  25.9566471
  88.4204865  62.9569124  32.8384445  88.7006619  62.2892313  33.4644871
  89.2055472  63.1498220  32.3259109  86.2238334  82.1328118  24.4009471
  85.6512301  82.7518305  23.9479943  86.7971127  82.6827480  24.9349393
  92.2913724  71.3786758  36.5856020  93.2431147  71.4784856  36.6068244
  92.1217174  70.5865027  37.0954104  90.3128103  68.4642341  36.7715421
  89.7178035  68.7447354  36.0761909  90.0277800  68.9536242  37.5432162
  89.4435594  82.4165268  25.5318053  90.3766267  82.3510830  25.7350929
  89.3558806  83.2521535  25.0732586  92.0723610  81.7331139  22.4922001
  91.9937242  81.3991002  23.3857759  92.8933277  82.2252906  22.4913473
  94.7701801  74.5992878  35.6998319  94.7378122  73.6608879  35.8858003
  95.3802425  74.6776915  34.9664144  86.6085132  73.4688931  21.7425524
  87.5544237  73.3395139  21.8113942  86.2299377  72.7303593  22.2194952
  94.9196290  71.3903921  35.7456603  94.4035339  70.6062378  35.5586532
  95.8036238  71.0622638  35.9103122  92.5807017  65.1344937  31.7052415
  92.3831838  64.8260025  32.5895747  93.1906722  65.8606576  31.8350345
 100.5878351  75.6608885  34.8404356 101.3181740  75.3994173  35.4012060
  99.9785297  74.9237607  34.8806424  98.6693648  73.8016747  35.4378807
  97.9426812  73.6672712  34.8295299  98.2540935  74.1093576  36.2435526
  86.4923825  77.5206677  43.2026181  87.4126834  77.6985276  43.3966227
  86.4573408  76.5762722  43.0505880  84.7928049  71.3938907  21.6780409
  83.8859505  71.0972020  21.7543122  85.0704030  71.0968725  20.8114695
  75.7105990  72.7145271  32.1279455  75.3908774  71.8610579  31.8353829
  75.1639418  72.9293849  32.8837422  79.4885897  75.4307712  35.8448962
  79.7071907  76.3624819  35.8636995  79.9011671  75.0715686  36.6303766
  86.4090115  65.9375797  27.8324650  85.5990844  65.5922882  28.2079896
  87.0974532  65.6283341  28.4212262  88.3380663  65.0153844  29.4548947
  88.8911702  65.4349297  30.1138970  88.5750750  64.0889592  29.4971903
  84.3613763  71.0040917  45.2351711  84.2610490  71.9535274  45.1663802
  84.1435305  70.6759156  44.3627781  83.5626834  68.2525842  21.8192388
  84.4245998  68.5780741  22.0788205  83.7477178  67.4657338  21.3065454
  91.7159471  67.1254369  28.9627611  91.1358140  67.7839173  28.5805663
  91.4495403  66.3031714  28.5515028  90.1663037  66.5259427  31.1648931
  90.6662815  66.6375961  30.3563250  90.8098645  66.2220479  31.8049740
  84.2245033  74.4338056  44.0516772  83.7412114  75.2338416  44.2580661
  84.3105972  74.4446001  43.0984216  77.4930992  76.2666436  31.9738592
  77.4701680  76.3654123  31.0220475  77.8031629  77.1131587  32.2955758
  80.1518370  78.3242591  36.0885206  81.1061624  78.2926533  36.0215138
  79.9530894  77.8633215  36.9035432  80.7417752  76.8943707  38.6556004
  81.5610641  77.3887786  38.6790841  81.0154560  75.9775675  38.6273571
  90.4984349  69.2854459  28.0183959  89.6110204  69.5704110  27.8004154
  90.9138338  69.1248223  27.1711236  93.8498885  69.3100980  31.7338298
  94.6259275  69.7997433  32.0062915  93.1247019  69.7359034  32.1910168
  96.2871443  70.0228600  32.7912239  96.8815934  69.7824335  32.0805547
  96.3598027  69.3035730  33.4185775  78.5068599  83.8662210  33.1055404
  78.3723067  83.1062611  32.5393402  78.0900661  84.5903110  32.6384193
  89.6427562  79.0499134  22.1131979  90.3463412  79.2549136  22.7289635
  88.9190211  79.6175896  22.3781063  90.4725372  74.8008995  28.2334249
  90.4160574  75.2577547  27.3941882  91.0253715  74.0399680  28.0557092
  94.2830178  70.5898727  29.0584369  94.0267112  70.1895363  29.8892577
  93.6583046  71.3042521  28.9334508  98.5942516  73.3294800  31.5655660
  98.0342074  73.3987990  32.3387222  97.9886019  73.1535785  30.8455157
  81.6637725  84.7631527  33.3173847  81.5470109  85.7076960  33.2152537
  80.8430171  84.4605089  33.7059646  91.5514259  79.4881663  24.1630439
  92.3859863  79.0562862  23.9807914  91.3898602  79.3163677  25.0907334
  91.2060152  75.9913776  25.5286779  91.1508955  75.8258048  24.5875223
  90.5806207  76.6989809  25.6848968  75.9952667  71.2281841  39.3548201
  76.6411530  70.7180795  39.8435426  75.7869818  71.9650523  39.9291626
  88.5206059  78.2962688  44.8540341  89.3897218  78.4703341  44.4926976
  88.0412810  79.1157105  44.7316071  84.5156277  65.4921885  25.1072097
  84.5034947  66.4363725  25.2640368  85.4079699  65.3092031  24.8131558
  82.6892239  85.4159789  36.5329775  83.5919486  85.4483400  36.8496270
  82.4629609  84.4860240  36.5476111  84.4445841  84.1690776  33.1939854
  83.4941472  84.1692638  33.0804226  84.7478327  83.4223510  32.6775888
  88.3308397  62.0864662  29.3618034  87.5640792  61.5323149  29.5074716
  88.7419102  62.1586531  30.2232185  80.3350158  68.3749458  43.4523215
  81.1981619  68.0186263  43.6626540  79.7615568  68.0363353  44.1398619
 100.1798535  90.0051314  34.2585616 100.8176945  89.8858062  33.5548956
 100.0619377  90.9532158  34.3173568  96.9888241  89.9578742  34.1947141
  96.6506752  89.8419807  33.3067676  97.8578009  89.5569907  34.1748147
  92.8475057  91.8114219  30.1844032  92.2839922  91.7204156  29.4160319
  92.7327452  90.9914123  30.6646524  97.4708024  91.1113594  40.1533346
  97.4596665  90.7166392  39.2813850  97.6328663  90.3779667  40.7467118
  90.3939488  93.3065410  33.0228252  91.1860780  92.9656235  32.6074551
  90.6336139  93.4160385  33.9430405  98.4274615  95.4785187  25.4958497
  97.7762595  96.0639267  25.1092510  99.2218978  96.0091381  25.5553534
  92.3530242  92.5674324  25.8945631  93.1261118  92.0203311  25.7558507
  92.7055641  93.4318573  26.1060092  94.1915285  93.8950706  39.1012530
  93.9005151  94.7996337  38.9859197  94.8272269  93.9367234  39.8156600
  95.1171492  91.2727554  35.6913890  95.7135064  91.0483577  34.9770853
  95.1746463  90.5312300  36.2939338  94.6896520  88.7266990  23.5264081
  94.9422041  88.2048511  22.7647544  93.7521079  88.5633135  23.6290764
  99.7339803  87.7302768  31.3338824 100.5202892  87.3122191  30.9829241
  99.9978507  88.6348860  31.5020472  99.9049880  93.1675618  26.0327481
  99.2695713  93.2410245  26.7448385  99.5747287  93.7569217  25.3546560
 105.1348230  87.6678001  32.2371803 105.8673402  87.0977218  32.4709632
 104.3787586  87.2799602  32.6778308  94.4092809  90.6295096  25.7288456
  94.2929067  89.9539999  26.3969540  94.5195069  90.1427470  24.9120609
  96.7524350  90.0905243  29.4335145  96.3882557  89.5635864  30.1448066
  97.6091466  89.7003712  29.2601630 102.6573651  81.3799575  36.6966411
 102.3256975  82.2494986  36.4727626 102.0619264  81.0635859  37.3760442
  96.3929837  85.1195143  24.4296494  96.5604239  85.9875379  24.7966965
  96.2027006  85.2822424  23.5057783  99.1505170  93.5812121  36.0962324
  98.8505893  94.4837160  35.9878131  98.8056230  93.3144305  36.9483477
  92.6017652  90.0325918  32.1299028  91.6768148  89.9002132  32.3376720
  92.8502065  90.8120138  32.6268971 102.5502314  86.0994662  33.7759761
 101.6419191  86.0310070  33.4818522 102.4989910  86.5766607  34.6041587
  96.3719058  87.5752800  25.4143160  96.2518683  88.0209851  26.2528641
  95.6771646  87.9238118  24.8556698  89.9626463  89.6759192  32.9642817
  90.0918844  89.9293671  33.8782229  89.2823914  90.2686900  32.6447472
  94.1325950 100.3456442  29.0633292  94.0549980 101.2964267  29.1421772
  93.5287593 100.0002314  29.7208218  96.6243180  87.5184307  41.7194658
  95.8476514  88.0778227  41.7097523  97.2633743  88.0041090  42.2409529
 104.4163960  84.3011100  35.5537635 103.7738340  84.5943633  34.9077430
 103.9118889  84.1864020  36.3590832 102.0704124  88.0474273  26.2423494
 102.9821980  88.2801660  26.0671192 101.5613771  88.6311317  25.6798573
  94.8789552  90.3269761  41.2812625  95.6204236  90.8654805  41.0047449
  94.1726537  90.9536049  41.4384177 100.3544892  92.4698901  39.8784787
 100.7628248  92.0281312  39.1339419  99.6322153  91.8951529  40.1318980
  96.7075962  87.4071508  37.2518344  97.5537157  87.8310921  37.3952993
  96.6474599  86.7505132  37.9456907 100.6773706  93.0300092  33.6337076
 100.0482569  93.1945806  32.9313144 100.2899368  93.4441701  34.4048040
 104.5562938  93.9654530  30.9881440 103.8713976  94.3453431  30.4378473
 104.6406787  94.5749856  31.7213387  99.8575407  85.0675876  38.9099518
  99.6136339  85.8217937  38.3733793 100.1335337  85.4461224  39.7446765
 101.8113870  91.6114489  37.5876783 102.0230765  92.2546248  36.9111164
 101.7643618  90.7776805  37.1198713  99.4140099  84.2232309  34.4913355
  98.5524578  84.5213563  34.7830093  99.4402533  84.4402708  33.5594388
  96.2301668  92.7674500  30.8987161  96.6940014  93.0462203  30.1091783
  95.9658466  91.8657944  30.7160252  93.1225749  92.3145981  33.8366924
  93.6927106  92.7433250  33.1984409  93.7133861  92.0328566  34.5351110
  95.1670554  88.8897652  27.7076726  95.8694597  89.3418696  28.1750652
  94.8351183  88.2481471  28.3356619  93.6150916  87.4809409  42.0827935
  92.9849576  88.1625690  42.3163332  93.5087004  87.3692490  41.1381074
  88.9095888  87.1481205  33.0093860  88.1194942  87.4038733  32.5333970
  89.4007135  87.9629543  33.1145900 102.9259698  94.4886444  35.7599140
 103.7477141  94.0866631  35.4781822 102.9222101  94.3854678  36.7115256
  90.8610633  87.5125784  29.9677336  90.0641797  87.6244478  30.4860832
  90.6336226  87.8512436  29.1018227  96.6916301  94.0370487  37.9159851
  96.7560734  94.4990894  38.7518023  95.9827225  93.4067852  38.0442161
  87.1933591  87.4011695  35.4408850  87.4441629  88.2858705  35.7066426
  87.7293139  87.2216297  34.6683942 111.0165691  90.8325192  32.1084112
 110.2629399  90.2632591  31.9528116 111.1513232  90.7987857  33.0554747
  96.4064319  95.7038595  27.7838831  96.2709994  96.5490130  28.2123679
  96.9474131  95.9057872  27.0204765  92.8931658  81.7830175  44.4453187
  92.4998604  81.2296373  45.1200831  93.7097799  82.0940753  44.8359704
  89.8593716  93.2214033  28.3566756  90.3718237  94.0157283  28.5072321
  90.5116429  92.5240323  28.2900358  91.6688601  96.3379789  30.4389510
  91.8455229  97.2597754  30.2510493  92.4645434  96.0238208  30.8683889
  95.8099619  83.1988054  42.0373443  96.5509333  83.7995207  41.9577906
  96.0417542  82.4565691  41.4791486  90.9540957  88.3844421  40.3151673
  90.8394473  87.4829678  40.6158772  90.0985475  88.6308118  39.9636489
  98.0332795  96.3262161  41.9139173  97.5896649  95.5398540  41.5960078
  98.6950009  96.5141312  41.2483064  92.7919916  97.8557963  36.4399852
  93.3427341  97.7275026  35.6676846  91.9531392  98.1552852  36.0894745
 100.1314033  96.6064961  39.9420575 100.1132509  97.4273842  39.4500844
 101.0533953  96.4819036  40.1670716  96.5887087  94.1209091  40.7844083
  97.1215424  93.3597379  40.5543391  96.0601168  93.8282742  41.5268238
  99.7556782  79.2269157  36.3137725  99.4121052  80.1170798  36.2376835
 100.1235745  79.0370814  35.4507310  87.8242633  91.5502687  29.1326327
  88.6617855  91.9599695  28.9160035  88.0020901  90.6102129  29.1026521
  99.7207065  89.2177768  24.8210160  99.2053688  89.9882372  25.0598547
  99.4484373  88.5442904  25.4443221  97.3054176  84.0627469  29.8795398
  96.4495772  83.6734319  29.7001037  97.7181128  84.1419429  29.0195184
  98.8353323  81.5973812  34.2786958  98.3318118  81.5603947  33.4654763
  99.1283930  82.5066555  34.3383615  95.0796209  81.6812542  33.2853140
  95.9449205  81.4855350  32.9259029  95.1473718  81.4522893  34.2122497
 104.6941339  91.9710122  26.7563333 103.9170782  91.6321282  26.3118495
 105.3732820  91.9762746  26.0818298  99.5093368  87.0904860  26.6469941
  99.2043504  87.4051009  27.4980084 100.4623810  87.1686280  26.6897274
  97.9539800  93.2495083  28.2962895  97.4261162  92.5147843  27.9836132
  97.4527303  94.0269759  28.0502863 102.9332646  91.4444104  33.4129941
 102.2756321  92.1343365  33.5010070 103.7373045  91.8340536  33.7563928
  92.6858528  83.9114749  30.6569507  93.2602280  83.6889931  29.9242700
  93.2729510  83.9803444  31.4098108 101.7438105  89.7988476  31.4633883
 102.2569987  90.4318468  31.9655593 102.3939329  89.1989672  31.0977243
  93.0128115  85.9419210  24.6765392  92.1765427  86.2793897  24.9974667
  92.8732884  85.8068190  23.7392529  94.9881195  80.7855998  29.3844576
  94.3345608  80.4705016  28.7601191  94.9461670  80.1631739  30.1104399
  96.0992400  91.0675293  21.2997868  95.1919462  90.8364547  21.4989017
  96.5963432  90.2712913  21.4871850  98.2218936  87.2737932  33.7092224
  97.3041497  87.4952879  33.5513912  98.6379079  87.3484242  32.8503931
  99.0053984  88.6729348  28.8394904  99.7525802  89.1850745  28.5302026
  99.2745573  88.3513400  29.6999297  97.2780634  91.1687888  25.8221858
  96.3691853  90.8846921  25.9194328  97.3075717  91.5886967  24.9625165
 102.5099901  94.7794478  29.5913026 102.0562228  93.9385388  29.6478216
 101.8793868  95.4155876  29.9287806 101.4532821  85.7086464  30.8213693
 100.7155577  85.1963850  31.1523936 101.7059594  85.2686845  30.0096970
 100.9532840  96.6170974  30.5262844 101.2455815  97.1776032  29.8075210
 101.4631461  96.9099535  31.2816003 101.5544448  78.4862716  31.4155462
 101.8603325  77.6260079  31.1281378 102.2797053  79.0780336  31.2154456
  87.8468804  88.8893402  29.8037060  87.6493204  88.2962763  29.0788127
  87.2915468  88.5845613  30.5212999  95.8265528  88.7816509  31.9231654
  95.8814138  87.8290345  31.8474130  95.0156730  88.9375948  32.4072952
  96.9756721  92.7096632  23.1609937  96.5376151  91.9932491  22.7015574
  97.7167162  92.9372747  22.5995028  93.7657888  87.3993569  29.6822032
  92.9525753  87.6987739  30.0887225  94.2616882  87.0049257  30.3996515
  95.9166466  97.3951326  31.6156297  95.8742644  97.6212172  30.6864829
  96.8329164  97.1614700  31.7642098  99.3632099  87.8635393  38.5136926
  99.7181487  88.0906866  39.3731392 100.0104231  88.1953770  37.8914182
 105.0929836  90.9853829  29.2186255 104.9547735  91.1755425  28.2907445
 104.7366055  91.7473212  29.6754306  93.2571962  84.9711924  35.2983267
  93.8971342  84.8300683  34.6006231  92.4249493  84.6846438  34.9221869
 105.1199216  93.0530356  34.2297527 105.5535723  92.9605645  35.0780581
 105.8330797  93.0287856  33.5917543  94.0332266  94.2714355  31.4118260
  94.8272865  93.7764675  31.2100835  93.3223959  93.7432218  31.0485965
  98.8527111  96.6532450  35.7630627  98.9064133  97.2223386  36.5308343
  97.9841892  96.8234335  35.3984665  90.3415030  88.4157436  27.4878012
  89.4112618  88.3541892  27.7047975  90.4372502  87.8933389  26.6914654
  90.2600579  84.9412249  30.0756254  90.5207396  85.8557582  29.9665415
  91.0817751  84.4736692  30.2252867  91.7325504  86.3550006  37.2455079
  92.4048558  86.1467368  36.5967728  90.9055291  86.1572092  36.8060311
 105.9814765  93.0954057  36.7630412 106.1750656  93.9999867  37.0089687
 105.8815384  92.6361476  37.5968997  97.6351076  82.9811947  39.2620740
  96.9878991  83.6801897  39.1685216  98.4052092  83.4148091  39.6296988
 101.0429874  93.2460799  42.3371293 100.8915381  93.0171351  41.4201377
 101.0334554  94.2031401  42.3502638  97.8115211  90.8192712  37.3217559
  98.7407271  90.9703872  37.1486527  97.3906241  90.9076733  36.4666206
  96.6103542  94.8443377  35.0916097  96.4714628  94.4762161  35.9642035
  95.8218139  95.3591016  34.9200055  97.2051694  99.9452473  26.4341633
  97.3803450  99.4740516  27.2487256  96.5184482 100.5718239  26.6622894
  98.1608757  94.2224979  32.4804935  97.8258590  94.1825749  33.3762585
  97.6612703  93.5569695  32.0075345  92.1353001  89.6292609  38.0057516
  91.9972799  88.8972848  38.6069055  93.0457925  89.5401509  37.7241704
  94.7635302  89.3412569  37.4941195  95.4734921  88.7005761  37.4527814
  94.7204610  89.5925463  38.4167376 102.7522081  96.2779922  40.4147775
 102.6934627  95.5939142  39.7478358 103.1541599  97.0198912  39.9628401
  93.4764236  86.3277786  39.3136835  92.9401593  85.8768525  39.9658431
  92.8880945  86.4623695  38.5707299  91.7712780 103.0941836  33.2081494
  92.0109378 103.7260360  33.8860512  90.9281976 102.7429876  33.4946853
  92.8866495  85.7866438  21.8763299  92.0095961  85.6655239  21.5125545
  93.3624248  84.9952516  21.6242187 102.7539488  94.2419506  38.6461754
 101.8666267  93.9045428  38.7688153 103.3238039  93.5102537  38.8830520
  84.4068635  90.5743598  31.9704806  85.0939675  90.2605328  31.3825821
  84.2516764  91.4784962  31.6972057  89.2103357  85.4633794  36.3989829
  89.1261546  84.8559464  35.6640239  88.3886064  85.9542812  36.3999326
  96.2840641  98.9020958  35.6122998  96.2110813  99.7075930  36.1242302
  95.8418035  99.1012924  34.7871019  96.0730421  98.1392728  29.1225819
  95.2897943  98.6814408  29.2164044  96.7723166  98.6566708  29.5220060
  99.3827071  83.9487358  31.7660025  99.8795771  83.1957320  31.4461095
  98.6114053  83.9851674  31.2003234 107.2356829  89.6527723  33.4078316
 107.2246705  90.5352439  33.0372249 106.3674208  89.2999274  33.2132853
  98.7439325  98.8007792  37.7681156  99.4567297  99.4355257  37.6957058
  98.2529354  98.8971658  36.9521158 100.4656852  92.7059045  29.3398448
  99.5313131  92.8260507  29.1703152 100.6433520  91.8031512  29.0758458
  95.9662040  86.0904741  31.4931709  95.5959827  85.5375781  32.1812615
  96.4621132  85.4862874  30.9406709 103.8529403  88.5476364  29.8748482
 104.3189855  89.3804356  29.8008785 104.3036904  88.0821346  30.5793741
  93.7951238  96.5502236  38.5886727  94.4960698  97.1838719  38.7416121
  93.3246353  96.8916967  37.8282366 101.9205634  94.8920186  26.8734634
 102.1965478  94.7776780  27.7828508 101.0510133  94.4937670  26.8346807
 101.8246066  80.9156951  33.9139383 100.9109146  81.1461178  34.0821590
 102.2539167  80.9995395  34.7653416 101.5952524  89.1046843  36.4139277
 100.9423975  89.3522751  35.7591730 101.9732904  88.2910981  36.0801755
  98.5559698  99.1406536  30.5167448  98.7382093  98.3228192  30.9795200
  99.3792684  99.3574229  30.0792338  98.8901864  98.0674721  27.7782496
  99.4189630  97.5567176  27.1652658  99.1530083  97.7517252  28.6428029
  97.6440097  89.8466654  42.9005315  96.9680734  89.7460784  43.5707690
  98.4667731  89.6905868  43.3641312  89.3918957  96.0838591  35.5217830
  89.9772393  95.3382279  35.6545734  89.1943795  96.3942547  36.4054494
  92.2457612  99.1189838  30.5380272  91.5767987  99.6035966  30.0544312
  92.1070481  99.3659059  31.4523651  83.9836611  88.6544191  34.2422273
  84.0220711  88.1207782  35.0359391  83.4776904  88.1279396  33.6233250
  96.3862880 101.1533582  37.1362930  96.9381188 101.3165203  37.9012016
  96.7269074 101.7438020  36.4642955  91.3627374  83.5008731  37.7384815
  91.4268700  84.3623562  37.3262213  91.2994494  82.8882733  37.0057174
  90.8379646  85.5731864  41.3857849  91.4651685  85.1908941  41.9995374
  89.9807565  85.3546066  41.7513542 101.2373755  95.9794839  42.9911585
 101.7813659  96.5924797  42.4966540 100.6560600  96.5374418  43.5078598
  87.6145189  87.3808293  27.3176204  87.9098630  86.4718972  27.2643258
  86.7133225  87.3596033  26.9957207  99.5231268  99.1015557  34.1226613
  99.3982407  98.3005297  33.6137558 100.1810359  99.5961751  33.6340583
  91.1439436  85.4564290  33.3003753  90.4226022  86.0700257  33.1611226
  91.9332692  85.9922055  33.2220399 101.5866176  96.9024577  35.7506163
 100.6396512  96.7829928  35.6784489 101.9348949  96.0147075  35.8332424
  93.9465749  82.7918716  39.5744405  94.4700151  83.0381013  40.3370714
  93.7278083  83.6238751  39.1547542  89.3433030  85.0622391  27.4415529
  89.0145737  84.1819770  27.2590635  89.6972401  85.0070059  28.3291919
  98.5912609  96.6977294  31.9510515  98.4437572  95.7694001  32.1318085
  99.4166103  96.7197384  31.4667590  92.4574854  85.3495361  27.8091007
  92.7970926  85.8781282  27.0869615  92.9046974  85.6875767  28.5849574
 102.1946731  97.5205852  33.0375388 103.1193279  97.3148714  32.8999839
 102.0262035  97.2722253  33.9464729  95.1518294  83.7332411  37.2594075
  94.8115115  82.9340224  37.6614755  94.4457301  84.0334122  36.6870908
  95.8034766  80.8181724  35.7121398  96.6260836  80.3442202  35.5900289
  96.0472830  81.5972208  36.2120084  94.4443001  83.8469982  26.0084300
  95.1651363  84.2251235  25.5048017  93.8208305  84.5658859  26.1119278
  98.5874124  84.5515131  26.9442632  98.8037738  85.4339769  26.6431460
  98.1068191  84.1601345  26.2148274  93.3273345  87.5100844  33.5213377
  93.1817926  87.8241147  34.4137658  92.8498549  88.1285745  32.9684275
  95.1869728  84.5003392  33.5694266  95.1731297  83.6044486  33.2326564
  95.9042156  84.5074056  34.2032552  97.0395859  84.9340733  35.6147394
  96.7813636  85.8557803  35.6131724  96.5080899  84.5371167  36.3047858
 101.9842047  98.0391520  28.3937479 102.1578925  97.4737942  27.6411332
 102.4770939  98.8392415  28.2116969  87.8019007  90.0506189  36.4601038
  87.2572475  90.8265997  36.5921312  88.6798357  90.3976993  36.3020159
  94.5906624  83.3817773  28.8381836  94.7122535  82.4534419  29.0372724
  94.3008666  83.3956459  27.9260152  97.4597814  81.0672683  31.9748556
  97.4819511  81.1312016  31.0200536  97.8765873  80.2277192  32.1689062
 107.8381439  90.8027943  30.0127779 108.2812585  90.0535268  29.6146902
 106.9607949  90.7938079  29.6301511  88.5885029  89.1776085  39.3531195
  87.8466765  89.3258720  39.9395825  88.2677773  89.4384351  38.4897944
  96.5328692  98.7192063  39.1511585  96.8415818  98.4741210  40.0234284
  97.3304174  98.9238702  38.6630455  96.5549304 100.8729973  31.3816961
  96.1154294 100.3806352  32.0749818  97.3057421 100.3302941  31.1409037
  89.0341643  97.0641514  31.3841589  89.8599663  96.7645286  31.0040233
  88.6835695  96.2949136  31.8331378  94.0023176  96.4167982  33.4539263
  93.3803185  95.7538687  33.1541491  94.6728043  96.4429114  32.7712911
  87.2350248  94.9827840  32.3430523  86.3982156  94.5550015  32.1614524
  87.2073893  95.1760284  33.2801314  94.0747703  84.8949770  43.0471769
  94.1235859  85.7711893  42.6649539  94.6170218  84.3527163  42.4743412
 104.5602549  95.4390893  42.3272906 103.7698093  95.4215032  41.7877406
 104.3235904  95.9779187  43.0821943 104.6800424  92.2883360  39.6405635
 104.7298429  92.1233367  40.5821158 104.5714347  91.4210619  39.2503515
  93.5636683  94.9671905  26.9297724  93.7124803  95.6507370  26.2764396
  94.3703126  94.9476995  27.4447179 101.9704186  88.2714288  40.9564941
 102.8714049  88.1320753  40.6648939 102.0452161  88.4368743  41.8963119
  96.3046992  85.6481142  39.8018128  95.4350301  85.9414708  39.5300716
  96.5406472  86.2321587  40.5225391 106.1818621  94.7080301  39.8847656
 105.8903429  95.0710282  40.7211117 105.5690752  93.9947309  39.7060988
 107.3814303  92.2733181  32.4050226 108.2161195  92.7122985  32.5687787
 107.5173432  91.7971834  31.5858472 104.4305809  89.8312916  38.3527714
 104.9059931  90.0240562  37.5446566 103.5071375  89.8872102  38.1071098
  91.3189316  90.9937083  27.9358793  91.0735358  90.0899413  28.1339003
  91.4885230  90.9954233  26.9938271  99.0086026  81.8660759  37.3183548
  99.5267970  82.6021786  36.9930037  98.6541158  82.1724753  38.1530307
  90.5884963  86.7265441  25.4344954  89.8954208  86.8009796  24.7784990
  90.3436715  85.9625784  25.9566471  99.2598620  78.2861042  32.8384445
  99.5400374  77.6184231  33.4644871 100.0449227  78.4790137  32.3259109
 103.1307478  86.7078676  36.5856020 104.0824901  86.8076774  36.6068244
 102.9610929  85.9156944  37.0954104 101.1521858  83.7934259  36.7715421
 100.5571790  84.0739272  36.0761909 100.8671554  84.2828160  37.5432162
 105.6095556  89.9284796  35.6998319 105.5771876  88.9900796  35.8858003
 106.2196180  90.0068832  34.9664144  97.4478887  88.7980849  21.7425524
  98.3937992  88.6687057  21.8113942  97.0693132  88.0595510  22.2194952
 105.7590044  86.7195839  35.7456603 105.2429093  85.9354296  35.5586532
 106.6429993  86.3914556  35.9103122 103.4200771  80.4636855  31.7052415
 103.2225592  80.1551943  32.5895747 104.0300477  81.1898493  31.8350345
 111.4272106  90.9900802  34.8404356 112.1575494  90.7286091  35.4012060
 110.8179051  90.2529524  34.8806424 109.5087403  89.1308665  35.4378807
 108.7820566  88.9964630  34.8295299 109.0934690  89.4385494  36.2435526
  97.3317579  92.8498595  43.2026181  98.2520589  93.0277194  43.3966227
  97.2967162  91.9054640  43.0505880  95.6321804  86.7230825  21.6780409
  94.7253259  86.4263938  21.7543122  95.9097785  86.4260643  20.8114695
  86.5499744  88.0437188  32.1279455  86.2302529  87.1902497  31.8353829
  86.0033173  88.2585766  32.8837422  90.3279652  90.7599629  35.8448962
  90.5465662  91.6916737  35.8636995  90.7405426  90.4007604  36.6303766
  97.2483870  81.2667715  27.8324650  96.4384598  80.9214800  28.2079896
  97.9368287  80.9575258  28.4212262  99.1774418  80.3445761  29.4548947
  99.7305457  80.7641215  30.1138970  99.4144504  79.4181510  29.4971903
  95.2007517  86.3332835  45.2351711  95.1004244  87.2827192  45.1663802
  94.9829059  86.0051074  44.3627781  94.4020589  83.5817760  21.8192388
  95.2639753  83.9072658  22.0788205  94.5870933  82.7949256  21.3065454
  86.4188004  91.6640100  34.0972577  85.7251476  91.2494053  33.5842531
  87.1660995  91.7060636  33.5005996 102.5553225  82.4546287  28.9627611
 101.9751894  83.1131091  28.5805663 102.2889158  81.6323631  28.5515028
 101.0056791  81.8551344  31.1648931 101.5056570  81.9667879  30.3563250
 101.6492399  81.5512397  31.8049740  95.0638787  89.7629974  44.0516772
  94.5805869  90.5630334  44.2580661  95.1499726  89.7737919  43.0984216
  88.3324747  91.5958354  31.9738592  88.3095435  91.6946041  31.0220475
  88.6425383  92.4423504  32.2955758  90.9912125  93.6534509  36.0885206
  91.9455378  93.6218451  36.0215138  90.7924648  93.1925132  36.9035432
  91.5811507  92.2235625  38.6556004  92.4004396  92.7179703  38.6790841
  91.8548315  91.3067593  38.6273571 101.3378103  84.6146377  28.0183959
 100.4503958  84.8996028  27.8004154 101.7532092  84.4540140  27.1711236
 104.6892639  84.6392898  31.7338298 105.4653029  85.1289350  32.0062915
 103.9640773  85.0650952  32.1910168 107.1265198  85.3520517  32.7912239
 107.7209689  85.1116253  32.0805547 107.1991782  84.6327648  33.4185775
  89.3462354  99.1954128  33.1055404  89.2116821  98.4354529  32.5393402
  88.9294416  99.9195028  32.6384193 101.3119127  90.1300913  28.2334249
 101.2554328  90.5869464  27.3941882 101.8647469  89.3691598  28.0557092
 105.1223933  85.9190645  29.0584369 104.8660867  85.5187280  29.8892577
 104.4976801  86.6334439  28.9334508 109.4336271  88.6586718  31.5655660
 108.8735829  88.7279907  32.3387222 108.8279774  88.4827703  30.8455157
  92.5031479 100.0923445  33.3173847  92.3863864 101.0368878  33.2152537
  91.6823926  99.7897007  33.7059646 102.0453906  91.3205694  25.5286779
 101.9902710  91.1549966  24.5875223 101.4199961  92.0281727  25.6848968
  86.8346421  86.5573759  39.3548201  87.4805285  86.0472713  39.8435426
  86.6263572  87.2942440  39.9291626  99.3599813  93.6254606  44.8540341
 100.2290973  93.7995258  44.4926976  98.8806565  94.4449023  44.7316071
  95.3550032  80.8213803  25.1072097  95.3428701  81.7655643  25.2640368
  96.2473453  80.6383949  24.8131558  93.5285994 100.7451707  36.5329775
  94.4313240 100.7775317  36.8496270  93.3023364  99.8152158  36.5476111
  95.2839596  99.4982694  33.1939854  94.3335227  99.4984555  33.0804226
  95.5872082  98.7515428  32.6775888  99.1702151  77.4156580  29.3618034
  98.4034547  76.8615067  29.5074716  99.5812856  77.4878449  30.2232185
  91.1743912  83.7041376  43.4523215  92.0375374  83.3478180  43.6626540
  90.6009323  83.3655270  44.1398619 107.8281995 105.2870660  34.1947141
 107.4900507 105.1711725  33.3067676 108.6971764 104.8861825  34.1748147
 108.3101778 106.4405512  40.1533346 108.2990419 106.0458310  39.2813850
 108.4722418 105.7071584  40.7467118 105.0309039 109.2242624  39.1012530
 104.7398905 110.1288254  38.9859197 105.6666024 109.2659151  39.8156600
 105.9565246 106.6019472  35.6913890 106.5528819 106.3775495  34.9770853
 106.0140218 105.8604218  36.2939338 113.4967405  96.7091493  36.6966411
 113.1650730  97.5786904  36.4727626 112.9013018  96.3927777  37.3760442
 103.4411406 105.3617836  32.1299028 102.5161902 105.2294050  32.3376720
 103.6895819 106.1412055  32.6268971 113.3896068 101.4286579  33.7759761
 112.4812946 101.3601988  33.4818522 113.3383664 101.9058524  34.6041587
 100.8020217 105.0051110  32.9642817 100.9312598 105.2585588  33.8782229
 100.1217668 105.5978818  32.6447472 107.4636934 102.8476225  41.7194658
 106.6870268 103.4070145  41.7097523 108.1027497 103.3333008  42.2409529
 115.2557715  99.6303018  35.5537635 114.6132095  99.9235551  34.9077430
 114.7512643  99.5155938  36.3590832 105.7183306 105.6561678  41.2812625
 106.4597991 106.1946722  41.0047449 105.0120292 106.2827967  41.4384177
 107.5469716 102.7363425  37.2518344 108.3930911 103.1602839  37.3952993
 107.4868354 102.0797050  37.9456907 110.6969161 100.3967794  38.9099518
 110.4530093 101.1509854  38.3733793 110.9729092 100.7753141  39.7446765
 110.2533853  99.5524227  34.4913355 109.3918332  99.8505480  34.7830093
 110.2796288  99.7694626  33.5594388 104.4544670 102.8101326  42.0827935
 103.8243331 103.4917607  42.3163332 104.3480758 102.6984408  41.1381074
  99.7489643 102.4773122  33.0093860  98.9588697 102.7330651  32.5333970
 100.2400890 103.2921460  33.1145900  98.0327346 102.7303613  35.4408850
  98.2835384 103.6150623  35.7066426  98.5686894 102.5508214  34.6683942
 103.7325413  97.1122092  44.4453187 103.3392358  96.5588291  45.1200831
 104.5491553  97.4232671  44.8359704 106.6493374  98.5279971  42.0373443
 107.3903087  99.1287124  41.9577906 106.8811297  97.7857609  41.4791486
 101.7934712 103.7136339  40.3151673 101.6788227 102.8121596  40.6158772
 100.9379230 103.9600035  39.9636489 110.5950537  94.5561074  36.3137725
 110.2514806  95.4462716  36.2376835 110.9629499  94.3662732  35.4507310
 109.6747077  96.9265729  34.2786958 109.1711873  96.8895865  33.4654763
 109.9677684  97.8358472  34.3383615 105.9189963  97.0104459  33.2853140
 106.7842960  96.8147268  32.9259029 105.9867472  96.7814811  34.2122497
 103.5252282  99.2406667  30.6569507 104.0996034  99.0181849  29.9242700
 104.1123265  99.3095362  31.4098108 105.8274950  96.1147916  29.3844576
 105.1739362  95.7996933  28.7601191 105.7855424  95.4923656  30.1104399
 109.0612690 102.6029850  33.7092224 108.1435252 102.8244797  33.5513912
 109.4772834 102.6776160  32.8503931 112.3938202  93.8154633  31.4155462
 112.6997079  92.9551997  31.1281378 113.1190807  94.4072254  31.2154456
  98.6862559 104.2185320  29.8037060  98.4886958 103.6254681  29.0788127
  98.1309223 103.9137530  30.5212999 110.2025854 103.1927311  38.5136926
 110.5575242 103.4198784  39.3731392 110.8497985 103.5245688  37.8914182
 104.0965717 100.3003842  35.2983267 104.7365096 100.1592601  34.6006231
 103.2643247 100.0138355  34.9221869 101.0994333 100.2704167  30.0756254
 101.3601151 101.1849500  29.9665415 101.9211506  99.8028609  30.2252867
 102.5719259 101.6841924  37.2455079 103.2442312 101.4759286  36.5967728
 101.7449045 101.4864010  36.8060311 108.4744831  98.3103865  39.2620740
 107.8272746  99.0093815  39.1685216 109.2445846  98.7440009  39.6296988
 108.6508965 106.1484630  37.3217559 109.5801025 106.2995789  37.1486527
 108.2299995 106.2368651  36.4666206 102.9746756 104.9584527  38.0057516
 102.8366554 104.2264766  38.6069055 103.8851679 104.8693427  37.7241704
 105.6029057 104.6704486  37.4941195 106.3128675 104.0297678  37.4527814
 105.5598365 104.9217381  38.4167376 104.3157991 101.6569704  39.3136835
 103.7795348 101.2060443  39.9658431 103.7274699 101.7915613  38.5707299
  95.2462390 105.9035515  31.9704806  95.9333429 105.5897245  31.3825821
  95.0910518 106.8076880  31.6972057 100.0497112 100.7925712  36.3989829
  99.9655301 100.1851381  35.6640239  99.2279818 101.2834730  36.3999326
 110.2220826  99.2779275  31.7660025 110.7189525  98.5249238  31.4461095
 109.4507807  99.3143592  31.2003234 106.8055794 101.4196658  31.4931709
 106.4353582 100.8667699  32.1812615 107.3014887 100.8154792  30.9406709
 112.6639820  96.2448869  33.9139383 111.7502900  96.4753096  34.0821590
 113.0932922  96.3287313  34.7653416 112.4346279 104.4338761  36.4139277
 111.7817729 104.6814668  35.7591730 112.8126659 103.6202899  36.0801755
 108.4833852 105.1758572  42.9005315 107.8074489 105.0752701  43.5707690
 109.3061486 105.0197786  43.3641312 100.2312711 111.4130508  35.5217830
 100.8166148 110.6674196  35.6545734 100.0337549 111.7234465  36.4054494
  94.8230366 103.9836109  34.2422273  94.8614465 103.4499699  35.0359391
  94.3170659 103.4571314  33.6233250 102.2021128  98.8300649  37.7384815
 102.2662455  99.6915480  37.3262213 102.1388248  98.2174651  37.0057174
 101.6773401 100.9023782  41.3857849 102.3045439 100.5200859  41.9995374
 100.8201319 100.6837984  41.7513542 101.9833190 100.7856207  33.3003753
 101.2619776 101.3992175  33.1611226 102.7726446 101.3213972  33.2220399
 104.7859504  98.1210634  39.5744405 105.3093906  98.3672930  40.3370714
 104.5671837  98.9530669  39.1547542 105.9912049  99.0624329  37.2594075
 105.6508869  98.2632142  37.6614755 105.2851055  99.3626040  36.6870908
 106.6428521  96.1473641  35.7121398 107.4654590  95.6734120  35.5900289
 106.8866584  96.9264125  36.2120084 104.1667099 102.8392762  33.5213377
 104.0211680 103.1533065  34.4137658 103.6892303 103.4577662  32.9684275
 106.0263482  99.8295310  33.5694266 106.0125051  98.9336403  33.2326564
 106.7435910  99.8365974  34.2032552 107.8789613 100.2632650  35.6147394
 107.6207391 101.1849721  35.6131724 107.3474653  99.8663085  36.3047858
  98.6412762 105.3798106  36.4601038  98.0966230 106.1557914  36.5921312
  99.5192112 105.7268911  36.3020159 108.2991569  96.3964601  31.9748556
 108.3213266  96.4603934  31.0200536 108.7159628  95.5569109  32.1689062
  99.4278784 104.5068003  39.3531195  98.6860520 104.6550638  39.9395825
  99.1071528 104.7676268  38.4897944 104.9141458 100.2241688  43.0471769
 104.9629613 101.1003810  42.6649539 105.4563972  99.6819081  42.4743412
 112.8097941 103.6006205  40.9564941 113.7107804 103.4612670  40.6648939
 112.8845915 103.7660660  41.8963119 107.1440746 100.9773060  39.8018128
 106.2744056 101.2706626  39.5300716 107.3800227 101.5613505  40.5225391
 109.8479780  97.1952677  37.3183548 110.3661724  97.9313704  36.9930037
 109.4934913  97.5016670  38.1530307 110.0992374  93.6152960  32.8384445
 110.3794128  92.9476149  33.4644871 110.8842981  93.8082055  32.3259109
 113.9701233 102.0370594  36.5856020 114.9218656 102.1368691  36.6068244
 113.8004683 101.2448862  37.0954104 111.9915612  99.1226177  36.7715421
 111.3965544  99.4031189  36.0761909 111.7065309  99.6120078  37.5432162
 116.5983799 102.0487757  35.7456603 116.0822848 101.2646213  35.5586532
 117.4823747 101.7206473  35.9103122 114.2594526  95.7928772  31.7052415
 114.0619347  95.4843860  32.5895747 114.8694231  96.5190411  31.8350345
  97.3893499 103.3729106  32.1279455  97.0696283 102.5194414  31.8353829
  96.8426927 103.5877684  32.8837422 101.1673406 106.0891547  35.8448962
 101.3859416 107.0208655  35.8636995 101.5799180 105.7299521  36.6303766
 110.0168172  95.6737679  29.4548947 110.5699211  96.0933133  30.1138970
 110.2538259  94.7473427  29.4971903 106.0401272 101.6624753  45.2351711
 105.9397999 102.6119110  45.1663802 105.8222814 101.3342992  44.3627781
  97.2581759 106.9932017  34.0972577  96.5645230 106.5785970  33.5842531
  98.0054750 107.0352554  33.5005996 105.9032542 105.0921892  44.0516772
 105.4199623 105.8922252  44.2580661 105.9893481 105.1029836  43.0984216
  99.1718501 106.9250271  31.9738592  99.1489189 107.0237959  31.0220475
  99.4819138 107.7715422  32.2955758 101.8305879 108.9826426  36.0885206
 102.7849133 108.9510369  36.0215138 101.6318403 108.5217050  36.9035432
 102.4205261 107.5527542  38.6556004 103.2398150 108.0471621  38.6790841
 102.6942069 106.6359510  38.6273571  97.6740176 101.8865676  39.3548201
  98.3199039 101.3764630  39.8435426  97.4657327 102.6234358  39.9291626
 110.0095906  92.7448497  29.3618034 109.2428301  92.1906984  29.5074716
 110.4206611  92.8170366  30.2232185 102.0137667  99.0333293  43.4523215
 102.8769128  98.6770098  43.6626540 101.4403077  98.6947188  44.1398619
  47.0404983  -3.6602627  29.7156892  47.5844887  -3.0472668  29.2211846
  46.4591828  -3.1023048  30.2323905  50.3633778  -4.2006573  29.0518213
  49.5729322  -4.2182434  28.5122712  50.1267132  -3.6618279  29.8067249
  45.1631042  -6.0142860  31.5785648  46.0322202  -5.8402207  31.2172283
  44.6837794  -5.1948443  31.4561377  56.8223518   5.6945766  20.9830923
  57.4601928   5.5752514  20.2794263  56.7044361   6.6426610  21.0418875
  54.1133007   6.8008046  26.8778653  54.1021648   6.4060844  26.0059157
  54.2753647   6.0674119  27.4712424  50.8340268   9.5845158  25.8257837
  50.5430134  10.4890789  25.7104503  51.4697253   9.6261685  26.5401906
  51.7596475   6.9622006  22.4159196  52.3560047   6.7378029  21.7016159
  51.8171447   6.2206752  23.0184644  61.7773213   3.3572453  18.9617109
  62.5098385   2.7871670  19.1954939  61.0212569   2.9694054  19.4023615
  59.2998634  -2.9305973  23.4211718  58.9681959  -2.0610562  23.1972933
  58.7044247  -3.2469689  24.1005748  55.7930153   9.2706573  22.8207631
  55.4930876  10.1731612  22.7123438  55.4481213   9.0038757  23.6728783
  50.7750933  16.0350894  15.7878598  50.6974963  16.9858719  15.8667079
  50.1712577  15.6896766  16.4453525  53.2668163   3.2078759  28.4439965
  52.4901497   3.7672679  28.4342830  53.9058726   3.6935542  28.9654835
  61.0588944  -0.0094448  22.2782942  60.4163324   0.2838085  21.6322736
  60.5543872  -0.1241528  23.0836138  51.5214535   6.0164212  28.0057932
  52.2629220   6.5549256  27.7292756  50.8151521   6.6430501  28.1629484
  56.9969875   8.1593353  26.6030094  57.4053231   7.7175763  25.8584726
  56.2747136   7.5845980  26.8564287  53.3500945   3.0965960  23.9763651
  54.1962140   3.5205373  24.1198300  53.2899583   2.4399584  24.6702214
  57.3198690   8.7194544  20.3582382  56.6907552   8.8840258  19.6558450
  56.9324352   9.1336153  21.1293347  61.1987921   9.6548981  17.7126746
  60.5138960  10.0347883  17.1623780  61.2831771  10.2644308  18.4458694
  56.5000390   0.7570328  25.6344824  56.2561322   1.5112389  25.0979100
  56.7760321   1.1355676  26.4692071  58.4538853   7.3008940  24.3122090
  58.6655748   7.9440700  23.6356471  58.4068601   6.4671257  23.8444020
  50.2575899   3.1703861  28.8073242  49.6274560   3.8520141  29.0408639
  50.1511987   3.0586942  27.8626380  59.5684681  10.1780896  22.4844447
  60.3902125   9.7761083  22.2027129  59.5647084  10.0749130  23.4360563
  53.3341284   9.7264939  24.6405158  53.3985717  10.1885346  25.4763329
  52.6252208   9.0962304  24.7687467  67.6590674   6.5219644  18.8329419
  66.9054382   5.9527042  18.6773423  67.7938215   6.4882309  19.7800053
  49.5356642  -2.5275374  31.1698493  49.1423587  -3.0809175  31.8446137
  50.3522782  -2.2164795  31.5605011  52.4524603  -1.1117494  28.7618750
  53.1934316  -0.5110341  28.6823212  52.6842526  -1.8539857  28.2036792
  47.5965941   4.0738873  27.0396979  47.4819456   3.1724130  27.3404078
  46.7410458   4.3202570  26.6881796  54.6757778  12.0156613  28.6384480
  54.2321633  11.2292992  28.3205385  55.3374992  12.2035764  27.9728371
  49.4344900  13.5452415  23.1645159  49.9852325  13.4169478  22.3922152
  48.5956376  13.8447304  22.8140051  56.7739017  12.2959413  26.6665881
  56.7557492  13.1168294  26.1746150  57.6958937  12.1713488  26.8916022
  53.2312071   9.8103543  27.5089390  53.7640407   9.0491831  27.2788698
  52.7026152   9.5177194  28.2513544  59.5757629   7.1338556  20.1375248
  58.9181304   7.8237817  20.2255377  60.3798029   7.5234987  20.4809234
  59.1524884  10.4688930  16.3158332  58.6987212   9.6279840  16.3723523
  58.5218851  11.1050328  16.6533113  57.5957824  12.3065426  17.2508151
  57.8880798  12.8670483  16.5320516  58.1056444  12.5993987  18.0061310
  52.5591449  13.0845777  18.3401604  52.5167628  13.3106624  17.4110136
  53.4754148  12.8509152  18.4887405  56.0057083   3.5529845  25.2382233
  56.3606470   3.7801318  26.0976699  56.6529214   3.8848222  24.6159488
  61.7624199   8.7424808  20.9542833  62.1960706   8.6500097  21.8025887
  62.4755780   8.7182308  20.3162849  55.4952094  12.3426902  22.4875934
  55.5489116  12.9117838  23.2553650  54.6266875  12.5128787  22.1229971
  62.6239749   8.7848509  23.4875719  62.8175639   9.6894319  23.7334994
  62.5240367   8.3255928  24.3214304  54.2776059  -1.3293601  25.9866046
  53.6303975  -0.6303651  25.8930523  55.0477075  -0.8957457  26.3542294
  57.6854857   8.9355251  29.0616599  57.5340364   8.7065803  28.1446683
  57.6759537   9.8925853  29.0747944  54.4540194   6.5087164  24.0462866
  55.3832254   6.6598324  23.8731833  54.0331224   6.5971185  23.1911512
  53.2528526  10.5337828  21.8161404  53.1139611  10.1656613  22.6887342
  52.4643122  11.0485468  21.6445361  54.8033741   9.9119431  19.2050241
  54.4683573   9.8720201  20.1007891  54.3037686   9.2464147  18.7320652
  48.7777985   5.3187061  24.7302822  48.6397783   4.5867300  25.3314362
  49.6882908   5.2295961  24.4487010  51.4060285   5.0307020  24.2186502
  52.1159904   4.3900213  24.1773121  51.3629594   5.2819915  25.1412683
  59.3947064  11.9674374  27.1393081  59.3359610  11.2833594  26.4723664
  59.7966582  12.7093364  26.6873707  50.1189219   2.0172238  26.0382142
  49.5826576   1.5662977  26.6903738  49.5305928   2.1518147  25.2952606
  48.4137763  18.7836288  19.9326800  48.6534361  19.4154812  20.6105819
  47.5706959  18.4324328  20.2192159  59.3964471   9.9313958  25.3707061
  58.5091250   9.5939880  25.4933460  59.9663022   9.1996989  25.6075826
  52.9265625  14.5915410  22.3368304  52.8535796  15.3970382  22.8487609
  52.4843018  14.7907376  21.5116326  63.8781812   5.3422175  20.1323623
  63.8671688   6.2246891  19.7617556  63.0099191   4.9893726  19.9378160
  55.3864308  14.4902244  24.4926463  56.0992280  15.1249709  24.4202364
  54.8954337  14.5866110  23.6766465  50.4376222  12.2396688  25.3132034
  51.1385681  12.8733171  25.4661428  49.9671337  12.5811419  24.5527673
  58.2377508   4.7941295  23.1384584  57.5848958   5.0417203  22.4837037
  58.6157888   3.9805433  22.8047061  55.1984682  14.8300988  17.2412754
  55.3807076  14.0122644  17.7040507  56.0217668  15.0468680  16.8037644
  54.2865081   5.5361106  29.6250621  53.6105718   5.4355235  30.2952996
  55.1092715   5.3800320  30.0886618  46.0343940  11.7733043  22.2463136
  46.6197377  11.0276731  22.3791041  45.8368778  12.0836999  23.1299800
  53.0287864  16.8428034  23.8608237  53.5806172  17.0059655  24.6257322
  53.3694057  17.4332471  23.1888262  47.4804629   1.2626316  28.1103156
  48.1076668   0.8803393  28.7240680  46.6232548   1.0440518  28.4758849
  57.8798738  11.6689291  29.7156892  58.4238642  12.2819249  29.2211846
  57.2985583  12.2268869  30.2323905  56.1656251  14.7910009  20.8471919
  56.0407390  13.9899749  20.3382865  56.8235342  15.2856202  20.3585889
  58.2291159  12.5919029  22.4751469  57.2821495  12.4724380  22.4029796
  58.5773932  11.7041527  22.5577731  50.5890733  -1.5186832  26.2989711
  51.1125134  -1.2724535  27.0616021  50.3703066  -0.6866797  25.8792849
  55.2337593  12.3871745  18.6755822  55.0862555  11.4588453  18.8563392
  56.0591086  12.4091836  18.1912897  58.8371714  13.2100304  19.7620694
  59.7618262  13.0043165  19.6245145  58.6687018  12.9616705  20.6710036
  58.6267031  13.7285972  15.1182786  58.8003908  13.1632394  14.3656638
  59.1195922  14.5286866  14.9362276  64.4806422   6.4922395  16.7373086
  64.9237568   5.7429720  16.3392209  63.6032932   6.4832531  16.3546818
  45.2310012   4.8670537  26.0776501  44.4891748   5.0153172  26.6641132
  44.9102757   5.1278803  25.2143251  53.1753675  14.4086515  25.8756891
  53.4840801  14.1635662  26.7479591  53.9729157  14.6133154  25.3875762
  53.1974287  16.5624425  18.1062268  52.7579277  16.0700803  18.7995125
  53.9482404  16.0197392  17.8654343  50.6448159  12.1062434  20.1784570
  50.0228168  11.4433139  19.8786798  51.3153026  12.1323566  19.4958217
  50.7172687   0.5844222  29.7717076  50.7660842   1.4606345  29.3894845
  51.2595201   0.0421615  29.1988719  61.2027532  11.1285345  29.0518213
  60.4123076  11.1109484  28.5122712  60.9660887  11.6673639  29.8067249
  61.3225407   7.9777812  26.3650941  61.3723412   7.8127819  27.3066464
  61.2139331   7.1105071  25.9748822  58.6129170   3.9608740  27.6810248
  59.5139033   3.8215204  27.3894246  58.6877144   4.1263194  28.6208425
  52.9471975   1.3375594  26.5263434  52.0775285   1.6309160  26.2546023
  53.1831455   1.9216039  27.2470698  62.8243604  10.3974753  26.6092963
  62.5328413  10.7604734  27.4456424  62.2115735   9.6841761  26.4306295
  64.0239287   7.9627633  19.1295533  64.8586178   8.4017437  19.2933093
  64.1598415   7.4866286  18.3103779  61.0730792   5.5207368  25.0773021
  61.5484914   5.7135014  24.2691872  60.1496358   5.5766554  24.8316405
  59.7732461   2.3973128  23.3101326  60.7249884   2.4971225  23.3313551
  59.6035912   1.6051396  23.8199411  57.7946841  -0.5171289  23.4960727
  57.1996773  -0.2366276  22.8007216  57.5096538  -0.0277388  24.2677469
  62.2520539   5.6179247  22.4243626  62.2196859   4.6795248  22.6103310
  62.8621163   5.6963284  21.6909451  62.4015028   2.4090291  22.4701909
  61.8854076   1.6248748  22.2831838  63.2854976   2.0809008  22.6348429
  68.0697089   6.6795254  21.5649663  68.8000478   6.4180542  22.1257366
  67.4604035   5.9423976  21.6051731  66.1512386   4.8203117  22.1624114
  65.4245550   4.6859082  21.5540606  65.7359673   5.1279945  22.9680832
  53.9742563   8.5393047  29.9271487  54.8945572   8.7171646  30.1211534
  53.9392146   7.5949092  29.7751186  51.8432500   2.0227287  31.9597017
  51.7429227   2.9721644  31.8909108  51.6254043   1.6945526  31.0873087
  51.7063771   5.4524426  30.7762079  51.2230852   6.2524786  30.9825968
  51.7924710   5.4632371  29.8229523  47.6337108   9.3428961  22.8130513
  48.5880362   9.3112903  22.7460444  47.4349632   8.8819584  23.6280739
  48.2236490   7.9130077  25.3801310  49.0429379   8.4074155  25.4036148
  48.4973298   6.9962045  25.3518878  45.9887337  14.8848580  19.8300711
  45.8541805  14.1248981  19.2638709  45.5719399  15.6089480  19.3629499
  66.0761254   4.3481170  18.2900967  65.5160812   4.4174359  19.0632529
  65.4704757   4.1722155  17.5700463  49.1456463  15.7817897  20.0419153
  49.0288847  16.7263330  19.9397843  48.3248909  15.4791459  20.4304952
  56.0024797   9.3149058  31.5785648  56.8715956   9.4889710  31.2172283
  55.5231548  10.1343475  31.4561377  50.1710977  16.4346159  23.2575082
  51.0738224  16.4669769  23.5741577  49.9448347  15.5046610  23.2721417
  51.9264579  15.1877145  19.9185160  50.9760210  15.1879007  19.8049533
  52.2297065  14.4409880  19.4021195  47.8168895  -0.6064172  30.1768522
  48.6800357  -0.9627368  30.3871846  47.2434306  -0.9450278  30.8643926
  67.6617272  21.0237684  20.9830923  68.2995682  20.9044431  20.2794263
  67.5438115  21.9718528  21.0418875  64.4706979  20.9765112  20.9192447
  64.1325490  20.8606177  20.0312982  65.3396747  20.5756277  20.8993453
  60.3293794  22.8300588  16.9089338  59.7658659  22.7390525  16.1405626
  60.2146189  22.0100493  17.3891831  64.9526762  22.1299964  26.8778653
  64.9415402  21.7352762  26.0059157  65.1147401  21.3966036  27.4712424
  57.8758226  24.3251780  19.7473559  58.6679518  23.9842605  19.3319858
  58.1154876  24.4346755  20.6675712  65.9093353  26.4971556  12.2203803
  65.2581333  27.0825636  11.8337817  66.7037716  27.0277751  12.2798841
  59.8348980  23.5860693  12.6190938  60.6079856  23.0389680  12.4803813
  60.1874379  24.4504943  12.8305399  61.6734023  24.9137075  25.8257837
  61.3823889  25.8182706  25.7104503  62.3091007  24.9553603  26.5401906
  62.5990230  22.2913924  22.4159196  63.1953802  22.0669946  21.7016159
  62.6565201  21.5498669  23.0184644  62.1715258  19.7453359  10.2509387
  62.4240779  19.2234881   9.4892850  61.2339817  19.5819505  10.3536071
  67.2158541  18.7489138  18.0584131  68.0021630  18.3308561  17.7074548
  67.4797245  19.6535230  18.2265779  67.3868618  24.1861988  12.7572787
  66.7514451  24.2596615  13.4693692  67.0566025  24.7755587  12.0791867
  72.6166968  18.6864371  18.9617109  73.3492140  18.1163588  19.1954939
  71.8606324  18.2985971  19.4023615  61.8911547  21.6481465  12.4533762
  61.7747805  20.9726369  13.1214847  62.0013807  21.1613839  11.6365915
  64.2343088  21.1091612  16.1580452  63.8701295  20.5822233  16.8693373
  65.0910204  20.7190081  15.9846937  70.1392388  12.3985945  23.4211718
  69.8075713  13.2681356  23.1972933  69.5438002  12.0822229  24.1005748
  66.6323908  24.5998491  22.8207631  66.3324631  25.5023530  22.7123438
  66.2874967  24.3330674  23.6728783  60.0836389  21.0512288  18.8544335
  59.1586886  20.9188502  19.0622027  60.3320803  21.8306507  19.3514277
  70.0321052  17.1181031  20.5005068  69.1237929  17.0496440  20.2063829
  69.9808647  17.5952976  21.3286893  63.8537796  18.5939170  12.1388467
  63.7337421  19.0396220  12.9773947  63.1590384  18.9424487  11.5802005
  57.4445200  20.6945561  19.6888124  57.5737582  20.9480040  20.6027536
  56.7642652  21.2873269  19.3692779  61.6144688  31.3642811  15.7878598
  61.5368717  32.3150636  15.8667079  61.0106331  31.0188684  16.4453525
  64.1061917  18.5370677  28.4439965  63.3295251  19.0964597  28.4342830
  64.7452480  19.0227460  28.9654835  71.8982698  15.3197470  22.2782942
  71.2557078  15.6130003  21.6322736  71.3937627  15.2050390  23.0836138
  69.5522862  19.0660643  12.9668801  70.4640718  19.2988030  12.7916499
  69.0432509  19.6497687  12.4043880  62.3608290  21.3456130  28.0057932
  63.1022974  21.8841174  27.7292756  61.6545275  21.9722419  28.1629484
  67.8363629  23.4885271  26.6030094  68.2446985  23.0467681  25.8584726
  67.1140891  22.9137898  26.8564287  64.1894699  18.4257877  23.9763651
  65.0355895  18.8497291  24.1198300  64.1293337  17.7691502  24.6702214
  68.1592444  24.0486461  20.3582382  67.5301306  24.2132175  19.6558450
  67.7718106  24.4628071  21.1293347  72.0381676  24.9840899  17.7126746
  71.3532714  25.3639800  17.1623780  72.1225525  25.5936226  18.4458694
  67.3394145  16.0862246  25.6344824  67.0955077  16.8404306  25.0979100
  67.6154075  16.4647593  26.4692071  69.2932608  22.6300858  24.3122090
  69.5049503  23.2732618  23.6356471  69.2462356  21.7963175  23.8444020
  66.8958836  15.2418679  21.2158662  66.0343315  15.5399932  21.5075400
  66.9221271  15.4589078  20.2839695  63.7120406  23.7860869  17.6232468
  64.1758751  24.0648572  16.8337090  63.4477204  22.8844314  17.4405558
  60.6044487  23.3332351  20.5612231  61.1745844  23.7619619  19.9229715
  61.1952599  23.0514936  21.2596417  62.6489292  19.9084022  14.4322033
  63.3513335  20.3605065  14.8995959  62.3169920  19.2667841  15.0601926
  61.0969653  18.4995778  28.8073242  60.4668314  19.1812059  29.0408639
  60.9905741  18.3878860  27.8626380  56.3914626  18.1667574  19.7339166
  55.6013680  18.4225103  19.2579277  56.8825873  18.9815912  19.8391207
  70.4078435  25.5072814  22.4844447  71.2295879  25.1053001  22.2027129
  70.4040838  25.4041048  23.4360563  58.3429371  18.5312154  16.6922643
  57.5460535  18.6430848  17.2106139  58.1154963  18.8698806  15.8263534
  64.1735039  25.0556857  24.6405158  64.2379471  25.5177264  25.4763329
  63.4645963  24.4254222  24.7687467  54.6752329  18.4198065  22.1654157
  54.9260367  19.3045075  22.4311733  55.2111877  18.2402666  21.3929249
  78.4984429  21.8511562  18.8329419  77.7448137  21.2818960  18.6773423
  78.6331970  21.8174227  19.7800053  63.8883057  26.7224964  14.5084138
  63.7528731  27.5676500  14.9368986  64.4292869  26.9244242  13.7450072
  60.3750396  12.8016544  31.1698493  59.9817342  12.2482743  31.8446137
  61.1916537  13.1127123  31.5605011  57.3412454  24.2400402  15.0812063
  57.8536975  25.0343653  15.2317628  57.9935167  23.5426693  15.0145665
  59.1507339  27.3566159  17.1634816  59.3273967  28.2784123  16.9755800
  59.9464172  27.0424578  17.5929196  63.2918357  14.2174423  28.7618750
  64.0328071  14.8181576  28.6823212  63.5236280  13.4752061  28.2036792
  58.4359695  19.4030791  27.0396979  58.3213210  18.5016048  27.3404078
  57.5804213  19.6494487  26.6881796  65.5151533  27.3448531  28.6384480
  65.0715387  26.5584909  28.3205385  66.1768747  27.5327681  27.9728371
  60.2738654  28.8744332  23.1645159  60.8246079  28.7461396  22.3922152
  59.4350130  29.1739221  22.8140051  67.6132771  27.6251331  26.6665881
  67.5951246  28.4460212  26.1746150  68.5352691  27.5005406  26.8916022
  64.0705825  25.1395460  27.5089390  64.6034162  24.3783748  27.2788698
  63.5419906  24.8469112  28.2513544  67.2375520  10.2455526  23.0383031
  66.8939790  11.1357168  22.9622142  67.6054483  10.0557184  22.1752616
  55.3061371  22.5689057  15.8571634  56.1436593  22.9786065  15.6405341
  55.4839638  21.6288499  15.8271827  67.2025803  20.2364137  11.5455467
  66.6872426  21.0068742  11.7843854  66.9303111  19.5629273  12.1688528
  64.7872914  15.0813838  16.6040705  63.9314510  14.6920688  16.4246344
  65.1999866  15.1605799  15.7440490  66.3172061  12.6160181  21.0032265
  65.8136856  12.5790317  20.1900070  66.6102667  13.5252924  21.0628921
  62.5614946  12.6998911  20.0098446  63.4267943  12.5041720  19.6504336
  62.6292455  12.4709263  20.9367803  72.1760077  22.9896492  13.4808640
  71.3989520  22.6507651  13.0363802  72.8551558  22.9949115  12.8063605
  66.9912106  18.1091229  13.3715248  66.6862242  18.4237379  14.2225391
  67.9442548  18.1872649  13.4142581  65.4358538  24.2681453  15.0208202
  64.9079899  23.5334212  14.7081439  64.9346041  25.0456129  14.7748170
  70.4151384  22.4630473  20.1375248  69.7575058  23.1529735  20.2255377
  71.2191783  22.8526905  20.4809234  60.1677265  14.9301119  17.3814813
  60.7421017  14.7076300  16.6488006  60.7548248  14.9989814  18.1343415
  69.2256843  20.8174846  18.1879190  69.7388724  21.4504838  18.6900899
  69.8758067  20.2176041  17.8222550  62.4699933  11.8042368  16.1089883
  61.8164346  11.4891385  15.4846497  62.4280407  11.1818108  16.8349706
  63.5811138  22.0861663   8.0243175  62.6738200  21.8550916   8.2234324
  64.0782170  21.2899282   8.2117156  66.4879217  30.7959170  10.9439861
  65.8140916  31.0990867  11.5524819  66.8745039  31.5988251  10.5945318
  65.7037674  18.2924301  20.4337530  64.7860235  18.5139248  20.2759218
  66.1197817  18.3670612  19.5749238  66.4872721  19.6915717  15.5640211
  67.2344540  20.2037114  15.2547333  66.7564311  19.3699770  16.4244604
  64.7599371  22.1874258  12.5467165  63.8510591  21.9033291  12.6439635
  64.7894455  22.6073336  11.6870472  69.9918639  25.7980847  16.3158332
  69.5380966  24.9571757  16.3723523  69.3612606  26.4342246  16.6533113
  68.9351558  16.7272833  17.5459000  68.1974315  16.2150220  17.8769242
  69.1878332  16.2873215  16.7342277  68.4351578  27.6357344  17.2508151
  68.7274553  28.1962401  16.5320516  68.9450199  27.9285905  18.0061310
  69.0363186   9.5049085  18.1400769  69.3422063   8.6446449  17.8526684
  69.7615791  10.0966706  17.9399763  55.3287542  19.9079772  16.5282367
  55.1311942  19.3149133  15.8033434  54.7734206  19.6031982  17.2458306
  63.3084266  19.8002878  18.6476960  63.3632875  18.8476715  18.5719437
  62.4975468  19.9562318  19.1318259  64.4575459  23.7283002   9.8855243
  64.0194889  23.0118860   9.4260881  65.1985900  23.9559116   9.3240335
  61.2476625  18.4179938  16.4067339  60.4344491  18.7174109  16.8132531
  61.7435620  18.0235627  17.1241821  63.3985203  28.4137695  18.3401604
  63.3561382  28.6398541  17.4110136  64.3147902  28.1801070  18.4887405
  66.8450837  18.8821763  25.2382233  67.2000225  19.1093236  26.0976699
  67.4922968  19.2140139  24.6159488  72.5748574  22.0040199  15.9431562
  72.4366473  22.1941795  15.0152751  72.2184793  22.7659581  16.3999613
  60.7390700  15.9898294  22.0228574  61.3790080  15.8487053  21.3251537
  59.9068231  15.7032807  21.6467176  72.6017954  24.0716726  20.9542833
  73.0354460  23.9792015  21.8025887  73.3149534  24.0474226  20.3162849
  61.5151004  25.2900724  18.1363566  62.3091603  24.7951044  17.9346141
  60.8042696  24.7618587  17.7731272  66.3345849  27.6718820  22.4875934
  66.3882871  28.2409756  23.2553650  65.4660630  27.8420705  22.1229971
  57.8233768  19.4343806  14.2123319  56.8931356  19.3728261  14.4293281
  57.9191240  18.9119759  13.4159960  57.7419317  15.9598619  16.8001561
  58.0026134  16.8743952  16.6910721  58.5636489  15.4923061  16.9498174
  59.2144242  17.3736376  23.9700385  59.8867295  17.1653738  23.3213034
  58.3874028  17.1758462  23.5305618  73.4633503  24.1140426  23.4875719
  73.6569393  25.0186237  23.7334994  73.3634121  23.6547845  24.3214304
  65.1169814  13.9998317  25.9866046  64.4697729  14.6988266  25.8930523
  65.8870829  14.4334461  26.3542294  68.5248612  24.2647169  29.0616599
  68.3734118  24.0357721  28.1446683  68.5153291  25.2217770  29.0747944
  65.2933948  21.8379082  24.0462866  66.2226008  21.9890241  23.8731833
  64.8724978  21.9263102  23.1911512  64.0922280  25.8629746  21.8161404
  63.9533366  25.4948531  22.6887342  63.3036876  26.3777386  21.6445361
  64.6870432  30.9638843  13.1586940  64.8622188  30.4926886  13.9732563
  64.0003220  31.5904609  13.3868201  65.6427495  25.2411349  19.2050241
  65.3077328  25.2012119  20.1007891  65.1431441  24.5756065  18.7320652
  59.6171739  20.6478979  24.7302822  59.4791537  19.9159218  25.3314362
  60.5276663  20.5587879  24.4487010  68.5786687  22.5867383   9.4787301
  67.9615858  21.8614211   9.3820354  68.1103175  23.3476743   9.1354375
  62.2454040  20.3598938  24.2186502  62.9553658  19.7192130  24.1773121
  62.2023348  20.6111833  25.1412683  70.2340819  27.2966292  27.1393081
  70.1753365  26.6125512  26.4723664  70.6360337  28.0385282  26.6873707
  60.9582974  17.3464156  26.0382142  60.4220331  16.8954895  26.6903738
  60.3699682  17.4810065  25.2952606  59.2531517  34.1128205  19.9326800
  59.4928116  34.7446730  20.6105819  58.4100714  33.7616245  20.2192159
  70.2358226  25.2605875  25.3707061  69.3485005  24.9231797  25.4933460
  70.8056777  24.5288907  25.6075826  51.8887373  21.5929967  18.6950112
  52.5758413  21.2791697  18.1071128  51.7335502  22.4971332  18.4217364
  56.6922095  16.4820164  23.1235136  56.6080284  15.8745833  22.3885546
  55.8704801  16.9729182  23.1244632  63.7659379  29.9207328  22.3368304
  63.6929551  30.7262299  22.8487609  63.3236772  30.1199294  21.5116326
  63.5549159  29.1579098  15.8471126  62.7716681  29.7000778  15.9409350
  64.2541904  29.6753077  16.2465367  66.8645809  14.9673727  18.4905331
  67.3614508  14.2143690  18.1706401  66.0932790  15.0038044  17.9248540
  74.7175566  20.6714093  20.1323623  74.7065443  21.5538808  19.7617556
  73.8492946  20.3185644  19.9378160  66.2258063  29.8194162  24.4926463
  66.9386035  30.4541627  24.4202364  65.7348091  29.9158028  23.6766465
  67.9475590  23.7245415  16.0643755  67.0131868  23.8446877  15.8948459
  68.1252258  22.8217881  15.8003764  63.4480778  17.1091110  18.2177016
  63.0778565  16.5562151  18.9057921  63.9439870  16.5049244  17.6652016
  71.3348141  19.5662734  16.5993789  71.8008593  20.3990725  16.5254091
  71.7855641  19.1007715  17.3039047  61.2769976  27.5688605  25.3132034
  61.9779436  28.2025088  25.4661428  60.8065091  27.9103337  24.5527673
  69.4024372  25.9106555  13.5979941  69.6784216  25.7963150  14.5073815
  68.5328871  25.5124040  13.5592114  69.3064804  11.9343321  20.6384690
  68.3927884  12.1647548  20.8066897  69.7357905  12.0181765  21.4898722
  69.0771262  20.1233213  23.1384584  68.4242712  20.3709120  22.4837037
  69.4551642  19.3097351  22.8047061  66.0378436  30.1592906  17.2412754
  66.2200831  29.3414562  17.7040507  66.8611422  30.3760598  16.8037644
  66.3720602  29.0861091  14.5027803  66.9008368  28.5753546  13.8897965
  66.6348821  28.7703621  15.3673336  65.1258835  20.8653024  29.6250621
  64.4499472  20.7647153  30.2952996  65.9486469  20.7092238  30.0886618
  56.8737694  27.1024960  22.2463136  57.4591131  26.3568648  22.3791041
  56.6762533  27.4128917  23.1299800  59.7276350  30.1376208  17.2625579
  59.0586725  30.6222335  16.7789619  59.5889219  30.3845428  18.1768957
  51.4655349  19.6730561  20.9667580  51.5039449  19.1394151  21.7604698
  50.9595642  19.1465766  20.3478557  63.8681618  32.1719951  23.8608237
  64.4199926  32.3351573  24.6257322  64.2087812  32.7624389  23.1888262
  58.8446111  14.5195101  24.4630122  58.9087438  15.3809932  24.0507520
  58.7813232  13.9069103  23.7302480  58.3198384  16.5918234  28.1103156
  58.9470423  16.2095311  28.7240680  57.4626303  16.3732436  28.4758849
  68.7192492  26.9981209  29.7156892  69.2632396  27.6111167  29.2211846
  68.1379337  27.5560787  30.2323905  55.0963927  18.3994663  14.0421511
  55.3917368  17.4905341  13.9888565  54.1951962  18.3782402  13.7202513
  67.0050005  30.1201927  20.8471919  66.8801145  29.3191667  20.3382865
  67.6629097  30.6148120  20.3585889  58.6258174  16.4750659  20.0249060
  57.9044759  17.0886627  19.8856533  59.4151429  17.0108424  19.9465705
  69.0684914  27.9210947  22.4751469  68.1215249  27.8016298  22.4029796
  69.4167687  27.0333445  22.5577731  61.4284487  13.8105086  26.2989711
  61.9518889  14.0567382  27.0616021  61.2096820  14.6425121  25.8792849
  56.8251768  16.0808760  14.1660836  56.4964474  15.2006139  13.9835942
  57.1791139  16.0256429  15.0537225  66.0731347  27.7163663  18.6755822
  65.9256310  26.7880370  18.8563392  66.8984841  27.7383754  18.1912897
  59.9393591  16.3681730  14.5336314  60.2789664  16.8967651  13.8114922
  60.3865712  16.7062136  15.3094880  69.6765469  28.5392222  19.7620694
  70.6012016  28.3335083  19.6245145  69.5080772  28.2908623  20.6710036
  62.6337032  14.7518781  23.9839382  62.2933853  13.9526594  24.3860062
  61.9276038  15.0520492  23.4116215  63.2853504  11.8368093  22.4366705
  64.1079573  11.3628572  22.3145595  63.5291568  12.6158577  22.9365391
  61.9261739  14.8656352  12.7329607  62.6470101  15.2437605  12.2293323
  61.3027043  15.5845229  12.8364584  66.0692861  15.5701501  13.6687939
  66.2856476  16.4526139  13.3676767  65.5886929  15.1787714  12.9393581
  60.8092083  18.5287214  20.2458683  60.6636664  18.8427517  21.1382965
  60.3317286  19.1472114  19.6929582  62.6688466  15.5189762  20.2939573
  62.6550034  14.6230855  19.9571871  63.3860894  15.5260426  20.9277859
  64.5214596  15.9527102  22.3392700  64.2632374  16.8744173  22.3377031
  63.9899637  15.5557537  23.0293165  69.4660785  29.0577889  15.1182786
  69.6397663  28.4924312  14.3656638  69.9589676  29.8578784  14.9362276
  55.2837745  21.0692558  23.1846345  54.7391213  21.8452366  23.3166619
  56.1617095  21.4163363  23.0265466  62.0725362  14.4004142  15.5627143
  62.1941273  13.4720788  15.7618031  61.7827404  14.4142828  14.6505459
  64.9416552  12.0859053  18.6993863  64.9638249  12.1498386  17.7445843
  65.3584611  11.2463561  18.8934369  75.3200176  21.8214312  16.7373086
  75.7631322  21.0721637  16.3392209  74.4426687  21.8124449  16.3546818
  70.4535958  28.3744654  12.2179684  71.1486862  28.9951346  12.4366999
  70.7959108  27.5240005  12.4932062  56.0703767  20.1962455  26.0776501
  55.3285503  20.3445090  26.6641132  55.7496511  20.4570720  25.2143251
  72.3527381  25.8244359  13.7467015  72.8778705  26.1631632  13.0216335
  72.2649733  24.8891375  13.5630149  64.0147429  29.7378433  25.8756891
  64.3234556  29.4927580  26.7479591  64.8122911  29.9425071  25.3875762
  64.0368042  31.8916342  18.1062268  63.5973032  31.3992721  18.7995125
  64.7876158  31.3489310  17.8654343  56.5160380  28.0827883  18.1086896
  57.3418400  27.7831655  17.7285540  56.1654432  27.3135506  18.5576685
  61.4841914  27.4354352  20.1784570  60.8621923  26.7725057  19.8786798
  62.1546781  27.4615483  19.4958217  54.7168986  26.0014210  19.0675830
  53.8800894  25.5736384  18.8859831  54.6892631  26.1946653  20.0046621
  61.5566441  15.9136140  29.7717076  61.6054597  16.7898262  29.3894845
  62.0988955  15.3713533  29.1988719  72.0421287  26.4577263  29.0518213
  71.2516831  26.4401402  28.5122712  71.8054641  26.9965557  29.8067249
  72.1619162  23.3069729  26.3650941  72.2117167  23.1419737  27.3066464
  72.0533085  22.4396988  25.9748822  61.0455421  25.9858275  13.6543030
  61.1943541  26.6693739  13.0009703  61.8521864  25.9663365  14.1692486
  69.4522924  19.2900657  27.6810248  70.3532787  19.1507122  27.3894246
  69.5270899  19.4555112  28.6208425  63.7865730  16.6667512  26.5263434
  62.9169039  16.9601078  26.2546023  64.0225210  17.2507957  27.2470698
  73.6637359  25.7266671  26.6092963  73.3722167  26.0896651  27.4456424
  73.0509490  25.0133679  26.4306295  74.8633041  23.2919551  19.1295533
  75.6979932  23.7309355  19.2933093  74.9992170  22.8158204  18.3103779
  71.9124547  20.8499285  25.0773021  72.3878669  21.0426932  24.2691872
  70.9890112  20.9058471  24.8316405  58.8008054  22.0123453  14.6604099
  58.5554095  21.1085783  14.8584309  58.9703968  22.0140603  13.7183577
  66.4904763  12.8847129  24.0428855  67.0086707  13.6208156  23.7175343
  66.1359896  13.1911122  24.8775614  66.7417358   9.3047411  19.5629751
  67.0219111   8.6370601  20.1890178  67.5267965   9.4976507  19.0504415
  64.5450826  28.4806405  11.1254778  63.9724793  29.0996592  10.6725250
  65.1183620  29.0305767  11.6594700  70.6126216  17.7265045  23.3101326
  71.5643639  17.8263143  23.3313551  70.4429666  16.9343314  23.8199411
  68.6340595  14.8120629  23.4960727  68.0390528  15.0925641  22.8007216
  68.3490292  15.3014530  24.2677469  67.7648086  28.7643555  12.2563360
  68.6978759  28.6989117  12.4596235  67.6771299  29.5999822  11.7977893
  70.3936103  28.0809426   9.2167308  70.3149734  27.7469289  10.1103065
  71.2145769  28.5731194   9.2158780  73.0914294  20.9471165  22.4243626
  73.0590614  20.0087166  22.6103310  73.7014917  21.0255202  21.6909451
  64.9297625  19.8167218   8.4670830  65.8756729  19.6873426   8.5359248
  64.5511870  19.0781880   8.9440258  73.2408782  17.7382209  22.4701909
  72.7247831  16.9540665  22.2831838  74.1248731  17.4100925  22.6348429
  70.9019509  11.4823224  18.4297722  70.7044330  11.1738312  19.3141054
  71.5119215  12.2084863  18.5595652  78.9090844  22.0087172  21.5649663
  79.6394232  21.7472460  22.1257366  78.2997789  21.2715894  21.6051731
  76.9906141  20.1495035  22.1624114  76.2639304  20.0150999  21.5540606
  76.5753428  20.4571863  22.9680832  64.8136317  23.8684964  29.9271487
  65.7339327  24.0463563  30.1211534  64.7785900  22.9241010  29.7751186
  54.0318482  19.0623558  18.8524762  53.7121266  18.2088866  18.5599136
  53.4851910  19.2772136  19.6082729  57.8098390  21.7785999  22.5694268
  58.0284399  22.7103107  22.5882302  58.2224163  21.4193973  23.3549072
  64.7302607  12.2854084  14.5569957  63.9203336  11.9401169  14.9325203
  65.4187024  11.9761628  15.1457568  66.6593156  11.3632131  16.1794253
  67.2124194  11.7827584  16.8384276  66.8963242  10.4367879  16.2217209
  62.6826255  17.3519205  31.9597017  62.5822982  18.3013562  31.8909108
  62.4647797  17.0237444  31.0873087  53.9006742  22.6826469  20.8217883
  53.2070214  22.2680422  20.3087838  54.6479733  22.7247006  20.2251302
  70.0371963  13.4732656  15.6872918  69.4570632  14.1317460  15.3050970
  69.7707896  12.6510001  15.2760335  68.4875529  12.8737714  17.8894238
  68.9875308  12.9854248  17.0808557  69.1311137  12.5698767  18.5295046
  62.5457525  20.7816343  30.7762079  62.0624607  21.5816704  30.9825968
  62.6318464  20.7924288  29.8229523  55.8143485  22.6144723  18.6983898
  55.7914173  22.7132410  17.7465781  56.1244121  23.4609874  19.0201064
  58.4730863  24.6720878  22.8130513  59.4274116  24.6404821  22.7460444
  58.2743386  24.2111502  23.6280739  59.0630245  23.2421994  25.3801310
  59.8823134  23.7366073  25.4036148  59.3367052  22.3253962  25.3518878
  68.8196841  15.6332747  14.7429266  67.9322696  15.9182397  14.5249461
  69.2350830  15.4726510  13.8956543  72.1711377  15.6579268  18.4583605
  72.9471767  16.1475720  18.7308222  71.4459511  16.0837322  18.9155475
  74.6083936  16.3706887  19.5157546  75.2028426  16.1302623  18.8050854
  74.6810519  15.6514017  20.1431082  56.8281091  30.2140498  19.8300711
  56.6935559  29.4540899  19.2638709  56.4113154  30.9381398  19.3629499
  67.9640054  25.3977421   8.8377286  68.6675904  25.6027424   9.4534941
  67.2402703  25.9654183   9.1026369  68.7937865  21.1487282  14.9579556
  68.7373066  21.6055834  14.1187188  69.3466207  20.3877967  14.7802399
  72.6042671  16.9377014  15.7829676  72.3479605  16.5373650  16.6137883
  71.9795539  17.6520808  15.6579815  76.9155008  19.6773088  18.2900967
  76.3554566  19.7466277  19.0632529  76.3098512  19.5014072  17.5700463
  59.9850217  31.1109815  20.0419153  59.8682601  32.0555247  19.9397843
  59.1642663  30.8083376  20.4304952  69.8726752  25.8359950  10.8875746
  70.7072356  25.4041149  10.7053221  69.7111095  25.6641964  11.8152640
  69.5272644  22.3392064  12.2532085  69.4721448  22.1736335  11.3120529
  68.9018699  23.0468097  12.4094275  54.3165159  17.5760128  26.0793507
  54.9624023  17.0659082  26.5680733  54.1082310  18.3128810  26.6536933
  66.8418551  24.6440976  31.5785648  67.7109711  24.8181628  31.2172283
  66.3625303  25.4635392  31.4561377  61.0104731  31.7638077  23.2575082
  61.9131978  31.7961687  23.5741577  60.7842101  30.8338528  23.2721417
  62.7658333  30.5169063  19.9185160  61.8153964  30.5170925  19.8049533
  63.0690819  29.7701798  19.4021195  66.6520889   8.4342949  16.0863340
  65.8853285   7.8801436  16.2320023  67.0631594   8.5064818  16.9477492
  58.6562650  14.7227745  30.1768522  59.5194111  14.3664550  30.3871846
  58.0828061  14.3841640  30.8643926  78.5011027  36.3529602  20.9830923
  79.1389437  36.2336349  20.2794263  78.3831870  37.3010445  21.0418875
  75.3100733  36.3057030  20.9192447  74.9719245  36.1898094  20.0312982
  76.1790501  35.9048195  20.8993453  71.1687549  38.1592506  16.9089338
  70.6052414  38.0682443  16.1405626  71.0539944  37.3392411  17.3891831
  75.7920516  37.4591881  26.8778653  75.7809157  37.0644680  26.0059157
  75.9541156  36.7257954  27.4712424  68.7151981  39.6543698  19.7473559
  69.5073273  39.3134522  19.3319858  68.9548631  39.7638673  20.6675712
  76.7487108  41.8263474  12.2203803  76.0975087  42.4117554  11.8337817
  77.5431470  42.3569669  12.2798841  70.6742735  38.9152611  12.6190938
  71.4473611  38.3681598  12.4803813  71.0268134  39.7796860  12.8305399
  72.5127777  40.2428993  25.8257837  72.2217643  41.1474624  25.7104503
  73.1484762  40.2845521  26.5401906  73.4383984  37.6205842  22.4159196
  74.0347556  37.3961864  21.7016159  73.4958956  36.8790587  23.0184644
  73.0109013  35.0745277  10.2509387  73.2634533  34.5526798   9.4892850
  72.0733572  34.9111422  10.3536071  78.0552295  34.0781055  18.0584131
  78.8415385  33.6600479  17.7074548  78.3191000  34.9827148  18.2265779
  78.2262373  39.5153906  12.7572787  77.5908206  39.5888532  13.4693692
  77.8959779  40.1047505  12.0791867  83.4560722  34.0156289  18.9617109
  84.1885894  33.4455505  19.1954939  82.7000078  33.6277889  19.4023615
  72.7305301  36.9773383  12.4533762  72.6141559  36.3018286  13.1214847
  72.8407561  36.4905757  11.6365915  75.0736842  36.4383530  16.1580452
  74.7095049  35.9114151  16.8693373  75.9303958  36.0481999  15.9846937
  80.9786143  27.7277863  23.4211718  80.6469468  28.5973274  23.1972933
  80.3831756  27.4114147  24.1005748  74.7142329  31.4673430  11.1541800
  74.8816731  32.3353666  11.5212271  74.5239498  31.6300711  10.2303089
  77.4717662  39.9290409  22.8207631  77.1718385  40.8315447  22.7123438
  77.1268722  39.6622592  23.6728783  70.9230144  36.3804206  18.8544335
  69.9980640  36.2480420  19.0622027  71.1714557  37.1598425  19.3514277
  80.8714806  32.4472949  20.5005068  79.9631683  32.3788357  20.2063829
  80.8202402  32.9244894  21.3286893  74.6931550  33.9231087  12.1388467
  74.5731175  34.3688138  12.9773947  73.9984138  34.2716405  11.5802005
  68.2838955  36.0237479  19.6888124  68.4131336  36.2771958  20.6027536
  67.6036406  36.6165187  19.3692779  72.4538442  46.6934729  15.7878598
  72.3762472  47.6442554  15.8667079  71.8500086  46.3480602  16.4453525
  74.9455672  33.8662594  28.4439965  74.1689006  34.4256515  28.4342830
  75.5846235  34.3519377  28.9654835  82.7376453  30.6489387  22.2782942
  82.0950833  30.9421920  21.6322736  82.2331381  30.5342308  23.0836138
  80.3916616  34.3952560  12.9668801  81.3034472  34.6279947  12.7916499
  79.8826263  34.9789605  12.4043880  73.2002044  36.6748048  28.0057932
  73.9416729  37.2133092  27.7292756  72.4939030  37.3014337  28.1629484
  78.6757384  38.8177188  26.6030094  79.0840740  38.3759599  25.8584726
  77.9534645  38.2429816  26.8564287  75.0288454  33.7549795  23.9763651
  75.8749649  34.1789209  24.1198300  74.9687092  33.0983419  24.6702214
  78.9986198  39.3778379  20.3582382  78.3695061  39.5424093  19.6558450
  78.6111861  39.7919988  21.1293347  82.8775430  40.3132817  17.7126746
  82.1926469  40.6931718  17.1623780  82.9619280  40.9228143  18.4458694
  78.1787899  31.4154163  25.6344824  77.9348831  32.1696224  25.0979100
  78.4547830  31.7939511  26.4692071  80.1326362  37.9592776  24.3122090
  80.3443257  38.6024536  23.6356471  80.0856110  37.1255092  23.8444020
  77.7352591  30.5710596  21.2158662  76.8737070  30.8691850  21.5075400
  77.7615026  30.7880995  20.2839695  74.5514160  39.1152787  17.6232468
  75.0152506  39.3940490  16.8337090  74.2870958  38.2136232  17.4405558
  71.4438241  38.6624269  20.5612231  72.0139598  39.0911537  19.9229715
  72.0346353  38.3806853  21.2596417  73.4883046  35.2375939  14.4322033
  74.1907090  35.6896983  14.8995959  73.1563675  34.5959758  15.0601926
  71.9363408  33.8287696  28.8073242  71.3062069  34.5103977  29.0408639
  71.8299496  33.7170778  27.8626380  67.2308380  33.4959492  19.7339166
  66.4407434  33.7517021  19.2579277  67.7219628  34.3107830  19.8391207
  81.2472190  40.8364731  22.4844447  82.0689634  40.4344918  22.2027129
  81.2434593  40.7332965  23.4360563  69.1823126  33.8604071  16.6922643
  68.3854289  33.9722766  17.2106139  68.9548718  34.1990723  15.8263534
  75.0128793  40.3848774  24.6405158  75.0773226  40.8469182  25.4763329
  74.3039717  39.7546139  24.7687467  65.5146083  33.7489982  22.1654157
  65.7654122  34.6336992  22.4311733  66.0505632  33.5694584  21.3929249
  89.3378183  37.1803480  18.8329419  88.5841891  36.6110878  18.6773423
  89.4725724  37.1466144  19.7800053  74.7276811  42.0516882  14.5084138
  74.5922486  42.8968418  14.9368986  75.2686624  42.2536160  13.7450072
  71.2144151  28.1308462  31.1698493  70.8211096  27.5774660  31.8446137
  72.0310291  28.4419040  31.5605011  68.1806208  39.5692320  15.0812063
  68.6930729  40.3635570  15.2317628  68.8328921  38.8718610  15.0145665
  69.9901093  42.6858076  17.1634816  70.1667721  43.6076041  16.9755800
  70.7857927  42.3716496  17.5929196  74.1312112  29.5466341  28.7618750
  74.8721825  30.1473494  28.6823212  74.3630034  28.8043979  28.2036792
  69.2753450  34.7322708  27.0396979  69.1606965  33.8307965  27.3404078
  68.4197967  34.9786405  26.6881796  76.3545287  42.6740448  28.6384480
  75.9109142  41.8876827  28.3205385  77.0162501  42.8619599  27.9728371
  71.1132409  44.2036250  23.1645159  71.6639834  44.0753313  22.3922152
  70.2743884  44.5031139  22.8140051  78.4526525  42.9543248  26.6665881
  78.4345001  43.7752129  26.1746150  79.3746446  42.8297324  26.8916022
  74.9099580  40.4687378  27.5089390  75.4427916  39.7075666  27.2788698
  74.3813661  40.1761030  28.2513544  78.0769275  25.5747444  23.0383031
  77.7333544  26.4649086  22.9622142  78.4448237  25.3849102  22.1752616
  66.1455125  37.8980974  15.8571634  66.9830347  38.3077983  15.6405341
  66.3233393  36.9580416  15.8271827  78.0419557  35.5656055  11.5455467
  77.5266181  36.3360660  11.7843854  77.7696866  34.8921191  12.1688528
  75.6266668  30.4105756  16.6040705  74.7708265  30.0212606  16.4246344
  76.0393620  30.4897717  15.7440490  77.1565815  27.9452099  21.0032265
  76.6530611  27.9082234  20.1900070  77.4496422  28.8544842  21.0628921
  73.4008701  28.0290829  20.0098446  74.2661698  27.8333637  19.6504336
  73.4686210  27.8001181  20.9367803  83.0153831  38.3188410  13.4808640
  82.2383274  37.9799569  13.0363802  83.6945312  38.3241033  12.8063605
  77.8305860  33.4383147  13.3715248  77.5255996  33.7529296  14.2225391
  78.7836303  33.5164567  13.4142581  76.2752292  39.5973370  15.0208202
  75.7473654  38.8626130  14.7081439  75.7739795  40.3748047  14.7748170
  81.2545138  37.7922391  20.1375248  80.5968813  38.4821652  20.2255377
  82.0585538  38.1818823  20.4809234  71.0071020  30.2593037  17.3814813
  71.5814772  30.0368218  16.6488006  71.5942002  30.3281731  18.1343415
  80.0650597  36.1466764  18.1879190  80.5782479  36.7796755  18.6900899
  80.7151821  35.5467959  17.8222550  71.3340607  32.2897498  11.4010698
  70.4977919  32.6272184  11.7219973  71.1945377  32.1546477  10.4637835
  73.3093688  27.1334286  16.1089883  72.6558100  26.8183303  15.4846497
  73.2674162  26.5110026  16.8349706  74.4204893  37.4153581   8.0243175
  73.5131954  37.1842834   8.2234324  74.9175925  36.6191200   8.2117156
  77.3272971  46.1251088  10.9439861  76.6534670  46.4282785  11.5524819
  77.7138793  46.9280168  10.5945318  76.5431428  33.6216219  20.4337530
  75.6253989  33.8431166  20.2759218  76.9591572  33.6962530  19.5749238
  77.3266476  35.0207635  15.5640211  78.0738295  35.5329032  15.2547333
  77.5958065  34.6991688  16.4244604  75.5993126  37.5166176  12.5467165
  74.6904345  37.2325208  12.6439635  75.6288210  37.9365254  11.6870472
  80.8312393  41.1272765  16.3158332  80.3774720  40.2863675  16.3723523
  80.2006360  41.7634163  16.6533113  79.7745313  32.0564751  17.5459000
  79.0368070  31.5442137  17.8769242  80.0272086  31.6165133  16.7342277
  79.2745333  42.9649262  17.2508151  79.5668307  43.5254319  16.5320516
  79.7843953  43.2577823  18.0061310  79.8756940  24.8341003  18.1400769
  80.1815817  23.9738366  17.8526684  80.6009545  25.4258623  17.9399763
  66.1681296  35.2371690  16.5282367  65.9705696  34.6441050  15.8033434
  65.6127960  34.9323900  17.2458306  74.1478020  35.1294796  18.6476960
  74.2026630  34.1768633  18.5719437  73.3369222  35.2854235  19.1318259
  75.2969214  39.0574919   9.8855243  74.8588644  38.3410778   9.4260881
  76.0379655  39.2851034   9.3240335  72.0870380  33.7471856  16.4067339
  71.2738245  34.0466026  16.8132531  72.5829374  33.3527545  17.1241821
  74.2378958  43.7429613  18.3401604  74.1955137  43.9690459  17.4110136
  75.1541657  43.5092987  18.4887405  77.6844592  34.2113680  25.2382233
  78.0393979  34.4385153  26.0976699  78.3316723  34.5432057  24.6159488
  83.4142329  37.3332116  15.9431562  83.2760227  37.5233712  15.0152751
  83.0578547  38.0951499  16.3999613  71.5784455  31.3190211  22.0228574
  72.2183834  31.1778970  21.3251537  70.7461985  31.0324725  21.6467176
  83.4411708  39.4008643  20.9542833  83.8748215  39.3083932  21.8025887
  84.1543289  39.3766144  20.3162849  72.3544759  40.6192642  18.1363566
  73.1485357  40.1242962  17.9346141  71.6436451  40.0910505  17.7731272
  77.1739603  43.0010737  22.4875934  77.2276625  43.5701674  23.2553650
  76.3054384  43.1712622  22.1229971  68.6627522  34.7635724  14.2123319
  67.7325110  34.7020179  14.4293281  68.7584994  34.2411676  13.4159960
  68.5813071  31.2890536  16.8001561  68.8419888  32.2035870  16.6910721
  69.4030243  30.8214979  16.9498174  70.0537996  32.7028294  23.9700385
  70.7261050  32.4945656  23.3213034  69.2267783  32.5050380  23.5305618
  84.3027258  39.4432344  23.4875719  84.4963148  40.3478154  23.7334994
  84.2027876  38.9839763  24.3214304  75.9563568  29.3290234  25.9866046
  75.3091483  30.0280184  25.8930523  76.7264584  29.7626378  26.3542294
  79.3642366  39.5939087  29.0616599  79.2127873  39.3649638  28.1446683
  79.3547046  40.5509688  29.0747944  76.1327703  37.1670999  24.0462866
  77.0619763  37.3182159  23.8731833  75.7118733  37.2555020  23.1911512
  74.9316035  41.1921664  21.8161404  74.7927120  40.8240448  22.6887342
  74.1430631  41.7069303  21.6445361  75.5264187  46.2930760  13.1586940
  75.7015942  45.8218803  13.9732563  74.8396975  46.9196526  13.3868201
  76.4821250  40.5703266  19.2050241  76.1471082  40.5304036  20.1007891
  75.9825195  39.9047982  18.7320652  70.4565494  35.9770897  24.7302822
  70.3185292  35.2451135  25.3314362  71.3670417  35.8879797  24.4487010
  79.4180441  37.9159301   9.4787301  78.8009612  37.1906129   9.3820354
  78.9496930  38.6768661   9.1354375  73.0847794  35.6890856  24.2186502
  73.7947413  35.0484048  24.1773121  73.0417103  35.9403751  25.1412683
  81.0734573  42.6258209  27.1393081  81.0147119  41.9417429  26.4723664
  81.4754091  43.3677199  26.6873707  71.7976728  32.6756074  26.0382142
  71.2614085  32.2246812  26.6903738  71.2093437  32.8101983  25.2952606
  70.0925272  49.4420123  19.9326800  70.3321870  50.0738647  20.6105819
  69.2494468  49.0908163  20.2192159  71.2078987  32.1344725   8.6008605
  70.3308454  32.0133526   8.2370852  71.6836740  31.3430803   8.3487494
  81.0751980  40.5897793  25.3707061  80.1878759  40.2523715  25.4933460
  81.6450531  39.8580824  25.6075826  62.7281127  36.9221885  18.6950112
  63.4152167  36.6083615  18.1071128  62.5729256  37.8263250  18.4217364
  67.5315850  31.8112081  23.1235136  67.4474038  31.2037751  22.3885546
  66.7098556  32.3021100  23.1244632  74.6053134  45.2499245  22.3368304
  74.5323305  46.0554217  22.8487609  74.1630527  45.4491211  21.5116326
  74.3942913  44.4871015  15.8471126  73.6110435  45.0292696  15.9409350
  75.0935659  45.0044995  16.2465367  77.7039563  30.2965645  18.4905331
  78.2008263  29.5435607  18.1706401  76.9326545  30.3329962  17.9248540
  85.5569321  36.0006010  20.1323623  85.5459197  36.8830726  19.7617556
  84.6886700  35.6477561  19.9378160  77.0651817  45.1486080  24.4926463
  77.7779789  45.7833544  24.4202364  76.5741846  45.2449945  23.6766465
  78.7869344  39.0537332  16.0643755  77.8525623  39.1738795  15.8948459
  78.9646013  38.1509799  15.8003764  74.2874532  32.4383028  18.2177016
  73.9172320  31.8854068  18.9057921  74.7833625  31.8341161  17.6652016
  82.1741895  34.8954651  16.5993789  82.6402348  35.7282643  16.5254091
  82.6249396  34.4299633  17.3039047  72.1163731  42.8980523  25.3132034
  72.8173190  43.5317006  25.4661428  71.6458846  43.2395255  24.5527673
  80.2418127  41.2398473  13.5979941  80.5177970  41.1255067  14.5073815
  79.3722625  40.8415958  13.5592114  80.1458558  27.2635238  20.6384690
  79.2321638  27.4939465  20.8066897  80.5751660  27.3473683  21.4898722
  79.9165017  35.4525130  23.1384584  79.2636467  35.7001038  22.4837037
  80.2945397  34.6389269  22.8047061  76.8772191  45.4884824  17.2412754
  77.0594585  44.6706480  17.7040507  77.7005177  45.7052516  16.8037644
  77.2114356  44.4153009  14.5027803  77.7402123  43.9045463  13.8897965
  77.4742576  44.0995539  15.3673336  75.9652590  36.1944941  29.6250621
  75.2893227  36.0939071  30.2952996  76.7880224  36.0384155  30.0886618
  67.7131449  42.4316878  22.2463136  68.2984886  41.6860566  22.3791041
  67.5156287  42.7420835  23.1299800  70.5670104  45.4668125  17.2625579
  69.8980479  45.9514253  16.7789619  70.4282974  45.7137346  18.1768957
  62.3049104  35.0022478  20.9667580  62.3433203  34.4686069  21.7604698
  61.7989396  34.4757684  20.3478557  74.7075373  47.5011869  23.8608237
  75.2593681  47.6643490  24.6257322  75.0481566  48.0916307  23.1888262
  69.6839866  29.8487019  24.4630122  69.7481192  30.7101850  24.0507520
  69.6206986  29.2361020  23.7302480  69.1592138  31.9210151  28.1103156
  69.7864177  31.5387229  28.7240680  68.3020057  31.7024353  28.4758849
  79.5586247  42.3273126  29.7156892  80.1026151  42.9403085  29.2211846
  78.9773092  42.8852705  30.2323905  65.9357681  33.7286580  14.0421511
  66.2311122  32.8197259  13.9888565  65.0345717  33.7074320  13.7202513
  77.8443760  45.4493844  20.8471919  77.7194899  44.6483584  20.3382865
  78.5022851  45.9440038  20.3585889  69.4651928  31.8042577  20.0249060
  68.7438514  32.4178545  19.8856533  70.2545184  32.3400342  19.9465705
  79.9078668  43.2502865  22.4751469  78.9609004  43.1308216  22.4029796
  80.2561441  42.3625363  22.5577731  72.2678242  29.1397003  26.2989711
  72.7912643  29.3859300  27.0616021  72.0490575  29.9717038  25.8792849
  67.6645523  31.4100678  14.1660836  67.3358229  30.5298057  13.9835942
  68.0184893  31.3548347  15.0537225  76.9125102  43.0455581  18.6755822
  76.7650064  42.1172288  18.8563392  77.7378595  43.0675671  18.1912897
  70.7787346  31.6973648  14.5336314  71.1183418  32.2259569  13.8114922
  71.2259466  32.0354054  15.3094880  80.5159223  43.8684139  19.7620694
  81.4405771  43.6627001  19.6245145  80.3474527  43.6200541  20.6710036
  73.4730787  30.0810699  23.9839382  73.1327607  29.2818512  24.3860062
  72.7669793  30.3812409  23.4116215  74.1247259  27.1660011  22.4366705
  74.9473328  26.6920489  22.3145595  74.3685322  27.9450495  22.9365391
  72.7655493  30.1948269  12.7329607  73.4863856  30.5729522  12.2293323
  72.1420797  30.9137146  12.8364584  76.9086616  30.8993418  13.6687939
  77.1250230  31.7818056  13.3676767  76.4280683  30.5079632  12.9393581
  71.6485837  33.8579132  20.2458683  71.5030418  34.1719435  21.1382965
  71.1711041  34.4764032  19.6929582  73.5082220  30.8481680  20.2939573
  73.4943789  29.9522773  19.9571871  74.2254648  30.8552343  20.9277859
  75.3608351  31.2819020  22.3392700  75.1026129  32.2036090  22.3377031
  74.8293391  30.8849454  23.0293165  80.3054540  44.3869807  15.1182786
  80.4791417  43.8216229  14.3656638  80.7983431  45.1870702  14.9362276
  66.1231499  36.3984476  23.1846345  65.5784968  37.1744284  23.3166619
  67.0010849  36.7455280  23.0265466  72.9119116  29.7296060  15.5627143
  73.0335027  28.8012706  15.7618031  72.6221158  29.7434746  14.6505459
  75.7810306  27.4150970  18.6993863  75.8032003  27.4790303  17.7445843
  76.1978365  26.5755479  18.8934369  86.1593931  37.1506230  16.7373086
  86.6025077  36.4013555  16.3392209  85.2820441  37.1416366  16.3546818
  81.2929712  43.7036571  12.2179684  81.9880617  44.3243264  12.4366999
  81.6352862  42.8531923  12.4932062  66.9097521  35.5254372  26.0776501
  66.1679257  35.6737008  26.6641132  66.5890266  35.7862638  25.2143251
  83.1921135  41.1536277  13.7467015  83.7172459  41.4923550  13.0216335
  83.1043488  40.2183292  13.5630149  74.8541184  45.0670351  25.8756891
  75.1628310  44.8219497  26.7479591  75.6516666  45.2716989  25.3875762
  74.8761796  47.2208260  18.1062268  74.4366786  46.7284639  18.7995125
  75.6269913  46.6781228  17.8654343  67.3554135  43.4119801  18.1086896
  68.1812155  43.1123573  17.7285540  67.0048187  42.6427423  18.5576685
  72.3235668  42.7646269  20.1784570  71.7015677  42.1016974  19.8786798
  72.9940535  42.7907401  19.4958217  65.5562740  41.3306127  19.0675830
  64.7194648  40.9028302  18.8859831  65.5286385  41.5238571  20.0046621
  72.3960196  31.2428057  29.7717076  72.4448351  32.1190180  29.3894845
  72.9382710  30.7005450  29.1988719  82.8815041  41.7869181  29.0518213
  82.0910585  41.7693319  28.5122712  82.6448396  42.3257474  29.8067249
  83.0012916  38.6361647  26.3650941  83.0510921  38.4711654  27.3066464
  82.8926840  37.7688906  25.9748822  71.8849175  41.3150193  13.6543030
  72.0337295  41.9985657  13.0009703  72.6915619  41.2955283  14.1692486
  80.2916679  34.6192575  27.6810248  81.1926542  34.4799040  27.3894246
  80.3664653  34.7847030  28.6208425  74.6259484  31.9959430  26.5263434
  73.7562793  32.2892996  26.2546023  74.8618964  32.5799875  27.2470698
  84.5031113  41.0558588  26.6092963  84.2115922  41.4188569  27.4456424
  83.8903244  40.3425597  26.4306295  85.7026796  38.6211468  19.1295533
  86.5373687  39.0601272  19.2933093  85.8385924  38.1450121  18.3103779
  82.7518301  36.1791203  25.0773021  83.2272423  36.3718849  24.2691872
  81.8283867  36.2350389  24.8316405  69.6401808  37.3415370  14.6604099
  69.3947850  36.4377700  14.8584309  69.8097723  37.3432521  13.7183577
  77.3298518  28.2139047  24.0428855  77.8480462  28.9500074  23.7175343
  76.9753651  28.5203040  24.8775614  68.9097456  33.0743728  12.1590261
  68.2166701  33.1488083  11.5030297  68.6649207  32.3104071  12.6811778
  77.5811112  24.6339329  19.5629751  77.8612866  23.9662518  20.1890178
  78.3661719  24.8268425  19.0504415  75.3844581  43.8098323  11.1254778
  74.8118548  44.4288510  10.6725250  75.9577374  44.3597685  11.6594700
  81.4519970  33.0556963  23.3101326  82.4037393  33.1555061  23.3313551
  81.2823421  32.2635232  23.8199411  79.4734350  30.1412546  23.4960727
  78.8784282  30.4217559  22.8007216  79.1884047  30.6306447  24.2677469
  78.6041840  44.0935473  12.2563360  79.5372514  44.0281035  12.4596235
  78.5165053  44.9291740  11.7977893  81.2329857  43.4101344   9.2167308
  81.1543489  43.0761207  10.1103065  82.0539524  43.9023111   9.2158780
  83.9308048  36.2763083  22.4243626  83.8984368  35.3379084  22.6103310
  84.5408672  36.3547120  21.6909451  75.7691379  35.1459136   8.4670830
  76.7150484  35.0165344   8.5359248  75.3905624  34.4073798   8.9440258
  84.0802537  33.0674126  22.4701909  83.5641585  32.2832583  22.2831838
  84.9642485  32.7392843  22.6348429  81.7413264  26.8115142  18.4297722
  81.5438085  26.5030230  19.3141054  82.3512969  27.5376781  18.5595652
  89.7484598  37.3379090  21.5649663  90.4787987  37.0764378  22.1257366
  89.1391544  36.6007812  21.6051731  87.8299895  35.4786952  22.1624114
  87.1033059  35.3442917  21.5540606  87.4147182  35.7863781  22.9680832
  75.6530072  39.1976882  29.9271487  76.5733081  39.3755481  30.1211534
  75.6179655  38.2532927  29.7751186  73.9534296  33.0709112   8.4025715
  73.0465752  32.7742225   8.4788429  74.2310277  32.7738930   7.5360002
  64.8712237  34.3915476  18.8524762  64.5515021  33.5380784  18.5599136
  64.3245665  34.6064054  19.6082729  68.6492144  37.1077917  22.5694268
  68.8678154  38.0395024  22.5882302  69.0617918  36.7485891  23.3549072
  75.5696362  27.6146002  14.5569957  74.7597090  27.2693087  14.9325203
  76.2580779  27.3053546  15.1457568  77.4986910  26.6924049  16.1794253
  78.0517949  27.1119502  16.8384276  77.7356997  25.7659797  16.2217209
  73.5220009  32.6811122  31.9597017  73.4216736  33.6305479  31.8909108
  73.3041552  32.3529361  31.0873087  72.7233081  29.9296047   8.5437695
  73.5852245  30.2550946   8.8033512  72.9083425  29.1427543   8.0310760
  64.7400497  38.0118387  20.8217883  64.0463968  37.5972340  20.3087838
  65.4873488  38.0538924  20.2251302  80.8765717  28.8024574  15.6872918
  80.2964386  29.4609378  15.3050970  80.6101650  27.9801918  15.2760335
  79.3269284  28.2029632  17.8894238  79.8269062  28.3146166  17.0808557
  79.9704892  27.8990684  18.5295046  73.3851280  36.1108261  30.7762079
  72.9018361  36.9108621  30.9825968  73.4712219  36.1216206  29.8229523
  66.6537239  37.9436641  18.6983898  66.6307927  38.0424328  17.7465781
  66.9637876  38.7901792  19.0201064  69.3124617  40.0012796  22.8130513
  70.2667871  39.9696738  22.7460444  69.1137141  39.5403420  23.6280739
  69.9023999  38.5713912  25.3801310  70.7216888  39.0657991  25.4036148
  70.1760807  37.6545880  25.3518878  79.6590595  30.9624664  14.7429266
  78.7716450  31.2474315  14.5249461  80.0744584  30.8018428  13.8956543
  83.0105131  30.9871185  18.4583605  83.7865522  31.4767638  18.7308222
  82.2853266  31.4129239  18.9155475  85.4477690  31.6998804  19.5157546
  86.0422181  31.4594540  18.8050854  85.5204274  30.9805935  20.1431082
  67.6674846  45.5432415  19.8300711  67.5329314  44.7832816  19.2638709
  67.2506908  46.2673315  19.3629499  78.8033809  40.7269339   8.8377286
  79.5069659  40.9319341   9.4534941  78.0796458  41.2946101   9.1026369
  79.6331619  36.4779200  14.9579556  79.5766821  36.9347752  14.1187188
  80.1859962  35.7169885  14.7802399  83.4436425  32.2668932  15.7829676
  83.1873359  31.8665568  16.6137883  82.8189293  32.9812726  15.6579815
  87.7548763  35.0065005  18.2900967  87.1948321  35.0758195  19.0632529
  87.1492266  34.8305990  17.5700463  70.8243972  46.4401732  20.0419153
  70.7076356  47.3847165  19.9397843  70.0036418  46.1375294  20.4304952
  80.7120506  41.1651868  10.8875746  81.5466110  40.7333067  10.7053221
  80.5504849  40.9933882  11.8152640  80.3666398  37.6683981  12.2532085
  80.3115202  37.5028253  11.3120529  79.7412454  38.3760014  12.4094275
  65.1558913  32.9052046  26.0793507  65.8017777  32.3951000  26.5680733
  64.9476065  33.6420727  26.6536933  77.6812306  39.9732893  31.5785648
  78.5503465  40.1473546  31.2172283  77.2019057  40.7927310  31.4561377
  73.6762524  27.1692090  11.8317404  73.6641194  28.1133930  11.9885674
  74.5685946  26.9862236  11.5376865  71.8498486  47.0929994  23.2575082
  72.7525733  47.1253605  23.5741577  71.6235856  46.1630445  23.2721417
  73.6052088  45.8460981  19.9185160  72.6547719  45.8462842  19.8049533
  73.9084574  45.0993715  19.4021195  77.4914643  23.7634867  16.0863340
  76.7247039  23.2093354  16.2320023  77.9025348  23.8356736  16.9477492
  69.4956404  30.0519663  30.1768522  70.3587866  29.6956468  30.3871846
  68.9221815  29.7133558  30.8643926  89.3404781  51.6821519  20.9830923
  89.9783191  51.5628267  20.2794263  89.2225624  52.6302363  21.0418875
  86.1494488  51.6348947  20.9192447  85.8112999  51.5190012  20.0312982
  87.0184256  51.2340112  20.8993453  82.0081303  53.4884424  16.9089338
  81.4446168  53.3974361  16.1405626  81.8933698  52.6684328  17.3891831
  86.6314271  52.7883799  26.8778653  86.6202911  52.3936597  26.0059157
  86.7934910  52.0549872  27.4712424  79.5545735  54.9835615  19.7473559
  80.3467027  54.6426440  19.3319858  79.7942385  55.0930590  20.6675712
  87.5880862  57.1555391  12.2203803  86.9368842  57.7409472  11.8337817
  88.3825225  57.6861586  12.2798841  81.5136489  54.2444529  12.6190938
  82.2867365  53.6973516  12.4803813  81.8661888  55.1088778  12.8305399
  83.3521532  55.5720911  25.8257837  83.0611398  56.4766542  25.7104503
  83.9878516  55.6137438  26.5401906  84.2777739  52.9497759  22.4159196
  84.8741311  52.7253782  21.7016159  84.3352710  52.2082505  23.0184644
  83.8502767  50.4037195  10.2509387  84.1028288  49.8818716   9.4892850
  82.9127326  50.2403340  10.3536071  88.8946050  49.4072973  18.0584131
  89.6809139  48.9892396  17.7074548  89.1584754  50.3119065  18.2265779
  89.0656127  54.8445823  12.7572787  88.4301960  54.9180450  13.4693692
  88.7353534  55.4339422  12.0791867  94.2954477  49.3448206  18.9617109
  95.0279649  48.7747423  19.1954939  93.5393833  48.9569807  19.4023615
  83.5699056  52.3065301  12.4533762  83.4535314  51.6310204  13.1214847
  83.6801316  51.8197675  11.6365915  85.9130597  51.7675448  16.1580452
  85.5488804  51.2406069  16.8693373  86.7697713  51.3773917  15.9846937
  91.8179897  43.0569780  23.4211718  91.4863222  43.9265191  23.1972933
  91.2225511  42.7406064  24.1005748  85.5536084  46.7965347  11.1541800
  85.7210486  47.6645584  11.5212271  85.3633253  46.9592629  10.2303089
  88.3111417  55.2582326  22.8207631  88.0112140  56.1607365  22.7123438
  87.9662476  54.9914510  23.6728783  81.7623898  51.7096123  18.8544335
  80.8374395  51.5772337  19.0622027  82.0108312  52.4890342  19.3514277
  91.7108561  47.7764867  20.5005068  90.8025438  47.7080275  20.2063829
  91.6596156  48.2536811  21.3286893  85.5325305  49.2523005  12.1388467
  85.4124930  49.6980056  12.9773947  84.8377893  49.6008323  11.5802005
  79.1232709  51.3529397  19.6888124  79.2525091  51.6063876  20.6027536
  78.4430161  51.9457105  19.3692779  83.2932197  62.0226647  15.7878598
  83.2156226  62.9734472  15.8667079  82.6893840  61.6772519  16.4453525
  85.7849426  49.1954512  28.4439965  85.0082760  49.7548432  28.4342830
  86.4239989  49.6811295  28.9654835  93.5770207  45.9781305  22.2782942
  92.9344587  46.2713838  21.6322736  93.0725136  45.8634225  23.0836138
  91.2310371  49.7244478  12.9668801  92.1428227  49.9571865  12.7916499
  90.7220018  50.3081522  12.4043880  84.0395799  52.0039965  28.0057932
  84.7810483  52.5425009  27.7292756  83.3332784  52.6306254  28.1629484
  89.5151138  54.1469106  26.6030094  89.9234494  53.7051516  25.8584726
  88.7928400  53.5721733  26.8564287  85.8682208  49.0841713  23.9763651
  86.7143404  49.5081126  24.1198300  85.8080846  48.4275337  24.6702214
  89.8379953  54.7070297  20.3582382  89.2088815  54.8716011  19.6558450
  89.4505615  55.1211906  21.1293347  93.7169185  55.6424734  17.7126746
  93.0320223  56.0223636  17.1623780  93.8013034  56.2520061  18.4458694
  89.0181654  46.7446081  25.6344824  88.7742586  47.4988142  25.0979100
  89.2941584  47.1231429  26.4692071  90.9720116  53.2884693  24.3122090
  91.1837012  53.9316453  23.6356471  90.9249865  52.4547010  23.8444020
  88.5746345  45.9002514  21.2158662  87.7130824  46.1983768  21.5075400
  88.6008780  46.1172913  20.2839695  85.3907915  54.4444705  17.6232468
  85.8546260  54.7232408  16.8337090  85.1264713  53.5428149  17.4405558
  82.2831996  53.9916186  20.5612231  82.8533353  54.4203455  19.9229715
  82.8740108  53.7098771  21.2596417  84.3276801  50.5667857  14.4322033
  85.0300844  51.0188901  14.8995959  83.9957429  49.9251676  15.0601926
  82.7757162  49.1579614  28.8073242  82.1455823  49.8395895  29.0408639
  82.6693250  49.0462695  27.8626380  78.0702135  48.8251410  19.7339166
  77.2801189  49.0808938  19.2579277  78.5613382  49.6399748  19.8391207
  92.0865944  56.1656649  22.4844447  92.9083388  55.7636836  22.2027129
  92.0828347  56.0624883  23.4360563  80.0216880  49.1895989  16.6922643
  79.2248044  49.3014683  17.2106139  79.7942472  49.5282641  15.8263534
  85.8522548  55.7140692  24.6405158  85.9166980  56.1761099  25.4763329
  85.1433472  55.0838057  24.7687467  76.3539838  49.0781900  22.1654157
  76.6047876  49.9628910  22.4311733  76.8899386  48.8986502  21.3929249
 100.1771937  52.5095397  18.8329419  99.4235646  51.9402795  18.6773423
 100.3119479  52.4758062  19.7800053  85.5670566  57.3808800  14.5084138
  85.4316240  58.2260335  14.9368986  86.1080378  57.5828077  13.7450072
  82.0537905  43.4600380  31.1698493  81.6604851  42.9066578  31.8446137
  82.8704045  43.7710958  31.5605011  79.0199963  54.8984238  15.0812063
  79.5324483  55.6927488  15.2317628  79.6722676  54.2010528  15.0145665
  80.8294848  58.0149994  17.1634816  81.0061476  58.9367959  16.9755800
  81.6251681  57.7008413  17.5929196  84.9705866  44.8758259  28.7618750
  85.7115580  45.4765412  28.6823212  85.2023789  44.1335896  28.2036792
  80.1147204  50.0614626  27.0396979  80.0000719  49.1599883  27.3404078
  79.2591722  50.3078323  26.6881796  87.1939042  58.0032366  28.6384480
  86.7502896  57.2168745  28.3205385  87.8556255  58.1911517  27.9728371
  81.9526163  59.5328168  23.1645159  82.5033588  59.4045231  22.3922152
  81.1137639  59.8323057  22.8140051  89.2920280  58.2835166  26.6665881
  89.2738755  59.1044047  26.1746150  90.2140200  58.1589241  26.8916022
  85.7493334  55.7979296  27.5089390  86.2821671  55.0367584  27.2788698
  85.2207415  55.5052947  28.2513544  88.9163029  40.9039362  23.0383031
  88.5727298  41.7941003  22.9622142  89.2841992  40.7141019  22.1752616
  76.9848880  53.2272892  15.8571634  77.8224102  53.6369900  15.6405341
  77.1627147  52.2872334  15.8271827  88.8813312  50.8947973  11.5455467
  88.3659935  51.6652577  11.7843854  88.6090620  50.2213109  12.1688528
  86.4660423  45.7397673  16.6040705  85.6102019  45.3504524  16.4246344
  86.8787375  45.8189634  15.7440490  87.9959569  43.2744017  21.0032265
  87.4924365  43.2374152  20.1900070  88.2890176  44.1836759  21.0628921
  84.2402455  43.3582746  20.0098446  85.1055452  43.1625555  19.6504336
  84.3079964  43.1293098  20.9367803  93.8547586  53.6480327  13.4808640
  93.0777029  53.3091487  13.0363802  94.5339067  53.6532950  12.8063605
  88.6699615  48.7675065  13.3715248  88.3649751  49.0821214  14.2225391
  89.6230057  48.8456485  13.4142581  87.1146047  54.9265288  15.0208202
  86.5867408  54.1918048  14.7081439  86.6133550  55.7039964  14.7748170
  92.0938893  53.1214309  20.1375248  91.4362567  53.8113570  20.2255377
  92.8979292  53.5110740  20.4809234  81.8464774  45.5884954  17.3814813
  82.4208526  45.3660136  16.6488006  82.4335757  45.6573649  18.1343415
  90.9044352  51.4758681  18.1879190  91.4176233  52.1088673  18.6900899
  91.5545576  50.8759877  17.8222550  82.1734362  47.6189415  11.4010698
  81.3371674  47.9564102  11.7219973  82.0339131  47.4838395  10.4637835
  84.1487442  42.4626203  16.1089883  83.4951854  42.1475220  15.4846497
  84.1067916  41.8401944  16.8349706  85.2598647  52.7445498   8.0243175
  84.3525709  52.5134752   8.2234324  85.7569679  51.9483118   8.2117156
  88.1666726  61.4543006  10.9439861  87.4928425  61.7574702  11.5524819
  88.5532548  62.2572086  10.5945318  87.3825183  48.9508137  20.4337530
  86.4647744  49.1723084  20.2759218  87.7985326  49.0254447  19.5749238
  88.1660230  50.3499552  15.5640211  88.9132049  50.8620950  15.2547333
  88.4351820  50.0283605  16.4244604  86.4386880  52.8458093  12.5467165
  85.5298100  52.5617126  12.6439635  86.4681964  53.2657172  11.6870472
  91.6706148  56.4564683  16.3158332  91.2168475  55.6155593  16.3723523
  91.0400115  57.0926081  16.6533113  90.6139067  47.3856669  17.5459000
  89.8761824  46.8734055  17.8769242  90.8665841  46.9457050  16.7342277
  90.1139087  58.2941179  17.2508151  90.4062061  58.8546236  16.5320516
  90.6237708  58.5869740  18.0061310  90.7150695  40.1632921  18.1400769
  91.0209572  39.3030284  17.8526684  91.4403300  40.7550541  17.9399763
  77.0075051  50.5663607  16.5282367  76.8099451  49.9732968  15.8033434
  76.4521715  50.2615818  17.2458306  84.9871774  50.4586714  18.6476960
  85.0420384  49.5060550  18.5719437  84.1762977  50.6146153  19.1318259
  86.1362968  54.3866837   9.8855243  85.6982398  53.6702696   9.4260881
  86.8773409  54.6142952   9.3240335  82.9264134  49.0763774  16.4067339
  82.1132000  49.3757944  16.8132531  83.4223129  48.6819462  17.1241821
  85.0772712  59.0721530  18.3401604  85.0348891  59.2982377  17.4110136
  85.9935411  58.8384905  18.4887405  88.5238346  49.5405598  25.2382233
  88.8787734  49.7677071  26.0976699  89.1710477  49.8723975  24.6159488
  94.2536083  52.6624034  15.9431562  94.1153982  52.8525630  15.0152751
  93.8972302  53.4243417  16.3999613  82.4178209  46.6482129  22.0228574
  83.0577588  46.5070888  21.3251537  81.5855740  46.3616642  21.6467176
  94.2805463  54.7300561  20.9542833  94.7141969  54.6375850  21.8025887
  94.9937043  54.7058061  20.3162849  83.1938513  55.9484559  18.1363566
  83.9879112  55.4534880  17.9346141  82.4830205  55.4202423  17.7731272
  88.0133358  58.3302655  22.4875934  88.0670380  58.8993591  23.2553650
  87.1448139  58.5004540  22.1229971  79.5021277  50.0927641  14.2123319
  78.5718865  50.0312097  14.4293281  79.5978749  49.5703594  13.4159960
  79.4206826  46.6182454  16.8001561  79.6813643  47.5327787  16.6910721
  80.2423998  46.1506897  16.9498174  80.8931751  48.0320211  23.9700385
  81.5654804  47.8237573  23.3213034  80.0661537  47.8342297  23.5305618
  95.1421012  54.7724262  23.4875719  95.3356902  55.6770072  23.7334994
  95.0421630  54.3131681  24.3214304  86.7957323  44.6582152  25.9866046
  86.1485238  45.3572102  25.8930523  87.5658338  45.0918296  26.3542294
  90.2036121  54.9231004  29.0616599  90.0521627  54.6941556  28.1446683
  90.1940800  55.8801606  29.0747944  86.9721457  52.4962917  24.0462866
  87.9013517  52.6474077  23.8731833  86.5512487  52.5846938  23.1911512
  85.7709789  56.5213581  21.8161404  85.6320875  56.1532366  22.6887342
  84.9824385  57.0361221  21.6445361  86.3657941  61.6222678  13.1586940
  86.5409697  61.1510721  13.9732563  85.6790729  62.2488444  13.3868201
  87.3215004  55.8995184  19.2050241  86.9864837  55.8595954  20.1007891
  86.8218950  55.2339900  18.7320652  81.2959248  51.3062814  24.7302822
  81.1579046  50.5743053  25.3314362  82.2064172  51.2171714  24.4487010
  90.2574196  53.2451219   9.4787301  89.6403367  52.5198047   9.3820354
  89.7890684  54.0060579   9.1354375  83.9241549  51.0182774  24.2186502
  84.6341167  50.3775966  24.1773121  83.8810857  51.2695668  25.1412683
  91.9128328  57.9550127  27.1393081  91.8540874  57.2709347  26.4723664
  92.3147846  58.6969117  26.6873707  82.6370483  48.0047991  26.0382142
  82.1007840  47.5538730  26.6903738  82.0487191  48.1393900  25.2952606
  80.9319026  64.7712041  19.9326800  81.1715625  65.4030565  20.6105819
  80.0888223  64.4200081  20.2192159  82.0472742  47.4636643   8.6008605
  81.1702208  47.3425444   8.2370852  82.5230495  46.6722721   8.3487494
  91.9145735  55.9189711  25.3707061  91.0272514  55.5815633  25.4933460
  92.4844286  55.1872742  25.6075826  73.5674882  52.2513803  18.6950112
  74.2545922  51.9375533  18.1071128  73.4123011  53.1555167  18.4217364
  78.3709604  47.1403999  23.1235136  78.2867793  46.5329669  22.3885546
  77.5492310  47.6313017  23.1244632  85.4446888  60.5791163  22.3368304
  85.3717060  61.3846135  22.8487609  85.0024281  60.7783129  21.5116326
  85.2336668  59.8162933  15.8471126  84.4504190  60.3584613  15.9409350
  85.9329413  60.3336913  16.2465367  88.5433318  45.6257563  18.4905331
  89.0402017  44.8727525  18.1706401  87.7720299  45.6621879  17.9248540
  96.3963075  51.3297928  20.1323623  96.3852952  52.2122644  19.7617556
  95.5280455  50.9769479  19.9378160  87.9045572  60.4777997  24.4926463
  88.6173544  61.1125462  24.4202364  87.4135600  60.5741863  23.6766465
  89.6263099  54.3829250  16.0643755  88.6919377  54.5030712  15.8948459
  89.8039767  53.4801717  15.8003764  85.1268287  47.7674946  18.2177016
  84.7566074  47.2145986  18.9057921  85.6227379  47.1633079  17.6652016
  93.0135650  50.2246569  16.5993789  93.4796102  51.0574561  16.5254091
  93.4643150  49.7591551  17.3039047  82.9557485  58.2272441  25.3132034
  83.6566945  58.8608924  25.4661428  82.4852600  58.5687172  24.5527673
  91.0811881  56.5690390  13.5979941  91.3571725  56.4546985  14.5073815
  90.2116380  56.1707875  13.5592114  90.9852313  42.5927156  20.6384690
  90.0715393  42.8231383  20.8066897  91.4145414  42.6765600  21.4898722
  90.7558771  50.7817048  23.1384584  90.1030221  51.0292956  22.4837037
  91.1339151  49.9681186  22.8047061  87.7165945  60.8176741  17.2412754
  87.8988340  59.9998397  17.7040507  88.5398931  61.0344434  16.8037644
  88.0508111  59.7444926  14.5027803  88.5795877  59.2337381  13.8897965
  88.3136330  59.4287457  15.3673336  86.8046344  51.5236859  29.6250621
  86.1286981  51.4230988  30.2952996  87.6273978  51.3676073  30.0886618
  78.5525203  57.7608796  22.2463136  79.1378640  57.0152484  22.3791041
  78.3550042  58.0712752  23.1299800  81.4063859  60.7960043  17.2625579
  80.7374234  61.2806171  16.7789619  81.2676728  61.0429264  18.1768957
  73.1442858  50.3314396  20.9667580  73.1826958  49.7977987  21.7604698
  72.6383151  49.8049601  20.3478557  85.5469127  62.8303787  23.8608237
  86.0987435  62.9935408  24.6257322  85.8875321  63.4208224  23.1888262
  80.5233620  45.1778936  24.4630122  80.5874947  46.0393767  24.0507520
  80.4600741  44.5652938  23.7302480  79.9985893  47.2502069  28.1103156
  80.6257932  46.8679146  28.7240680  79.1413812  47.0316271  28.4758849
  90.3980001  57.6565044  29.7156892  90.9419905  58.2695002  29.2211846
  89.8166846  58.2144623  30.2323905  76.7751436  49.0578498  14.0421511
  77.0704877  48.1489176  13.9888565  75.8739471  49.0366238  13.7202513
  88.6837514  60.7785762  20.8471919  88.5588654  59.9775502  20.3382865
  89.3416606  61.2731955  20.3585889  80.3045683  47.1334495  20.0249060
  79.5832268  47.7470462  19.8856533  81.0938938  47.6692259  19.9465705
  90.7472423  58.5794782  22.4751469  89.8002758  58.4600133  22.4029796
  91.0955196  57.6917280  22.5577731  83.1071996  44.4688921  26.2989711
  83.6306398  44.7151218  27.0616021  82.8884329  45.3008956  25.8792849
  78.5039277  46.7392596  14.1660836  78.1751983  45.8589975  13.9835942
  78.8578648  46.6840264  15.0537225  87.7518856  58.3747498  18.6755822
  87.6043819  57.4464206  18.8563392  88.5772350  58.3967589  18.1912897
  81.6181100  47.0265566  14.5336314  81.9577173  47.5551487  13.8114922
  82.0653221  47.3645972  15.3094880  91.3552978  59.1976057  19.7620694
  92.2799525  58.9918919  19.6245145  91.1868281  58.9492458  20.6710036
  84.3124541  45.4102616  23.9839382  83.9721362  44.6110429  24.3860062
  83.6063547  45.7104327  23.4116215  84.9641013  42.4951929  22.4366705
  85.7867082  42.0212407  22.3145595  85.2079077  43.2742412  22.9365391
  83.6049248  45.5240187  12.7329607  84.3257610  45.9021440  12.2293323
  82.9814552  46.2429064  12.8364584  87.7480370  46.2285336  13.6687939
  87.9643985  47.1109974  13.3676767  87.2674438  45.8371549  12.9393581
  82.4879592  49.1871049  20.2458683  82.3424172  49.5011352  21.1382965
  82.0104795  49.8055950  19.6929582  84.3475975  46.1773597  20.2939573
  84.3337543  45.2814691  19.9571871  85.0648403  46.1844261  20.9277859
  86.2002105  46.6110937  22.3392700  85.9419883  47.5328008  22.3377031
  85.6687146  46.2141372  23.0293165  91.1448294  59.7161725  15.1182786
  91.3185172  59.1508147  14.3656638  91.6377185  60.5162619  14.9362276
  76.9625254  51.7276394  23.1846345  76.4178722  52.5036202  23.3166619
  77.8404604  52.0747198  23.0265466  83.7512871  45.0587978  15.5627143
  83.8728782  44.1304624  15.7618031  83.4614913  45.0726664  14.6505459
  86.6204061  42.7442888  18.6993863  86.6425758  42.8082221  17.7445843
  87.0372120  41.9047397  18.8934369  96.9987685  52.4798148  16.7373086
  97.4418831  51.7305473  16.3392209  96.1214196  52.4708284  16.3546818
  92.1323467  59.0328489  12.2179684  92.8274371  59.6535182  12.4366999
  92.4746617  58.1823840  12.4932062  77.7491276  50.8546290  26.0776501
  77.0073012  51.0028925  26.6641132  77.4284020  51.1154556  25.2143251
  94.0314890  56.4828195  13.7467015  94.5566214  56.8215467  13.0216335
  93.9437242  55.5475210  13.5630149  85.6934938  60.3962268  25.8756891
  86.0022065  60.1511415  26.7479591  86.4910420  60.6008907  25.3875762
  85.7155550  62.5500178  18.1062268  85.2760541  62.0576557  18.7995125
  86.4663667  62.0073145  17.8654343  78.1947889  58.7411719  18.1086896
  79.0205909  58.4415491  17.7285540  77.8441941  57.9719341  18.5576685
  83.1629423  58.0938187  20.1784570  82.5409432  57.4308892  19.8786798
  83.8334290  58.1199319  19.4958217  76.3956495  56.6598045  19.0675830
  75.5588403  56.2320220  18.8859831  76.3680140  56.8530488  20.0046621
  83.2353950  46.5719975  29.7717076  83.2842106  47.4482098  29.3894845
  83.7776464  46.0297368  29.1988719  93.7208796  57.1161098  29.0518213
  92.9304340  57.0985237  28.5122712  93.4842150  57.6549392  29.8067249
  93.8406671  53.9653565  26.3650941  93.8904676  53.8003572  27.3066464
  93.7320594  53.0980824  25.9748822  82.7242930  56.6442110  13.6543030
  82.8731050  57.3277575  13.0009703  83.5309373  56.6247200  14.1692486
  91.1310433  49.9484493  27.6810248  92.0320296  49.8090957  27.3894246
  91.2058408  50.1138947  28.6208425  85.4653239  47.3251347  26.5263434
  84.5956548  47.6184913  26.2546023  85.7012719  47.9091792  27.2470698
  95.3424868  56.3850506  26.6092963  95.0509676  56.7480487  27.4456424
  94.7296999  55.6717514  26.4306295  96.5420550  53.9503386  19.1295533
  97.3767441  54.3893190  19.2933093  96.6779679  53.4742039  18.3103779
  93.5912056  51.5083121  25.0773021  94.0666178  51.7010767  24.2691872
  92.6677621  51.5642307  24.8316405  80.4795563  52.6707288  14.6604099
  80.2341604  51.7669618  14.8584309  80.6491477  52.6724438  13.7183577
  88.1692272  43.5430964  24.0428855  88.6874216  44.2791991  23.7175343
  87.8147405  43.8494958  24.8775614  79.7491210  48.4035645  12.1590261
  79.0560455  48.4780000  11.5030297  79.5042962  47.6395989  12.6811778
  88.4204867  39.9631247  19.5629751  88.7006620  39.2954436  20.1890178
  89.2055474  40.1560342  19.0504415  86.2238335  59.1390241  11.1254778
  85.6512302  59.7580428  10.6725250  86.7971129  59.6889602  11.6594700
  92.2913725  48.3848881  23.3101326  93.2431148  48.4846978  23.3313551
  92.1217175  47.5927149  23.8199411  90.3128104  45.4704464  23.4960727
  89.7178037  45.7509477  22.8007216  90.0277801  45.9598365  24.2677469
  89.4435595  59.4227391  12.2563360  90.3766268  59.3572953  12.4596235
  89.3558808  60.2583658  11.7977893  92.0723612  58.7393261   9.2167308
  91.9937243  58.4053125  10.1103065  92.8933278  59.2315029   9.2158780
  94.7701803  51.6055000  22.4243626  94.7378123  50.6671001  22.6103310
  95.3802426  51.6839037  21.6909451  86.6085134  50.4751053   8.4670830
  87.5544238  50.3457262   8.5359248  86.2299379  49.7365715   8.9440258
  94.9196291  48.3966044  22.4701909  94.4035340  47.6124501  22.2831838
  95.8036240  48.0684761  22.6348429  92.5807018  42.1407059  18.4297722
  92.3831839  41.8322148  19.3141054  93.1906724  42.8668698  18.5595652
 100.5878353  52.6671007  21.5649663 101.3181741  52.4056295  22.1257366
  99.9785298  51.9299729  21.6051731  98.6693650  50.8078870  22.1624114
  97.9426813  50.6734835  21.5540606  98.2540937  51.1155699  22.9680832
  86.4923826  54.5268800  29.9271487  87.4126836  54.7047399  30.1211534
  86.4573409  53.5824845  29.7751186  84.7928051  48.4001030   8.4025715
  83.8859506  48.1034143   8.4788429  85.0704032  48.1030848   7.5360002
  75.7105991  49.7207393  18.8524762  75.3908775  48.8672701  18.5599136
  75.1639419  49.9355971  19.6082729  79.4885899  52.4369834  22.5694268
  79.7071908  53.3686942  22.5882302  79.9011672  52.0777809  23.3549072
  86.4090116  42.9437920  14.5569957  85.5990845  42.5985005  14.9325203
  87.0974533  42.6345463  15.1457568  88.3380665  42.0215966  16.1794253
  88.8911703  42.4411420  16.8384276  88.5750751  41.0951714  16.2217209
  84.3613764  48.0103040  31.9597017  84.2610491  48.9597397  31.8909108
  84.1435306  47.6821279  31.0873087  83.5626835  45.2587965   8.5437695
  84.4245999  45.5842863   8.8033512  83.7477180  44.4719461   8.0310760
  75.5794251  53.3410305  20.8217883  74.8857723  52.9264258  20.3087838
  76.3267242  53.3830841  20.2251302  91.7159472  44.1316492  15.6872918
  91.1358141  44.7901296  15.3050970  91.4495405  43.3093836  15.2760335
  90.1663038  43.5321549  17.8894238  90.6662817  43.6438084  17.0808557
  90.8098646  43.2282602  18.5295046  84.2245034  51.4400179  30.7762079
  83.7412116  52.2400539  30.9825968  84.3105973  51.4508124  29.8229523
  77.4930994  53.2728559  18.6983898  77.4701682  53.3716246  17.7465781
  77.8031630  54.1193709  19.0201064  80.1518372  55.3304714  22.8130513
  81.1061625  55.2988656  22.7460444  79.9530895  54.8695337  23.6280739
  80.7417754  53.9005830  25.3801310  81.5610643  54.3949908  25.4036148
  81.0154561  52.9837798  25.3518878  90.4984350  46.2916582  14.7429266
  89.6110205  46.5766233  14.5249461  90.9138339  46.1310345  13.8956543
  93.8498886  46.3163103  18.4583605  94.6259276  46.8059555  18.7308222
  93.1247020  46.7421157  18.9155475  96.2871445  47.0290722  19.5157546
  96.8815935  46.7886458  18.8050854  96.3598028  46.3097853  20.1431082
  78.5068600  60.8724333  19.8300711  78.3723068  60.1124734  19.2638709
  78.0900663  61.5965233  19.3629499  89.6427563  56.0561257   8.8377286
  90.3463413  56.2611259   9.4534941  88.9190212  56.6238018   9.1026369
  90.4725374  51.8071118  14.9579556  90.4160575  52.2639669  14.1187188
  91.0253716  51.0461802  14.7802399  94.2830180  47.5960850  15.7829676
  94.0267114  47.1957485  16.6137883  93.6583048  48.3104644  15.6579815
  98.5942517  50.3356923  18.2900967  98.0342075  50.4050112  19.0632529
  97.9886021  50.1597908  17.5700463  81.6637726  61.7693650  20.0419153
  81.5470110  62.7139083  19.9397843  80.8430172  61.4667212  20.4304952
  91.5514261  56.4943786  10.8875746  92.3859865  56.0624984  10.7053221
  91.3898604  56.3225799  11.8152640  91.2060153  52.9975899  12.2532085
  91.1508957  52.8320171  11.3120529  90.5806208  53.7051932  12.4094275
  75.9952668  48.2343963  26.0793507  76.6411531  47.7242917  26.5680733
  75.7869819  48.9712645  26.6536933  88.5206060  55.3024811  31.5785648
  89.3897220  55.4765463  31.2172283  88.0412812  56.1219228  31.4561377
  84.5156278  42.4984008  11.8317404  84.5034948  43.4425848  11.9885674
  85.4079700  42.3154154  11.5376865  82.6892240  62.4221912  23.2575082
  83.5919487  62.4545522  23.5741577  82.4629610  61.4922363  23.2721417
  84.4445842  61.1752899  19.9185160  83.4941473  61.1754760  19.8049533
  84.7478328  60.4285633  19.4021195  88.3308398  39.0926785  16.0863340
  87.5640794  38.5385271  16.2320023  88.7419103  39.1648653  16.9477492
  80.3350159  45.3811581  30.1768522  81.1981620  45.0248385  30.3871846
  79.7615570  45.0425475  30.8643926 100.1798536  67.0113437  20.9830923
 100.8176946  66.8920184  20.2794263 100.0619379  67.9594281  21.0418875
  96.9888242  66.9640865  20.9192447  96.6506754  66.8481930  20.0312982
  97.8578010  66.5632030  20.8993453  92.8475058  68.8176341  16.9089338
  92.2839923  68.7266278  16.1405626  92.7327453  67.9976246  17.3891831
  97.4708025  68.1175717  26.8778653  97.4596666  67.7228515  26.0059157
  97.6328665  67.3841789  27.4712424  90.3939490  70.3127533  19.7473559
  91.1860782  69.9718358  19.3319858  90.6336140  70.4222508  20.6675712
  98.4274617  72.4847309  12.2203803  97.7762596  73.0701390  11.8337817
  99.2218979  73.0153504  12.2798841  92.3530244  69.5736446  12.6190938
  93.1261120  69.0265433  12.4803813  92.7055643  70.4380696  12.8305399
  94.1915286  70.9012829  25.8257837  93.9005152  71.8058459  25.7104503
  94.8272271  70.9429356  26.5401906  95.1171493  68.2789677  22.4159196
  95.7135065  68.0545699  21.7016159  95.1746465  67.5374423  23.0184644
  94.6896521  65.7329112  10.2509387  94.9422042  65.2110634   9.4892850
  93.7521081  65.5695258  10.3536071  99.7339804  64.7364891  18.0584131
 100.5202894  64.3184314  17.7074548  99.9978509  65.6410983  18.2265779
  99.9049882  70.1737741  12.7572787  99.2695715  70.2472368  13.4693692
  99.5747288  70.7631340  12.0791867 105.1348231  64.6740124  18.9617109
 105.8673403  64.1039341  19.1954939 104.3787587  64.2861724  19.4023615
  94.4092810  67.6357218  12.4533762  94.2929068  66.9602122  13.1214847
  94.5195070  67.1489592  11.6365915  96.7524351  67.0967365  16.1580452
  96.3882558  66.5697986  16.8693373  97.6091467  66.7065834  15.9846937
 102.6573652  58.3861698  23.4211718 102.3256977  59.2557109  23.1972933
 102.0619265  58.0697982  24.1005748  96.3929838  62.1257265  11.1541800
  96.5604240  62.9937502  11.5212271  96.2027007  62.2884547  10.2303089
  99.1505171  70.5874244  22.8207631  98.8505894  71.4899283  22.7123438
  98.8056231  70.3206427  23.6728783  92.6017653  67.0388041  18.8544335
  91.6768149  66.9064255  19.0622027  92.8502066  67.8182260  19.3514277
 102.5502315  63.1056784  20.5005068 101.6419192  63.0372193  20.2063829
 102.4989911  63.5828729  21.3286893  96.3719059  64.5814923  12.1388467
  96.2518684  65.0271973  12.9773947  95.6771647  64.9300240  11.5802005
  89.9626464  66.6821314  19.6888124  90.0918845  66.9355793  20.6027536
  89.2823915  67.2749022  19.3692779  94.1325951  77.3518564  15.7878598
  94.0549981  78.3026389  15.8667079  93.5287595  77.0064437  16.4453525
  96.6243181  64.5246430  28.4439965  95.8476515  65.0840350  28.4342830
  97.2633744  65.0103213  28.9654835 104.4163961  61.3073223  22.2782942
 103.7738342  61.6005756  21.6322736 103.9118890  61.1926143  23.0836138
 102.0704125  65.0536396  12.9668801 102.9821981  65.2863783  12.7916499
 101.5613772  65.6373440  12.4043880  94.8789553  67.3331883  28.0057932
  95.6204238  67.8716927  27.7292756  94.1726539  67.9598172  28.1629484
 100.3544893  69.4761024  26.6030094 100.7628249  69.0343434  25.8584726
  99.6322154  68.9013651  26.8564287  96.7075963  64.4133630  23.9763651
  97.5537158  64.8373044  24.1198300  96.6474601  63.7567255  24.6702214
 100.6773707  70.0362214  20.3582382 100.0482570  70.2007928  19.6558450
 100.2899370  70.4503824  21.1293347 104.5562939  70.9716652  17.7126746
 103.8713978  71.3515553  17.1623780 104.6406789  71.5811979  18.4458694
  99.8575408  62.0737999  25.6344824  99.6136340  62.8280059  25.0979100
 100.1335339  62.4523346  26.4692071 101.8113871  68.6176611  24.3122090
 102.0230766  69.2608371  23.6356471 101.7643619  67.7838928  23.8444020
  99.4140100  61.2294432  21.2158662  98.5524579  61.5275685  21.5075400
  99.4402535  61.4464831  20.2839695  96.2301669  69.7736622  17.6232468
  96.6940015  70.0524325  16.8337090  95.9658467  68.8720067  17.4405558
  93.1225750  69.3208104  20.5612231  93.6927107  69.7495372  19.9229715
  93.7133862  69.0390689  21.2596417  95.1670555  65.8959775  14.4322033
  95.8694599  66.3480818  14.8995959  94.8351184  65.2543594  15.0601926
  93.6150917  64.4871531  28.8073242  92.9849578  65.1687812  29.0408639
  93.5087005  64.3754613  27.8626380  88.9095889  64.1543327  19.7339166
  88.1194943  64.4100856  19.2579277  89.4007137  64.9691665  19.8391207
 102.9259699  71.4948567  22.4844447 103.7477143  71.0928754  22.2027129
 102.9222102  71.3916801  23.4360563  90.8610635  64.5187907  16.6922643
  90.0641798  64.6306601  17.2106139  90.6336227  64.8574559  15.8263534
  96.6916302  71.0432610  24.6405158  96.7560735  71.5053017  25.4763329
  95.9827226  70.4129975  24.7687467  87.1933592  64.4073818  22.1654157
  87.4441631  65.2920828  22.4311733  87.7293141  64.2278419  21.3929249
 111.0165692  67.8387315  18.8329419 110.2629400  67.2694713  18.6773423
 111.1513233  67.8049980  19.7800053  96.4064320  72.7100717  14.5084138
  96.2709995  73.5552253  14.9368986  96.9474133  72.9119995  13.7450072
  92.8931660  58.7892297  31.1698493  92.4998605  58.2358496  31.8446137
  93.7097800  59.1002876  31.5605011  89.8593717  70.2276155  15.0812063
  90.3718238  71.0219406  15.2317628  90.5116430  69.5302446  15.0145665
  91.6688602  73.3441912  17.1634816  91.8455230  74.2659876  16.9755800
  92.4645436  73.0300331  17.5929196  95.8099621  60.2050176  28.7618750
  96.5509334  60.8057329  28.6823212  96.0417543  59.4627814  28.2036792
  90.9540959  65.3906544  27.0396979  90.8394474  64.4891801  27.3404078
  90.0985476  65.6370240  26.6881796  98.0332796  73.3324284  28.6384480
  97.5896651  72.5460662  28.3205385  98.6950010  73.5203434  27.9728371
  92.7919918  74.8620085  23.1645159  93.3427343  74.7337149  22.3922152
  91.9531393  75.1614974  22.8140051 100.1314034  73.6127084  26.6665881
 100.1132510  74.4335965  26.1746150 101.0533955  73.4881159  26.8916022
  96.5887089  71.1271213  27.5089390  97.1215425  70.3659501  27.2788698
  96.0601170  70.8344865  28.2513544  99.7556784  56.2331279  23.0383031
  99.4121053  57.1232921  22.9622142 100.1235746  56.0432937  22.1752616
  87.8242634  68.5564810  15.8571634  88.6617856  68.9661818  15.6405341
  88.0020902  67.6164252  15.8271827  99.7207066  66.2239890  11.5455467
  99.2053690  66.9944495  11.7843854  99.4484375  65.5505026  12.1688528
  97.3054177  61.0689591  16.6040705  96.4495774  60.6796442  16.4246344
  97.7181129  61.1481552  15.7440490  98.8353324  58.6035934  21.0032265
  98.3318120  58.5666070  20.1900070  99.1283931  59.5128677  21.0628921
  95.0796210  58.6874664  20.0098446  95.9449207  58.4917473  19.6504336
  95.1473719  58.4585016  20.9367803 104.6941340  68.9772245  13.4808640
 103.9170783  68.6383404  13.0363802 105.3732821  68.9824868  12.8063605
  99.5093369  64.0966982  13.3715248  99.2043505  64.4113132  14.2225391
 100.4623812  64.1748402  13.4142581  97.9539801  70.2557206  15.0208202
  97.4261163  69.5209965  14.7081439  97.4527304  71.0331882  14.7748170
 102.9332647  68.4506226  20.1375248 102.2756322  69.1405488  20.2255377
 103.7373047  68.8402658  20.4809234  92.6858529  60.9176872  17.3814813
  93.2602281  60.6952054  16.6488006  93.2729511  60.9865567  18.1343415
 101.7438106  66.8050599  18.1879190 102.2569988  67.4380591  18.6900899
 102.3939330  66.2051794  17.8222550  93.0128116  62.9481333  11.4010698
  92.1765428  63.2856020  11.7219973  92.8732886  62.8130313  10.4637835
  94.9881197  57.7918121  16.1089883  94.3345609  57.4767138  15.4846497
  94.9461671  57.1693861  16.8349706  96.0992402  68.0737416   8.0243175
  95.1919463  67.8426669   8.2234324  96.5963433  67.2775035   8.2117156
  98.2218937  64.2800054  20.4337530  97.3041498  64.5015001  20.2759218
  98.6379081  64.3546365  19.5749238  99.0053985  65.6791470  15.5640211
  99.7525804  66.1912867  15.2547333  99.2745574  65.3575523  16.4244604
  97.2780635  68.1750011  12.5467165  96.3691854  67.8909044  12.6439635
  97.3075719  68.5949089  11.6870472 102.5099902  71.7856600  16.3158332
 102.0562229  70.9447510  16.3723523 101.8793869  72.4217999  16.6533113
 101.4532822  62.7148586  17.5459000 100.7155579  62.2025973  17.8769242
 101.7059595  62.2748968  16.7342277 100.9532842  73.6233097  17.2508151
 101.2455816  74.1838154  16.5320516 101.4631462  73.9161658  18.0061310
 101.5544449  55.4924838  18.1400769 101.8603326  54.6322202  17.8526684
 102.2797054  56.0842459  17.9399763  87.8468805  65.8955525  16.5282367
  87.6493205  65.3024886  15.8033434  87.2915469  65.5907735  17.2458306
  95.8265529  65.7878631  18.6476960  95.8814139  64.8352468  18.5719437
  95.0156731  65.9438071  19.1318259  96.9756723  69.7158755   9.8855243
  96.5376153  68.9994613   9.4260881  97.7167164  69.9434869   9.3240335
  93.7657889  64.4055691  16.4067339  92.9525754  64.7049862  16.8132531
  94.2616883  64.0111380  17.1241821  95.9166467  74.4013448  18.3401604
  95.8742646  74.6274294  17.4110136  96.8329166  74.1676823  18.4887405
  99.3632101  64.8697516  25.2382233  99.7181488  65.0968989  26.0976699
 100.0104232  65.2015892  24.6159488 105.0929838  67.9915952  15.9431562
 104.9547736  68.1817548  15.0152751 104.7366056  68.7535334  16.3999613
  93.2571964  61.9774047  22.0228574  93.8971343  61.8362806  21.3251537
  92.4249494  61.6908560  21.6467176 105.1199217  70.0592479  20.9542833
 105.5535724  69.9667768  21.8025887 105.8330798  70.0349979  20.3162849
  94.0332268  71.2776477  18.1363566  94.8272866  70.7826797  17.9346141
  93.3223960  70.7494340  17.7731272  98.8527112  73.6594573  22.4875934
  98.9064134  74.2285509  23.2553650  97.9841893  73.8296458  22.1229971
  90.3415031  65.4219559  14.2123319  89.4112619  65.3604014  14.4293281
  90.4372503  64.8995512  13.4159960  90.2600580  61.9474372  16.8001561
  90.5207397  62.8619705  16.6910721  91.0817752  61.4798814  16.9498174
  91.7325505  63.3612129  23.9700385  92.4048559  63.1529491  23.3213034
  90.9055292  63.1634215  23.5305618 105.9814767  70.1016179  23.4875719
 106.1750657  71.0061990  23.7334994 105.8815385  69.6423598  24.3214304
  97.6351077  59.9874070  25.9866046  96.9878992  60.6864019  25.8930523
  98.4052093  60.4210214  26.3542294 101.0429875  70.2522922  29.0616599
 100.8915382  70.0233474  28.1446683 101.0334555  71.2093523  29.0747944
  97.8115212  67.8254835  24.0462866  98.7407272  67.9765994  23.8731833
  97.3906242  67.9138856  23.1911512  96.6103544  71.8505499  21.8161404
  96.4714629  71.4824284  22.6887342  95.8218140  72.3653139  21.6445361
  97.2051696  76.9514596  13.1586940  97.3803451  76.4802639  13.9732563
  96.5184484  77.5780362  13.3868201  98.1608759  71.2287102  19.2050241
  97.8258591  71.1887872  20.1007891  97.6612704  70.5631818  18.7320652
  92.1353003  66.6354732  24.7302822  91.9972801  65.9034971  25.3314362
  93.0457926  66.5463632  24.4487010  94.7635303  66.3474691  24.2186502
  95.4734922  65.7067883  24.1773121  94.7204611  66.5987586  25.1412683
 102.7522082  73.2842045  27.1393081 102.6934628  72.6001265  26.4723664
 103.1541600  74.0261035  26.6873707  93.4764237  63.3339909  26.0382142
  92.9401594  62.8830648  26.6903738  92.8880946  63.4685818  25.2952606
  91.7712781  80.1003958  19.9326800  92.0109379  80.7322483  20.6105819
  90.9281977  79.7491998  20.2192159  92.8866496  62.7928560   8.6008605
  92.0095963  62.6717361   8.2370852  93.3624249  62.0014639   8.3487494
 102.7539489  71.2481628  25.3707061 101.8666268  70.9107550  25.4933460
 103.3238040  70.5164660  25.6075826  84.4068636  67.5805720  18.6950112
  85.0939676  67.2667450  18.1071128  84.2516765  68.4847085  18.4217364
  89.2103359  62.4695917  23.1235136  89.1261547  61.8621586  22.3885546
  88.3886065  62.9604935  23.1244632  96.2840643  75.9083081  22.3368304
  96.2110814  76.7138052  22.8487609  95.8418036  76.1075047  21.5116326
  96.0730422  75.1454851  15.8471126  95.2897944  75.6876531  15.9409350
  96.7723167  75.6628830  16.2465367  99.3827072  60.9549480  18.4905331
  99.8795772  60.2019443  18.1706401  98.6114054  60.9913797  17.9248540
 107.2356830  66.6589846  20.1323623 107.2246706  67.5414561  19.7617556
 106.3674209  66.3061397  19.9378160  98.7439326  75.8069915  24.4926463
  99.4567298  76.4417380  24.4202364  98.2529355  75.9033781  23.6766465
 100.4656853  69.7121168  16.0643755  99.5313132  69.8322630  15.8948459
 100.6433522  68.8093634  15.8003764  95.9662041  63.0966863  18.2177016
  95.5959829  62.5437904  18.9057921  96.4621134  62.4924997  17.6652016
 103.8529404  65.5538487  16.5993789 104.3189857  66.3866478  16.5254091
 104.3036905  65.0883468  17.3039047  93.7951240  73.5564358  25.3132034
  94.4960699  74.1900841  25.4661428  93.3246355  73.8979090  24.5527673
 101.9205636  71.8982308  13.5979941 102.1965479  71.7838903  14.5073815
 101.0510134  71.4999793  13.5592114 101.8246067  57.9219074  20.6384690
 100.9109147  58.1523301  20.8066897 102.2539169  58.0057518  21.4898722
 101.5952526  66.1108966  23.1384584 100.9423976  66.3584873  22.4837037
 101.9732906  65.2973104  22.8047061  98.5559700  76.1468659  17.2412754
  98.7382094  75.3290315  17.7040507  99.3792686  76.3636351  16.8037644
  98.8901865  75.0736844  14.5027803  99.4189632  74.5629299  13.8897965
  99.1530085  74.7579374  15.3673336  97.6440099  66.8528777  29.6250621
  96.9680736  66.7522906  30.2952996  98.4667733  66.6967991  30.0886618
  89.3918958  73.0900713  22.2463136  89.9772395  72.3444401  22.3791041
  89.1943796  73.4004670  23.1299800  92.2457613  76.1251961  17.2625579
  91.5767988  76.6098088  16.7789619  92.1070483  76.3721181  18.1768957
  83.9836613  65.6606314  20.9667580  84.0220712  65.1269904  21.7604698
  83.4776905  65.1341519  20.3478557  96.3862882  78.1595704  23.8608237
  96.9381190  78.3227326  24.6257322  96.7269075  78.7500142  23.1888262
  91.3627375  60.5070854  24.4630122  91.4268701  61.3685685  24.0507520
  91.2994495  59.8944856  23.7302480  90.8379647  62.5793987  28.1103156
  91.4651686  62.1971064  28.7240680  89.9807566  62.3608189  28.4758849
 101.2373756  72.9856962  29.7156892 101.7813660  73.5986920  29.2211846
 100.6560601  73.5436540  30.2323905  87.6145190  64.3870416  14.0421511
  87.9098631  63.4781094  13.9888565  86.7133226  64.3658155  13.7202513
  99.5231269  76.1077680  20.8471919  99.3982408  75.3067420  20.3382865
 100.1810360  76.6023873  20.3585889  91.1439437  62.4626412  20.0249060
  90.4226023  63.0762380  19.8856533  91.9332693  62.9984177  19.9465705
 101.5866177  73.9086700  22.4751469 100.6396513  73.7892051  22.4029796
 101.9348950  73.0209198  22.5577731  93.9465751  59.7980839  26.2989711
  94.4700152  60.0443135  27.0616021  93.7278084  60.6300874  25.8792849
  89.3433032  62.0684513  14.1660836  89.0145738  61.1881892  13.9835942
  89.6972402  62.0132182  15.0537225  98.5912611  73.7039416  18.6755822
  98.4437573  72.7756124  18.8563392  99.4166104  73.7259507  18.1912897
  92.4574855  62.3557483  14.5336314  92.7970927  62.8843404  13.8114922
  92.9046975  62.6937889  15.3094880 102.1946732  74.5267975  19.7620694
 103.1193280  74.3210836  19.6245145 102.0262036  74.2784376  20.6710036
  95.1518296  60.7394534  23.9839382  94.8115116  59.9402347  24.3860062
  94.4457302  61.0396245  23.4116215  95.8034767  57.8243846  22.4366705
  96.6260837  57.3504325  22.3145595  96.0472831  58.6034330  22.9365391
  94.4443002  60.8532105  12.7329607  95.1651364  61.2313358  12.2293323
  93.8208306  61.5720982  12.8364584  98.5874125  61.5577254  13.6687939
  98.8037739  62.4401892  13.3676767  98.1068192  61.1663467  12.9393581
  93.3273346  64.5162967  20.2458683  93.1817927  64.8303270  21.1382965
  92.8498550  65.1347867  19.6929582  95.1869729  61.5065515  20.2939573
  95.1731298  60.6106608  19.9571871  95.9042157  61.5136179  20.9277859
  97.0395860  61.9402855  22.3392700  96.7813638  62.8619926  22.3377031
  96.5080900  61.5433290  23.0293165 101.9842049  75.0453642  15.1182786
 102.1578926  74.4800065  14.3656638 102.4770940  75.8454537  14.9362276
  87.8019008  67.0568311  23.1846345  87.2572476  67.8328119  23.3166619
  88.6798358  67.4039116  23.0265466  94.5906625  60.3879895  15.5627143
  94.7122536  59.4596541  15.7618031  94.3008667  60.4018581  14.6505459
  97.4597815  58.0734806  18.6993863  97.4819512  58.1374139  17.7445843
  97.8765874  57.2339314  18.8934369 107.8381440  67.8090065  16.7373086
 108.2812586  67.0597390  16.3392209 106.9607950  67.8000202  16.3546818
  88.5885030  66.1838208  26.0776501  87.8466766  66.3320843  26.6641132
  88.2677775  66.4446473  25.2143251  96.5328693  75.7254186  25.8756891
  96.8415819  75.4803333  26.7479591  97.3304175  75.9300824  25.3875762
  96.5549305  77.8792096  18.1062268  96.1154295  77.3868474  18.7995125
  97.3057422  77.3365063  17.8654343  89.0341644  74.0703636  18.1086896
  89.8599664  73.7707408  17.7285540  88.6835696  73.3011259  18.5576685
  94.0023177  73.4230105  20.1784570  93.3803186  72.7600810  19.8786798
  94.6728044  73.4491236  19.4958217  87.2350249  71.9889963  19.0675830
  86.3982157  71.5612137  18.8859831  87.2073894  72.1822406  20.0046621
  94.0747705  61.9011893  29.7717076  94.1235860  62.7774015  29.3894845
  94.6170219  61.3589286  29.1988719 104.5602550  72.4453016  29.0518213
 103.7698094  72.4277155  28.5122712 104.3235905  72.9841310  29.8067249
 104.6800425  69.2945482  26.3650941 104.7298430  69.1295490  27.3066464
 104.5714349  68.4272741  25.9748822  93.5636684  71.9734028  13.6543030
  93.7124804  72.6569492  13.0009703  94.3703127  71.9539118  14.1692486
 101.9704188  65.2776410  27.6810248 102.8714050  65.1382875  27.3894246
 102.0452162  65.4430865  28.6208425  96.3046993  62.6543265  26.5263434
  95.4350302  62.9476831  26.2546023  96.5406473  63.2383710  27.2470698
 106.1818622  71.7142424  26.6092963 105.8903430  72.0772404  27.4456424
 105.5690753  71.0009432  26.4306295 107.3814304  69.2795304  19.1295533
 108.2161196  69.7185108  19.2933093 107.5173433  68.8033957  18.3103779
 104.4305810  66.8375038  25.0773021 104.9059932  67.0302685  24.2691872
 103.5071376  66.8934224  24.8316405  91.3189317  67.9999206  14.6604099
  91.0735359  67.0961536  14.8584309  91.4885232  68.0016356  13.7183577
  99.0086027  58.8722882  24.0428855  99.5267971  59.6083909  23.7175343
  98.6541160  59.1786875  24.8775614  90.5884965  63.7327563  12.1590261
  89.8954209  63.8071918  11.5030297  90.3436716  62.9687907  12.6811778
  99.2598621  55.2923164  19.5629751  99.5400375  54.6246354  20.1890178
 100.0449228  55.4852260  19.0504415 103.1307479  63.7140798  23.3101326
 104.0824902  63.8138896  23.3313551 102.9610930  62.9219067  23.8199411
 101.1521859  60.7996382  23.4960727 100.5571791  61.0801394  22.8007216
 100.8671556  61.2890283  24.2677469 105.6095557  66.9346918  22.4243626
 105.5771877  65.9962919  22.6103310 106.2196181  67.0130955  21.6909451
  97.4478888  65.8042971   8.4670830  98.3937993  65.6749179   8.5359248
  97.0693133  65.0657633   8.9440258 105.7590046  63.7257962  22.4701909
 105.2429094  62.9416418  22.2831838 106.6429994  63.3976678  22.6348429
 103.4200773  57.4698977  18.4297722 103.2225594  57.1614065  19.3141054
 104.0300478  58.1960616  18.5595652 111.4272107  67.9962925  21.5649663
 112.1575496  67.7348213  22.1257366 110.8179053  67.2591647  21.6051731
 109.5087404  66.1370788  22.1624114 108.7820568  66.0026753  21.5540606
 109.0934691  66.4447616  22.9680832  97.3317581  69.8560717  29.9271487
  98.2520590  70.0339316  30.1211534  97.2967164  68.9116763  29.7751186
  95.6321805  63.7292948   8.4025715  94.7253261  63.4326060   8.4788429
  95.9097786  63.4322766   7.5360002  86.5499746  65.0499311  18.8524762
  86.2302530  64.1964619  18.5599136  86.0033174  65.2647889  19.6082729
  90.3279653  67.7661752  22.5694268  90.5465663  68.6978860  22.5882302
  90.7405427  67.4069726  23.3549072  97.2483871  58.2729837  14.5569957
  96.4384599  57.9276922  14.9325203  97.9368288  57.9637381  15.1457568
  99.1774419  57.3507884  16.1794253  99.7305458  57.7703337  16.8384276
  99.4144506  56.4243632  16.2217209  95.2007518  63.3394958  31.9597017
  95.1004245  64.2889315  31.8909108  94.9829061  63.0113197  31.0873087
  94.4020590  60.5879883   8.5437695  95.2639754  60.9134781   8.8033512
  94.5870934  59.8011379   8.0310760  86.4188006  68.6702222  20.8217883
  85.7251477  68.2556175  20.3087838  87.1660997  68.7122759  20.2251302
 102.5553226  59.4608409  15.6872918 101.9751895  60.1193213  15.3050970
 102.2889159  58.6385754  15.2760335 101.0056793  58.8613467  17.8894238
 101.5056571  58.9730001  17.0808557 101.6492401  58.5574520  18.5295046
  95.0638789  66.7692097  30.7762079  94.5805870  67.5692457  30.9825968
  95.1499728  66.7800041  29.8229523  88.3324748  68.6020476  18.6983898
  88.3095436  68.7008163  17.7465781  88.6425385  69.4485627  19.0201064
  90.9912126  70.6596631  22.8130513  91.9455380  70.6280574  22.7460444
  90.7924650  70.1987255  23.6280739  91.5811508  69.2297747  25.3801310
  92.4004397  69.7241826  25.4036148  91.8548316  68.3129715  25.3518878
 101.3378104  61.6208500  14.7429266 100.4503959  61.9058150  14.5249461
 101.7532093  61.4602263  13.8956543 104.6892640  61.6455021  18.4583605
 105.4653031  62.1351473  18.7308222 103.9640775  62.0713075  18.9155475
 107.1265199  62.3582640  19.5157546 107.7209690  62.1178376  18.8050854
 107.1991783  61.6389770  20.1431082  89.3462355  76.2016251  19.8300711
  89.2116823  75.4416652  19.2638709  88.9294417  76.9257151  19.3629499
 101.3119128  67.1363036  14.9579556 101.2554329  67.5931587  14.1187188
 101.8647471  66.3753720  14.7802399 105.1223934  62.9252767  15.7829676
 104.8660868  62.5249403  16.6137883 104.4976802  63.6396561  15.6579815
 109.4336272  65.6648841  18.2900967 108.8735830  65.7342030  19.0632529
 108.8279775  65.4889825  17.5700463  92.5031481  77.0985568  20.0419153
  92.3863865  78.0431000  19.9397843  91.6823927  76.7959129  20.4304952
 102.0453907  68.3267817  12.2532085 101.9902711  68.1612088  11.3120529
 101.4199963  69.0343850  12.4094275  86.8346422  63.5635881  26.0793507
  87.4805286  63.0534835  26.5680733  86.6263573  64.3004563  26.6536933
  99.3599815  70.6316729  31.5785648 100.2290974  70.8057381  31.2172283
  98.8806566  71.4511145  31.4561377  95.3550033  57.8275926  11.8317404
  95.3428703  58.7717766  11.9885674  96.2473455  57.6446071  11.5376865
  93.5285995  77.7513830  23.2575082  94.4313241  77.7837440  23.5741577
  93.3023365  76.8214281  23.2721417  95.2839597  76.5044816  19.9185160
  94.3335228  76.5046678  19.8049533  95.5872083  75.7577551  19.4021195
  99.1702152  54.4218702  16.0863340  98.4034548  53.8677189  16.2320023
  99.5812857  54.4940571  16.9477492  91.1743913  60.7103498  30.1768522
  92.0375375  60.3540303  30.3871846  90.6009324  60.3717393  30.8643926
 107.8281997  82.2932783  20.9192447 107.4900508  82.1773847  20.0312982
 108.6971765  81.8923948  20.8993453 108.3101780  83.4467634  26.8778653
 108.2990420  83.0520433  26.0059157 108.4722419  82.7133707  27.4712424
 105.0309041  86.2304746  25.8257837 104.7398907  87.1350377  25.7104503
 105.6666025  86.2721274  26.5401906 105.9565248  83.6081595  22.4159196
 106.5528820  83.3837617  21.7016159 106.0140219  82.8666340  23.0184644
 113.4967406  73.7153616  23.4211718 113.1650731  74.5849027  23.1972933
 112.9013020  73.3989900  24.1005748 103.4411407  82.3679959  18.8544335
 102.5161904  82.2356173  19.0622027 103.6895820  83.1474178  19.3514277
 113.3896070  78.4348702  20.5005068 112.4812947  78.3664110  20.2063829
 113.3383665  78.9120647  21.3286893 100.8020218  82.0113232  19.6888124
 100.9312599  82.2647711  20.6027536 100.1217670  82.6040940  19.3692779
 107.4636935  79.8538347  28.4439965 106.6870269  80.4132268  28.4342830
 108.1027498  80.3395130  28.9654835 115.2557716  76.6365140  22.2782942
 114.6132096  76.9297673  21.6322736 114.7512645  76.5218061  23.0836138
 105.7183308  82.6623801  28.0057932 106.4597992  83.2008845  27.7292756
 105.0120293  83.2890090  28.1629484 111.1938647  84.8052941  26.6030094
 111.6022003  84.3635352  25.8584726 110.4715909  84.2305569  26.8564287
 107.5469717  79.7425548  23.9763651 108.3930913  80.1664962  24.1198300
 107.4868355  79.0859172  24.6702214 110.6969163  77.4029916  25.6344824
 110.4530095  78.1571977  25.0979100 110.9729093  77.7815264  26.4692071
 112.6507625  83.9468529  24.3122090 112.8624521  84.5900289  23.6356471
 112.6037374  83.1130845  23.8444020 110.2533854  76.5586349  21.2158662
 109.3918333  76.8567603  21.5075400 110.2796289  76.7756748  20.2839695
 104.4544671  79.8163449  28.8073242 103.8243332  80.4979730  29.0408639
 104.3480759  79.7046531  27.8626380  99.7489644  79.4835245  19.7339166
  98.9588698  79.7392774  19.2579277 100.2400891  80.2983583  19.8391207
 107.5310057  86.3724528  24.6405158 107.5954489  86.8344935  25.4763329
 106.8220981  85.7421892  24.7687467  98.0327347  79.7365736  22.1654157
  98.2835385  80.6212745  22.4311733  98.5686895  79.5570337  21.3929249
 103.7325414  74.1184215  31.1698493 103.3392360  73.5650413  31.8446137
 104.5491554  74.4294793  31.5605011 106.6493375  75.5342094  28.7618750
 107.3903089  76.1349247  28.6823212 106.8811298  74.7919732  28.2036792
 101.7934713  80.7198461  27.0396979 101.6788228  79.8183718  27.3404078
 100.9379231  80.9662158  26.6881796 108.8726551  88.6616202  28.6384480
 108.4290405  87.8752580  28.3205385 109.5343764  88.8495352  27.9728371
 110.9707789  88.9419001  26.6665881 110.9526264  89.7627883  26.1746150
 111.8927709  88.8173077  26.8916022 107.4280843  86.4563131  27.5089390
 107.9609180  85.6951419  27.2788698 106.8994924  86.1636783  28.2513544
 110.5950538  71.5623197  23.0383031 110.2514807  72.4524839  22.9622142
 110.9629501  71.3724855  22.1752616 109.6747078  73.9327852  21.0032265
 109.1711874  73.8957987  20.1900070 109.9677685  74.8420595  21.0628921
 105.9189964  74.0166582  20.0098446 106.7842961  73.8209390  19.6504336
 105.9867473  73.7876934  20.9367803 103.5252283  76.2468790  17.3814813
 104.0996035  76.0243971  16.6488006 104.1123266  76.3157484  18.1343415
 105.8274951  73.1210039  16.1089883 105.1739363  72.8059056  15.4846497
 105.7855425  72.4985779  16.8349706 109.0612691  79.6091972  20.4337530
 108.1435253  79.8306919  20.2759218 109.4772835  79.6838283  19.5749238
 112.3938204  70.8216756  18.1400769 112.6997081  69.9614120  17.8526684
 113.1190809  71.4134376  17.9399763  98.6862560  81.2247443  16.5282367
  98.4886960  80.6316803  15.8033434  98.1309224  80.9199653  17.2458306
 110.2025855  80.1989433  25.2382233 110.5575243  80.4260907  26.0976699
 110.8497986  80.5307810  24.6159488 104.0965718  77.3065964  22.0228574
 104.7365097  77.1654724  21.3251537 103.2643249  77.0200478  21.6467176
 101.0994335  77.2766289  16.8001561 101.3601152  78.1911623  16.6910721
 101.9211507  76.8090732  16.9498174 102.5719260  78.6904047  23.9700385
 103.2442313  78.4821409  23.3213034 101.7449046  78.4926133  23.5305618
 108.4744832  75.3165987  25.9866046 107.8272747  76.0155937  25.8930523
 109.2445847  75.7502131  26.3542294 111.8823630  85.5814840  29.0616599
 111.7309136  85.3525391  28.1446683 111.8728309  86.5385441  29.0747944
 108.6508966  83.1546752  24.0462866 109.5801026  83.3057912  23.8731833
 108.2299996  83.2430773  23.1911512 102.9746757  81.9646650  24.7302822
 102.8366555  81.2326888  25.3314362 103.8851681  81.8755550  24.4487010
 105.6029058  81.6766609  24.2186502 106.3128676  81.0359801  24.1773121
 105.5598366  81.9279504  25.1412683 104.3157992  78.6631827  26.0382142
 103.7795349  78.2122565  26.6903738 103.7274700  78.7977736  25.2952606
 113.5933244  86.5773546  25.3707061 112.7060023  86.2399468  25.4933460
 114.1631795  85.8456577  25.6075826  95.2462391  82.9097638  18.6950112
  95.9333431  82.5959368  18.1071128  95.0910520  83.8139003  18.4217364
 100.0497113  77.7987834  23.1235136  99.9655302  77.1913504  22.3885546
  99.2279819  78.2896853  23.1244632 110.2220827  76.2841398  18.4905331
 110.7189526  75.5311360  18.1706401 109.4507808  76.3205715  17.9248540
 106.8055796  78.4258781  18.2177016 106.4353583  77.8729821  18.9057921
 107.3014888  77.8216914  17.6652016 104.6344994  88.8856276  25.3132034
 105.3354454  89.5192759  25.4661428 104.1640109  89.2271008  24.5527673
 112.6639822  73.2510991  20.6384690 111.7502901  73.4815218  20.8066897
 113.0932923  73.3349436  21.4898722 112.4346280  81.4400883  23.1384584
 111.7817730  81.6876791  22.4837037 112.8126660  80.6265022  22.8047061
 108.4833853  82.1820695  29.6250621 107.8074490  82.0814824  30.2952996
 109.3061487  82.0259908  30.0886618 100.2312712  88.4192631  22.2463136
 100.8166149  87.6736319  22.3791041 100.0337551  88.7296588  23.1299800
  94.8230367  80.9898231  20.9667580  94.8614467  80.4561822  21.7604698
  94.3170660  80.4633437  20.3478557 102.2021129  75.8362772  24.4630122
 102.2662456  76.6977603  24.0507520 102.1388250  75.2236773  23.7302480
 101.6773402  77.9085904  28.1103156 102.3045441  77.5262982  28.7240680
 100.8201321  77.6900106  28.4758849 112.0767510  88.3148879  29.7156892
 112.6207414  88.9278838  29.2211846 111.4954355  88.8728458  30.2323905
 101.9833192  77.7918330  20.0249060 101.2619777  78.4054298  19.8856533
 102.7726447  78.3276095  19.9465705 104.7859505  75.1272756  26.2989711
 105.3093907  75.3735053  27.0616021 104.5671838  75.9592791  25.8792849
 105.9912050  76.0686452  23.9839382 105.6508871  75.2694265  24.3860062
 105.2851056  76.3688162  23.4116215 106.6428522  73.1535764  22.4366705
 107.4654591  72.6796242  22.3145595 106.8866586  73.9326248  22.9365391
 104.1667101  79.8454885  20.2458683 104.0211681  80.1595188  21.1382965
 103.6892304  80.4639785  19.6929582 106.0263484  76.8357433  20.2939573
 106.0125052  75.9398526  19.9571871 106.7435912  76.8428096  20.9277859
 107.8789614  77.2694773  22.3392700 107.6207392  78.1911843  22.3377031
 107.3474655  76.8725207  23.0293165  98.6412763  82.3860229  23.1846345
  98.0966231  83.1620037  23.3166619  99.5192113  82.7331034  23.0265466
 108.2991570  73.4026723  18.6993863 108.3213267  73.4666056  17.7445843
 108.7159629  72.5631232  18.8934369  99.4278785  81.5130125  26.0776501
  98.6860521  81.6612761  26.6641132  99.1071529  81.7738391  25.2143251
 104.9141459  77.2303810  29.7717076 104.9629615  78.1065933  29.3894845
 105.4563973  76.6881203  29.1988719 115.3996305  87.7744934  29.0518213
 114.6091848  87.7569072  28.5122712 115.1629659  88.3133227  29.8067249
 115.5194180  84.6237400  26.3650941 115.5692185  84.4587407  27.3066464
 115.4108103  83.7564659  25.9748822 112.8097942  80.6068328  27.6810248
 113.7107805  80.4674793  27.3894246 112.8845917  80.7722783  28.6208425
 107.1440748  77.9835183  26.5263434 106.2744057  78.2768749  26.2546023
 107.3800228  78.5675628  27.2470698 115.2699565  82.1666956  25.0773021
 115.7453686  82.3594602  24.2691872 114.3465130  82.2226142  24.8316405
 109.8479781  74.2014800  24.0428855 110.3661725  74.9375827  23.7175343
 109.4934914  74.5078793  24.8775614 110.0992376  70.6215082  19.5629751
 110.3794129  69.9538271  20.1890178 110.8842982  70.8144178  19.0504415
 113.9701234  79.0432716  23.3101326 114.9218657  79.1430814  23.3313551
 113.8004684  78.2510985  23.8199411 111.9915613  76.1288299  23.4960727
 111.3965545  76.4093312  22.8007216 111.7065310  76.6182200  24.2677469
 116.5983800  79.0549879  22.4701909 116.0822849  78.2708336  22.2831838
 117.4823749  78.7268596  22.6348429 114.2594527  72.7990895  18.4297722
 114.0619348  72.4905983  19.3141054 114.8694233  73.5252534  18.5595652
 108.1711335  85.1852635  29.9271487 109.0914345  85.3631234  30.1211534
 108.1360918  84.2408680  29.7751186  97.3893500  80.3791229  18.8524762
  97.0696284  79.5256537  18.5599136  96.8426928  80.5939807  19.6082729
 101.1673408  83.0953670  22.5694268 101.3859417  84.0270777  22.5882302
 101.5799181  82.7361644  23.3549072 110.0168174  72.6799802  16.1794253
 110.5699212  73.0995255  16.8384276 110.2538260  71.7535550  16.2217209
 106.0401273  78.6686875  31.9597017 105.9398000  79.6181232  31.8909108
 105.8222815  78.3405114  31.0873087  97.2581760  83.9994140  20.8217883
  96.5645232  83.5848093  20.3087838  98.0054751  84.0414677  20.2251302
 105.9032543  82.0984014  30.7762079 105.4199625  82.8984374  30.9825968
 105.9893482  82.1091959  29.8229523  99.1718503  83.9312394  18.6983898
  99.1489191  84.0300081  17.7465781  99.4819139  84.7777545  19.0201064
 101.8305880  85.9888549  22.8130513 102.7849134  85.9572491  22.7460444
 101.6318404  85.5279173  23.6280739 102.4205263  84.5589665  25.3801310
 103.2398152  85.0533744  25.4036148 102.6942070  83.6421633  25.3518878
  97.6740177  78.8927799  26.0793507  98.3199040  78.3826753  26.5680733
  97.4657328  79.6296480  26.6536933 110.1993569  85.9608646  31.5785648
 111.0684729  86.1349299  31.2172283 109.7200321  86.7803063  31.4561377
 110.0095907  69.7510620  16.0863340 109.2428303  69.1969107  16.2320023
 110.4206612  69.8232489  16.9477492 102.0137668  76.0395416  30.1768522
 102.8769129  75.6832221  30.3871846 101.4403079  75.7009311  30.8643926
 114.5719169  89.4476133  31.1698493 114.1786114  88.8942331  31.8446137
 115.3885309  89.7586711  31.5605011 116.8795027  93.9978793  31.9597017
 116.7791754  94.9473150  31.8909108 116.6616569  93.6697032  31.0873087
 112.8531422  91.3687334  30.1768522 113.7162884  91.0124138  30.3871846
 112.2796833  91.0301228  30.8643926  68.7192494   4.0043331  16.4402198
  69.2632398   4.6173290  15.9457153  68.1379339   4.5622910  16.9569211
  72.0421288   3.4639385  15.7763519  71.2516832   3.4463524  15.2368019
  71.8054643   4.0027679  16.5312556  66.8418552   1.6503098  18.3030955
  67.7109712   1.8243750  17.9417590  66.3625304   2.4697515  18.1806684
  78.5011028  13.3591724   7.7076229  79.1389438  13.2398471   7.0039569
  78.3831871  14.3072568   7.7664181  75.7920517  14.4654004  13.6023959
  75.7809158  14.0706802  12.7304463  75.9541157  13.7320077  14.1957731
  72.5127779  17.2491116  12.5503143  72.2217644  18.1536747  12.4349810
  73.1484763  17.2907643  13.2647213  73.4383985  14.6267964   9.1404503
  74.0347558  14.4023987   8.4261466  73.4958957  13.8852710   9.7429951
  77.4717664  16.9352531   9.5452937  77.1718387  17.8377570   9.4368744
  77.1268723  16.6684714  10.3974090  72.4538443  23.6996852   2.5123905
  72.3762473  24.6504677   2.5912385  71.8500087  23.3542724   3.1698831
  74.9455673  10.8724717  15.1685272  74.1689007  11.4318637  15.1588136
  75.5846236  11.3581500  15.6900142  73.2002045  13.6810170  14.7303239
  73.9416730  14.2195214  14.4538062  72.4939031  14.3076459  14.8874791
  78.6757385  15.8239311  13.3275400  79.0840741  15.3821721  12.5830033
  77.9534647  15.2491938  13.5809593  75.0288455  10.7611918  10.7008957
  75.8749650  11.1851331  10.8443606  74.9687093  10.1045542  11.3947520
  78.9986200  16.3840502   7.0827689  78.3695062  16.5486216   6.3803757
  78.6111862  16.7982111   7.8538653  78.1787900   8.4216286  12.3590131
  77.9348832   9.1758347  11.8224407  78.4547831   8.8001634  13.1937378
  80.1326363  14.9654898  11.0367396  80.3443258  15.6086658  10.3601777
  80.0856112  14.1317215  10.5689326  71.9363409  10.8349819  15.5318549
  71.3062070  11.5166099  15.7653946  71.8299497  10.7232900  14.5871687
  81.2472191  17.8426854   9.2089754  82.0689635  17.4407041   8.9272435
  81.2434594  17.7395088  10.1605870  75.0128795  17.3910897  11.3650464
  75.0773227  17.8531304  12.2008636  74.3039719  16.7608262  11.4932774
  71.2144152   5.1370584  17.8943800  70.8211098   4.5836783  18.5691444
  72.0310292   5.4481163  18.2850317  74.1312113   6.5528464  15.4864056
  74.8721826   7.1535617  15.4068519  74.3630036   5.8106101  14.9282099
  69.2753451  11.7384831  13.7642286  69.1606966  10.8370088  14.0649385
  68.4197969  11.9848528  13.4127103  76.3545289  19.6802571  15.3629787
  75.9109143  18.8938950  15.0450691  77.0162502  19.8681722  14.6973677
  71.1132410  21.2098373   9.8890465  71.6639835  21.0815436   9.1167459
  70.2743886  21.5093262   9.5385358  78.4526527  19.9605371  13.3911188
  78.4345002  20.7814252  12.8991457  79.3746447  19.8359446  13.6161329
  74.9099581  17.4749501  14.2334696  75.4427918  16.7137789  14.0034004
  74.3813662  17.1823152  14.9758851  79.2745334  19.9711384   3.9753457
  79.5668308  20.5316441   3.2565823  79.7843954  20.2639945   4.7306616
  74.2378959  20.7491735   5.0646910  74.1955138  20.9752582   4.1355442
  75.1541658  20.5155110   5.2132712  77.6844593  11.2175803  11.9627540
  78.0393981  11.4447276  12.8222005  78.3316724  11.5494180  11.3404795
  77.1739604  20.0072860   9.2121241  77.2276627  20.5763796   9.9798957
  76.3054386  20.1774745   8.8475278  84.3027259  16.4494466  10.2121026
  84.4963149  17.3540277  10.4580300  84.2027877  15.9901886  11.0459611
  75.9563570   6.3352357  12.7111353  75.3091485   7.0342307  12.6175829
  76.7264585   6.7688501  13.0787601  79.3642368  16.6001209  15.7861906
  79.2127874  16.3711761  14.8691990  79.3547047  17.5571811  15.7993251
  76.1327704  14.1733122  10.7708173  77.0619764  14.3244282  10.5977140
  75.7118734  14.2617143   9.9156819  74.9316036  18.1983786   8.5406710
  74.7927122  17.8302571   9.4132648  74.1430632  18.7131426   8.3690668
  76.4821251  17.5765389   5.9295548  76.1471084  17.5366159   6.8253198
  75.9825197  16.9110105   5.4565958  70.4565495  12.9833019  11.4548129
  70.3185293  12.2513258  12.0559668  71.3670418  12.8941919  11.1732317
  73.0847796  12.6952978  10.9431809  73.7947414  12.0546171  10.9018427
  73.0417104  12.9465873  11.8657990  81.0734574  19.6320332  13.8638388
  81.0147120  18.9479552  13.1968971  81.4754093  20.3739322  13.4119014
  71.7976730   9.6818196  12.7627448  71.2614087   9.2308935  13.4149045
  71.2093438   9.8164105  12.0197913  70.0925273  26.4482246   6.6572107
  70.3321871  27.0800770   7.3351125  69.2494470  26.0970286   6.9437466
  81.0751982  17.5959916  12.0952368  80.1878760  17.2585838  12.2178767
  81.6450533  16.8642947  12.3321133  74.6053135  22.2561368   9.0613611
  74.5323306  23.0616340   9.5732915  74.1630528  22.4553334   8.2361632
  77.0651818  22.1548202  11.2171770  77.7779791  22.7895667  11.1447671
  76.5741847  22.2512068  10.4011771  72.1163732  19.9042646  12.0377340
  72.8173192  20.5379129  12.1906735  71.6458847  20.2457377  11.2772980
  79.9165018  12.4587253   9.8629891  79.2636468  12.7063160   9.2082343
  80.2945398  11.6451391   9.5292368  76.8772192  22.4946946   3.9658061
  77.0594586  21.6768602   4.4285813  77.7005178  22.7114638   3.5282951
  75.9652591  13.2007064  16.3495928  75.2893228  13.1001193  17.0198303
  76.7880225  13.0446278  16.8131925  67.7131450  19.4379001   8.9708443
  68.2984887  18.6922689   9.1036347  67.5156289  19.7482957   9.8545107
  74.7075374  24.5073992  10.5853544  75.2593682  24.6705613  11.3502629
  75.0481567  25.0978429   9.9133569  69.1592140   8.9272274  14.8348463
  69.7864178   8.5449351  15.4485987  68.3020058   8.7086476  15.2004155
  79.5586248  19.3335249  16.4402198  80.1026152  19.9465207  15.9457153
  78.9773093  19.8914827  16.9569211  77.8443761  22.4555967   7.5717226
  77.7194901  21.6545707   7.0628171  78.5022852  22.9502160   7.0831196
  79.9078670  20.2564987   9.1996776  78.9609005  20.1370338   9.1275103
  80.2561443  19.3687485   9.2823037  72.2678243   6.1459126  13.0235018
  72.7912645   6.3921423  13.7861327  72.0490576   6.9779161  12.6038155
  76.9125103  20.0517703   5.4001128  76.7650065  19.1234411   5.5808698
  77.7378596  20.0737794   4.9158203  80.5159225  20.8746262   6.4866001
  81.4405772  20.6689123   6.3490452  80.3474528  20.6262663   7.3955342
  66.9097523  12.5316495  12.8021808  66.1679259  12.6799130  13.3886439
  66.5890267  12.7924760  11.9388558  74.8541185  22.0732473  12.6002198
  75.1628312  21.8281620  13.4724898  75.6516667  22.2779112  12.1121068
  74.8761797  24.2270383   4.8307575  74.4366788  23.7346761   5.5240431
  75.6269914  23.6843350   4.5899650  72.3235669  19.7708392   6.9029876
  71.7015679  19.1079097   6.6032104  72.9940536  19.7969524   6.2203524
  72.3960197   8.2490180  16.4962382  72.4448352   9.1252303  16.1140152
  72.9382711   7.7067573  15.9234026  82.8815043  18.7931303  15.7763519
  82.0910586  18.7755442  15.2368019  82.6448397  19.3319597  16.5312556
  83.0012918  15.6423769  13.0896248  83.0510923  15.4773777  14.0311771
  82.8926841  14.7751029  12.6994129  80.2916680  11.6254698  14.4055555
  81.1926543  11.4861162  14.1139552  80.3664655  11.7909152  15.3453732
  74.6259485   9.0021552  13.2508741  73.7562795   9.2955118  12.9791330
  74.8618966   9.5861997  13.9716005  84.5031114  18.0620711  13.3338270
  84.2115923  18.4250692  14.1701730  83.8903246  17.3487719  13.1551602
  82.7518303  13.1853326  11.8018328  83.2272424  13.3780972  10.9937179
  81.8283868  13.2412511  11.5561711  79.4734351   7.1474669  10.2206034
  78.8784283   7.4279682   9.5252523  79.1884048   7.6368570  10.9922775
  75.6530073  16.2039005  16.6516794  76.5733082  16.3817604  16.8456840
  75.6179656  15.2595050  16.4996493  73.5220011   9.6873245  18.6842324
  73.4216738  10.6367602  18.6154415  73.3041553   9.3591484  17.8118394
  73.3851281  13.1170384  17.5007386  72.9018362  13.9170744  17.7071275
  73.4712220  13.1278329  16.5474830  69.3124618  17.0074918   9.5375819
  70.2667872  16.9758861   9.4705751  69.1137142  16.5465542  10.3526045
  69.9024000  15.5776035  12.1046617  70.7216889  16.0720113  12.1281454
  70.1760808  14.6608003  12.0764184  67.6674847  22.5494538   6.5546017
  67.5329315  21.7894939   5.9884015  67.2506909  23.2735438   6.0874806
  70.8243973  23.4463855   6.7664460  70.7076357  24.3909287   6.6643150
  70.0036419  23.1437417   7.1550259  77.6812307  16.9795016  18.3030955
  78.5503466  17.1535668  17.9417590  77.2019058  17.7989433  18.1806684
  71.8498487  24.0992117   9.9820388  72.7525734  24.1315727  10.2986883
  71.6235857  23.1692568   9.9966724  73.6052089  22.8523103   6.6430467
  72.6547720  22.8524965   6.5294839  73.9084575  22.1055838   6.1266502
  69.4956406   7.0581785  16.9013828  70.3587867   6.7018590  17.1117153
  68.9221816   6.7195680  17.5889233  89.3404783  28.6883642   7.7076229
  89.9783193  28.5690389   7.0039569  89.2225625  29.6364486   7.7664181
  86.1494489  28.6411070   7.6437754  85.8113000  28.5252135   6.7558289
  87.0184257  28.2402235   7.6238760  82.0081305  30.4946546   3.6334645
  81.4446170  30.4036483   2.8650933  81.8933700  29.6746451   4.1137137
  86.6314272  29.7945922  13.6023959  86.6202913  29.3998720  12.7304463
  86.7934911  29.0611994  14.1957731  79.5545736  31.9897738   6.4718865
  80.3467028  31.6488563   6.0565165  79.7942387  32.0992713   7.3921019
  81.5136490  31.2506651  -0.6563756  82.2867366  30.7035638  -0.7950880
  81.8661889  32.1150900  -0.4449294  83.3521533  32.5783033  12.5503143
  83.0611399  33.4828664  12.4349810  83.9878517  32.6199561  13.2647213
  84.2777740  29.9559882   9.1404503  84.8741312  29.7315904   8.4261466
  84.3352711  29.2144627   9.7429951  88.3111418  32.2644449   9.5452937
  88.0112141  33.1669488   9.4368744  87.9662478  31.9976632  10.3974090
  81.7623900  28.7158246   5.5789642  80.8374396  28.5834460   5.7867333
  82.0108313  29.4952465   6.0759584  79.1232711  28.3591519   6.4133431
  79.2525092  28.6125998   7.3272842  78.4430162  28.9519227   6.0938086
  83.2932198  39.0288769   2.5123905  83.2156228  39.9796594   2.5912385
  82.6893841  38.6834642   3.1698831  85.7849428  26.2016635  15.1685272
  85.0082762  26.7610555  15.1588136  86.4239991  26.6873418  15.6900142
  84.0395800  29.0102088  14.7303239  84.7810484  29.5487132  14.4538062
  83.3332785  29.6368377  14.8874791  89.5151140  31.1531229  13.3275400
  89.9234496  30.7113639  12.5830033  88.7928401  30.5783856  13.5809593
  85.8682210  26.0903835  10.7008957  86.7143405  26.5143249  10.8443606
  85.8080847  25.4337460  11.3947520  89.8379954  31.7132419   7.0827689
  89.2088817  31.8778133   6.3803757  89.4505616  32.1274029   7.8538653
  89.0181655  23.7508204  12.3590131  88.7742587  24.5050264  11.8224407
  89.2941585  24.1293551  13.1937378  90.9720118  30.2946816  11.0367396
  91.1837013  30.9378576  10.3601777  90.9249866  29.4609133  10.5689326
  85.3907916  31.4506827   4.3477774  85.8546262  31.7294530   3.5582397
  85.1264714  30.5490272   4.1650865  82.2831997  30.9978309   7.2857537
  82.8533354  31.4265577   6.6475022  82.8740109  30.7160894   7.9841723
  82.7757164  26.1641736  15.5318549  82.1455824  26.8458017  15.7653946
  82.6693252  26.0524818  14.5871687  78.0702136  25.8313532   6.4584473
  77.2801190  26.0871061   5.9824584  78.5613383  26.6461870   6.5636513
  92.0865946  33.1718771   9.2089754  92.9083389  32.7698959   8.9272435
  92.0828349  33.0687006  10.1605870  80.0216882  26.1958112   3.4167950
  79.2248045  26.3076806   3.9351445  79.7942474  26.5344764   2.5508840
  85.8522549  32.7202815  11.3650464  85.9166982  33.1823222  12.2008636
  85.1433473  32.0900180  11.4932774  76.3539839  26.0844023   8.8899464
  76.6047878  26.9691033   9.1557040  76.8899388  25.9048624   8.1174556
  85.5670567  34.3870922   1.2329445  85.4316242  35.2322458   1.6614292
  86.1080379  34.5890200   0.4695378  82.0537906  20.4662502  17.8943800
  81.6604852  19.9128701  18.5691444  82.8704047  20.7773081  18.2850317
  79.0199964  31.9046360   1.8057370  79.5324485  32.6989611   1.9562934
  79.6722677  31.2072651   1.7390971  80.8294849  35.0212117   3.8880123
  81.0061477  35.9430081   3.7001107  81.6251682  34.7070536   4.3174503
  84.9705867  21.8820381  15.4864056  85.7115581  22.4827534  15.4068519
  85.2023790  21.1398019  14.9282099  80.1147205  27.0676748  13.7642286
  80.0000721  26.1662006  14.0649385  79.2591723  27.3140445  13.4127103
  87.1939043  35.0094489  15.3629787  86.7502897  34.2230867  15.0450691
  87.8556257  35.1973639  14.6973677  81.9526164  36.5390290   9.8890465
  82.5033589  36.4107354   9.1167459  81.1137640  36.8385179   9.5385358
  89.2920281  35.2897289  13.3911188  89.2738757  36.1106170  12.8991457
  90.2140201  35.1651364  13.6161329  85.7493335  32.8041418  14.2334696
  86.2821672  32.0429706  14.0034004  85.2207416  32.5115070  14.9758851
  76.9848881  30.2335015   2.5816940  77.8224103  30.6432023   2.3650648
  77.1627149  29.2934457   2.5517134  87.3825184  25.9570259   7.1582837
  86.4647745  26.1785206   7.0004525  87.7985327  26.0316570   6.2994544
  90.1139088  35.3003302   3.9753457  90.4062063  35.8608359   3.2565823
  90.6237709  35.5931863   4.7306616  77.0075052  27.5725730   3.2527674
  76.8099452  26.9795091   2.5278740  76.4521716  27.2677940   3.9703612
  84.9871776  27.4648836   5.3722267  85.0420386  26.5122673   5.2964743
  84.1762978  27.6208275   5.8563565  82.9264136  26.0825896   3.1312646
  82.1132001  26.3820067   3.5377838  83.4223130  25.6881585   3.8487128
  85.0772714  36.0783653   5.0646910  85.0348892  36.3044499   4.1355442
  85.9935412  35.8447028   5.2132712  88.5238347  26.5467721  11.9627540
  88.8787735  26.7739194  12.8222005  89.1710479  26.8786097  11.3404795
  82.4178210  23.6544252   8.7473881  83.0577590  23.5133011   8.0496844
  81.5855741  23.3678765   8.3712483  83.1938514  32.9546682   4.8608873
  83.9879113  32.4597002   4.6591448  82.4830207  32.4264545   4.4976579
  88.0133359  35.3364778   9.2121241  88.0670381  35.9055714   9.9798957
  87.1448140  35.5066663   8.8475278  79.5021278  27.0989764   0.9368626
  78.5718866  27.0374219   1.1538588  79.5978750  26.5765717   0.1405267
  79.4206827  23.6244577   3.5246867  79.6813644  24.5389910   3.4156028
  80.2423999  23.1569019   3.6743480  80.8931752  25.0382334  10.6945692
  81.5654806  24.8299696  10.0458341  80.0661539  24.8404420  10.2550924
  95.1421013  31.7786384  10.2121026  95.3356904  32.6832195  10.4580300
  95.0421632  31.3193803  11.0459611  86.7957324  21.6644275  12.7111353
  86.1485239  22.3634224  12.6175829  87.5658340  22.0980419  13.0787601
  90.2036122  31.9293127  15.7861906  90.0521629  31.7003679  14.8691990
  90.1940802  32.8863728  15.7993251  86.9721459  29.5025040  10.7708173
  87.9013519  29.6536199  10.5977140  86.5512489  29.5909060   9.9156819
  85.7709790  33.5275704   8.5406710  85.6320876  33.1594488   9.4132648
  84.9824387  34.0423343   8.3690668  86.3657942  38.6284801  -0.1167753
  86.5409698  38.1572844   0.6977869  85.6790730  39.2550567   0.1113507
  87.3215005  32.9057307   5.9295548  86.9864838  32.8658077   6.8253198
  86.8218951  32.2402023   5.4565958  81.2959249  28.3124937  11.4548129
  81.1579047  27.5805176  12.0559668  82.2064173  28.2233837  11.1732317
  83.9241550  28.0244896  10.9431809  84.6341169  27.3838088  10.9018427
  83.8810858  28.2757791  11.8657990  91.9128329  34.9612249  13.8638388
  91.8540875  34.2771470  13.1968971  92.3147847  35.7031239  13.4119014
  82.6370484  25.0110114  12.7627448  82.1007841  24.5600852  13.4149045
  82.0487193  25.1456023  12.0197913  80.9319028  41.7774163   6.6572107
  81.1715626  42.4092687   7.3351125  80.0888224  41.4262203   6.9437466
  91.9145736  32.9251833  12.0952368  91.0272515  32.5877755  12.2178767
  92.4844287  32.1934865  12.3321133  73.5674883  29.2575925   5.4195419
  74.2545923  28.9437655   4.8316434  73.4123012  30.1617290   5.1462670
  78.3709605  24.1466122   9.8480443  78.2867794  23.5391791   9.1130853
  77.5492312  24.6375140   9.8489939  85.4446889  37.5853286   9.0613611
  85.3717061  38.3908257   9.5732915  85.0024283  37.7845252   8.2361632
  85.2336669  36.8225056   2.5716432  84.4504191  37.3646736   2.6654657
  85.9329414  37.3399035   2.9710674  87.9045573  37.4840120  11.2171770
  88.6173545  38.1187585  11.1447671  87.4135602  37.5803986  10.4011771
  82.9557487  35.2334563  12.0377340  83.6566946  35.8671046  12.1906735
  82.4852602  35.5749295  11.2772980  90.7558772  27.7879171   9.8629891
  90.1030223  28.0355078   9.2082343  91.1339152  26.9743309   9.5292368
  87.7165946  37.8238864   3.9658061  87.8988341  37.0060520   4.4285813
  88.5398932  38.0406556   3.5282951  88.0508112  36.7507049   1.2273109
  88.5795878  36.2399504   0.6143272  88.3136331  36.4349579   2.0918642
  86.8046345  28.5298982  16.3495928  86.1286983  28.4293111  17.0198303
  87.6273979  28.3738195  16.8131925  78.5525205  34.7670918   8.9708443
  79.1378641  34.0214606   9.1036347  78.3550043  35.0774875   9.8545107
  81.4063860  37.8022166   3.9870885  80.7374235  38.2868293   3.5034925
  81.2676729  38.0491386   4.9014264  73.1442859  27.3376519   7.6912886
  73.1826959  26.8040109   8.4850004  72.6383152  26.8111724   7.0723863
  85.5469128  39.8365909  10.5853544  86.0987436  39.9997531  11.3502629
  85.8875322  40.4270347   9.9133569  80.5233622  22.1841059  11.1875428
  80.5874948  23.0455890  10.7752826  80.4600742  21.5715061  10.4547787
  79.9985894  24.2564192  14.8348463  80.6257933  23.8741269  15.4485987
  79.1413813  24.0378393  15.2004155  90.3980003  34.6627167  16.4402198
  90.9419907  35.2757125  15.9457153  89.8166848  35.2206745  16.9569211
  76.7751437  26.0640621   0.7666818  77.0704878  25.1551299   0.7133871
  75.8739473  26.0428360   0.4447820  88.6837516  37.7847885   7.5717226
  88.5588655  36.9837625   7.0628171  89.3416607  38.2794078   7.0831196
  80.3045684  24.1396617   6.7494366  79.5832270  24.7532585   6.6101839
  81.0938940  24.6754382   6.6711012  90.7472424  35.5856905   9.1996776
  89.8002760  35.4662256   9.1275103  91.0955197  34.6979403   9.2823037
  83.1071997  21.4751044  13.0235018  83.6306399  21.7213340  13.7861327
  82.8884331  22.3071079  12.6038155  78.5039278  23.7454718   0.8906143
  78.1751985  22.8652097   0.7081249  78.8578649  23.6902387   1.7782532
  87.7518857  35.3809621   5.4001128  87.6043820  34.4526328   5.5808698
  88.5772351  35.4029712   4.9158203  91.3552979  36.2038180   6.4866001
  92.2799527  35.9981041   6.3490452  91.1868283  35.9554581   7.3955342
  84.3124542  22.4164739  10.7084688  83.9721363  21.6172552  11.1105368
  83.6063549  22.7166450  10.1361522  84.9641014  19.5014051   9.1612011
  85.7867084  19.0274529   9.0390902  85.2079078  20.2804535   9.6610698
  82.4879593  26.1933172   6.9703990  82.3424174  26.5073475   7.8628272
  82.0104797  26.8118072   6.4174889  84.3475976  23.1835720   7.0184880
  84.3337545  22.2876813   6.6817178  85.0648404  23.1906384   7.6523166
  86.2002107  23.6173060   9.0638007  85.9419884  24.5390131   9.0622337
  85.6687147  23.2203495   9.7538471  76.9625255  28.7338516   9.9091651
  76.4178723  29.5098324  10.0411926  77.8404605  29.0809321   9.7510773
  77.7491277  27.8608413  12.8021808  77.0073013  28.0091048  13.3886439
  77.4284021  28.1216678  11.9388558  85.6934940  37.4024391  12.6002198
  86.0022066  37.1573538  13.4724898  86.4910422  37.6071029  12.1121068
  85.7155552  39.5562300   4.8307575  85.2760542  39.0638679   5.5240431
  86.4663669  39.0135268   4.5899650  78.1947891  35.7473841   4.8332203
  79.0205911  35.4477613   4.4530846  77.8441943  34.9781464   5.2821991
  83.1629424  35.1000310   6.9029876  82.5409433  34.4371015   6.6032104
  83.8334291  35.1261441   6.2203524  76.3956496  33.6660168   5.7921136
  75.5588404  33.2382342   5.6105138  76.3680141  33.8592611   6.7291928
  83.2353951  23.5782098  16.4962382  83.2842107  24.4544220  16.1140152
  83.7776466  23.0359491  15.9234026  93.7208797  34.1223221  15.7763519
  92.9304341  34.1047360  15.2368019  93.4842152  34.6611514  16.5312556
  93.8406672  30.9715687  13.0896248  93.8904677  30.8065695  14.0311771
  93.7320595  30.1042946  12.6994129  82.7242931  33.6504233   0.3788337
  82.8731051  34.3339697  -0.2744990  83.5309374  33.6309323   0.8937793
  91.1310435  26.9546615  14.4055555  92.0320297  26.8153080  14.1139552
  91.2058409  27.1201070  15.3453732  85.4653240  24.3313470  13.2508741
  84.5956549  24.6247036  12.9791330  85.7012720  24.9153915  13.9716005
  95.3424869  33.3912629  13.3338270  95.0509677  33.7542609  14.1701730
  94.7297000  32.6779637  13.1551602  93.5912057  28.5145243  11.8018328
  94.0666179  28.7072890  10.9937179  92.6677623  28.5704429  11.5561711
  80.4795564  29.6769410   1.3849406  80.2341606  28.7731740   1.5829616
  80.6491478  29.6786561   0.4428884  88.1692274  20.5493087  10.7674161
  88.6874218  21.2854114  10.4420650  87.8147406  20.8557080  11.6020921
  90.3128106  22.4766587  10.2206034  89.7178038  22.7571599   9.5252523
  90.0277802  22.9660488  10.9922775  86.4923827  31.5330922  16.6516794
  87.4126837  31.7109521  16.8456840  86.4573410  30.5886968  16.4996493
  75.7105992  26.7269516   5.5770068  75.3908777  25.8734824   5.2844442
  75.1639421  26.9418094   6.3328036  79.4885900  29.4431957   9.2939575
  79.7071910  30.3749065   9.3127609  79.9011674  29.0839931  10.0794379
  84.3613765  25.0165163  18.6842324  84.2610492  25.9659520  18.6154415
  84.1435307  24.6883402  17.8118394  75.5794252  30.3472427   7.5463190
  74.8857724  29.9326380   7.0333144  76.3267243  30.3892964   6.9496609
  84.2245035  28.4462301  17.5007386  83.7412117  29.2462662  17.7071275
  84.3105974  28.4570246  16.5474830  77.4930995  30.2790681   5.4229205
  77.4701683  30.3778368   4.4711088  77.8031631  31.1255832   5.7446371
  80.1518373  32.3366836   9.5375819  81.1061626  32.3050778   9.4705751
  79.9530896  31.8757460  10.3526045  80.7417755  30.9067952  12.1046617
  81.5610644  31.4012031  12.1281454  81.0154563  29.9899920  12.0764184
  78.5068602  37.8786456   6.5546017  78.3723069  37.1186857   5.9884015
  78.0900664  38.6027355   6.0874806  81.6637727  38.7755773   6.7664460
  81.5470112  39.7201205   6.6643150  80.8430174  38.4729334   7.1550259
  75.9952669  25.2406086  12.8038814  76.6411533  24.7305040  13.2926039
  75.7869820  25.9774768  13.3782239  88.5206061  32.3086934  18.3030955
  89.3897221  32.4827586  17.9417590  88.0412813  33.1281350  18.1806684
  82.6892242  39.4284035   9.9820388  83.5919488  39.4607645  10.2986883
  82.4629612  38.4984486   9.9966724  84.4445844  38.1815021   6.6430467
  83.4941475  38.1816883   6.5294839  84.7478330  37.4347756   6.1266502
  80.3350160  22.3873703  16.9013828  81.1981622  22.0310508  17.1117153
  79.7615571  22.0487598  17.5889233 100.1798537  44.0175559   7.7076229
 100.8176947  43.8982307   7.0039569 100.0619380  44.9656403   7.7664181
  96.9888243  43.9702988   7.6437754  96.6506755  43.8544052   6.7558289
  97.8578012  43.5694153   7.6238760  92.8475059  45.8238464   3.6334645
  92.2839924  45.7328401   2.8650933  92.7327454  45.0038368   4.1137137
  97.4708026  45.1237839  13.6023959  97.4596667  44.7290638  12.7304463
  97.6328666  44.3903912  14.1957731  90.3939491  47.3189656   6.4718865
  91.1860783  46.9780480   6.0565165  90.6336141  47.4284631   7.3921019
  92.3530245  46.5798569  -0.6563756  93.1261121  46.0327556  -0.7950880
  92.7055644  47.4442818  -0.4449294  94.1915287  47.9074951  12.5503143
  93.9005153  48.8120582  12.4349810  94.8272272  47.9491479  13.2647213
  95.1171494  45.2851800   9.1404503  95.7135067  45.0607822   8.4261466
  95.1746466  44.5436545   9.7429951  99.1505173  47.5936367   9.5452937
  98.8505896  48.4961405   9.4368744  98.8056232  47.3268550  10.3974090
  92.6017654  44.0450163   5.5789642  91.6768151  43.9126378   5.7867333
  92.8502067  44.8244383   6.0759584  89.9626465  43.6883437   6.4133431
  90.0918846  43.9417916   7.3272842  89.2823916  44.2811145   6.0938086
  94.1325952  54.3580687   2.5123905  94.0549982  55.3088512   2.5912385
  93.5287596  54.0126559   3.1698831  96.6243182  41.5308552  15.1685272
  95.8476516  42.0902473  15.1588136  97.2633745  42.0165335  15.6900142
  94.8789554  44.3394006  14.7303239  95.6204239  44.8779050  14.4538062
  94.1726540  44.9660295  14.8874791 100.3544894  46.4823146  13.3275400
 100.7628250  46.0405557  12.5830033  99.6322156  45.9075774  13.5809593
  96.7075964  41.4195753  10.7008957  97.5537159  41.8435167  10.8443606
  96.6474602  40.7629377  11.3947520 100.6773709  47.0424337   7.0827689
 100.0482571  47.2070051   6.3803757 100.2899371  47.4565946   7.8538653
  99.8575409  39.0800121  12.3590131  99.6136341  39.8342182  11.8224407
 100.1335340  39.4585469  13.1937378 101.8113872  45.6238734  11.0367396
 102.0230767  46.2670494  10.3601777 101.7643620  44.7901050  10.5689326
  96.2301671  46.7798745   4.3477774  96.6940016  47.0586448   3.5582397
  95.9658469  45.8782190   4.1650865  93.1225752  46.3270226   7.2857537
  93.6927109  46.7557495   6.6475022  93.7133864  46.0452811   7.9841723
  93.6150918  41.4933654  15.5318549  92.9849579  42.1749935  15.7653946
  93.5087006  41.3816736  14.5871687  88.9095891  41.1605450   6.4584473
  88.1194945  41.4162979   5.9824584  89.4007138  41.9753788   6.5636513
 102.9259700  48.5010689   9.2089754 103.7477144  48.0990876   8.9272435
 102.9222103  48.3978923  10.1605870  90.8610636  41.5250029   3.4167950
  90.0641799  41.6368723   3.9351445  90.6336228  41.8636681   2.5508840
  96.6916304  48.0494732  11.3650464  96.7560736  48.5115140  12.2008636
  95.9827228  47.4192097  11.4932774  87.1933594  41.4135940   8.8899464
  87.4441632  42.2982950   9.1557040  87.7293142  41.2340542   8.1174556
  96.4064321  49.7162840   1.2329445  96.2709996  50.5614376   1.6614292
  96.9474134  49.9182118   0.4695378  92.8931661  35.7954420  17.8943800
  92.4998606  35.2420618  18.5691444  93.7097801  36.1064998  18.2850317
  89.8593719  47.2338278   1.8057370  90.3718239  48.0281528   1.9562934
  90.5116431  46.5364568   1.7390971  91.6688603  50.3504034   3.8880123
  91.8455232  51.2721999   3.7001107  92.4645437  50.0362453   4.3174503
  95.8099622  37.2112299  15.4864056  96.5509335  37.8119452  15.4068519
  96.0417545  36.4689937  14.9282099  90.9540960  42.3968666  13.7642286
  90.8394475  41.4953923  14.0649385  90.0985478  42.6432363  13.4127103
  98.0332798  50.3386406  15.3629787  97.5896652  49.5522785  15.0450691
  98.6950011  50.5265557  14.6973677  92.7919919  51.8682208   9.8890465
  93.3427344  51.7399271   9.1167459  91.9531395  52.1677097   9.5385358
 100.1314036  50.6189206  13.3911188 100.1132511  51.4398087  12.8991457
 101.0533956  50.4943282  13.6161329  96.5887090  48.1333336  14.2334696
  97.1215427  47.3721624  14.0034004  96.0601171  47.8406988  14.9758851
  87.8242635  45.5626932   2.5816940  88.6617857  45.9723941   2.3650648
  88.0020903  44.6226374   2.5517134  98.2218938  41.2862177   7.1582837
  97.3041500  41.5077124   7.0004525  98.6379082  41.3608488   6.2994544
 100.9532843  50.6295220   3.9753457 101.2455817  51.1900277   3.2565823
 101.4631463  50.9223781   4.7306616  87.8468807  42.9017648   3.2527674
  87.6493206  42.3087008   2.5278740  87.2915471  42.5969858   3.9703612
  95.8265530  42.7940754   5.3722267  95.8814140  41.8414590   5.2964743
  95.0156732  42.9500193   5.8563565  93.7657890  41.4117814   3.1312646
  92.9525756  41.7111984   3.5377838  94.2616884  41.0173503   3.8487128
  95.9166468  51.4075571   5.0646910  95.8742647  51.6336417   4.1355442
  96.8329167  51.1738945   5.2132712  99.3632102  41.8759638  11.9627540
  99.7181490  42.1031111  12.8222005 100.0104233  42.2078015  11.3404795
  93.2571965  38.9836169   8.7473881  93.8971344  38.8424928   8.0496844
  92.4249495  38.6970683   8.3712483  94.0332269  48.2838600   4.8608873
  94.8272867  47.7888920   4.6591448  93.3223961  47.7556463   4.4976579
  98.8527113  50.6656695   9.2121241  98.9064136  51.2347632   9.9798957
  97.9841895  50.8358580   8.8475278  90.3415032  42.4281681   0.9368626
  89.4112620  42.3666137   1.1538588  90.4372504  41.9057634   0.1405267
  90.2600581  38.9536494   3.5246867  90.5207399  39.8681828   3.4156028
  91.0817754  38.4860937   3.6743480  91.7325507  40.3674252  10.6945692
  92.4048560  40.1591614  10.0458341  90.9055293  40.1696337  10.2550924
 105.9814768  47.1078302  10.2121026 106.1750658  48.0124112  10.4580300
 105.8815386  46.6485721  11.0459611  97.6351079  36.9936192  12.7111353
  96.9878994  37.6926142  12.6175829  98.4052094  37.4272336  13.0787601
 101.0429877  47.2585045  15.7861906 100.8915383  47.0295596  14.8691990
 101.0334556  48.2155646  15.7993251  97.8115213  44.8316957  10.7708173
  98.7407273  44.9828117  10.5977140  97.3906243  44.9200978   9.9156819
  96.6103545  48.8567622   8.5406710  96.4714631  48.4886406   9.4132648
  95.8218141  49.3715261   8.3690668  97.2051697  53.9576718  -0.1167753
  97.3803452  53.4864761   0.6977869  96.5184485  54.5842484   0.1113507
  98.1608760  48.2349224   5.9295548  97.8258593  48.1949994   6.8253198
  97.6612706  47.5693940   5.4565958  92.1353004  43.6416854  11.4548129
  91.9972802  42.9097093  12.0559668  93.0457927  43.5525755  11.1732317
  94.7635305  43.3536814  10.9431809  95.4734923  42.7130006  10.9018427
  94.7204613  43.6049709  11.8657990 102.7522083  50.2904167  13.8638388
 102.6934629  49.6063387  13.1968971 103.1541602  51.0323157  13.4119014
  93.4764239  40.3402032  12.7627448  92.9401596  39.8892770  13.4149045
  92.8880947  40.4747941  12.0197913  91.7712782  57.1066081   6.6572107
  92.0109380  57.7384605   7.3351125  90.9281979  56.7554121   6.9437466
 102.7539491  48.2543751  12.0952368 101.8666269  47.9169673  12.2178767
 103.3238042  47.5226782  12.3321133  84.4068638  44.5867843   5.4195419
  85.0939678  44.2729573   4.8316434  84.2516766  45.4909207   5.1462670
  89.2103360  39.4758039   9.8480443  89.1261549  38.8683709   9.1130853
  88.3886066  39.9667058   9.8489939  96.2840644  52.9145203   9.0613611
  96.2110815  53.7200175   9.5732915  95.8418037  53.1137169   8.2361632
  96.0730424  52.1516973   2.5716432  95.2897945  52.6938654   2.6654657
  96.7723169  52.6690953   2.9710674  98.7439327  52.8132037  11.2171770
  99.4567300  53.4479502  11.1447671  98.2529356  52.9095903  10.4011771
  93.7951241  50.5626481  12.0377340  94.4960700  51.1962964  12.1906735
  93.3246356  50.9041212  11.2772980 101.5952527  43.1171088   9.8629891
 100.9423977  43.3646996   9.2082343 101.9732907  42.3035227   9.5292368
  98.5559701  53.1530782   3.9658061  98.7382095  52.3352437   4.4285813
  99.3792687  53.3698474   3.5282951  98.8901866  52.0798967   1.2273109
  99.4189633  51.5691421   0.6143272  99.1530086  51.7641497   2.0918642
  97.6440100  43.8590899  16.3495928  96.9680737  43.7585029  17.0198303
  98.4667734  43.7030113  16.8131925  89.3918959  50.0962836   8.9708443
  89.9772396  49.3506524   9.1036347  89.1943798  50.4066793   9.8545107
  92.2457614  53.1314083   3.9870885  91.5767990  53.6160211   3.5034925
  92.1070484  53.3783304   4.9014264  83.9836614  42.6668436   7.6912886
  84.0220713  42.1332027   8.4850004  83.4776907  42.1403642   7.0723863
  96.3862883  55.1657827  10.5853544  96.9381191  55.3289448  11.3502629
  96.7269076  55.7562265   9.9133569  91.3627376  37.5132977  11.1875428
  91.4268703  38.3747808  10.7752826  91.2994496  36.9006978  10.4547787
  90.8379649  39.5856109  14.8348463  91.4651687  39.2033187  15.4485987
  89.9807567  39.3670311  15.2004155 101.2373757  49.9919084  16.4402198
 101.7813661  50.6049043  15.9457153 100.6560602  50.5498663  16.9569211
  87.6145191  41.3932538   0.7666818  87.9098632  40.4843217   0.7133871
  86.7133227  41.3720278   0.4447820  99.5231270  53.1139802   7.5717226
  99.3982410  52.3129542   7.0628171 100.1810361  53.6085996   7.0831196
  91.1439438  39.4688535   6.7494366  90.4226024  40.0824503   6.6101839
  91.9332694  40.0046300   6.6711012 101.5866179  50.9148822   9.1996776
 100.6396514  50.7954174   9.1275103 101.9348952  50.0271321   9.2823037
  93.9465752  36.8042961  13.0235018  94.4700154  37.0505258  13.7861327
  93.7278085  37.6362996  12.6038155  89.3433033  39.0746636   0.8906143
  89.0145739  38.1944015   0.7081249  89.6972404  39.0194305   1.7782532
  98.5912612  50.7101539   5.4001128  98.4437574  49.7818246   5.5808698
  99.4166105  50.7321629   4.9158203 102.1946734  51.5330097   6.4866001
 103.1193281  51.3272959   6.3490452 102.0262037  51.2846499   7.3955342
  95.1518297  37.7456657  10.7084688  94.8115117  36.9464470  11.1105368
  94.4457303  38.0458367  10.1361522  95.8034769  34.8305969   9.1612011
  96.6260838  34.3566447   9.0390902  96.0472832  35.6096453   9.6610698
  93.3273348  41.5225090   6.9703990  93.1817928  41.8365393   7.8628272
  92.8498551  42.1409990   6.4174889  95.1869730  38.5127638   7.0184880
  95.1731299  37.6168731   6.6817178  95.9042159  38.5198301   7.6523166
  97.0395861  38.9464978   9.0638007  96.7813639  39.8682048   9.0622337
  96.5080901  38.5495412   9.7538471  87.8019010  44.0630434   9.9091651
  87.2572478  44.8390242  10.0411926  88.6798360  44.4101238   9.7510773
  88.5885032  43.1900330  12.8021808  87.8466768  43.3382966  13.3886439
  88.2677776  43.4508596  11.9388558  96.5328694  52.7316308  12.6002198
  96.8415821  52.4865455  13.4724898  97.3304176  52.9362947  12.1121068
  96.5549306  54.8854218   4.8307575  96.1154297  54.3930597   5.5240431
  97.3057423  54.3427186   4.5899650  89.0341645  51.0765759   4.8332203
  89.8599665  50.7769531   4.4530846  88.6835697  50.3073381   5.2821991
  94.0023178  50.4292227   6.9029876  93.3803188  49.7662932   6.6032104
  94.6728045  50.4553359   6.2203524  87.2350250  48.9952085   5.7921136
  86.3982159  48.5674260   5.6105138  87.2073896  49.1884529   6.7291928
  94.0747706  38.9074015  16.4962382  94.1235861  39.7836138  16.1140152
  94.6170220  38.3651408  15.9234026 104.5602552  49.4515138  15.7763519
 103.7698095  49.4339277  15.2368019 104.3235906  49.9903432  16.5312556
 104.6800427  46.3007605  13.0896248 104.7298432  46.1357612  14.0311771
 104.5714350  45.4334864  12.6994129  93.5636685  48.9796151   0.3788337
  93.7124806  49.6631615  -0.2744990  94.3703129  48.9601241   0.8937793
 101.9704189  42.2838533  14.4055555 102.8714052  42.1444998  14.1139552
 102.0452164  42.4492988  15.3453732  96.3046994  39.6605388  13.2508741
  95.4350304  39.9538954  12.9791330  96.5406475  40.2445833  13.9716005
 106.1818623  48.7204546  13.3338270 105.8903432  49.0834527  14.1701730
 105.5690755  48.0071555  13.1551602 104.4305812  43.8437161  11.8018328
 104.9059933  44.0364807  10.9937179 103.5071377  43.8996347  11.5561711
  91.3189318  45.0061328   1.3849406  91.0735360  44.1023658   1.5829616
  91.4885233  45.0078479   0.4428884  99.0086028  35.8785005  10.7674161
  99.5267972  36.6146031  10.4420650  98.6541161  36.1848998  11.6020921
 101.1521860  37.8058504  10.2206034 100.5571792  38.0863517   9.5252523
 100.8671557  38.2952405  10.9922775  97.3317582  46.8622840  16.6516794
  98.2520591  47.0401439  16.8456840  97.2967165  45.9178885  16.4996493
  86.5499747  42.0561434   5.5770068  86.2302531  41.2026742   5.2844442
  86.0033175  42.2710012   6.3328036  90.3279654  44.7723875   9.2939575
  90.5465664  45.7040982   9.3127609  90.7405428  44.4131849  10.0794379
  95.2007520  40.3457080  18.6842324  95.1004247  41.2951437  18.6154415
  94.9829062  40.0175319  17.8118394  86.4188007  45.6764345   7.5463190
  85.7251478  45.2618298   7.0333144  87.1660998  45.7184882   6.9496609
  95.0638790  43.7754219  17.5007386  94.5805871  44.5754579  17.7071275
  95.1499729  43.7862164  16.5474830  88.3324749  45.6082599   5.4229205
  88.3095437  45.7070286   4.4711088  88.6425386  46.4547750   5.7446371
  90.9912127  47.6658754   9.5375819  91.9455381  47.6342696   9.4705751
  90.7924651  47.2049378  10.3526045  91.5811509  46.2359870  12.1046617
  92.4004398  46.7303949  12.1281454  91.8548317  45.3191838  12.0764184
  89.3462356  53.2078373   6.5546017  89.2116824  52.4478774   5.9884015
  88.9294418  53.9319273   6.0874806  92.5031482  54.1047690   6.7664460
  92.3863866  55.0493123   6.6643150  91.6823928  53.8021252   7.1550259
  86.8346424  40.5698004  12.8038814  87.4805287  40.0596958  13.2926039
  86.6263575  41.3066685  13.3782239  99.3599816  47.6378851  18.3030955
 100.2290975  47.8119504  17.9417590  98.8806567  48.4573268  18.1806684
  93.5285996  54.7575952   9.9820388  94.4313243  54.7899562  10.2986883
  93.3023366  53.8276403   9.9966724  95.2839598  53.5106939   6.6430467
  94.3335229  53.5108800   6.5294839  95.5872084  52.7639673   6.1266502
  91.1743915  37.7165621  16.9013828  92.0375376  37.3602426  17.1117153
  90.6009325  37.3779516  17.5889233 107.8281998  59.2994905   7.6437754
 107.4900509  59.1835970   6.7558289 108.6971766  58.8986070   7.6238760
 108.3101781  60.4529757  13.6023959 108.2990422  60.0582555  12.7304463
 108.4722420  59.7195830  14.1957731 105.0309042  63.2366869  12.5503143
 104.7398908  64.1412500  12.4349810 105.6666026  63.2783396  13.2647213
 105.9565249  60.6143717   9.1404503 106.5528821  60.3899740   8.4261466
 106.0140220  59.8728463   9.7429951 103.4411409  59.3742081   5.5789642
 102.5161905  59.2418295   5.7867333 103.6895822  60.1536300   6.0759584
 100.8020220  59.0175355   6.4133431 100.9312601  59.2709834   7.3272842
 100.1217671  59.6103063   6.0938086 107.4636937  56.8600470  15.1685272
 106.6870271  57.4194390  15.1588136 108.1027500  57.3457253  15.6900142
 105.7183309  59.6685923  14.7303239 106.4597993  60.2070967  14.4538062
 105.0120294  60.2952212  14.8874791 111.1938649  61.8115064  13.3275400
 111.6022005  61.3697474  12.5830033 110.4715910  61.2367691  13.5809593
 107.5469719  56.7487671  10.7008957 108.3930914  57.1727084  10.8443606
 107.4868356  56.0921295  11.3947520 110.6969164  54.4092039  12.3590131
 110.4530096  55.1634100  11.8224407 110.9729094  54.7877387  13.1937378
 112.6507627  60.9530651  11.0367396 112.8624522  61.5962411  10.3601777
 112.6037375  60.1192968  10.5689326 104.4544673  56.8225572  15.5318549
 103.8243333  57.5041852  15.7653946 104.3480761  56.7108653  14.5871687
  99.7489645  56.4897368   6.4584473  98.9588699  56.7454896   5.9824584
 100.2400892  57.3045706   6.5636513 107.5310058  63.3786650  11.3650464
 107.5954491  63.8407057  12.2008636 106.8220982  62.7484015  11.4932774
  98.0327348  56.7427858   8.8899464  98.2835387  57.6274868   9.1557040
  98.5686896  56.5632460   8.1174556 103.7325415  51.1246337  17.8943800
 103.3392361  50.5712536  18.5691444 104.5491556  51.4356916  18.2850317
 106.6493376  52.5404217  15.4864056 107.3903090  53.1411370  15.4068519
 106.8811299  51.7981854  14.9282099 101.7934714  57.7260584  13.7642286
 101.6788230  56.8245841  14.0649385 100.9379232  57.9724281  13.4127103
 108.8726552  65.6678324  15.3629787 108.4290406  64.8814703  15.0450691
 109.5343766  65.8557475  14.6973677 110.9707790  65.9481124  13.3911188
 110.9526266  66.7690005  12.8991457 111.8927710  65.8235199  13.6161329
 107.4280844  63.4625254  14.2334696 107.9609181  62.7013542  14.0034004
 106.8994925  63.1698905  14.9758851 109.0612693  56.6154095   7.1582837
 108.1435254  56.8369042   7.0004525 109.4772836  56.6900405   6.2994544
  98.6862561  58.2309565   3.2527674  98.4886961  57.6378926   2.5278740
  98.1309225  57.9261775   3.9703612 110.2025856  57.2051556  11.9627540
 110.5575244  57.4323029  12.8222005 110.8497988  57.5369933  11.3404795
 104.0965719  54.3128087   8.7473881 104.7365099  54.1716846   8.0496844
 103.2643250  54.0262600   8.3712483 101.0994336  54.2828412   3.5246867
 101.3601153  55.1973745   3.4156028 101.9211508  53.8152855   3.6743480
 102.5719261  55.6966169  10.6945692 103.2442315  55.4883531  10.0458341
 101.7449048  55.4988255  10.2550924 108.4744833  52.3228110  12.7111353
 107.8272748  53.0218060  12.6175829 109.2445849  52.7564254  13.0787601
 111.8823631  62.5876962  15.7861906 111.7309138  62.3587514  14.8691990
 111.8728311  63.5447564  15.7993251 108.6508968  60.1608875  10.7708173
 109.5801028  60.3120035  10.5977140 108.2299998  60.2492896   9.9156819
 102.9746758  58.9708772  11.4548129 102.8366556  58.2389011  12.0559668
 103.8851682  58.8817672  11.1732317 105.6029059  58.6828731  10.9431809
 106.3128678  58.0421924  10.9018427 105.5598367  58.9341626  11.8657990
 104.3157993  55.6693949  12.7627448 103.7795350  55.2184688  13.4149045
 103.7274702  55.8039858  12.0197913 113.5933245  63.5835669  12.0952368
 112.7060024  63.2461591  12.2178767 114.1631796  62.8518700  12.3321133
  95.2462392  59.9159760   5.4195419  95.9333432  59.6021491   4.8316434
  95.0910521  60.8201125   5.1462670 100.0497114  54.8049957   9.8480443
  99.9655303  54.1975627   9.1130853  99.2279821  55.2958975   9.8489939
 104.6344995  65.8918399  12.0377340 105.3354455  66.5254882  12.1906735
 104.1640110  66.2333130  11.2772980 112.4346281  58.4463006   9.8629891
 111.7817732  58.6938913   9.2082343 112.8126661  57.6327144   9.5292368
 108.4833854  59.1882817  16.3495928 107.8074491  59.0876946  17.0198303
 109.3061488  59.0322031  16.8131925 100.2312714  65.4254754   8.9708443
 100.8166150  64.6798442   9.1036347 100.0337552  65.7358710   9.8545107
  94.8230368  57.9960354   7.6912886  94.8614468  57.4623945   8.4850004
  94.3170661  57.4695559   7.0723863 102.2021131  52.8424894  11.1875428
 102.2662457  53.7039725  10.7752826 102.1388251  52.2298896  10.4547787
 101.6773403  54.9148027  14.8348463 102.3045442  54.5325104  15.4485987
 100.8201322  54.6962229  15.2004155 112.0767512  65.3211002  16.4402198
 112.6207416  65.9340960  15.9457153 111.4954357  65.8790580  16.9569211
 101.9833193  54.7980453   6.7494366 101.2619779  55.4116420   6.6101839
 102.7726449  55.3338217   6.6711012 104.7859506  52.1334879  13.0235018
 105.3093908  52.3797176  13.7861327 104.5671840  52.9654914  12.6038155
 105.9912051  53.0748574  10.7084688 105.6508872  52.2756387  11.1105368
 105.2851058  53.3750285  10.1361522 106.6428523  50.1597887   9.1612011
 107.4654593  49.6858365   9.0390902 106.8866587  50.9388370   9.6610698
 104.1667102  56.8517007   6.9703990 104.0211683  57.1657310   7.8628272
 103.6892306  57.4701908   6.4174889 106.0263485  53.8419555   7.0184880
 106.0125054  52.9460649   6.6817178 106.7435913  53.8490219   7.6523166
 107.8789616  54.2756895   9.0638007 107.6207393  55.1973966   9.0622337
 107.3474656  53.8787330   9.7538471  98.6412764  59.3922352   9.9091651
  98.0966232  60.1682160  10.0411926  99.5192114  59.7393156   9.7510773
  99.4278786  58.5192248  12.8021808  98.6860522  58.6674883  13.3886439
  99.1071530  58.7800514  11.9388558 104.9141460  54.2365933  16.4962382
 104.9629616  55.1128056  16.1140152 105.4563975  53.6943326  15.9234026
 115.3996306  64.7807056  15.7763519 114.6091850  64.7631195  15.2368019
 115.1629661  65.3195350  16.5312556 115.5194181  61.6299523  13.0896248
 115.5692186  61.4649530  14.0311771 115.4108104  60.7626782  12.6994129
 112.8097943  57.6130451  14.4055555 113.7107806  57.4736915  14.1139552
 112.8845918  57.7784905  15.3453732 107.1440749  54.9897305  13.2508741
 106.2744058  55.2830871  12.9791330 107.3800229  55.5737750  13.9716005
 115.2699566  59.1729079  11.8018328 115.7453688  59.3656725  10.9937179
 114.3465132  59.2288264  11.5561711 109.8479783  51.2076922  10.7674161
 110.3661727  51.9437949  10.4420650 109.4934915  51.5140916  11.6020921
 111.9915615  53.1350422  10.2206034 111.3965547  53.4155435   9.5252523
 111.7065311  53.6244323  10.9922775 108.1711336  62.1914758  16.6516794
 109.0914346  62.3693357  16.8456840 108.1360919  61.2470803  16.4996493
  97.3893501  57.3853351   5.5770068  97.0696286  56.5318659   5.2844442
  96.8426930  57.6001929   6.3328036 101.1673409  60.1015792   9.2939575
 101.3859419  61.0332900   9.3127609 101.5799183  59.7423767  10.0794379
 106.0401274  55.6748998  18.6842324 105.9398001  56.6243355  18.6154415
 105.8222816  55.3467237  17.8118394  97.2581761  61.0056263   7.5463190
  96.5645233  60.5910215   7.0333144  98.0054752  61.0476799   6.9496609
 105.9032544  59.1046137  17.5007386 105.4199626  59.9046497  17.7071275
 105.9893483  59.1154082  16.5474830  99.1718504  60.9374516   5.4229205
  99.1489192  61.0362204   4.4711088  99.4819140  61.7839667   5.7446371
 101.8305882  62.9950671   9.5375819 102.7849135  62.9634614   9.4705751
 101.6318405  62.5341295  10.3526045 102.4205264  61.5651788  12.1046617
 103.2398153  62.0595866  12.1281454 102.6942072  60.6483756  12.0764184
  97.6740178  55.8989921  12.8038814  98.3199042  55.3888875  13.2926039
  97.4657329  56.6358603  13.3782239 110.1993570  62.9670769  18.3030955
 111.0684730  63.1411421  17.9417590 109.7200322  63.7865186  18.1806684
 102.0137669  53.0457538  16.9013828 102.8769131  52.6894343  17.1117153
 101.4403080  52.7071433  17.5889233 114.5719170  66.4538255  17.8943800
 114.1786115  65.9004454  18.5691444 115.3885310  66.7648834  18.2850317
 116.8795029  71.0040916  18.6842324 116.7791756  71.9535273  18.6154415
 116.6616571  70.6759155  17.8118394 112.8531424  68.3749456  16.9013828
 113.7162885  68.0186261  17.1117153 112.2796834  68.0363351  17.5889233
   2.6228141  75.5033278  85.2102882   1.8691849  74.9340676  85.0546887
   2.7575682  75.4695943  86.1573517   3.0334556  75.6608888  87.9423127
   3.7637944  75.3994176  88.5030830   2.4241501  74.9237610  87.9825195
   1.1149853  73.8016751  88.5397578   0.3883017  73.6672716  87.9314069
   0.6997140  74.1093579  89.3454296   1.0398721  73.3294804  84.6674431
   0.4798279  73.3987993  85.4405993   0.4342224  73.1535789  83.9473927
   2.6254739  90.0051318  87.3604386   3.2633149  89.8858065  86.6567726
   2.5075582  90.9532162  87.4192339   2.1796008  87.7302772  84.4357594
   2.9659097  87.3122195  84.0848011   2.4434712  88.6348864  84.6039243
   2.3506085  93.1675622  79.1346251   1.7151918  93.2410249  79.8467156
   2.0203491  93.7569221  78.4565330   7.5804435  87.6678005  85.3390573
   8.3129607  87.0977222  85.5728402   6.8243790  87.2799605  85.7797079
   5.1029855  81.3799579  89.7985182   4.7713180  82.2494990  89.5746397
   4.5075468  81.0635863  90.4779212   4.9958518  86.0994665  86.8778532
   4.0875396  86.0310074  86.5837293   4.9446114  86.5766610  87.7060357
   6.8620165  84.3011104  88.6556405   6.2194545  84.5943637  88.0096200
   6.3575093  84.1864024  89.4609602   4.5160328  88.0474277  79.3442265
   5.4278185  88.2801664  79.1689962   4.0069976  88.6311321  78.7817343
   3.1229911  93.0300095  86.7355846   2.4938773  93.1945809  86.0331914
   2.7355573  93.4441705  87.5066810   7.0019143  93.9654533  84.0900210
   6.3170181  94.3453434  83.5397243   7.0862992  94.5749860  84.8232158
   2.3031612  85.0675880  92.0118288   2.0592543  85.8217940  91.4752564
   2.5791542  85.4461227  92.8465535   4.2570074  91.6114492  90.6895554
   4.4686970  92.2546252  90.0129935   4.2099823  90.7776809  90.2217484
   1.8596303  84.2232313  87.5932126   0.9980782  84.5213566  87.8848863
   1.8858738  84.4402712  86.6613158   5.3715902  94.4886448  88.8617911
   6.1933346  94.0866635  88.5800592   5.3678305  94.3854682  89.8134027
  13.4621895  90.8325196  85.2102882  12.7085604  90.2632594  85.0546887
  13.5969436  90.7987860  86.1573517   2.2012987  79.2269160  89.4156495
   1.8577256  80.1170802  89.3395606   2.5691949  79.0370818  88.5526080
   2.1663270  89.2177771  77.9228930   1.6509893  89.9882376  78.1617318
   1.8940578  88.5442907  78.5461992   1.2809527  81.5973815  87.3805728
   0.7774323  81.5603951  86.5673534   1.5740134  82.5066558  87.4402385
   7.1397544  91.9710126  79.8582104   6.3626987  91.6321285  79.4137266
   7.8189025  91.9762749  79.1837069   1.9549573  87.0904863  79.7488711
   1.6499708  87.4051013  80.5998855   2.9080015  87.1686283  79.7916044
   5.3788851  91.4444107  86.5148712   4.7212525  92.1343369  86.6028840
   6.1829250  91.8340539  86.8582698   4.1894309  89.7988480  84.5652653
   4.7026191  90.4318472  85.0674363   4.8395533  89.1989675  84.1996013
   1.4516684  99.7772804  77.3213325   0.7778382 100.0804501  77.9298282
   1.8382506 100.5801885  76.9718782   1.4510188  88.6729351  81.9413674
   2.1982007  89.1850748  81.6320796   1.7201778  88.3513404  82.8018068
   4.9556106  94.7794481  82.6931796   4.5018433  93.9385391  82.7496987
   4.3250072  95.4155880  83.0306576   3.8989025  85.7086467  83.9232464
   3.1611782  85.1963854  84.2542706   4.1515799  85.2686849  83.1115740
   3.3989045  96.6170978  83.6281614   3.6912019  97.1776035  82.9093980
   3.9087665  96.9099539  84.3834773   4.0000653  78.4862719  84.5174233
   4.3059529  77.6260083  84.2300148   4.7253257  79.0780340  84.3173227
   1.8088304  87.8635397  91.6155697   2.1637692  88.0906870  92.4750162
   2.4560435  88.1953773  90.9932952   7.5386041  90.9853833  82.3205026
   7.4003939  91.1755429  81.3926215   7.1822260  91.7473215  82.7773077
   7.5655420  93.0530360  87.3316297   7.9991927  92.9605649  88.1799351
   8.2787001  93.0287860  86.6936313   8.4270970  93.0954060  89.8649183
   8.6206860  93.9999871  90.1108458   8.3271588  92.6361479  90.6987768
   3.5424154  91.5681017  75.8560765   2.9253324  90.8427845  75.7593817
   3.0740642  92.3290377  75.5127839   1.8283276  83.9487361  84.8678795
   2.3251975  83.1957324  84.5479865   1.0570257  83.9851678  84.3022004
   9.6813033  89.6527727  86.5097086   9.6702909  90.5352442  86.1391019
   8.8130413  89.2999278  86.3151623   2.9113056  92.7059048  82.4417218
   1.9769335  92.8260511  82.2721923   3.0889725  91.8031515  82.1777228
   6.2985608  88.5476368  82.9767252   6.7646060  89.3804359  82.9027555
   6.7493108  88.0821349  83.6812511   4.3661839  94.8920189  79.9753404
   4.6421683  94.7776784  80.8847279   3.4966338  94.4937674  79.9365578
   4.2702271  80.9156955  87.0158154   3.3565350  81.1461182  87.1840361
   4.6995372  80.9995399  87.8672186   4.0408729  89.1046847  89.5158048
   3.3880179  89.3522754  88.8610501   4.4189109  88.2910985  89.1820525
   1.0015903  99.1406540  83.6186218   1.1838297  98.3228196  84.0813970
   1.8248889  99.3574232  83.1811108   1.3358068  98.0674725  80.8801267
   1.8645835  97.5567180  80.2671429   1.5986288  97.7517255  81.7446800
   1.0368814  96.6977297  85.0529285   0.8893776  95.7694004  85.2336855
   1.8622307  96.7197388  84.5686361   4.6402936  97.5205856  86.1394158
   5.5649483  97.3148717  86.0018609   4.4718239  97.2722257  87.0483500
   1.0330328  84.5515135  80.0461403   1.2493943  85.4339773  79.7450231
   0.5524395  84.1601348  79.3167045   4.4298252  98.0391523  81.4956250
   4.6035129  97.4737946  80.7430102   4.9227143  98.8392418  81.3135739
  10.2837643  90.8027946  83.1146549  10.7268789  90.0535271  82.7165673
   9.4064153  90.7938083  82.7320281   5.4173424  97.3558288  78.5953148
   6.1124329  97.9764980  78.8140462   5.7596575  96.5053639  78.8705526
   7.3164848  94.8057993  80.1240479   7.8416172  95.1445266  79.3989799
   7.2287200  93.8705009  79.9403613   7.1256629  92.2883363  92.7424405
   7.1754634  92.1233371  93.6839928   7.0170552  91.4210622  92.3522286
   9.8270508  92.2733184  85.5068997  10.6617399  92.7122989  85.6706557
   9.9629637  91.7971838  84.6877243   6.8762014  89.8312919  91.4546485
   7.3516135  90.0240566  90.6465336   5.9527579  89.8872105  91.2089868
   1.4542230  81.8660763  90.4202319   1.9724174  82.6021790  90.0948807
   1.0997363  82.1724756  91.2549078   1.7054824  78.2861045  85.9403215
   1.9856578  77.6184235  86.5663642   2.4905431  78.4790141  85.4277879
   5.5763683  86.7078679  89.6874790   6.5281106  86.8076777  89.7087014
   5.4067133  85.9156948  90.1972875   3.5978062  83.7934263  89.8734191
   3.0027994  84.0739275  89.1780680   3.3127759  84.2828164  90.6450932
   2.7285553  97.7457189  78.6336824   3.6616226  97.6802751  78.8369699
   2.6408765  98.5813456  78.1751356   5.3573569  97.0623060  75.5940771
   5.2787201  96.7282923  76.4876529   6.1783236  97.5544828  75.5932244
   8.0551761  89.9284799  88.8017090   8.0228081  88.9900800  88.9876774
   8.6652384  90.0068836  88.0682915   8.2046249  86.7195843  88.8475373
   7.6885298  85.9354299  88.6605302   9.0886198  86.3914559  89.0121893
   5.8656976  80.4636858  84.8071186   5.6681797  80.1551946  85.6914518
   6.4756681  81.1898497  84.9369116  13.8728310  90.9900806  87.9423127
  14.6031699  90.7286094  88.5030830  13.2635256  90.2529528  87.9825195
  11.9543607  89.1308669  88.5397578  11.2276771  88.9964633  87.9314069
  11.5390894  89.4385497  89.3454296   1.6230623  80.3445765  82.5567717
   2.1761661  80.7641218  83.2157740   1.8600709  79.4181513  82.5990673
   5.0009430  82.4546290  82.0646381   4.4208099  83.1131094  81.6824434
   4.7345362  81.6323635  81.6533799   3.4512996  81.8551348  84.2667702
   3.9512774  81.9667882  83.4582020   4.0948604  81.5512401  84.9068510
   3.7834308  84.6146381  81.1202730   2.8960163  84.8996031  80.9022924
   4.1988297  84.4540144  80.2730006   7.1348844  84.6392902  84.8357069
   7.9109234  85.1289354  85.1081686   6.4096978  85.0650956  85.2928938
   9.5721402  85.3520521  85.8931009  10.1665893  85.1116257  85.1824318
   9.6447986  84.6327651  86.5204546   2.9277521  94.3791055  75.2150750
   3.6313371  94.5841058  75.8308405   2.2040170  94.9467817  75.4799833
   3.7575331  90.1300916  81.3353020   3.7010533  90.5869468  80.4960652
   4.3103674  89.3691601  81.1575863   7.5680137  85.9190648  82.1603139
   7.3117072  85.5187284  82.9911347   6.9433005  86.6334442  82.0353278
  11.8792475  88.6586722  84.6674431  11.3192033  88.7279911  85.4405993
  11.2735979  88.4827706  83.9473927   4.8364219  94.8173584  77.2649210
   5.6709822  94.3854783  77.0826684   4.6748561  94.6455598  78.1926104
   4.4910111  91.3205698  78.6305549   4.4358914  91.1549969  77.6893993
   3.8656166  92.0281731  78.7867739   1.6158356  77.4156583  82.4636804
   0.8490751  76.8615070  82.6093486   2.0269061  77.4878452  83.3250956
  13.0189762 103.0594689  84.4357594  13.8052851 102.6414113  84.0848011
  13.2828466 103.9640782  84.6039243  18.4198189 102.9969923  85.3390573
  19.1523361 102.4269139  85.5728402  17.6637545 102.6091523  85.7797079
  15.9423610  96.7091497  89.7985182  15.6106934  97.5786908  89.5746397
  15.3469223  96.3927781  90.4779212   9.6779796 100.4487064  77.5315264
   9.8454198 101.3167300  77.8985735   9.4876965 100.6114345  76.6076553
  15.8352273 101.4286583  86.8778532  14.9269150 101.3601991  86.5837293
  15.7839869 101.9058528  87.7060357   9.6569017 102.9044721  78.5161931
   9.5368642 103.3501772  79.3547411   8.9621605 103.2530039  77.9575469
  17.7013919  99.6303021  88.6556405  17.0588300  99.9235554  88.0096200
  17.1968848  99.5155942  89.4609602  15.3554083 103.3766194  79.3442265
  16.2671939 103.6093581  79.1689962  14.8463730 103.9603239  78.7817343
  13.1425366 100.3967797  92.0118288  12.8986298 101.1509858  91.4752564
  13.4185297 100.7753145  92.8465535  12.6990058  99.5524230  87.5932126
  11.8374537  99.8505484  87.8848863  12.7252492  99.7694629  86.6613158
  24.3015650 106.1617114  85.2102882  23.5479358 105.5924512  85.0546887
  24.4363191 106.1279778  86.1573517  13.0406741  94.5561078  89.4156495
  12.6971011  95.4462720  89.3395606  13.4085704  94.3662736  88.5526080
  13.0057024 104.5469689  77.9228930  12.4903648 105.3174294  78.1617318
  12.7334333 103.8734825  78.5461992  10.5904135  99.3919390  82.9814169
   9.7345731  99.0026240  82.8019807  11.0031087  99.4711351  82.1213954
  12.1203282  96.9265733  87.3805728  11.6168077  96.8895868  86.5673534
  12.4133889  97.8358476  87.4402385   8.3646168  97.0104463  86.3871910
   9.2299164  96.8147271  86.0277800   8.4323677  96.7814815  87.3141267
  17.9791298 107.3002044  79.8582104  17.2020741 106.9613203  79.4137266
  18.6582779 107.3054667  79.1837069  12.7943327 102.4196781  79.7488711
  12.4893463 102.7342930  80.5998855  13.7473769 102.4978201  79.7916044
   5.9708487  99.2406671  83.7588277   6.5452239  99.0181852  83.0261470
   6.5579469  99.3095365  84.5116878  15.0288064 105.1280398  84.5652653
  15.5419946 105.7610389  85.0674363  15.6789288 104.5281593  84.1996013
   6.2978074 101.2711132  77.7784162   5.4615386 101.6085818  78.0993437
   6.1582843 101.1360111  76.8411299   8.2731154  96.1147920  82.4863346
   7.6195567  95.7996937  81.8619961   8.2311629  95.4923660  83.2123169
  11.5068895 102.6029853  86.8110994  10.5891456 102.8244800  86.6532682
  11.9229038 102.6776164  85.9522701  12.2903943 104.0021269  81.9413674
  13.0375762 104.5142666  81.6320796  12.5595532 103.6805322  82.8018068
  14.7382780 101.0378385  83.9232464  14.0005537 100.5255771  84.2542706
  14.9909553 100.5978767  83.1115740  14.8394407  93.8154637  84.5174233
  15.1453284  92.9552000  84.2300148  15.5647012  94.4072257  84.3173227
   7.0507847 102.7285490  82.7840803   6.2375712 103.0279660  83.1905995
   7.5466841 102.3341179  83.5015285  12.6482058 103.1927314  91.6155697
  13.0031446 103.4198787  92.4750162  13.2954190 103.5245691  90.9932952
  18.3779795 106.3145750  82.3205026  18.2397694 106.5047346  81.3926215
  18.0216014 107.0765133  82.7773077   6.5421921 100.3003845  88.4002038
   7.1821301 100.1592604  87.7025001   5.7099452 100.0138359  88.0240640
   3.5450538 100.2704170  83.1775025   3.8057355 101.1849504  83.0684185
   4.3667710  99.8028613  83.3271637  10.9201035  98.3103868  92.3639510
  10.2728950  99.0093818  92.2703986  11.6902051  98.7440012  92.7315758
   6.1716454 101.1158359  74.9782069   5.2945920 100.9947160  74.6144316
   6.6474207 100.3244437  74.7260958  12.6677030  99.2779279  84.8678795
  13.1645730  98.5249241  84.5479865  11.8964012  99.3143596  84.3022004
  20.5206788 104.9819644  86.5097086  20.5096664 105.8644360  86.1391019
  19.6524167 104.6291195  86.3151623   9.2511999 101.4196662  84.5950479
   8.8809786 100.8667702  85.2831385   9.7471091 100.8154795  84.0425480
  17.1379362 103.8768285  82.9767252  17.6039814 104.7096277  82.9027555
  17.5886863 103.4113267  83.6812511  15.1096025  96.2448872  87.0158154
  14.1959105  96.4753099  87.1840361  15.5389126  96.3287317  87.8672186
  14.8802484 104.4338764  89.5158048  14.2273934 104.6814672  88.8610501
  15.2582863 103.6202903  89.1820525   2.6282989 100.3914312  80.5434300
   2.2995696  99.5111691  80.3609406   2.9822360 100.3361981  81.4310689
   5.7424813 100.6787282  80.9109777   6.0820885 101.2073203  80.1888386
   6.1896933 101.0167688  81.6868344   8.4368253  99.0624333  90.3612846
   8.0965074  98.2632146  90.7633525   7.7307260  99.3626043  89.7889679
   9.0884725  96.1473645  88.8140169   9.9110795  95.6734123  88.6919059
   9.3322789  96.9264129  89.3138855   7.7292960  99.1761903  79.1103070
   8.4501322  99.5543156  78.6066787   7.1058264  99.8950780  79.2138048
  11.8724083  99.8807052  80.0461403  12.0887697 100.7631690  79.7450231
  11.3918150  99.4893266  79.3167045   8.4719687  99.8295314  86.6713037
   8.4581256  98.9336407  86.3345335   9.1892115  99.8365977  87.3051323
  10.3245818 100.2632654  88.7166164  10.0663595 101.1849724  88.7150495
   9.7930858  99.8663088  89.4066628   7.8756583  98.7109694  81.9400607
   7.9972494  97.7826340  82.1391494   7.5858625  98.7248380  81.0278922
  10.7447773  96.3964604  85.0767327  10.7669470  96.4603937  84.1219306
  11.1615832  95.5569113  85.2707833  21.1231398 106.1319864  83.1146549
  21.5662544 105.3827189  82.7165673  20.2457908 106.1230000  82.7320281
  20.6664262 107.6025102  85.5068997  21.5011154 108.0414906  85.6706557
  20.8023391 107.1263755  84.6877243  17.7155768 105.1604837  91.4546485
  18.1909890 105.3532483  90.6465336  16.7921334 105.2164023  91.2089868
  12.2935985  97.1952681  90.4202319  12.8117929  97.9313708  90.0948807
  11.9391117  97.5016674  91.2549078   3.8734922 102.0557362  78.5363724
   3.1804167 102.1301717  77.8803760   3.6286674 101.2917705  79.0585241
  12.5448579  93.6152963  85.9403215  12.8250333  92.9476152  86.5663642
  13.3299186  93.8082059  85.4277879  16.4157437 102.0370597  89.6874790
  17.3674860 102.1368695  89.7087014  16.2460888 101.2448866  90.1972875
  14.4371817  99.1226180  89.8734191  13.8421749  99.4031193  89.1780680
  14.1521513  99.6120081  90.6450932  18.8945515 105.2576717  88.8017090
  18.8621835 104.3192718  88.9876774  19.5046139 105.3360754  88.0682915
  10.7328846 104.1272770  74.8444294  11.6787951 103.9978978  74.9132712
  10.3543091 103.3887432  75.3213722  19.0440003 102.0487760  88.8475373
  18.5279052 101.2646217  88.6605302  19.9279952 101.7206477  89.0121893
  16.7050730  95.7928776  84.8071186  16.5075552  95.4843864  85.6914518
  17.3150436  96.5190415  84.9369116  24.7122065 106.3192724  87.9423127
  25.4425453 106.0578012  88.5030830  24.1029010 105.5821446  87.9825195
  22.7937362 104.4600586  88.5397578  22.0670526 104.3256551  87.9314069
  22.3784649 104.7677415  89.3454296   8.9171763 102.0522746  74.7799179
   8.0103218 101.7555859  74.8561893   9.1947744 101.7552564  73.9133465
  10.5333829  96.5959636  80.9343420   9.7234557  96.2506721  81.3098667
  11.2218246  96.2867180  81.5231032  12.4624377  95.6737683  82.5567717
  13.0155416  96.0933136  83.2157740  12.6994463  94.7473431  82.5990673
   7.6870548  98.9109681  74.9211158   8.5489712  99.2364580  75.1806976
   7.8720892  98.1241177  74.4084224  15.8403184  97.7838208  82.0646381
  15.2601853  98.4423012  81.6824434  15.5739117  96.9615552  81.6533799
  14.2906750  97.1843266  84.2667702  14.7906529  97.2959800  83.4582020
  14.9342358  96.8804318  84.9068510  14.6228062  99.9438298  81.1202730
  13.7353917 100.2287949  80.9022924  15.0382051  99.7832062  80.2730006
  17.9742598  99.9684819  84.8357069  18.7502988 100.4581272  85.1081686
  17.2490732 100.3942873  85.2928938  20.4115157 100.6812438  85.8931009
  21.0059648 100.4408174  85.1824318  20.4841741  99.9619569  86.5204546
  14.5969086 105.4592834  81.3353020  14.5404287 105.9161386  80.4960652
  15.1497428 104.6983519  81.1575863  18.4073892 101.2482566  82.1603139
  18.1510826 100.8479202  82.9911347  17.7826760 101.9626360  82.0353278
  22.7186230 103.9878639  84.6674431  22.1585788 104.0571829  85.4405993
  22.1129733 103.8119624  83.9473927   8.6399991  96.1505724  78.2090867
   8.6278660  97.0947564  78.3659138   9.5323413  95.9675870  77.9150329
  12.4552110  92.7448501  82.4636804  11.6884506  92.1906988  82.6093486
  12.8662815  92.8170370  83.3250956  25.6788162 109.1446555  84.5174233
  25.9847038 108.2843918  84.2300148  26.4040766 109.7364175  84.3173227
  23.3842333 108.9444881  85.9403215  23.6644087 108.2768070  86.5663642
  24.1692940 109.1373976  85.4277879  23.2945865 108.0740419  82.4636804
  22.5278260 107.5198905  82.6093486  23.7056570 108.1462287  83.3250956
   2.6228142  52.5095401  71.9348189   1.8691850  51.9402799  71.7792193
   2.7575683  52.4758065  72.8818824   3.0334557  52.6671011  74.6668433
   3.7637946  52.4056299  75.2276137   2.4241503  51.9299733  74.7070501
   1.1149854  50.8078873  75.2642884   0.3883018  50.6734838  74.6559376
   0.6997141  51.1155702  76.0699603   1.0398722  50.3356927  71.3919737
   0.4798280  50.4050116  72.1651299   0.4342225  50.1597911  70.6719234
   2.6254740  67.0113440  74.0849693   3.2633150  66.8920188  73.3813033
   2.5075583  67.9594284  74.1437645   2.1796009  64.7364894  71.1602901
   2.9659098  64.3184317  70.8093318   2.4434713  65.6410986  71.3284549
   2.3506086  70.1737745  65.8591558   1.7151919  70.2472371  66.5712462
   2.0203493  70.7631343  65.1810637   7.5804436  64.6740127  72.0635880
   8.3129608  64.1039344  72.2973709   6.8243792  64.2861728  72.5042385
   5.1029856  58.3861702  76.5230488   4.7713181  59.2557113  76.2991703
   4.5075470  58.0697986  77.2024519   1.5961376  70.5874248  75.9226401
   1.2962099  71.4899286  75.8142208   1.2512435  70.3206431  76.7747554
   4.9958520  63.1056788  73.6023838   4.0875397  63.0372196  73.3082599
   4.9446115  63.5828733  74.4305664   6.8620166  61.3073226  75.3801712
   6.2194546  61.6005759  74.7341507   6.3575095  61.1926147  76.1854909
   4.5160330  65.0536399  66.0687571   5.4278186  65.2863786  65.8935269
   4.0069977  65.6373444  65.5062650   2.8001097  69.4761027  79.7048864
   3.2084453  69.0343438  78.9603496   2.0778359  68.9013655  79.9583057
   3.1229912  70.0362218  73.4601153   2.4938774  70.2007932  72.7577221
   2.7355574  70.4503827  74.2312117   7.0019144  70.9716656  70.8145517
   6.3170182  71.3515557  70.2642550   7.0862993  71.5811982  71.5477464
   2.3031613  62.0738002  78.7363595   2.0592545  62.8280063  78.1997870
   2.5791543  62.4523350  79.5710842   4.2570076  68.6176615  77.4140860
   4.4686971  69.2608375  76.7375241   4.2099824  67.7838931  76.9462790
   1.8596304  61.2294435  74.3177432   0.9980784  61.5275689  74.6094170
   1.8858739  61.4464834  73.3858465   5.3715903  71.4948570  75.5863217
   6.1933347  71.0928757  75.3045899   5.3678306  71.3916804  76.5379333
  13.4621897  67.8387319  71.9348189  12.7085605  67.2694717  71.7792193
  13.5969438  67.8049983  72.8818824   2.5770239  73.6127087  79.7684652
   2.5588714  74.4335968  79.2764921   3.4990159  73.4881163  79.9934793
   2.2012988  56.2331283  76.1401802   1.8577258  57.1232924  76.0640912
   2.5691951  56.0432940  75.2771387   2.1663271  66.2239894  64.6474237
   1.6509894  66.9944499  64.8862624   1.8940579  65.5505030  65.2707298
   1.2809529  58.6035938  74.1051035   0.7774324  58.5666073  73.2918840
   1.5740135  59.5128681  74.1647692   7.1397545  68.9772249  66.5827410
   6.3626988  68.6383408  66.1382572   7.8189026  68.9824872  65.9082375
   1.9549574  64.0966986  66.4734018   1.6499710  64.4113135  67.3244161
   2.9080016  64.1748406  66.5161351   5.3788852  68.4506230  73.2394018
   4.7212526  69.1405491  73.3274147   6.1829251  68.8402662  73.5828005
   4.1894311  66.8050602  71.2897960   4.7026192  67.4380594  71.7919670
   4.8395535  66.2051798  70.9241320   1.4516685  76.7834927  64.0458631
   0.7778384  77.0866624  64.6543589   1.8382507  77.5864007  63.6964088
   1.4510189  65.6791474  68.6658981   2.1982008  66.1912871  68.3566103
   1.7201779  65.3575526  69.5263374   4.9556107  71.7856604  69.4177103
   4.5018434  70.9447514  69.4742293   4.3250074  72.4218002  69.7551883
   3.8989026  62.7148590  70.6477770   3.1611783  62.2025976  70.9788013
   4.1515800  62.2748972  69.8361047   3.3989046  73.6233101  70.3526921
   3.6912021  74.1838158  69.6339287   3.9087667  73.9161662  71.1080080
   4.0000654  55.4924842  71.2419539   4.3059531  54.6322205  70.9545455
   4.7253259  56.0842462  71.0418533   1.8088305  64.8697519  78.3401003
   2.1637693  65.0968992  79.1995469   2.4560436  65.2015896  77.7178259
   7.5386042  67.9915955  69.0450332   7.4003941  68.1817551  68.1171522
   7.1822261  68.7535338  69.5018383   7.5655422  70.0592482  74.0561604
   7.9991928  69.9667771  74.9044658   8.2787002  70.0349983  73.4181620
   1.2983317  73.6594576  75.5894704   1.3520339  74.2285513  76.3572420
   0.4298098  73.8296461  75.2248742   8.4270971  70.1016183  76.5894489
   8.6206861  71.0061993  76.8353764   8.3271589  69.6423602  77.4233074
   3.4886080  70.2522926  82.1635370   3.3371586  70.0233477  81.2465454
   3.4790759  71.2093527  82.1766715   3.5424155  68.5743140  62.5806071
   2.9253326  67.8489968  62.4839124   3.0740643  69.3352500  62.2373146
   5.1978287  73.2842048  80.2411852   5.1390833  72.6001268  79.5742435
   5.5997805  74.0261038  79.7892478   5.1995694  71.2481632  78.4725831
   4.3122473  70.9107554  78.5952230   5.7694245  70.5164663  78.7094597
   1.8283277  60.9549484  71.5924102   2.3251977  60.2019446  71.2725172
   1.0570258  60.9913801  71.0267311   9.6813034  66.6589849  73.2342393
   9.6702911  67.5414565  72.8636326   8.8130414  66.3061400  73.0396930
   1.1895531  75.8069918  77.5945233   1.9023503  76.4417383  77.5221135
   0.6985559  75.9033784  76.7785235   2.9113058  69.7121171  69.1662525
   1.9769336  69.8322634  68.9967229   3.0889726  68.8093638  68.9022535
   6.2985609  65.5538490  69.7012559   6.7646061  66.3866482  69.6272862
   6.7493110  65.0883472  70.4057818   4.3661840  71.8982312  66.6998711
   4.6421684  71.7838906  67.6092585   3.4966339  71.4999797  66.6610884
   4.2702272  57.9219077  73.7403460   3.3565352  58.1523304  73.9085667
   4.6995373  58.0057521  74.5917493   4.0408730  66.1108969  76.2403354
   3.3880181  66.3584877  75.5855807   4.4189110  65.2973108  75.9065832
   1.0015904  76.1468663  70.3431525   1.1838299  75.3290318  70.8059277
   1.8248890  76.3636355  69.9056415   1.3358070  75.0736848  67.6046573
   1.8645836  74.5629302  66.9916735   1.5986289  74.7579378  68.4692106
   3.6829960  72.9856965  82.8175662   4.2269864  73.5986924  82.3230617
   3.1016805  73.5436544  83.3342675   1.9687473  76.1077683  73.9490690
   1.8438613  75.3067423  73.4401635   2.6266565  76.6023877  73.4604660
   4.0322382  73.9086703  75.5770240   3.0852717  73.7892055  75.5048566
   4.3805155  73.0209201  75.6596501   1.0368815  73.7039420  71.7774592
   0.8893778  72.7756127  71.9582162   1.8622309  73.7259510  71.2931667
   4.6402937  74.5267978  72.8639465   5.5649484  74.3210840  72.7263916
   4.4718240  74.2784380  73.7728806   1.0330329  61.5577257  66.7706709
   1.2493944  62.4401895  66.4695537   0.5524397  61.1663471  66.0412351
   4.4298253  75.0453646  68.2201556   4.6035131  74.4800068  67.4675409
   4.9227144  75.8454541  68.0381046  10.2837644  67.8090069  69.8391856
  10.7268790  67.0597394  69.4410979   9.4064155  67.8000205  69.4565588
   5.4173426  74.3620410  65.3198454   6.1124330  74.9827103  65.5385769
   5.7596576  73.5115761  65.5950832   7.3164849  71.8120116  66.8485785
   7.8416173  72.1507389  66.1235105   7.2287201  70.8767131  66.6648920
   7.0058755  72.4453019  82.1536983   6.2154299  72.4277158  81.6141483
   6.7692109  72.9841313  82.9086020   7.1256630  69.2945486  79.4669712
   7.1754635  69.1295493  80.4085235   7.0170553  68.4272745  79.0767592
   4.4160392  65.2776414  80.7829018   5.3170255  65.1382879  80.4913016
   4.4908367  65.4430869  81.7227196   8.6274827  71.7142427  79.7111733
   8.3359635  72.0772408  80.5475194   8.0146958  71.0009436  79.5325065
   9.8270509  69.2795307  72.2314303  10.6617400  69.7185111  72.3951864
   9.9629638  68.8033960  71.4122549   6.8762015  66.8375042  78.1791791
   7.3516137  67.0302688  77.3710643   5.9527580  66.8934228  77.9335175
   1.4542231  58.8722886  77.1447625   1.9724175  59.6083912  76.8194114
   1.0997364  59.1786879  77.9794384   1.7054826  55.2923168  72.6648522
   1.9856579  54.6246357  73.2908948   2.4905433  55.4852264  72.1523186
   5.5763684  63.7140802  76.4120097   6.5281107  63.8138900  76.4332321
   5.4067134  62.9219071  76.9218181   3.5978063  60.7996385  76.5979498
   3.0027996  61.0801398  75.9025986   3.3127760  61.2890286  77.3696239
   2.7285554  74.7519312  65.3582130   3.6616227  74.6864874  65.5615006
   2.6408767  75.5875579  64.8996663   5.3573571  74.0685182  62.3186078
   5.2787202  73.7345046  63.2121836   6.1783237  74.5606950  62.3177550
   8.0551762  66.9346922  75.5262396   8.0228082  65.9962922  75.7122080
   8.6652385  67.0130958  74.7928221   8.2046250  63.7257965  75.5720680
   7.6885299  62.9416422  75.3850609   9.0886199  63.3976682  75.7367199
   5.8656977  57.4698981  71.5316492   5.6681798  57.1614069  72.4159824
   6.4756683  58.1960620  71.6614422  13.8728312  67.9962929  74.6668433
  14.6031700  67.7348217  75.2276137  13.2635257  67.2591651  74.7070501
  11.9543609  66.1370791  75.2642884  11.2276772  66.0026756  74.6559376
  11.5390896  66.4447620  76.0699603   1.6230624  57.3507888  69.2813024
   2.1761662  57.7703341  69.9403047   1.8600710  56.4243636  69.3235980
   5.0009431  59.4608413  68.7891688   4.4208100  60.1193217  68.4069740
   4.7345364  58.6385757  68.3779105   3.4512997  58.8613470  70.9913008
   3.9512776  58.9730005  70.1827327   4.0948605  58.5574523  71.6313817
   3.7834309  61.6208503  67.8448036   2.8960164  61.9058154  67.6268231
   4.1988298  61.4602267  66.9975313   7.1348845  61.6455024  71.5602375
   7.9109235  62.1351477  71.8326992   6.4096979  62.0713078  72.0174245
   9.5721404  62.3582643  72.6176316  10.1665894  62.1178379  71.9069624
   9.6447987  61.6389774  73.2449852   2.9277522  71.3853178  61.9396056
   3.6313372  71.5903180  62.5553712   2.2040171  71.9529940  62.2045140
   3.7575333  67.1363039  68.0598326   3.7010534  67.5931591  67.2205959
   4.3103675  66.3753724  67.8821169   7.5680139  62.9252771  68.8848446
   7.3117073  62.5249407  69.7156654   6.9433007  63.6396565  68.7598585
  11.8792476  65.6648844  71.3919737  11.3192034  65.7342034  72.1651299
  11.2735980  65.4889829  70.6719234   4.8364220  71.8235707  63.9894516
   5.6709824  71.3916905  63.8071991   4.6748563  71.6517721  64.9171411
   4.4910112  68.3267820  65.3550856   4.4358916  68.1612092  64.4139300
   3.8656167  69.0343853  65.5113045   1.8056019  70.6316732  84.6804418
   2.6747179  70.8057384  84.3191053   1.3262771  71.4511149  84.5580148
   1.6158357  54.4218706  69.1882111   0.8490753  53.8677193  69.3338793
   2.0269062  54.4940575  70.0496262  13.4648495  82.3405358  74.0849693
  14.1026905  82.2212105  73.3813033  13.3469338  83.2886202  74.1437645
  10.2738201  82.2932786  74.0211218   9.9356713  82.1773851  73.1331753
  11.1427969  81.8923951  74.0012224   6.1325017  84.1468263  70.0108109
   5.5689882  84.0558200  69.2424396   6.0177412  83.3268167  70.4910601
  10.7557984  83.4467638  79.9797423  10.7446625  83.0520436  79.1077927
  10.9178624  82.7133711  80.5731195   3.6789449  85.6419454  72.8492329
   4.4710741  85.3010279  72.4338628   3.9186099  85.7514429  73.7694482
  11.7124576  87.8139230  65.3222574  11.0612555  88.3993311  64.9356587
  12.5068938  88.3445425  65.3817611   5.6380203  84.9028367  65.7209708
   6.4111079  84.3557355  65.5822584   5.9905602  85.7672617  65.9324169
   7.4765245  86.2304750  78.9276607   7.1855111  87.1350381  78.8123274
   8.1122230  86.2721277  79.6420677   8.4021452  83.6081598  75.5177967
   8.9985024  83.3837621  74.8034930   8.4596424  82.8666344  76.1203415
   7.9746481  81.0621034  63.3528158   8.2272001  80.5402555  62.5911621
   7.0371040  80.8987179  63.4554841  13.0189763  80.0656812  71.1602901
  13.8052853  79.6476235  70.8093318  13.2828468  80.9702904  71.3284549
  13.1899841  85.5029662  65.8591558  12.5545674  85.5764289  66.5712462
  12.8597247  86.0923261  65.1810637  18.4198190  80.0032045  72.0635880
  19.1523362  79.4331262  72.2973709  17.6637546  79.6153646  72.5042385
   7.6942769  82.9649140  65.5552533   7.5779027  82.2894043  66.2233617
   7.8045029  82.4781513  64.7384686  10.0374310  82.4259287  69.2599222
   9.6732517  81.8989908  69.9712143  10.8941426  82.0357756  69.0865707
  15.9423611  73.7153619  76.5230488  15.6106936  74.5849030  76.2991703
  15.3469224  73.3989903  77.2024519   9.6779797  77.4549186  64.2560571
   9.8454200  78.3229423  64.6231042   9.4876966  77.6176468  63.3321860
  12.4355130  85.9166165  75.9226401  12.1355853  86.8191204  75.8142208
  12.0906190  85.6498348  76.7747554   5.8867612  82.3679962  71.9563105
   4.9618108  82.2356176  72.1640797   6.1352025  83.1474181  72.4533048
  15.8352274  78.4348705  73.6023838  14.9269151  78.3664114  73.3082599
  15.7839870  78.9120650  74.4305664   9.6569018  79.9106844  65.2407237
   9.5368643  80.3563895  66.0792718   8.9621606  80.2592162  64.6820775
   3.2476423  82.0113236  72.7906894   3.3768804  82.2647715  73.7046306
   2.5673874  82.6040944  72.4711549   7.4175910  92.6810486  68.8897369
   7.3399940  93.6318311  68.9685849   6.8137554  92.3356358  69.5472295
   9.9093140  79.8538351  81.5458735   9.1326474  80.4132271  81.5361600
  10.5483703  80.3395134  82.0673606  17.7013921  76.6365144  75.3801712
  17.0588301  76.9297677  74.7341507  17.1968849  76.5218064  76.1854909
  15.3554084  80.3828317  66.0687571  16.2671940  80.6155704  65.8935269
  14.8463731  80.9665361  65.5062650   8.1639512  82.6623804  81.1076702
   8.9054197  83.2008848  80.8311526   7.4576498  83.2890093  81.2648254
  13.6394852  84.8052945  79.7048864  14.0478208  84.3635355  78.9603496
  12.9172113  84.2305572  79.9583057   9.9925922  79.7425552  77.0782421
  10.8387117  80.1664965  77.2217070   9.9324560  79.0859176  77.7720984
  13.9623667  85.3654135  73.4601153  13.3332529  85.5299850  72.7577221
  13.5749329  85.7795745  74.2312117  17.8412898  86.3008573  70.8145517
  17.1563937  86.6807475  70.2642550  17.9256748  86.9103900  71.5477464
  13.1425367  77.4029920  78.7363595  12.8986299  78.1571981  78.1997870
  13.4185298  77.7815268  79.5710842  15.0963830  83.9468532  77.4140860
  15.3080725  84.5900292  76.7375241  15.0493578  83.1130849  76.9462790
  12.6990059  76.5586353  74.3177432  11.8374538  76.8567607  74.6094170
  12.7252494  76.7756752  73.3858465   9.5151628  85.1028544  70.7251238
   9.9789974  85.3816247  69.9355860   9.2508427  84.2011988  70.5424329
   6.4075709  84.6500025  73.6631001   6.9777067  85.0787293  73.0248486
   6.9983821  84.3682610  74.3615187   8.4520514  81.2251696  67.5340803
   9.1544558  81.6772740  68.0014729   8.1201143  80.5835515  68.1620696
   6.9000876  79.8163453  81.9092012   6.2699537  80.4979733  82.1427409
   6.7936964  79.7046534  80.9645151   2.1945848  79.4835249  72.8357937
   1.4044902  79.7392777  72.3598047   2.6857096  80.2983586  72.9409977
  16.2109658  86.8240488  75.5863217  17.0327102  86.4220675  75.3045899
  16.2072061  86.7208722  76.5379333   4.1460594  79.8479828  69.7941413
   3.3491757  79.9598522  70.3124909   3.9186186  80.1866480  68.9282304
   9.9766261  86.3724531  77.7423928  10.0410694  86.8344938  78.5782100
   9.2677185  85.7421896  77.8706238   0.4783551  79.7365739  75.2672927
   0.7291590  80.6212749  75.5330503   1.0143100  79.5570341  74.4948019
  24.3015651  83.1679236  71.9348189  23.5479359  82.5986634  71.7792193
  24.4363192  83.1341901  72.8818824   9.6914279  88.0392639  67.6102908
   9.5559954  88.8844174  68.0387756  10.2324092  88.2411916  66.8468842
   6.1781619  74.1184218  84.2717264   5.7848564  73.5650417  84.9464908
   6.9947759  74.4294797  84.6623781   3.1443676  85.5568077  68.1830833
   3.6568197  86.3511327  68.3336398   3.7966389  84.8594367  68.1164435
   4.9538561  88.6733833  70.2653587   5.1305189  89.5951798  70.0774570
   5.7495395  88.3592252  70.6947966   9.0949580  75.5342098  81.8637520
   9.8359293  76.1349251  81.7841983   9.3267503  74.7919735  81.3055563
   4.2390918  80.7198465  80.1415750   4.1244433  79.8183722  80.4422849
   3.3835435  80.9662162  79.7900566  11.3182755  88.6616205  81.7403250
  10.8746610  87.8752584  81.4224155  11.9799969  88.8495356  81.0747141
   6.0769877  90.1912007  76.2663929   6.6277302  90.0629070  75.4940923
   5.2381353  90.4906896  75.9158822  13.4163994  88.9419005  79.7684652
  13.3982469  89.7627886  79.2764921  14.3383914  88.8173080  79.9934793
   9.8737048  86.4563135  80.6108160  10.4065384  85.6951423  80.3807468
   9.3451129  86.1636786  81.3532315  13.0406743  71.5623200  76.1401802
  12.6971012  72.4524842  76.0640912  13.4085705  71.3724858  75.2771387
   1.1092593  83.8856731  68.9590404   1.9467815  84.2953739  68.7424112
   1.2870861  82.9456173  68.9290598  13.0057025  81.5531812  64.6474237
  12.4903649  82.3236416  64.8862624  12.7334334  80.8796948  65.2707298
  10.5904136  76.3981512  69.7059475   9.7345733  76.0088363  69.5265114
  11.0031088  76.4773473  68.8459261  12.1203283  73.9327856  74.1051035
  11.6168079  73.8957991  73.2918840  12.4133890  74.8420598  74.1647692
   8.3646169  74.0166585  73.1117217   9.2299166  73.8209394  72.7523106
   8.4323678  73.7876937  74.0386574  17.9791299  84.3064166  66.5827410
  17.2020742  83.9675326  66.1382572  18.6582780  84.3116789  65.9082375
  12.7943329  79.4258904  66.4734018  12.4893464  79.7405053  67.3244161
  13.7473771  79.5040324  66.5161351  11.2389760  85.5849127  68.1226972
  10.7111122  84.8501887  67.8100210  10.7377263  86.3623803  67.8766940
  16.2182606  83.7798147  73.2394018  15.5606281  84.4697409  73.3274147
  17.0223006  84.1694579  73.5828005   5.9708488  76.2468793  70.4833584
   6.5452240  76.0243975  69.7506777   6.5579470  76.3157488  71.2362185
  15.0288065  82.1342520  71.2897960  15.5419947  82.7672512  71.7919670
  15.6789289  81.5343716  70.9241320   6.2978075  78.2773254  64.5029469
   5.4615387  78.6147941  64.8238744   6.1582845  78.1422234  63.5656606
   8.2731156  73.1210042  69.2108653   7.6195568  72.8059059  68.5865268
   8.2311630  72.4985783  69.9368476   9.3842361  83.4029337  61.1261945
   8.4769422  83.1718591  61.3253094   9.8813393  82.6066956  61.3135927
  12.2910439  92.1126844  64.0458631  11.6172138  92.4158541  64.6543589
  12.6776261  92.9155925  63.6964088  11.5068896  79.6091976  73.5356301
  10.5891457  79.8306923  73.3777989  11.9229040  79.6838286  72.6768008
  12.2903944  81.0083391  68.6658981  13.0375763  81.5204789  68.3566103
  12.5595533  80.6867444  69.5263374  10.5630594  83.5041932  65.6485935
   9.6541813  83.2200965  65.7458405  10.5925678  83.9241011  64.7889242
  15.7949861  87.1148522  69.4177103  15.3412189  86.2739431  69.4742293
  15.1643828  87.7509920  69.7551883  14.7382781  78.0440508  70.6477770
  14.0005538  77.5317894  70.9788013  14.9909555  77.6040889  69.8361047
  14.2382801  88.9525018  70.3526921  14.5305775  89.5130075  69.6339287
  14.7481421  89.2453579  71.1080080  14.8394408  70.8216760  71.2419539
  15.1453285  69.9614123  70.9545455  15.5647013  71.4134380  71.0418533
   1.1318764  81.2247446  69.6301137   0.9343164  80.6316807  68.9052204
   0.5765428  80.9199656  70.3477076   9.1115488  81.1170553  71.7495731
   9.1664098  80.1644389  71.6738207   8.3006690  81.2729992  72.2337029
  10.2606682  85.0450676  62.9874014   9.8226112  84.3286535  62.5279651
  11.0017123  85.2726791  62.4259105   7.0507848  79.7347612  69.5086109
   6.2375713  80.0341783  69.9151302   7.5466842  79.3403301  70.2260592
   9.2016426  89.7305369  71.4420374   9.1592605  89.9566216  70.5128906
  10.1179125  89.4968744  71.5906175  12.6482060  80.1989437  78.3401003
  13.0031447  80.4260910  79.1995469  13.2954191  80.5307814  77.7178259
  18.3779797  83.3207873  69.0450332  18.2397695  83.5109469  68.1171522
  18.0216015  84.0827256  69.5018383   6.5421923  77.3065968  75.1247344
   7.1821302  77.1654727  74.4270308   5.7099453  77.0200481  74.7485946
  18.4049176  85.3884400  74.0561604  18.8385683  85.2959689  74.9044658
  19.1180757  85.3641900  73.4181620   7.3182227  86.6068398  71.2382337
   8.1122825  86.1118719  71.0364912   6.6073919  86.0786262  70.8750042
  12.1377071  88.9886494  75.5894704  12.1914093  89.5577430  76.3572420
  11.2691852  89.1588379  75.2248742   3.6264990  80.7511480  67.3142089
   2.6962578  80.6895936  67.5312052   3.7222462  80.2287433  66.5178731
   3.5450539  77.2766293  69.9020331   3.8057356  78.1911626  69.7929492
   4.3667711  76.8090736  70.0516944   5.0175464  78.6904050  77.0719156
   5.6898518  78.4821412  76.4231805   4.1905251  78.4926136  76.6324388
  19.2664726  85.4308100  76.5894489  19.4600616  86.3353911  76.8353764
  19.1665344  84.9715520  77.4233074  10.9201036  75.3165991  79.0884817
  10.2728952  76.0155941  78.9949293  11.6902052  75.7502135  79.4561065
  14.3279834  85.5814843  82.1635370  14.1765341  85.3525395  81.2465454
  14.3184514  86.5385445  82.1766715  11.0965171  83.1546756  77.1481636
  12.0257231  83.3057916  76.9750604  10.6756201  83.2430777  76.2930283
   9.8953503  87.1797420  74.9180174   9.7564588  86.8116205  75.7906112
   9.1068099  87.6945060  74.7464132  10.4901655  92.2806517  66.2605710
  10.6653410  91.8094560  67.0751333   9.8034443  92.9072283  66.4886971
  11.4458718  86.5579023  72.3069012  11.1108550  86.5179793  73.2026662
  10.9462663  85.8923739  71.8339422   5.4202962  81.9646653  77.8321593
   5.2822760  81.2326892  78.4333132   6.3307885  81.8755553  77.5505781
  14.3817909  83.9035057  62.5806071  13.7647080  83.1781886  62.4839124
  13.9134398  84.6644418  62.2373146   8.0485262  81.6766612  77.3205273
   8.7584881  81.0359805  77.2791891   8.0054571  81.9279507  78.2431453
  16.0372041  88.6133966  80.2411852  15.9784587  87.9293186  79.5742435
  16.4391559  89.3552956  79.7892478   6.7614196  78.6631830  79.1400912
   6.2251553  78.2122569  79.7922508   6.1730905  78.7977739  78.3971376
   5.0562740  95.4295880  73.0345571   5.2959338  96.0614404  73.7124589
   4.2131936  95.0783920  73.3210930   6.1716455  78.1220482  61.7027376
   5.2945922  78.0009283  61.3389622   6.6474208  77.3306560  61.4506264
  16.0389448  86.5773550  78.4725831  15.1516227  86.2399472  78.5952230
  16.6087999  85.8456581  78.7094597   2.4953318  77.7987838  76.2253906
   2.4111506  77.1913508  75.4904316   1.6736024  78.2896856  76.2263403
   9.5690602  91.2375002  75.4387075   9.4960773  92.0429974  75.9506379
   9.1267995  91.4366968  74.6135096   9.3580381  90.4746772  68.9489896
   8.5747903  91.0168452  69.0428121  10.0573127  90.9920752  69.3484137
  12.6677031  76.2841402  71.5924102  13.1645731  75.5311364  71.2725172
  11.8964013  76.3205718  71.0267311  20.5206789  81.9881767  73.2342393
  20.5096665  82.8706483  72.8636326  19.6524168  81.6353318  73.0396930
  12.0289285  91.1361836  77.5945233  12.7417257  91.7709301  77.5221135
  11.5379314  91.2325702  76.7785235  13.7506812  85.0413089  69.1662525
  12.8163091  85.1614551  68.9967229  13.9283481  84.1385556  68.9022535
   9.2512000  78.4258785  71.3195786   8.8809788  77.8729825  72.0076692
   9.7471093  77.8216918  70.7670786  17.1379364  80.8830408  69.7012559
  17.6039816  81.7158400  69.6272862  17.5886864  80.4175390  70.4057818
   7.0801199  88.8856280  78.4150804   7.7810658  89.5192763  78.5680198
   6.6096314  89.2271011  77.6546443  15.2055595  87.2274229  66.6998711
  15.4815439  87.1130824  67.6092585  14.3360093  86.8291714  66.6610884
  15.1096026  73.2510995  73.7403460  14.1959106  73.4815222  73.9085667
  15.5389128  73.3349439  74.5917493  14.8802485  81.4400887  76.2403354
  14.2273935  81.6876794  75.5855807  15.2582865  80.6265025  75.9065832
  11.8409659  91.4760580  70.3431525  12.0232053  90.6582236  70.8059277
  12.6642645  91.6928272  69.9056415  12.1751824  90.4028765  67.6046573
  12.7039591  89.8921220  66.9916735  12.4380044  90.0871296  68.4692106
  10.9290058  82.1820698  82.7269392  10.2530695  82.0814827  83.3971767
  11.7517692  82.0259912  83.1905389   2.6768917  88.4192635  75.3481907
   3.2622354  87.6736323  75.4809811   2.4793755  88.7296591  76.2318571
   5.5307572  91.4543882  70.3644349   4.8617947  91.9390010  69.8808389
   5.3920442  91.7013102  71.2787728   9.6712841  93.4887626  76.9627007
  10.2231149  93.6519247  77.7276093  10.0119034  94.0792063  76.2907032
   4.6477334  75.8362775  77.5648892   4.7118660  76.6977606  77.1526290
   4.5844454  75.2236777  76.8321251   4.1229606  77.9085908  81.2121926
   4.7501645  77.5262985  81.8259451   3.2657525  77.6900110  81.5777619
  14.5223715  88.3148883  82.8175662  15.0663619  88.9278841  82.3230617
  13.9410560  88.8728461  83.3342675  12.8081228  91.4369601  73.9490690
  12.6832367  90.6359341  73.4401635  13.4660319  91.9315794  73.4604660
   4.4289396  77.7918334  73.1267830   3.7075982  78.4054301  72.9875303
   5.2182652  78.3276098  73.0484476  14.8716136  89.2378621  75.5770240
  13.9246472  89.1183972  75.5048566  15.2198909  88.3501119  75.6596501
   7.2315710  75.1272760  79.4008482   7.7550112  75.3735057  80.1634791
   7.0128043  75.9592795  78.9811619   2.6282991  77.3976435  67.2679606
   2.2995697  76.5173814  67.0854712   2.9822361  77.3424103  68.1555996
  11.8762570  89.0331337  71.7774592  11.7287532  88.1048045  71.9582162
  12.7016063  89.0551428  71.2931667   5.7424814  77.6849404  67.6355084
   6.0820886  78.2135326  66.9133692   6.1896934  78.0229811  68.4113651
  15.4796691  89.8559896  72.8639465  16.4043239  89.6502757  72.7263916
  15.3111995  89.6076297  73.7728806   8.4368255  76.0686455  77.0858152
   8.0965075  75.2694268  77.4878832   7.7307261  76.3688166  76.5134985
   9.0884727  73.1535768  75.5385475   9.9110796  72.6796246  75.4164366
   9.3322790  73.9326251  76.0384161   7.7292961  76.1824026  65.8348377
   8.4501324  76.5605279  65.3312094   7.1058265  76.9012903  65.9383355
  11.8724084  76.8869175  66.7706709  12.0887698  77.7693813  66.4695537
  11.3918151  76.4955388  66.0412351   6.6123305  79.8454888  73.3477454
   6.4667886  80.1595191  74.2401735   6.1348509  80.4639789  72.7948352
   8.4719688  76.8357436  73.3958343   8.4581257  75.9398530  73.0590641
   9.1892116  76.8428100  74.0296629  10.3245819  77.2694776  75.4411471
  10.0663597  78.1911847  75.4395801   9.7930859  76.8725211  76.1311935
  15.2692008  90.3745564  68.2201556  15.4428885  89.8091986  67.4675409
  15.7620899  91.1746458  68.0381046   1.0868967  82.3860233  76.2865115
   0.5422436  83.1620041  76.4185389   1.9648317  82.7331037  76.1284236
   7.8756584  75.7171816  68.6645913   7.9972495  74.7888463  68.8636801
   7.5858626  75.7310502  67.7524229  10.7447775  73.4026727  71.8012633
  10.7669471  73.4666060  70.8464613  11.1615834  72.5631236  71.9953140
  21.1231399  83.1381986  69.8391856  21.5662545  82.3889312  69.4410979
  20.2457909  83.1292123  69.4565588  16.2567180  89.6912328  65.3198454
  16.9518085  90.3119021  65.5385769  16.5990330  88.8407679  65.5950832
   1.8734989  81.5130129  79.1795272   1.1316725  81.6612764  79.7659902
   1.5527734  81.7738394  78.3162021  18.1558603  87.1412033  66.8485785
  18.6809927  87.4799306  66.1235105  18.0680956  86.2059049  66.6648920
   9.8178652  91.0546107  78.9775662  10.1265778  90.8095254  79.8498361
  10.6154134  91.2592746  78.4894532   9.8399264  93.2084017  71.2081038
   9.4004254  92.7160395  71.9013895  10.5907381  92.6656984  70.9673114
   2.3191603  89.3995558  71.2105666   3.1449623  89.0999329  70.8304310
   1.9685655  88.6303180  71.6595455   7.2873136  88.7522026  73.2803340
   6.6653145  88.0892731  72.9805568   7.9578003  88.7783158  72.5976988
   7.3597664  77.2303814  82.8735846   7.4085819  78.1065937  82.4913616
   7.9020178  76.6881207  82.3007489  17.8452509  87.7744937  82.1536983
  17.0548053  87.7569076  81.6141483  17.6085864  88.3133231  82.9086020
  17.9650384  84.6237403  79.4669712  18.0148389  84.4587411  80.4085235
  17.8564308  83.7564662  79.0767592   6.8486643  87.3025949  66.7561801
   6.9974763  87.9861414  66.1028473   7.6553087  87.2831039  67.2711256
  15.2554147  80.6068331  80.7829018  16.1564010  80.4674796  80.4913016
  15.3302121  80.7722786  81.7227196   9.5896952  77.9835186  79.6282205
   8.7200262  78.2768752  79.3564793   9.8256432  78.5675631  80.3489468
  19.4668581  87.0434345  79.7111733  19.1753390  87.4064326  80.5475194
  18.8540713  86.3301353  79.5325065  20.6664264  84.6087225  72.2314303
  21.5011155  85.0477029  72.3951864  20.8023392  84.1325878  71.4122549
  17.7155769  82.1666960  78.1791791  18.1909891  82.3594606  77.3710643
  16.7921335  82.2226145  77.9335175   4.6039276  83.3291127  67.7622870
   4.3585318  82.4253457  67.9603080   4.7735191  83.3308277  66.8202348
  12.2935986  74.2014803  77.1447625  12.8117930  74.9375830  76.8194114
  11.9391119  74.5078796  77.9794384   3.8734924  79.0619484  65.2609031
   3.1804169  79.1363839  64.6049067   3.6286676  78.2979828  65.7830548
  12.5448580  70.6215086  72.6648522  12.8250334  69.9538275  73.2908948
  13.3299187  70.8144181  72.1523186  10.3482049  89.7974080  64.2273548
   9.7756016  90.4164267  63.7744020  10.9214842  90.3473441  64.7613470
  16.4157438  79.0432720  76.4120097  17.3674861  79.1430817  76.4332321
  16.2460889  78.2510988  76.9218181  14.4371818  76.1288303  76.5979498
  13.8421750  76.4093316  75.9025986  14.1521515  76.6182204  77.3696239
  13.5679308  90.0811230  65.3582130  14.5009982  90.0156791  65.5615006
  13.4802521  90.9167497  64.8996663  16.1967325  89.3977100  62.3186078
  16.1180957  89.0636964  63.2121836  17.0176992  89.8898868  62.3177550
  18.8945516  82.2638839  75.5262396  18.8621836  81.3254840  75.7122080
  19.5046140  82.3422876  74.7928221  10.7328847  81.1334892  61.5689601
  11.6787952  81.0041100  61.6378019  10.3543092  80.3949554  62.0459029
  19.0440005  79.0549883  75.5720680  18.5279053  78.2708339  75.3850609
  19.9279953  78.7268599  75.7367199  16.7050732  72.7990898  71.5316492
  16.5075553  72.4905987  72.4159824  17.3150437  73.5252537  71.6614422
  24.7122066  83.3254846  74.6668433  25.4425455  83.0640134  75.2276137
  24.1029012  82.5883568  74.7070501  22.7937363  81.4662709  75.2642884
  22.0670527  81.3318674  74.6559376  22.3784650  81.7739537  76.0699603
  10.6167540  85.1852638  83.0290258  11.5370549  85.3631238  83.2230304
  10.5817123  84.2408684  82.8769957   8.9171764  79.0584869  61.5044486
   8.0103220  78.7617981  61.5807199   9.1947745  78.7614687  60.6378772
   3.6129612  83.0953673  75.6713039   3.8315622  84.0270781  75.6901072
   4.0255386  82.7361648  76.4567843  10.5333830  73.6021758  67.6588727
   9.7234558  73.2568843  68.0343973  11.2218247  73.2929302  68.2476339
  12.4624378  72.6799805  69.2813024  13.0155417  73.0995259  69.9403047
  12.6994465  71.7535553  69.3235980   8.4857478  78.6686879  85.0615788
   8.3854204  79.6181236  84.9927879   8.2679020  78.3405118  84.1891858
   7.6870549  75.9171804  61.6456465   8.5489713  76.2426702  61.9052282
   7.8720893  75.1303300  61.1329531  15.8403185  74.7900330  68.7891688
  15.2601854  75.4485134  68.4069740  15.5739118  73.9677675  68.3779105
  14.2906752  74.1905388  70.9913008  14.7906530  74.3021923  70.1827327
  14.9342360  73.8866441  71.6313817   8.3488748  82.0984018  83.8780849
   7.8655829  82.8984378  84.0844738   8.4349687  82.1091963  82.9248293
   1.6174707  83.9312397  71.8002669   1.5945395  84.0300085  70.8484552
   1.9275344  84.7777548  72.1219835   4.2762085  85.9888552  75.9149283
   5.2305339  85.9572495  75.8479215   4.0774609  85.5279176  76.7299509
   4.8661467  84.5589669  78.4820081   5.6854356  85.0533747  78.5054918
   5.1398275  83.6421637  78.4537648  14.6228063  76.9500421  67.8448036
  13.7353918  77.2350071  67.6268231  15.0382052  76.7894184  66.9975313
  17.9742600  76.9746942  71.5602375  18.7502990  77.4643394  71.8326992
  17.2490734  77.4004996  72.0174245  20.4115158  77.6874561  72.6176316
  21.0059649  77.4470297  71.9069624  20.4841742  76.9681692  73.2449852
   2.6312314  91.5308172  72.9319481   2.4966782  90.7708573  72.3657479
   2.2144376  92.2549072  72.4648270  13.7671277  86.7145095  61.9396056
  14.4707127  86.9195098  62.5553712  13.0433926  87.2821857  62.2045140
  14.5969087  82.4654957  68.0598326  14.5404289  82.9223508  67.2205959
  15.1497430  81.7045641  67.8821169  18.4073893  78.2544689  68.8848446
  18.1510827  77.8541324  69.7156654  17.7826761  78.9688483  68.7598585
  22.7186231  80.9940762  71.3919737  22.1585789  81.0633951  72.1651299
  22.1129734  80.8181746  70.6719234   5.7881440  92.4277489  73.1437924
   5.6713824  93.3722921  73.0416614   4.9673886  92.1251051  73.5323723
  15.6757974  87.1527625  63.9894516  16.5103578  86.7208823  63.8071991
  15.5142317  86.9809638  64.9171411  15.3303866  83.6559738  65.3550856
  15.2752670  83.4904009  64.4139300  14.7049922  84.3635771  65.5113045
  12.6449774  85.9608650  84.6804418  13.5140933  86.1349302  84.3191053
  12.1656525  86.7803067  84.5580148   8.6399992  73.1567847  64.9336174
   8.6278662  74.1009687  65.0904445   9.5323414  72.9737992  64.6395635
   6.8135954  93.0805751  76.3593852   7.7163201  93.1129361  76.6760347
   6.5873324  92.1506202  76.3740188   8.5689556  91.8336737  73.0203931
   7.6185187  91.8338599  72.9068303   8.8722042  91.0869472  72.5039965
  12.4552111  69.7510624  69.1882111  11.6884507  69.1969110  69.3338793
  12.8662816  69.8232492  70.0496262   4.4593872  76.0395419  83.2787292
   5.3225334  75.6832224  83.4890617   3.8859283  75.7009314  83.9662696
  24.3042249  97.6697276  74.0849693  24.9420659  97.5504023  73.3813033
  24.1863092  98.6178120  74.1437645  21.1131956  97.6224704  74.0211218
  20.7750467  97.5065769  73.1331753  21.9821724  97.2215869  74.0012224
  16.9718771  99.4760180  70.0108109  16.4083636  99.3850117  69.2424396
  16.8571166  98.6560085  70.4910601  21.5951739  98.7759556  79.9797423
  21.5840379  98.3812354  79.1077927  21.7572378  98.0425628  80.5731195
  14.5183203 100.9711372  72.8492329  15.3104495 100.6302197  72.4338628
  14.7579853 101.0806347  73.7694482  22.5518330 103.1431148  65.3222574
  21.9006310 103.7285228  64.9356587  23.3462693 103.6737343  65.3817611
  16.4773957 100.2320285  65.7209708  17.2504833  99.6849272  65.5822584
  16.8299356 101.0964534  65.9324169  18.3159000 101.5596667  78.9276607
  18.0248866 102.4642298  78.8123274  18.9515984 101.6013195  79.6420677
  19.2415207  98.9373516  75.5177967  19.8378779  98.7129538  74.8034930
  19.2990178  98.1958261  76.1203415  18.8140235  96.3912951  63.3528158
  19.0665756  95.8694473  62.5911621  17.8764794  96.2279097  63.4554841
  23.8583518  95.3948730  71.1602901  24.6446607  94.9768153  70.8093318
  24.1222222  96.2994822  71.3284549  24.0293595 100.8321580  65.8591558
  23.3939428 100.9056206  66.5712462  23.6991002 101.4215179  65.1810637
  29.2591945  95.3323963  72.0635880  29.9917117  94.7623180  72.2973709
  28.5031301  94.9445563  72.5042385  18.5336524  98.2941057  65.5552533
  18.4172782  97.6185961  66.2233617  18.6438784  97.8073431  64.7384686
  20.8768065  97.7551204  69.2599222  20.5126272  97.2281825  69.9712143
  21.7335181  97.3649673  69.0865707  26.7817365  89.0445537  76.5230488
  26.4500690  89.9140948  76.2991703  26.1862979  88.7281821  77.2024519
  20.5173552  92.7841104  64.2560571  20.6847954  93.6521340  64.6231042
  20.3270721  92.9468386  63.3321860  23.2748885 101.2458083  75.9226401
  22.9749608 102.1483122  75.8142208  22.9299944 100.9790266  76.7747554
  16.7261366  97.6971880  71.9563105  15.8011863  97.5648094  72.1640797
  16.9745780  98.4766099  72.4533048  26.6746029  93.7640623  73.6023838
  25.7662906  93.6956032  73.3082599  26.6233624  94.2412568  74.4305664
  20.4962773  95.2398762  65.2407237  20.3762398  95.6855812  66.0792718
  19.8015361  95.5884079  64.6820775  14.0870177  97.3405153  72.7906894
  14.2162559  97.5939632  73.7046306  13.4067629  97.9332861  72.4711549
  20.7486894  95.1830269  81.5458735  19.9720228  95.7424189  81.5361600
  21.3877457  95.6687052  82.0673606  28.5407675  91.9657062  75.3801712
  27.8982055  92.2589595  74.7341507  28.0362604  91.8509982  76.1854909
  26.1947839  95.7120235  66.0687571  27.1065695  95.9447621  65.8935269
  25.6857486  96.2957279  65.5062650  19.0033267  97.9915722  81.1076702
  19.7447951  98.5300766  80.8311526  18.2970252  98.6182011  81.2648254
  24.4788606 100.1344863  79.7048864  24.8871962  99.6927273  78.9603496
  23.7565868  99.5597490  79.9583057  20.8319676  95.0717469  77.0782421
  21.6780872  95.4956883  77.2217070  20.7718314  94.4151094  77.7720984
  24.8017421 100.6946053  73.4601153  24.1726283 100.8591767  72.7577221
  24.4143083 101.1087663  74.2312117  28.6806653 101.6300491  70.8145517
  27.9957691 102.0099392  70.2642550  28.7650502 102.2395818  71.5477464
  23.9819122  92.7321838  78.7363595  23.7380054  93.4863898  78.1997870
  24.2579052  93.1107185  79.5710842  25.9357585  99.2760450  77.4140860
  26.1474480  99.9192210  76.7375241  25.8887333  98.4422767  76.9462790
  23.5383813  91.8878271  74.3177432  22.6768293  92.1859524  74.6094170
  23.5646248  92.1048670  73.3858465  20.3545383 100.4320461  70.7251238
  20.8183728 100.7108164  69.9355860  20.0902181  99.5303906  70.5424329
  17.2469464  99.9791943  73.6631001  17.8170821 100.4079211  73.0248486
  17.8377576  99.6974528  74.3615187  19.2914269  96.5543614  67.5340803
  19.9938312  97.0064657  68.0014729  18.9594897  95.9127432  68.1620696
  17.7394630  95.1455370  81.9092012  17.1093291  95.8271651  82.1427409
  17.6330718  95.0338452  80.9645151  13.0339603  94.8127166  72.8357937
  12.2438657  95.0684695  72.3598047  13.5250850  95.6275504  72.9409977
  27.0503412 102.1532405  75.5863217  27.8720856 101.7512593  75.3045899
  27.0465815 102.0500640  76.5379333  14.9854348  95.1771746  69.7941413
  14.1885512  95.2890440  70.3124909  14.7579940  95.5158398  68.9282304
  20.8160016 101.7016449  77.7423928  20.8804448 102.1636856  78.5782100
  20.1070940 101.0713814  77.8706238  11.3177306  95.0657657  75.2672927
  11.5685344  95.9504667  75.5330503  11.8536854  94.8862258  74.4948019
  35.1409406  98.4971154  71.9348189  34.3873114  97.9278552  71.7792193
  35.2756947  98.4633818  72.8818824  20.5308034 103.3684556  67.6102908
  20.3953708 104.2136092  68.0387756  21.0717846 103.5703834  66.8468842
  17.0175373  89.4476136  84.2717264  16.6242319  88.8942335  84.9464908
  17.8341514  89.7586715  84.6623781  13.9837431 100.8859994  68.1830833
  14.4961952 101.6803245  68.3336398  14.6360144 100.1886285  68.1164435
  15.7932316 104.0025751  70.2653587  15.9698944 104.9243715  70.0774570
  16.5889149 103.6884170  70.6947966  19.9343334  90.8634015  81.8637520
  20.6753048  91.4641168  81.7841983  20.1661257  90.1211653  81.3055563
  15.0784672  96.0490382  80.1415750  14.9638187  95.1475640  80.4422849
  14.2229190  96.2954079  79.7900566  22.1576510 103.9908123  81.7403250
  21.7140364 103.2044501  81.4224155  22.8193724 104.1787273  81.0747141
  16.9163631 105.5203924  76.2663929  17.4671056 105.3920988  75.4940923
  16.0775107 105.8198813  75.9158822  24.2557748 104.2710923  79.7684652
  24.2376223 105.0919804  79.2764921  25.1777668 104.1464998  79.9934793
  20.7130802 101.7855052  80.6108160  21.2459139 101.0243340  80.3807468
  20.1844883 101.4928704  81.3532315  23.8800497  86.8915118  76.1401802
  23.5364767  87.7816760  76.0640912  24.2479460  86.7016776  75.2771387
  11.9486348  99.2148649  68.9590404  12.7861570  99.6245657  68.7424112
  12.1264615  98.2748091  68.9290598  23.8450780  96.8823729  64.6474237
  23.3297403  97.6528334  64.8862624  23.5728088  96.2088865  65.2707298
  21.4297891  91.7273430  69.7059475  20.5739487  91.3380280  69.5265114
  21.8424843  91.8065391  68.8459261  22.9597038  89.2619773  74.1051035
  22.4561833  89.2249908  73.2918840  23.2527644  90.1712516  74.1647692
  19.2039923  89.3458503  73.1117217  20.0692920  89.1501312  72.7523106
  19.2717432  89.1168855  74.0386574  28.8185054  99.6356084  66.5827410
  28.0414497  99.2967243  66.1382572  29.4976535  99.6408707  65.9082375
  23.6337083  94.7550821  66.4734018  23.3287219  95.0696971  67.3244161
  24.5867525  94.8332241  66.5161351  22.0783515 100.9141045  68.1226972
  21.5504876 100.1793804  67.8100210  21.5771018 101.6915721  67.8766940
  27.0576361  99.1090065  73.2394018  26.4000035  99.7989327  73.3274147
  27.8616760  99.4986497  73.5828005  16.8102242  91.5760711  70.4833584
  17.3845994  91.3535892  69.7506777  17.3973225  91.6449405  71.2362185
  25.8681820  97.4634438  71.2897960  26.3813701  98.0964430  71.7919670
  26.5183044  96.8635633  70.9241320  17.1371830  93.6065172  64.5029469
  16.3009142  93.9439859  64.8238744  16.9976599  93.4714152  63.5656606
  19.1124910  88.4501960  69.2108653  18.4589323  88.1350977  68.5865268
  19.0705384  87.8277700  69.9368476  20.2236115  98.7321255  61.1261945
  19.3163177  98.5010508  61.3253094  20.7207147  97.9358874  61.3135927
  23.1304194 107.4418762  64.0458631  22.4565893 107.7450459  64.6543589
  23.5170016 108.2447842  63.6964088  22.3462651  94.9383893  73.5356301
  21.4285212  95.1598840  73.3777989  22.7622794  95.0130204  72.6768008
  23.1297698  96.3375309  68.6658981  23.8769517  96.8496706  68.3566103
  23.3989288  96.0159362  69.5263374  21.4024348  98.8333850  65.6485935
  20.4935568  98.5492883  65.7458405  21.4319432  99.2532928  64.7889242
  26.6343616 102.4440439  69.4177103  26.1805943 101.6031349  69.4742293
  26.0037583 103.0801838  69.7551883  25.5776535  93.3732425  70.6477770
  24.8399292  92.8609812  70.9788013  25.8303309  92.9332807  69.8361047
  25.0776555 104.2816936  70.3526921  25.3699530 104.8421993  69.6339287
  25.5875176 104.5745497  71.1080080  25.6788163  86.1508677  71.2419539
  25.9847040  85.2906041  70.9545455  26.4040768  86.7426298  71.0418533
  11.9712519  96.5539364  69.6301137  11.7736919  95.9608725  68.9052204
  11.4159183  96.2491574  70.3477076  19.9509243  96.4462470  71.7495731
  20.0057852  95.4936307  71.6738207  19.1400445  96.6021909  72.2337029
  21.1000436 100.3742593  62.9874014  20.6619866  99.6578452  62.5279651
  21.8410877 100.6018708  62.4259105  17.8901602  95.0639530  69.5086109
  17.0769468  95.3633701  69.9151302  18.3860597  94.6695219  70.2260592
  20.0410180 105.0597287  71.4420374  19.9986359 105.2858133  70.5128906
  20.9572879 104.8260662  71.5906175  23.4875814  95.5281355  78.3401003
  23.8425202  95.7552828  79.1995469  24.1347945  95.8599731  77.7178259
  29.2173551  98.6499790  69.0450332  29.0791450  98.8401386  68.1171522
  28.8609770  99.4119173  69.5018383  17.3815677  92.6357886  75.1247344
  18.0215057  92.4946645  74.4270308  16.5493208  92.3492399  74.7485946
  29.2442931 100.7176317  74.0561604  29.6779437 100.6251607  74.9044658
  29.9574511 100.6933818  73.4181620  18.1575981 101.9360316  71.2382337
  18.9516580 101.4410636  71.0364912  17.4467673 101.4078179  70.8750042
  22.9770826 104.3178412  75.5894704  23.0307848 104.8869348  76.3572420
  22.1085607 104.4880297  75.2248742  14.4658745  96.0803398  67.3142089
  13.5356333  96.0187853  67.5312052  14.5616217  95.5579351  66.5178731
  14.3844294  92.6058211  69.9020331  14.6451111  93.5203544  69.7929492
  15.2061466  92.1382653  70.0516944  15.8569219  94.0195968  77.0719156
  16.5292272  93.8113330  76.4231805  15.0299005  93.8218054  76.6324388
  30.1058480 100.7600018  76.5894489  30.2994370 101.6645829  76.8353764
  30.0059098 100.3007437  77.4233074  21.7594791  90.6457909  79.0884817
  21.1122706  91.3447858  78.9949293  22.5295806  91.0794053  79.4561065
  25.1673589 100.9106761  82.1635370  25.0159095 100.6817313  81.2465454
  25.1578268 101.8677362  82.1766715  21.9358925  98.4838674  77.1481636
  22.8650985  98.6349833  76.9750604  21.5149955  98.5722694  76.2930283
  20.7347257 102.5089338  74.9180174  20.5958343 102.1408122  75.7906112
  19.9461853 103.0236977  74.7464132  21.3295409 107.6098435  66.2605710
  21.5047165 107.1386478  67.0751333  20.6428197 108.2364201  66.4886971
  22.2852472 101.8870941  72.3069012  21.9502305 101.8471711  73.2026662
  21.7856418 101.2215657  71.8339422  16.2596716  97.2938571  77.8321593
  16.1216514  96.5618810  78.4333132  17.1701640  97.2047471  77.5505781
  25.2211664  99.2326975  62.5806071  24.6040835  98.5073803  62.4839124
  24.7528152  99.9936335  62.2373146  18.8879017  97.0058530  77.3205273
  19.5978635  96.3651722  77.2791891  18.8448325  97.2571425  78.2431453
  26.8765796 103.9425883  80.2411852  26.8178342 103.2585104  79.5742435
  27.2785314 104.6844873  79.7892478  17.6007951  93.9923748  79.1400912
  17.0645308  93.5414486  79.7922508  17.0124659  94.1269657  78.3971376
  17.0110210  93.4512399  61.7027376  16.1339676  93.3301200  61.3389622
  17.4867963  92.6598478  61.4506264  26.8783203 101.9065467  78.4725831
  25.9909982 101.5691389  78.5952230  27.4481754 101.1748499  78.7094597
   8.5312350  98.2389559  71.7968883   9.2183390  97.9251289  71.2089898
   8.3760479  99.1430924  71.5236134  13.3347072  93.1279756  76.2253906
  13.2505261  92.5205425  75.4904316  12.5129778  93.6188774  76.2263403
  20.4084356 106.5666920  75.4387075  20.3354528 107.3721891  75.9506379
  19.9661749 106.7658886  74.6135096  20.1974136 105.8038690  68.9489896
  19.4141658 106.3460370  69.0428121  20.8966881 106.3212669  69.3484137
  23.5070786  91.6133319  71.5924102  24.0039486  90.8603282  71.2725172
  22.7357767  91.6497636  71.0267311  31.3600543  97.3173685  73.2342393
  31.3490420  98.1998400  72.8636326  30.4917923  96.9645236  73.0396930
  22.8683040 106.4653754  77.5945233  23.5811012 107.1001219  77.5221135
  22.3773068 106.5617620  76.7785235  24.5900567 100.3705006  69.1662525
  23.6556845 100.4906469  68.9967229  24.7677235  99.4677473  68.9022535
  20.0905755  93.7550702  71.3195786  19.7203542  93.2021743  72.0076692
  20.5864847  93.1508836  70.7670786  27.9773118  96.2122326  69.7012559
  28.4433570  97.0450317  69.6272862  28.4280619  95.7467307  70.4057818
  17.9194953 104.2148197  78.4150804  18.6204413 104.8484680  78.5680198
  17.4490068 104.5562929  77.6546443  26.0449349 102.5566147  66.6998711
  26.3209193 102.4422742  67.6092585  25.1753848 102.1583632  66.6610884
  25.9489781  88.5802913  73.7403460  25.0352861  88.8107140  73.9085667
  26.3782882  88.6641357  74.5917493  25.7196239  96.7692805  76.2403354
  25.0667689  97.0168712  75.5855807  26.0976619  95.9556943  75.9065832
  22.6803413 106.8052498  70.3431525  22.8625808 105.9874154  70.8059277
  23.5036399 107.0220190  69.9056415  23.0145579 105.7320683  67.6046573
  23.5433345 105.2213138  66.9916735  23.2773798 105.4163213  68.4692106
  21.7683812  97.5112616  82.7269392  21.0924449  97.4106745  83.3971767
  22.5911446  97.3551829  83.1905389  13.5162671 103.7484552  75.3481907
  14.1016108 103.0028240  75.4809811  13.3187510 104.0588509  76.2318571
   8.1080326  96.3190152  74.0686350   8.1464426  95.7853743  74.8623468
   7.6020619  95.7925358  73.4497327  15.4871088  91.1654693  77.5648892
  15.5512415  92.0269524  77.1526290  15.4238209  90.5528695  76.8321251
  14.9623361  93.2377826  81.2121926  15.5895400  92.8554903  81.8259451
  14.1051280  93.0192027  81.5777619  25.3617469 103.6440801  82.8175662
  25.9057373 104.2570759  82.3230617  24.7804314 104.2020379  83.3342675
  11.7388904  95.0454255  67.1440281  12.0342345  94.1364933  67.0907335
  10.8376939  95.0241994  66.8221284  23.6474982 106.7661519  73.9490690
  23.5226122 105.9651259  73.4401635  24.3054074 107.2607712  73.4604660
  15.2683151  93.1210251  73.1267830  14.5469736  93.7346219  72.9875303
  16.0576406  93.6568016  73.0484476  25.7109891 104.5670539  75.5770240
  24.7640226 104.4475890  75.5048566  26.0592664 103.6793037  75.6596501
  18.0709464  90.4564678  79.4008482  18.5943866  90.7026974  80.1634791
  17.8521797  91.2884713  78.9811619  13.4676745  92.7268352  67.2679606
  13.1389451  91.8465731  67.0854712  13.8216116  92.6716021  68.1555996
  22.7156324 104.3623255  71.7774592  22.5681287 103.4339962  71.9582162
  23.5409818 104.3843346  71.2931667  16.5818568  93.0141322  67.6355084
  16.9214641  93.5427243  66.9133692  17.0290689  93.3521728  68.4113651
  26.3190446 105.1851814  72.8639465  27.2436993 104.9794675  72.7263916
  26.1505749 104.9368215  73.7728806  19.2762009  91.3978373  77.0858152
  18.9358830  90.5986186  77.4878832  18.5701015  91.6980084  76.5134985
  19.9278481  88.4827685  75.5385475  20.7504550  88.0088163  75.4164366
  20.1716545  89.2618169  76.0384161  18.5686716  91.5115944  65.8348377
  19.2895078  91.8897196  65.3312094  17.9452020  92.2304821  65.9383355
  22.7117838  92.2161093  66.7706709  22.9281453  93.0985731  66.4695537
  22.2311906  91.8247306  66.0412351  17.4517060  95.1746806  73.3477454
  17.3061641  95.4887109  74.2401735  16.9742263  95.7931706  72.7948352
  19.3113443  92.1649354  73.3958343  19.2975011  91.2690447  73.0590641
  20.0285871  92.1720018  74.0296629  21.1639573  92.5986694  75.4411471
  20.9057351  93.5203765  75.4395801  20.6324614  92.2017129  76.1311935
  26.1085762 105.7037481  68.2201556  26.2822640 105.1383904  67.4675409
  26.6014653 106.5038376  68.0381046  11.9262722  97.7152150  76.2865115
  11.3816190  98.4911958  76.4185389  12.8042072  98.0622955  76.1284236
  18.7150339  91.0463734  68.6645913  18.8366250  90.1180380  68.8636801
  18.4252381  91.0602420  67.7524229  21.5841529  88.7318645  71.8012633
  21.6063226  88.7957978  70.8464613  22.0009588  87.8923153  71.9953140
  31.9625153  98.4673904  69.8391856  32.4056299  97.7181229  69.4410979
  31.0851664  98.4584041  69.4565588  27.0960935 105.0204246  65.3198454
  27.7911839 105.6410938  65.5385769  27.4384085 104.1699597  65.5950832
  12.7128744  96.8422047  79.1795272  11.9710480  96.9904682  79.7659902
  12.3921488  97.1030312  78.3162021  28.9952358 102.4703951  66.8485785
  29.5203682 102.8091224  66.1235105  28.9074710 101.5350966  66.6648920
  20.6572406 106.3838025  78.9775662  20.9659533 106.1387172  79.8498361
  21.4547888 106.5884663  78.4894532  13.1585357 104.7287475  71.2105666
  13.9843377 104.4291247  70.8304310  12.8079409 103.9595098  71.6595455
  18.1266891 104.0813944  73.2803340  17.5046900 103.4184649  72.9805568
  18.7971758 104.1075075  72.5976988  11.3593963 102.6473802  72.1694600
  10.5225871 102.2195976  71.9878601  11.3317608 102.8406245  73.1065391
  18.1991418  92.5595732  82.8735846  18.2479574  93.4357854  82.4913616
  18.7413932  92.0173125  82.3007489  28.6846264 103.1036855  82.1536983
  27.8941808 103.0860994  81.6141483  28.4479618 103.6425148  82.9086020
  28.8044139  99.9529321  79.4669712  28.8542144  99.7879329  80.4085235
  28.6958062  99.0856580  79.0767592  17.6880398 102.6317867  66.7561801
  17.8368518 103.3153331  66.1028473  18.4946841 102.6122957  67.2711256
  26.0947901  95.9360249  80.7829018  26.9957764  95.7966714  80.4913016
  26.1695876  96.1014704  81.7227196  20.4290707  93.3127104  79.6282205
  19.5594016  93.6060670  79.3564793  20.6650187  93.8967549  80.3489468
  30.3062336 102.3726263  79.7111733  30.0147144 102.7356243  80.5475194
  29.6934467 101.6593271  79.5325065  31.5058018  99.9379142  72.2314303
  32.3404909 100.3768947  72.3951864  31.6417147  99.4617796  71.4122549
  28.5549524  97.4958877  78.1791791  29.0303646  97.6886524  77.3710643
  27.6315089  97.5518063  77.9335175  15.4433031  98.6583044  67.7622870
  15.1979072  97.7545374  67.9603080  15.6128945  98.6600195  66.8202348
  23.1329740  89.5306721  77.1447625  23.6511684  90.2667748  76.8194114
  22.7784873  89.8370714  77.9794384  14.7128678  94.3911402  65.2609031
  14.0197923  94.4655757  64.6049067  14.4680430  93.6271746  65.7830548
  23.3842335  85.9507003  72.6648522  23.6644088  85.2830192  73.2908948
  24.1692942  86.1436099  72.1523186  21.1875803 105.1265997  64.2273548
  20.6149770 105.7456184  63.7744020  21.7608597 105.6765359  64.7613470
  27.2551193  94.3724637  76.4120097  28.2068616  94.4722735  76.4332321
  27.0854643  93.5802906  76.9218181  25.2765572  91.4580221  76.5979498
  24.6815505  91.7385233  75.9025986  24.9915269  91.9474122  77.3696239
  24.4073063 105.4103147  65.3582130  25.3403736 105.3448709  65.5615006
  24.3196276 106.2459414  64.8996663  27.0361080 104.7269018  62.3186078
  26.9574711 104.3928881  63.2121836  27.8570746 105.2190786  62.3177550
  29.7339271  97.5930757  75.5262396  29.7015591  96.6546758  75.7122080
  30.3439894  97.6714794  74.7928221  21.5722602  96.4626810  61.5689601
  22.5181706  96.3333018  61.6378019  21.1936847  95.7241472  62.0459029
  29.8833759  94.3841800  75.5720680  29.3672808  93.6000257  75.3850609
  30.7673708  94.0560517  75.7367199  27.5444486  88.1282816  71.5316492
  27.3469307  87.8197904  72.4159824  28.1544192  88.8544455  71.6614422
  35.5515821  98.6546764  74.6668433  36.2819209  98.3932052  75.2276137
  34.9422766  97.9175486  74.7070501  33.6331118  96.7954626  75.2642884
  32.9064281  96.6610591  74.6559376  33.2178405  97.1031455  76.0699603
  21.4561294 100.5144556  83.0290258  22.3764304 100.6923155  83.2230304
  21.4210877  99.5700602  82.8769957  19.7565519  94.3876786  61.5044486
  18.8496974  94.0909899  61.5807199  20.0341500  94.0906605  60.6378772
  10.6743459  95.7083150  71.9543532  10.3546243  94.8548458  71.6617906
  10.1276887  95.9231728  72.7101499  14.4523367  98.4245591  75.6713039
  14.6709376  99.3562699  75.6901072  14.8649141  98.0653565  76.4567843
  21.3727584  88.9313676  67.6588727  20.5628313  88.5860761  68.0343973
  22.0612001  88.6221220  68.2476339  23.3018133  88.0091723  69.2813024
  23.8549171  88.4287176  69.9403047  23.5388219  87.0827471  69.3235980
  19.3251232  93.9978797  85.0615788  19.2247959  94.9473154  84.9927879
  19.1072774  93.6697035  84.1891858  18.5264303  91.2463722  61.6456465
  19.3883467  91.5718620  61.9052282  18.7114648  90.4595218  61.1329531
  10.5431719  99.3286061  73.9236654   9.8495191  98.9140014  73.4106608
  11.2904710  99.3706598  73.3270073  26.6796940  90.1192248  68.7891688
  26.0995609  90.7777052  68.4069740  26.4132873  89.2969593  68.3779105
  25.1300506  89.5197306  70.9913008  25.6300285  89.6313840  70.1827327
  25.7736114  89.2158359  71.6313817  19.1882502  97.4275935  83.8780849
  18.7049584  98.2276296  84.0844738  19.2743441  97.4383880  82.9248293
  12.4568462  99.2604315  71.8002669  12.4339150  99.3592002  70.8484552
  12.7669098 100.1069466  72.1219835  15.1155840 101.3180470  75.9149283
  16.0699093 101.2864412  75.8479215  14.9168363 100.8571094  76.7299509
  15.7055222  99.8881586  78.4820081  16.5248111 100.3825665  78.5054918
  15.9792029  98.9713554  78.4537648  25.4621818  92.2792338  67.8448036
  24.5747673  92.5641989  67.6268231  25.8775807  92.1186102  66.9975313
  28.8136354  92.3038859  71.5602375  29.5896744  92.7935312  71.8326992
  28.0884488  92.7296914  72.0174245  31.2508913  93.0166479  72.6176316
  31.8453403  92.7762215  71.9069624  31.3235496  92.2973609  73.2449852
  24.6065031 102.0437013  61.9396056  25.3100881 102.2487016  62.5553712
  23.8827680 102.6113775  62.2045140  25.4362842  97.7946874  68.0598326
  25.3798043  98.2515426  67.2205959  25.9891184  97.0337559  67.8821169
  29.2467648  93.5836606  68.8848446  28.9904582  93.1833242  69.7156654
  28.6220516  94.2980400  68.7598585  33.5579985  96.3232680  71.3919737
  32.9979543  96.3925869  72.1651299  32.9523489  96.1473664  70.6719234
  26.5151729 102.4819542  63.9894516  27.3497333 102.0500741  63.8071991
  26.3536072 102.3101556  64.9171411  26.1697621  98.9851656  65.3550856
  26.1146425  98.8195927  64.4139300  25.5443676  99.6927689  65.5113045
  10.9590136  94.2219720  79.1812278  11.6049000  93.7118674  79.6699503
  10.7507287  94.9588402  79.7555703  23.4843528 101.2900568  84.6804418
  24.3534688 101.4641220  84.3191053  23.0050280 102.1094984  84.5580148
  19.4793746  88.4859765  64.9336174  19.4672416  89.4301605  65.0904445
  20.3717168  88.3029910  64.6395635  19.4083310 107.1628655  73.0203931
  18.4578941 107.1630517  72.9068303  19.7115796 106.4161390  72.5039965
  23.2945866  85.0802541  69.1882111  22.5278262  84.5261028  69.3338793
  23.7056571  85.1524410  70.0496262  15.2987627  91.3687337  83.2787292
  16.1619088  91.0124142  83.4890617  14.7253038  91.0301232  83.9662696
  34.6977272 110.7240647  71.1602901  35.4840362 110.3060070  70.8093318
  34.9615977 111.6286740  71.3284549  40.0985699 110.6615881  72.0635880
  40.8310871 110.0915097  72.2973709  39.3425055 110.2737481  72.5042385
  37.6211120 104.3737455  76.5230488  37.2894445 105.2432866  76.2991703
  37.0256733 104.0573739  77.2024519  31.3567306 108.1133022  64.2560571
  31.5241709 108.9813258  64.6231042  31.1664475 108.2760303  63.3321860
  37.5139783 109.0932541  73.6023838  36.6056660 109.0247949  73.3082599
  37.4627379 109.5704486  74.4305664  31.3356527 110.5690679  65.2407237
  31.2156152 111.0147730  66.0792718  30.6409115 110.9175997  64.6820775
  31.5880649 110.5122186  81.5458735  30.8113983 111.0716107  81.5361600
  32.2271212 110.9978969  82.0673606  39.3801430 107.2948979  75.3801712
  38.7375810 107.5881512  74.7341507  38.8756358 107.1801900  76.1854909
  37.0341593 111.0412152  66.0687571  37.9459449 111.2739539  65.8935269
  36.5251240 111.6249197  65.5062650  31.6713431 110.4009387  77.0782421
  32.5174626 110.8248801  77.2217070  31.6112069 109.7443011  77.7720984
  34.8212876 108.0613755  78.7363595  34.5773808 108.8155816  78.1997870
  35.0972807 108.4399103  79.5710842  34.3777568 107.2170188  74.3177432
  33.5162047 107.5151442  74.6094170  34.4040003 107.4340587  73.3858465
  45.9803160 113.8263072  71.9348189  45.2266868 113.2570470  71.7792193
  46.1150701 113.7925736  72.8818824  27.8569128 104.7768054  84.2717264
  27.4636073 104.2234252  84.9464908  28.6735268 105.0878632  84.6623781
  30.7737089 106.1925933  81.8637520  31.5146802 106.7933086  81.7841983
  31.0055012 105.4503571  81.3055563  34.7194252 102.2207036  76.1401802
  34.3758521 103.1108677  76.0640912  35.0873214 102.0308693  75.2771387
  34.6844534 112.2115647  64.6474237  34.1691158 112.9820252  64.8862624
  34.4121843 111.5380783  65.2707298  32.2691645 107.0565348  69.7059475
  31.4133242 106.6672198  69.5265114  32.6818597 107.1357308  68.8459261
  33.7990792 104.5911691  74.1051035  33.2955588 104.5541826  73.2918840
  34.0921399 105.5004434  74.1647692  30.0433678 104.6750421  73.1117217
  30.9086675 104.4793229  72.7523106  30.1111187 104.4460772  74.0386574
  39.6578808 114.9648002  66.5827410  38.8808251 114.6259161  66.1382572
  40.3370289 114.9700625  65.9082375  34.4730838 110.0842739  66.4734018
  34.1680973 110.3988888  67.3244161  35.4261280 110.1624159  66.5161351
  27.6495997 106.9052629  70.4833584  28.2239749 106.6827810  69.7506777
  28.2366979 106.9741323  71.2362185  36.7075574 112.7926356  71.2897960
  37.2207456 113.4256347  71.7919670  37.3576798 112.1927551  70.9241320
  27.9765584 108.9357090  64.5029469  27.1402896 109.2731776  64.8238744
  27.8370354 108.8006069  63.5656606  29.9518665 103.7793878  69.2108653
  29.2983077 103.4642895  68.5865268  29.9099139 103.1569618  69.9368476
  33.1856405 110.2675811  73.5356301  32.2678966 110.4890758  73.3777989
  33.6016549 110.3422122  72.6768008  33.9691453 111.6667227  68.6658981
  34.7163272 112.1788624  68.3566103  34.2383042 111.3451279  69.5263374
  36.4170290 108.7024343  70.6477770  35.6793047 108.1901729  70.9788013
  36.6697063 108.2624725  69.8361047  36.5181917 101.4800595  71.2419539
  36.8240794 100.6197958  70.9545455  37.2434522 102.0718215  71.0418533
  28.7295357 110.3931448  69.5086109  27.9163222 110.6925618  69.9151302
  29.2254351 109.9987137  70.2260592  34.3269569 110.8573272  78.3401003
  34.6818956 111.0844745  79.1995469  34.9741700 111.1891649  77.7178259
  40.0567306 113.9791708  69.0450332  39.9185204 114.1693304  68.1171522
  39.7003524 114.7411091  69.5018383  28.2209432 107.9649803  75.1247344
  28.8608811 107.8238562  74.4270308  27.3886962 107.6784317  74.7485946
  25.2238048 107.9350128  69.9020331  25.4844865 108.8495462  69.7929492
  26.0455220 107.4674571  70.0516944  26.6962973 109.3487885  77.0719156
  27.3686027 109.1405248  76.4231805  25.8692760 109.1509971  76.6324388
  32.5988545 105.9749826  79.0884817  31.9516461 106.6739776  78.9949293
  33.3689561 106.4085970  79.4561065  28.4401705 109.3215666  79.1400912
  27.9039062 108.8706404  79.7922508  27.8518414 109.4561575  78.3971376
  27.8503964 108.7804317  61.7027376  26.9733431 108.6593118  61.3389622
  28.3261717 107.9890395  61.4506264  24.1740827 108.4571673  76.2253906
  24.0899015 107.8497343  75.4904316  23.3523533 108.9480692  76.2263403
  34.3464540 106.9425237  71.5924102  34.8433240 106.1895199  71.2725172
  33.5751522 106.9789554  71.0267311  42.1994298 112.6465602  73.2342393
  42.1884174 113.5290318  72.8636326  41.3311677 112.2937153  73.0396930
  30.9299509 109.0842620  71.3195786  30.5597297 108.5313660  72.0076692
  31.4258602 108.4800753  70.7670786  38.8166872 111.5414243  69.7012559
  39.2827325 112.3742235  69.6272862  39.2674373 111.0759225  70.4057818
  36.7883535 103.9094830  73.7403460  35.8746615 104.1399057  73.9085667
  37.2176637 103.9933274  74.5917493  36.5589994 112.0984722  76.2403354
  35.9061444 112.3460630  75.5855807  36.9370374 111.2848861  75.9065832
  26.3264843 106.4946611  77.5648892  26.3906169 107.3561442  77.1526290
  26.2631963 105.8820612  76.8321251  25.8017115 108.5669743  81.2121926
  26.4289154 108.1846821  81.8259451  24.9445034 108.3483945  81.5777619
  26.1076905 108.4502169  73.1267830  25.3863491 109.0638137  72.9875303
  26.8970161 108.9859934  73.0484476  28.9103219 105.7856595  79.4008482
  29.4337620 106.0318892  80.1634791  28.6915552 106.6176630  78.9811619
  24.3070500 108.0560270  67.2679606  23.9783206 107.1757649  67.0854712
  24.6609870 108.0007939  68.1555996  27.4212323 108.3433240  67.6355084
  27.7608395 108.8719161  66.9133692  27.8684443 108.6813646  68.4113651
  30.1155764 106.7270291  77.0858152  29.7752584 105.9278104  77.4878832
  29.4094770 107.0272001  76.5134985  30.7672236 103.8119603  75.5385475
  31.5898305 103.3380081  75.4164366  31.0110299 104.5910087  76.0384161
  29.4080470 106.8407861  65.8348377  30.1288833 107.2189114  65.3312094
  28.7845774 107.5596738  65.9383355  33.5511593 107.5453010  66.7706709
  33.7675207 108.4277648  66.4695537  33.0705660 107.1539224  66.0412351
  30.1507197 107.4941272  73.3958343  30.1368766 106.5982365  73.0590641
  30.8679625 107.5011935  74.0296629  32.0033328 107.9278612  75.4411471
  31.7451106 108.8495682  75.4395801  31.4718368 107.5309046  76.1311935
  29.5544093 106.3755652  68.6645913  29.6760004 105.4472298  68.8636801
  29.2646135 106.3894338  67.7524229  32.4235283 104.0610562  71.8012633
  32.4456980 104.1249895  70.8464613  32.8403343 103.2215071  71.9953140
  42.8018908 113.7965822  69.8391856  43.2450054 113.0473147  69.4410979
  41.9245418 113.7875958  69.4565588  29.0385173 107.8887649  82.8735846
  29.0873328 108.7649772  82.4913616  29.5807687 107.3465042  82.3007489
  36.9341656 111.2652167  80.7829018  37.8351519 111.1258632  80.4913016
  37.0089630 111.4306622  81.7227196  31.2684461 108.6419022  79.6282205
  30.3987770 108.9352588  79.3564793  31.5043941 109.2259467  80.3489468
  42.3451773 115.2671060  72.2314303  43.1798664 115.7060864  72.3951864
  42.4810901 114.7909713  71.4122549  39.3943278 112.8250795  78.1791791
  39.8697400 113.0178441  77.3710643  38.4708844 112.8809981  77.9335175
  33.9723495 104.8598639  77.1447625  34.4905439 105.5959665  76.8194114
  33.6178628 105.1662632  77.9794384  25.5522433 109.7203320  65.2609031
  24.8591678 109.7947675  64.6049067  25.3074184 108.9563663  65.7830548
  34.2236089 101.2798921  72.6648522  34.5037843 100.6122110  73.2908948
  35.0086696 101.4728017  72.1523186  38.0944947 109.7016555  76.4120097
  39.0462370 109.8014653  76.4332321  37.9248398 108.9094824  76.9218181
  36.1159327 106.7872138  76.5979498  35.5209259 107.0677151  75.9025986
  35.8309024 107.2766039  77.3696239  40.5733025 112.9222675  75.5262396
  40.5409345 111.9838675  75.7122080  41.1833649 113.0006711  74.7928221
  32.4116356 111.7918728  61.5689601  33.3575461 111.6624936  61.6378019
  32.0330601 111.0533390  62.0459029  40.7227514 109.7133718  75.5720680
  40.2066562 108.9292175  75.3850609  41.6067462 109.3852435  75.7367199
  38.3838241 103.4574734  71.5316492  38.1863062 103.1489822  72.4159824
  38.9937946 104.1836373  71.6614422  46.3909575 113.9838682  74.6668433
  47.1212964 113.7223970  75.2276137  45.7816521 113.2467404  74.7070501
  44.4724872 112.1246544  75.2642884  43.7458036 111.9902509  74.6559376
  44.0572159 112.4323373  76.0699603  30.5959273 109.7168704  61.5044486
  29.6890729 109.4201817  61.5807199  30.8735254 109.4198522  60.6378772
  32.2121339 104.2605594  67.6588727  31.4022067 103.9152679  68.0343973
  32.9005756 103.9513138  68.2476339  34.1411887 103.3383641  69.2813024
  34.6942926 103.7579094  69.9403047  34.3781974 102.4119389  69.3235980
  30.1644986 109.3270714  85.0615788  30.0641713 110.2765071  84.9927879
  29.9466529 108.9988953  84.1891858  29.3658058 106.5755639  61.6456465
  30.2277222 106.9010538  61.9052282  29.5508402 105.7887135  61.1329531
  37.5190694 105.4484166  68.7891688  36.9389363 106.1068970  68.4069740
  37.2526627 104.6261510  68.3779105  35.9694261 104.8489223  70.9913008
  36.4694039 104.9605758  70.1827327  36.6129869 104.5450276  71.6313817
  36.3015572 107.6084256  67.8448036  35.4141427 107.8933907  67.6268231
  36.7169561 107.4478020  66.9975313  39.6530109 107.6330777  71.5602375
  40.4290499 108.1227230  71.8326992  38.9278243 108.0588831  72.0174245
  42.0902667 108.3458396  72.6176316  42.6847158 108.1054132  71.9069624
  42.1629251 107.6265527  73.2449852  36.2756596 113.1238792  68.0598326
  36.2191798 113.5807344  67.2205959  36.8284939 112.3629477  67.8821169
  40.0861402 108.9128524  68.8848446  39.8298336 108.5125160  69.7156654
  39.4614270 109.6272318  68.7598585  44.3973740 111.6524597  71.3919737
  43.8373298 111.7217787  72.1651299  43.7917243 111.4765582  70.6719234
  30.3187501 103.8151682  64.9336174  30.3066171 104.7593522  65.0904445
  31.2110923 103.6321828  64.6395635  34.1339620 100.4094459  69.1882111
  33.3672016  99.8552946  69.3338793  34.5450325 100.4816328  70.0496262
  26.1381381 106.6979255  83.2787292  27.0012843 106.3416060  83.4890617
  25.5646792 106.3593150  83.9662696  47.3575672 116.8092513  71.2419539
  47.6634549 115.9489876  70.9545455  48.0828277 117.4010133  71.0418533
  45.0629844 116.6090839  72.6648522  45.3431597 115.9414028  73.2908948
  45.8480451 116.8019934  72.1523186  44.9733375 115.7386377  69.1882111
  44.2065771 115.1844863  69.3338793  45.3844080 115.8108245  70.0496262
   2.6228143  29.5157524  58.6593496   1.8691852  28.9464922  58.5037500
   2.7575685  29.4820188  59.6064130   3.0334558  29.6733133  61.3913740
   3.7637947  29.4118422  61.9521443   2.4241504  28.9361855  61.4315808
   1.1149856  27.8140996  61.9888191   0.3883019  27.6796961  61.3804683
   0.6997142  28.1217825  62.7944909   1.0398723  27.3419049  58.1165044
   0.4798281  27.4112238  58.8896606   0.4342227  27.1660034  57.3964540
   2.6254742  44.0175563  60.8095000   3.2633152  43.8982310  60.1058340
   2.5075585  44.9656407  60.8682952   2.1796010  41.7427017  57.8848208
   2.9659099  41.3246440  57.5338625   2.4434714  42.6473109  58.0529856
   2.3506087  47.1799867  52.5836865   1.7151920  47.2534494  53.2957769
   2.0203494  47.7693466  51.9055944   7.5804437  41.6802250  58.7881186
   8.3129609  41.1101467  59.0219016   6.8243793  41.2923851  59.2287692
   5.1029858  35.3923824  63.2475795   4.7713182  36.2619235  63.0237010
   4.5075471  35.0760108  63.9269825   1.5961377  47.5936370  62.6471708
   1.2962100  48.4961409  62.5387515   1.2512437  47.3268553  63.4992860
   4.9958521  40.1118910  60.3269145   4.0875398  40.0434319  60.0327906
   4.9446117  40.5890855  61.1550970   6.8620167  38.3135349  62.1047019
   6.2194548  38.6067882  61.4586813   6.3575096  38.1988269  62.9100215
   4.5160331  42.0598522  52.7932878   5.4278187  42.2925909  52.6180576
   4.0069978  42.6435566  52.2307957   2.8001099  46.4823150  66.4294171
   3.2084455  46.0405560  65.6848803   2.0778360  45.9075777  66.6828364
   3.1229913  47.0424340  60.1846460   2.4938776  47.2070055  59.4822527
   2.7355575  47.4565950  60.9557424   7.0019145  47.9778778  57.5390823
   6.3170183  48.3577680  56.9887857   7.0862994  48.5874105  58.2722771
   2.3031614  39.0800125  65.4608901   2.0592546  39.8342185  64.9243177
   2.5791545  39.4585473  66.2956148   4.2570077  45.6238737  64.1386167
   4.4686972  46.2670497  63.4620548   4.2099825  44.7901054  63.6708097
   1.8596306  38.2356558  61.0422739   0.9980785  38.5337812  61.3339477
   1.8858740  38.4526957  60.1103772   5.3715905  48.5010693  62.3108524
   6.1933348  48.0990880  62.0291206   5.3678308  48.3978927  63.2624640
  13.4621898  44.8449441  58.6593496  12.7085606  44.2756839  58.5037500
  13.5969439  44.8112106  59.6064130   2.5770240  50.6189210  66.4929958
   2.5588716  51.4398091  66.0010227   3.4990160  50.4943285  66.7180099
   2.2012989  33.2393405  62.8647108   1.8577259  34.1295047  62.7886219
   2.5691952  33.0495063  62.0016693   2.1663272  43.2302016  51.3719544
   1.6509896  44.0006621  51.6107931   1.8940581  42.5567153  51.9952605
   1.2809530  35.6098061  60.8296342   0.7774325  35.5728196  60.0164147
   1.5740137  36.5190803  60.8892998   7.1397546  45.9834371  53.3072717
   6.3626989  45.6445531  52.8627879   7.8189027  45.9886994  52.6327682
   1.9549575  41.1029109  53.1979325   1.6499711  41.4175258  54.0489468
   2.9080017  41.1810528  53.2406658   5.3788853  45.4568352  59.9639325
   4.7212528  46.1467614  60.0519454   6.1829252  45.8464784  60.3073311
   4.1894312  43.8112725  58.0143267   4.7026194  44.4442717  58.5164976
   4.8395536  43.2113921  57.6486627   1.4516686  53.7897049  50.7703938
   0.7778385  54.0928746  51.3788896   1.8382508  54.5926130  50.4209395
   1.4510191  42.6853596  55.3904288   2.1982010  43.1974994  55.0811410
   1.7201780  42.3637649  56.2508681   4.9556108  48.7918727  56.1422409
   4.5018435  47.9509636  56.1987600   4.3250075  49.4280125  56.4797190
   3.8989028  39.7210713  57.3723077   3.1611785  39.2088099  57.7033319
   4.1515801  39.2811094  56.5606354   3.3989047  50.6295223  57.0772228
   3.6912022  51.1900280  56.3584593   3.9087668  50.9223784  57.8325387
   4.0000655  32.4986965  57.9664846   4.3059532  31.6384328  57.6790761
   4.7253260  33.0904585  57.7663840   1.8088306  41.8759642  65.0646310
   2.1637694  42.1031115  65.9240776   2.4560438  42.2078019  64.4423565
   7.5386043  44.9978078  55.7695639   7.4003942  45.1879674  54.8416828
   7.1822262  45.7597461  56.2263690   7.5655423  47.0654605  60.7806910
   7.9991930  46.9729894  61.6289965   8.2787004  47.0412105  60.1426926
   1.2983318  50.6656699  62.3140011   1.3520340  51.2347635  63.0817727
   0.4298099  50.8358584  61.9494048   8.4270973  47.1078305  63.3139796
   8.6206863  48.0124116  63.5599071   8.3271591  46.6485724  64.1478381
   3.4886081  47.2585048  68.8880676   3.3371588  47.0295600  67.9710760
   3.4790761  48.2155650  68.9012021   3.5424156  45.5805262  49.3051378
   2.9253327  44.8552091  49.2084431   3.0740645  46.3414623  48.9618452
   5.1978288  50.2904171  66.9657158   5.1390834  49.6063391  66.2987741
   5.5997806  51.0323161  66.5137784   5.1995695  48.2543755  65.1971138
   4.3122474  47.9169676  65.3197537   5.7694246  47.5226786  65.4339903
   1.8283278  37.9611606  58.3169408   2.3251978  37.2081569  57.9970478
   1.0570260  37.9975923  57.7512617   9.6813036  43.6651972  59.9587700
   9.6702912  44.5476687  59.5881633   8.8130415  43.3123523  59.7642237
   1.1895532  52.8132041  64.3190540   1.9023504  53.4479506  64.2466441
   0.6985561  52.9095907  63.5030542   2.9113059  46.7183294  55.8907832
   1.9769338  46.8384756  55.7212536   3.0889727  45.8155760  55.6267841
   6.2985610  42.5600613  56.4257866   6.7646062  43.3928605  56.3518168
   6.7493111  42.0945595  57.1303124   4.3661841  48.9044434  53.4244018
   4.6421685  48.7901029  54.3337892   3.4966340  48.5061919  53.3856191
   4.2702273  34.9281200  60.4648767   3.3565353  35.1585427  60.6330974
   4.6995374  35.0119644  61.3162799   4.0408732  43.1171092  62.9648661
   3.3880182  43.3646999  62.3101114   4.4189111  42.3035230  62.6311138
   1.0015905  53.1530785  57.0676831   1.1838300  52.3352441  57.5304584
   1.8248891  53.3698477  56.6301721   1.3358071  52.0798970  54.3291880
   1.8645837  51.5691425  53.7162042   1.5986290  51.7641500  55.1937413
   3.6829962  49.9919088  69.5420969   4.2269866  50.6049046  69.0475923
   3.1016807  50.5498666  70.0587982   1.9687475  53.1139806  60.6735996
   1.8438614  52.3129546  60.1646942   2.6266566  53.6085999  60.1849966
   4.0322383  50.9148826  62.3015546   3.0852719  50.7954177  62.2293873
   4.3805156  50.0271324  62.3841808   1.0368816  50.7101542  58.5019899
   0.8893779  49.7818250  58.6827469   1.8622310  50.7321633  58.0176974
   4.6402938  51.5330101  59.5884771   5.5649486  51.3272962  59.4509223
   4.4718242  51.2846502  60.4974113   1.0330331  38.5639380  53.4952016
   1.2493945  39.4464018  53.1940844   0.5524398  38.1725593  52.7657658
   4.4298254  52.0515768  54.9446863   4.6035132  51.4862191  54.1920715
   4.9227146  52.8516663  54.7626353  10.2837646  44.8152191  56.5637163
  10.7268792  44.0659517  56.1656286   9.4064156  44.8062328  56.1810895
   5.4173427  51.3682533  52.0443761   6.1124332  51.9889226  52.2631076
   5.7596577  50.5177884  52.3196139   7.3164850  48.8182238  53.5731092
   7.8416174  49.1569511  52.8480412   7.2287203  47.8829254  53.3894226
   7.0058756  49.4515142  68.8782290   6.2154300  49.4339281  68.3386789
   6.7692111  49.9903436  69.6331326   7.1256631  46.3007608  66.1915018
   7.1754636  46.1357616  67.1330541   7.0170555  45.4334867  65.8012899
   4.4160394  42.2838536  67.5074325   5.3170256  42.1445001  67.2158323
   4.4908368  42.4492991  68.4472503   8.6274828  48.7204550  66.4357040
   8.3359636  49.0834530  67.2720501   8.0146959  48.0071558  66.2570372
   9.8270510  46.2857430  58.9559610  10.6617402  46.7247234  59.1197170
   9.9629639  45.8096083  58.1367856   6.8762016  43.8437165  64.9037098
   7.3516138  44.0364811  64.0955949   5.9527582  43.8996350  64.6580482
   1.4542233  35.8785008  63.8692932   1.9724177  36.6146035  63.5439420
   1.0997365  36.1849001  64.7039691   1.7054827  32.2985291  59.3893828
   1.9856581  31.6308480  60.0154255   2.4905434  32.4914386  58.8768492
   5.5763685  40.7202925  63.1365403   6.5281108  40.8201022  63.1577628
   5.4067136  39.9281193  63.6463488   3.5978065  37.8058508  63.3224804
   3.0027997  38.0863521  62.6271293   3.3127761  38.2952409  64.0941546
   2.7285555  51.7581435  52.0827437   3.6616228  51.6926996  52.2860312
   2.6408768  52.5937702  51.6241970   5.3573572  51.0747305  49.0431385
   5.2787203  50.7407169  49.9367142   6.1783239  51.5669073  49.0422857
   8.0551763  43.9409044  62.2507703   8.0228083  43.0025045  62.4367387
   8.6652387  44.0193081  61.5173528   8.2046252  40.7320088  62.2965986
   7.6885300  39.9478544  62.1095915   9.0886200  40.4038804  62.4612506
   5.8656978  34.4761103  58.2561799   5.6681800  34.1676191  59.1405131
   6.4756684  35.2022742  58.3859729  13.8728313  45.0025051  61.3913740
  14.6031701  44.7410339  61.9521443  13.2635258  44.2653773  61.4315808
  11.9543610  43.1432914  61.9888191  11.2276774  43.0088879  61.3804683
  11.5390897  43.4509742  62.7944909   1.6230625  34.3570010  56.0058330
   2.1761664  34.7765464  56.6648353   1.8600711  33.4305758  56.0481286
   5.0009432  36.4670535  55.5136995   4.4208101  37.1255339  55.1315047
   4.7345365  35.6447880  55.1024412   3.4512999  35.8675593  57.7158315
   3.9512777  35.9792128  56.9072634   4.0948606  35.5636646  58.3559123
   3.7834310  38.6270626  54.5693343   2.8960165  38.9120276  54.3513538
   4.1988299  38.4664389  53.7220620   7.1348846  38.6517147  58.2847682
   7.9109236  39.1413599  58.5572299   6.4096980  39.0775201  58.7419552
   9.5721405  39.3644766  59.3421623  10.1665896  39.1240502  58.6314931
   9.6447989  38.6451897  59.9695159   2.9277524  48.3915300  48.6641363
   3.6313374  48.5965303  49.2799018   2.2040172  48.9592062  48.9290446
   3.7575334  44.1425162  54.7843633   3.7010535  44.5993713  53.9451265
   4.3103676  43.3815846  54.6066476   7.5680140  39.9314894  55.6093753
   7.3117074  39.5311529  56.4401960   6.9433008  40.6458687  55.4843892
  11.8792478  42.6710967  58.1165044  11.3192036  42.7404156  58.8896606
  11.2735981  42.4951951  57.3964540   4.8364221  48.8297830  50.7139823
   5.6709825  48.3979028  50.5317298   4.6748564  48.6579843  51.6416717
   4.4910113  45.3329943  52.0796162   4.4358917  45.1674214  51.1384606
   3.8656168  46.0405976  52.2358352   1.8056020  47.6378855  71.4049725
   2.6747180  47.8119507  71.0436360   1.3262772  48.4573272  71.2825454
   1.6158358  31.4280829  55.9127417   0.8490754  30.8739315  56.0584100
   2.0269063  31.5002697  56.7741569  13.4648496  59.3467481  60.8095000
  14.1026906  59.2274228  60.1058340  13.3469339  60.2948325  60.8682952
  10.2738202  59.2994909  60.7456524   9.9356714  59.1835974  59.8577059
  11.1427971  58.8986074  60.7257530   6.1325018  61.1530385  56.7353415
   5.5689883  61.0620322  55.9669703   6.0177413  60.3330290  57.2155908
  10.7557985  60.4529761  66.7042730  10.7446626  60.0582559  65.8323234
  10.9178625  59.7195833  67.2976501   3.6789450  62.6481577  59.5737636
   4.4710742  62.3072401  59.1583935   3.9186100  62.7576552  60.4939789
  11.7124577  64.8201353  52.0467880  11.0612557  65.4055433  51.6601894
  12.5068940  65.3507548  52.1062918   5.6380204  61.9090490  52.4455015
   6.4111080  61.3619477  52.3067890   5.9905603  62.7734739  52.6569476
   7.4765247  63.2366872  65.6521914   7.1855113  64.1412503  65.5368580
   8.1122231  63.2783400  66.3665983   8.4021453  60.6143721  62.2423273
   8.9985026  60.3899743  61.5280236   8.4596425  59.8728466  62.8448721
   7.9746482  58.0683156  50.0773464   8.2272002  57.5464677  49.3156927
   7.0371041  57.9049302  50.1800148  13.0189765  57.0718935  57.8848208
  13.8052854  56.6538358  57.5338625  13.2828469  57.9765027  58.0529856
  13.1899842  62.5091785  52.5836865  12.5545675  62.5826411  53.2957769
  12.8597248  63.0985384  51.9055944  18.4198192  57.0094168  58.7881186
  19.1523364  56.4393385  59.0219016  17.6637547  56.6215768  59.2287692
   7.6942771  59.9711262  52.2797839   7.5779029  59.2956166  52.9478924
   7.8045030  59.4843636  51.4629992  10.0374311  59.4321409  55.9844529
   9.6732519  58.9052030  56.6957450  10.8941427  59.0419878  55.8111014
  15.9423612  50.7215742  63.2475795  15.6106937  51.5911153  63.0237010
  15.3469225  50.4052026  63.9269825   9.6779798  54.4611309  50.9805877
   9.8454201  55.3291545  51.3476348   9.4876968  54.6238591  50.0567166
  12.4355132  62.9228288  62.6471708  12.1355855  63.8253327  62.5387515
  12.0906191  62.6560471  63.4992860   5.8867613  59.3742085  58.6808412
   4.9618110  59.2418299  58.8886104   6.1352026  60.1536304  59.1778354
  15.8352275  55.4410828  60.3269145  14.9269153  55.3726236  60.0327906
  15.7839871  55.9182773  61.1550970   9.6569019  56.9168966  51.9652544
   9.5368645  57.3626017  52.8038024   8.9621608  57.2654284  51.4066082
   3.2476424  59.0175358  59.5152201   3.3768805  59.2709837  60.4291613
   2.5673875  59.6103066  59.1956856   7.4175911  69.6872608  55.6142675
   7.3399941  70.6380433  55.6931156   6.8137555  69.3418481  56.2717602
   9.9093141  56.8600474  68.2704042   9.1326475  57.4194394  68.2606907
  10.5483704  57.3457257  68.7918912  17.7013922  53.6427266  62.1047019
  17.0588302  53.9359800  61.4586813  17.1968850  53.5280187  62.9100215
  15.3554085  57.3890440  52.7932878  16.2671942  57.6217826  52.6180576
  14.8463733  57.9727484  52.2307957   8.1639513  59.6685927  67.8322009
   8.9054198  60.2070971  67.5556833   7.4576499  60.2952216  67.9893561
  13.6394853  61.8115067  66.4294171  14.0478209  61.3697478  65.6848803
  12.9172115  61.2367695  66.6828364   9.9925923  56.7487674  63.8027728
  10.8387118  57.1727088  63.9462377   9.9324561  56.0921299  64.4966291
  13.9623668  62.3716258  60.1846460  13.3332530  62.5361972  59.4822527
  13.5749330  62.7857868  60.9557424  17.8412900  63.3070696  57.5390823
  17.1563938  63.6869597  56.9887857  17.9256749  63.9166023  58.2722771
  13.1425369  54.4092043  65.4608901  12.8986300  55.1634103  64.9243177
  13.4185299  54.7877390  66.2956148  15.0963831  60.9530655  64.1386167
  15.3080727  61.5962415  63.4620548  15.0493580  60.1192972  63.6708097
  12.6990060  53.5648476  61.0422739  11.8374539  53.8629729  61.3339477
  12.7252495  53.7818875  60.1103772   9.5151630  62.1090666  57.4496545
   9.9789975  62.3878369  56.6601167   9.2508428  61.2074111  57.2669635
   6.4075711  61.6562148  60.3876308   6.9777068  62.0849416  59.7493792
   6.9983823  61.3744732  61.0860494   8.4520516  58.2313819  54.2586110
   9.1544559  58.6834862  54.7260036   8.1201144  57.5897637  54.8866003
   6.9000877  56.8225575  68.6337319   6.2699538  57.5041856  68.8672716
   6.7936965  56.7108657  67.6890457   2.1945850  56.4897371  59.5603243
   1.4044904  56.7454900  59.0843354   2.6857097  57.3045709  59.6655284
  16.2109659  63.8302610  62.3108524  17.0327103  63.4282798  62.0291206
  16.2072062  63.7270845  63.2624640   4.1460595  56.8541950  56.5186720
   3.3491758  56.9660645  57.0370216   3.9186187  57.1928603  55.6527611
   9.9766263  63.3786654  64.4669235  10.0410695  63.8407061  65.3027406
   9.2677187  62.7484019  64.5951544   0.4783553  56.7427862  61.9918234
   0.7291591  57.6274872  62.2575810   1.0143101  56.5632463  61.2193326
  24.3015652  60.1741359  58.6593496  23.5479361  59.6048757  58.5037500
  24.4363193  60.1404023  59.6064130   9.6914280  65.0454761  54.3348215
   9.5559955  65.8906297  54.7633063  10.2324093  65.2474039  53.5714149
   6.1781620  51.1246341  70.9962570   5.7848566  50.5712540  71.6710214
   6.9947760  51.4356919  71.3869088   3.1443678  62.5630199  54.9076140
   3.6568198  63.3573449  55.0581705   3.7966391  61.8656490  54.8409742
   4.9538562  65.6795955  56.9898893   5.1305191  66.6013920  56.8019877
   5.7495396  65.3654375  57.4193273   9.0949581  52.5404220  68.5882827
   9.8359294  53.1411373  68.5087289   9.3267504  51.7981858  68.0300869
   4.2390919  57.7260587  66.8661056   4.1244434  56.8245845  67.1668155
   3.3835437  57.9724284  66.5145873  11.3182757  65.6678328  68.4648557
  10.8746611  64.8814706  68.1469462  11.9799970  65.8557478  67.7992448
   6.0769878  67.1974129  62.9909236   6.6277303  67.0691193  62.2186229
   5.2381354  67.4969018  62.6404128  13.4163995  65.9481128  66.4929958
  13.3982470  66.7690009  66.0010227  14.3383915  65.8235203  66.7180099
   9.8737049  63.4625257  67.3353467  10.4065386  62.7013545  67.1052775
   9.3451130  63.1698909  68.0777621  13.0406744  48.5685323  62.8647108
  12.6971013  49.4586965  62.7886219  13.4085707  48.3786981  62.0016693
   1.1092595  60.8918854  55.6835711   1.9467817  61.3015862  55.4669418
   1.2870862  59.9518296  55.6535904  13.0057027  58.5593934  51.3719544
  12.4903650  59.3298539  51.6107931  12.7334335  57.8859070  51.9952605
  10.5904138  53.4043635  56.4304782   9.7345734  53.0150485  56.2510421
  11.0031089  53.4835596  55.5704567  12.1203284  50.9389978  60.8296342
  11.6168080  50.9020113  60.0164147  12.4133891  51.8482721  60.8892998
   8.3646170  51.0228708  59.8362523   9.2299167  50.8271517  59.4768413
   8.4323679  50.7939060  60.7631880  17.9791301  61.3126289  53.3072717
  17.2020744  60.9737448  52.8627879  18.6582782  61.3178912  52.6327682
  12.7943330  56.4321026  53.1979325  12.4893465  56.7467175  54.0489468
  13.7473772  56.5102446  53.2406658  11.2389762  62.5911250  54.8472279
  10.7111123  61.8564009  54.5345516  10.7377264  63.3685926  54.6012247
  16.2182608  60.7860270  59.9639325  15.5606282  61.4759531  60.0519454
  17.0223007  61.1756702  60.3073311   5.9708489  53.2530916  57.2078890
   6.5452241  53.0306097  56.4752083   6.5579472  53.3219610  57.9607492
  15.0288066  59.1404643  58.0143267  15.5419948  59.7734635  58.5164976
  15.6789290  58.5405838  57.6486627   6.2978076  55.2835377  51.2274775
   5.4615389  55.6210063  51.5484050   6.1582846  55.1484357  50.2901912
   8.2731157  50.1272165  55.9353960   7.6195569  49.8121182  55.3110574
   8.2311631  49.5047905  56.6613783   9.3842362  60.4091460  47.8507252
   8.4769424  60.1780713  48.0498401   9.8813394  59.6129079  48.0381233
  12.2910441  69.1188967  50.7703938  11.6172139  69.4220664  51.3788896
  12.6776263  69.9218047  50.4209395  11.5068897  56.6154098  60.2601607
  10.5891459  56.8369045  60.1023295  11.9229041  56.6900409  59.4013315
  12.2903945  58.0145514  55.3904288  13.0375764  58.5266911  55.0811410
  12.5595535  57.6929567  56.2508681  10.5630595  60.5104055  52.3731242
   9.6541815  60.2263088  52.4703712  10.5925679  60.9303133  51.5134549
  15.7949863  64.1210644  56.1422409  15.3412190  63.2801554  56.1987600
  15.1643829  64.7572043  56.4797190  14.7382782  55.0502630  57.3723077
  14.0005539  54.5380016  57.7033319  14.9909556  54.6103012  56.5606354
  14.2382802  65.9587141  57.0772228  14.5305776  66.5192198  56.3584593
  14.7481422  66.2515702  57.8325387  14.8394410  47.8278882  57.9664846
  15.1453286  46.9676246  57.6790761  15.5647014  48.4196502  57.7663840
   1.1318766  58.2309569  56.3546444   0.9343165  57.6378930  55.6297511
   0.5765430  57.9261779  57.0722383   9.1115489  58.1232675  58.4741037
   9.1664099  57.1706512  58.3983514   8.3006691  58.2792114  58.9582336
  10.2606683  62.0512798  49.7119320   9.8226113  61.3348657  49.2524958
  11.0017124  62.2788913  49.1504412   7.0507849  56.7409735  56.2331416
   6.2375715  57.0403906  56.6396608   7.5466843  56.3465424  56.9505898
   9.2016427  66.7367492  58.1665681   9.1592606  66.9628338  57.2374213
  10.1179126  66.5030867  58.3151482  12.6482061  57.2051560  65.0646310
  13.0031449  57.4323033  65.9240776  13.2954192  57.5369936  64.4423565
  18.3779798  60.3269995  55.7695639  18.2397696  60.5171591  54.8416828
  18.0216017  61.0889378  56.2263690   6.5421924  54.3128091  61.8492651
   7.1821303  54.1716850  61.1515614   5.7099455  54.0262604  61.4731253
  18.4049177  62.3946522  60.7806910  18.8385684  62.3021812  61.6289965
  19.1180758  62.3704023  60.1426926   7.3182228  63.6130521  57.9627643
   8.1122826  63.1180841  57.7610218   6.6073920  63.0848384  57.5995349
  12.1377072  65.9948617  62.3140011  12.1914095  66.5639553  63.0817727
  11.2691854  66.1650502  61.9494048   3.6264991  57.7573603  54.0387396
   2.6962579  57.6958058  54.2557358   3.7222463  57.2349555  53.2424037
   3.5450540  54.2828416  56.6265638   3.8057358  55.1973749  56.5174798
   4.3667713  53.8152858  56.7762251   5.0175466  55.6966173  63.7964462
   5.6898519  55.4883535  63.1477111   4.1905252  55.4988259  63.3569695
  19.2664727  62.4370223  63.3139796  19.4600617  63.3416034  63.5599071
  19.1665345  61.9777642  64.1478381  10.9201038  52.3228114  65.8130123
  10.2728953  53.0218063  65.7194600  11.6902053  52.7564258  66.1806371
  14.3279836  62.5876966  68.8880676  14.1765342  62.3587518  67.9710760
  14.3184515  63.5447567  68.9012021  11.0965172  60.1608879  63.8726943
  12.0257232  60.3120038  63.6995910  10.6756202  60.2492899  63.0175589
   9.8953504  64.1859543  61.6425481   9.7564590  63.8178327  62.5151419
   9.1068100  64.7007182  61.4709438  10.4901656  69.2868639  52.9851017
  10.6653412  68.8156683  53.7996640   9.8034444  69.9134406  53.2132278
  11.4458719  63.5641146  59.0314318  11.1108552  63.5241916  59.9271968
  10.9462665  62.8985862  58.5584729   5.4202963  58.9708776  64.5566899
   5.2822761  58.2389015  65.1578439   6.3307886  58.8817676  64.2751087
  14.3817911  60.9097180  49.3051378  13.7647081  60.1844008  49.2084431
  13.9134399  61.6706540  48.9618452   8.0485264  58.6828735  64.0450579
   8.7584882  58.0421927  64.0037198   8.0054572  58.9341630  64.9676760
  16.0372042  65.6196088  66.9657158  15.9784588  64.9355309  66.2987741
  16.4391561  66.3615078  66.5137784   6.7614198  55.6693953  65.8646219
   6.2251555  55.2184691  66.5167815   6.1730906  55.8039862  65.1216683
   5.0562741  72.4358002  59.7590877   5.2959339  73.0676526  60.4369896
   4.2131938  72.0846042  60.0456236   6.1716457  55.1282604  48.4272682
   5.2945923  55.0071405  48.0634929   6.6474210  54.3368683  48.1751571
  16.0389450  63.5835672  65.1971138  15.1516228  63.2461594  65.3197537
  16.6088001  62.8518704  65.4339903   2.4953319  54.8049961  62.9499213
   2.4111508  54.1975630  62.2149623   1.6736025  55.2958979  62.9508709
   9.5690603  68.2437125  62.1632381   9.4960774  69.0492096  62.6751686
   9.1267996  68.4429090  61.3380403   9.3580383  67.4808895  55.6735203
   8.5747905  68.0230575  55.7673427  10.0573128  67.9982874  56.0729444
  12.6677033  53.2903524  58.3169408  13.1645732  52.5373486  57.9970478
  11.8964014  53.3267841  57.7512617  20.5206790  58.9943890  59.9587700
  20.5096666  59.8768605  59.5881633  19.6524170  58.6415441  59.7642237
  12.0289287  68.1423959  64.3190540  12.7417259  68.7771424  64.2466441
  11.5379315  68.2387825  63.5030542  13.7506813  62.0475211  55.8907832
  12.8163092  62.1676674  55.7212536  13.9283482  61.1447678  55.6267841
   9.2512001  55.4320907  58.0441093   8.8809789  54.8791948  58.7321998
   9.7471094  54.8279041  57.4916093  17.1379365  57.8892531  56.4257866
  17.6039817  58.7220522  56.3518168  17.5886865  57.4237512  57.1303124
   7.0801200  65.8918402  65.1396111   7.7810660  66.5254885  65.2925505
   6.6096315  66.2333134  64.3791750  15.2055596  64.2336352  53.4244018
  15.4815440  64.1192947  54.3337892  14.3360095  63.8353837  53.3856191
  15.1096028  50.2573118  60.4648767  14.1959107  50.4877344  60.6330974
  15.5389129  50.3411562  61.3162799  14.8802486  58.4463010  62.9648661
  14.2273936  58.6938917  62.3101114  15.2582866  57.6327148  62.6311138
  11.8409660  68.4822703  57.0676831  12.0232054  67.6644359  57.5304584
  12.6642646  68.6990395  56.6301721  12.1751825  67.4090888  54.3291880
  12.7039592  66.8983342  53.7162042  12.4380045  67.0933418  55.1937413
  10.9290059  59.1882821  69.4514698  10.2530696  59.0876950  70.1217073
  11.7517693  59.0322034  69.9150695   2.6768918  65.4254757  62.0727213
   3.2622355  64.6798445  62.2055118   2.4793757  65.7358714  62.9563877
   5.5307573  68.4606005  57.0889656   4.8617949  68.9452132  56.6053696
   5.3920443  68.7075225  58.0033034   9.6712842  70.4949748  63.6872314
  10.2231150  70.6581370  64.4521399  10.0119035  71.0854186  63.0152339
   4.6477335  52.8424898  64.2894199   4.7118662  53.7039729  63.8771597
   4.5844455  52.2298900  63.5566557   4.1229608  54.9148030  67.9367233
   4.7501646  54.5325108  68.5504757   3.2657527  54.6962232  68.3022926
  14.5223716  65.3211006  69.5420969  15.0663620  65.9340964  69.0475923
  13.9410561  65.8790584  70.0587982  12.8081229  68.4431724  60.6735996
  12.6832369  67.6421463  60.1646942  13.4660320  68.9377917  60.1849966
   4.4289397  54.7980456  59.8513137   3.7075983  55.4116424  59.7120610
   5.2182653  55.3338221  59.7729782  14.8716138  66.2440744  62.3015546
  13.9246473  66.1246095  62.2293873  15.2198911  65.3563242  62.3841808
   7.2315711  52.1334883  66.1253788   7.7550113  52.3797179  66.8880098
   7.0128044  52.9654917  65.7056926   2.6282992  54.4038557  53.9924913
   2.2995698  53.5235936  53.8100019   2.9822363  54.3486226  54.8801302
  11.8762571  66.0393460  58.5019899  11.7287533  65.1110167  58.6827469
  12.7016064  66.0613551  58.0176974   5.7424815  54.6911527  54.3600391
   6.0820888  55.2197448  53.6378999   6.1896936  55.0291933  55.1358957
  15.4796693  66.8622019  59.5884771  16.4043240  66.6564880  59.4509223
  15.3111996  66.6138420  60.4974113   8.4368256  53.0748578  63.8103459
   8.0965076  52.2756391  64.2124139   7.7307262  53.3750289  63.2380292
   9.0884728  50.1597890  62.2630782   9.9110797  49.6858368  62.1409672
   9.3322791  50.9388374  62.7629468   7.7292962  53.1886149  52.5593684
   8.4501325  53.5667401  52.0557400   7.1058266  53.9075025  52.6628661
  11.8724085  53.8931298  53.4952016  12.0887700  54.7755935  53.1940844
  11.3918152  53.5017511  52.7657658   6.6123307  56.8517011  60.0722760
   6.4667887  57.1657314  60.9647042   6.1348510  57.4701911  59.5193659
   8.4719689  53.8419559  60.1203650   8.4581258  52.9460652  59.7835948
   9.1892118  53.8490223  60.7541936  10.3245820  54.2756899  62.1656777
  10.0663598  55.1973970  62.1641108   9.7930861  53.8787334  62.8557242
  15.2692009  67.3807686  54.9446863  15.4428886  66.8154109  54.1920715
  15.7620900  68.1808581  54.7626353   1.0868969  59.3922355  63.0110422
   0.5422437  60.1682163  63.1430696   1.9648319  59.7393160  62.8529543
   7.8756585  52.7233939  55.3891220   7.9972497  51.7950585  55.5882108
   7.5858628  52.7372625  54.4769536  10.7447776  50.4088850  58.5257940
  10.7669473  50.4728183  57.5709920  11.1615835  49.5693358  58.7198446
  21.1231400  60.1444109  56.5637163  21.5662546  59.3951434  56.1656286
  20.2457910  60.1354245  56.1810895  16.2567181  66.6974451  52.0443761
  16.9518086  67.3181143  52.2631076  16.5990332  65.8469802  52.3196139
   1.8734991  58.5192251  65.9040578   1.1316727  58.6674887  66.4905209
   1.5527735  58.7800517  65.0407328  18.1558605  64.1474156  53.5731092
  18.6809929  64.4861429  52.8480412  18.0680957  63.2121171  53.3894226
   9.8178653  68.0608230  65.7020968  10.1265780  67.8157376  66.5743668
  10.6154135  68.2654868  65.2139839   9.8399265  70.2146139  57.9326345
   9.4004256  69.7222518  58.6259202  10.5907382  69.6719107  57.6918420
   2.3191604  66.4057680  57.9350973   3.1449624  66.1061452  57.5549617
   1.9685656  65.6365303  58.3840762   7.2873137  65.7584148  60.0048647
   6.6653147  65.0954853  59.7050875   7.9578004  65.7845280  59.3222294
   7.3597665  54.2365936  69.5981153   7.4085820  55.1128059  69.2158922
   7.9020179  53.6943329  69.0252796  17.8452511  64.7807060  68.8782290
  17.0548054  64.7631199  68.3386789  17.6085865  65.3195353  69.6331326
  17.9650386  61.6299526  66.1915018  18.0148391  61.4649534  67.1330541
  17.8564309  60.7626785  65.8012899   6.8486644  64.3088072  53.4807107
   6.9974765  64.9923536  52.8273780   7.6553088  64.2893162  53.9956563
  15.2554148  57.6130454  67.5074325  16.1564011  57.4736919  67.2158323
  15.3302123  57.7784909  68.4472503   9.5896953  54.9897309  66.3527511
   8.7200263  55.2830875  66.0810100   9.8256434  55.5737754  67.0734775
  19.4668582  64.0496468  66.4357040  19.1753391  64.4126448  67.2720501
  18.8540714  63.3363476  66.2570372  20.6664265  61.6149347  58.9559610
  21.5011156  62.0539151  59.1197170  20.8023394  61.1388001  58.1367856
  17.7155771  59.1729082  64.9037098  18.1909892  59.3656729  64.0955949
  16.7921336  59.2288268  64.6580482   4.6039277  60.3353249  54.4868176
   4.3585319  59.4315579  54.6848386   4.7735192  60.3370400  53.5447654
  12.2935987  51.2076926  63.8692932  12.8117931  51.9437953  63.5439420
  11.9391120  51.5140919  64.7039691   3.8734925  56.0681607  51.9854338
   3.1804170  56.1425962  51.3294374   3.6286677  55.3041951  52.5075855
  12.5448581  47.6277208  59.3893828  12.8250335  46.9600397  60.0154255
  13.3299188  47.8206304  58.8768492  10.3482050  66.8036202  50.9518855
   9.7756017  67.4226389  50.4989327  10.9214844  67.3535564  51.4858777
  16.4157440  56.0494842  63.1365403  17.3674863  56.1492940  63.1577628
  16.2460890  55.2573111  63.6463488  14.4371819  53.1350426  63.3224804
  13.8421751  53.4155438  62.6271293  14.1521516  53.6244326  64.0941546
  13.5679310  67.0873352  52.0827437  14.5009983  67.0218914  52.2860312
  13.4802522  67.9229619  51.6241970  16.1967326  66.4039223  49.0431385
  16.1180958  66.0699086  49.9367142  17.0176993  66.8960991  49.0422857
  18.8945518  59.2700962  62.2507703  18.8621838  58.3316963  62.4367387
  19.5046141  59.3484999  61.5173528  10.7328848  58.1397015  48.2934907
  11.6787953  58.0103223  48.3623325  10.3543093  57.4011677  48.7704335
  19.0440006  56.0612005  62.2965986  18.5279055  55.2770462  62.1095915
  19.9279955  55.7330722  62.4612506  16.7050733  49.8053021  58.2561799
  16.5075554  49.4968109  59.1405131  17.3150438  50.5314660  58.3859729
  24.7122067  60.3316969  61.3913740  25.4425456  60.0702257  61.9521443
  24.1029013  59.5945691  61.4315808  22.7937364  58.4724831  61.9888191
  22.0670528  58.3380796  61.3804683  22.3784651  58.7801660  62.7944909
  10.6167541  62.1914761  69.7535564  11.5370550  62.3693360  69.9475611
  10.5817124  61.2470806  69.6015263   8.9171766  56.0646991  48.2289792
   8.0103221  55.7680104  48.3052506   9.1947747  55.7676809  47.3624079
   3.6129613  60.1015796  62.3958345   3.8315623  61.0332904  62.4146379
   4.0255387  59.7423770  63.1813149  10.5333831  50.6083881  54.3834034
   9.7234560  50.2630966  54.7589280  11.2218248  50.2991425  54.9721645
  12.4624380  49.6861928  56.0058330  13.0155418  50.1057381  56.6648353
  12.6994466  48.7597676  56.0481286   8.4857479  55.6749002  71.7861094
   8.3854206  56.6243358  71.7173185   8.2679021  55.3467240  70.9137164
   7.6870550  52.9233927  48.3701772   8.5489714  53.2488825  48.6297589
   7.8720894  52.1365422  47.8574837  15.8403187  51.7962453  55.5136995
  15.2601856  52.4547257  55.1315047  15.5739119  50.9739798  55.1024412
  14.2906753  51.1967511  57.7158315  14.7906531  51.3084045  56.9072634
  14.9342361  50.8928564  58.3559123   8.3488749  59.1046140  70.6026156
   7.8655831  59.9046500  70.8090045   8.4349688  59.1154085  69.6493600
   1.6174708  60.9374520  58.5247975   1.5945397  61.0362207  57.5729858
   1.9275345  61.7839671  58.8465141   4.2762086  62.9950675  62.6394590
   5.2305340  62.9634617  62.5724521   4.0774610  62.5341299  63.4544816
   4.8661468  61.5651791  65.2065387   5.6854357  62.0595870  65.2300225
   5.1398276  60.6483759  65.1782955  14.6228065  53.9562543  54.5693343
  13.7353920  54.2412194  54.3513538  15.0382054  53.7956307  53.7220620
  17.9742601  53.9809064  58.2847682  18.7502991  54.4705517  58.5572299
  17.2490735  54.4067119  58.7419552  20.4115159  54.6936684  59.3421623
  21.0059650  54.4532420  58.6314931  20.4841743  53.9743814  59.9695159
   2.6312315  68.5370295  59.6564788   2.4966783  67.7770695  59.0902786
   2.2144377  69.2611194  59.1893576  13.7671278  63.7207218  48.6641363
  14.4707128  63.9257221  49.2799018  13.0433927  64.2883980  48.9290446
  14.5969088  59.4717079  54.7843633  14.5404290  59.9285631  53.9451265
  15.1497431  58.7107764  54.6066476  18.4073894  55.2606811  55.6093753
  18.1510829  54.8603447  56.4401960  17.7826762  55.9750605  55.4843892
  22.7186232  58.0002884  58.1165044  22.1585790  58.0696074  58.8896606
  22.1129736  57.8243869  57.3964540   5.7881441  69.4339612  59.8683230
   5.6713825  70.3785044  59.7661920   4.9673887  69.1313173  60.2569029
  15.6757976  64.1589747  50.7139823  16.5103579  63.7270946  50.5317298
  15.5142318  63.9871761  51.6416717  15.3303868  60.6621861  52.0796162
  15.2752671  60.4966132  51.1384606  14.7049923  61.3697894  52.2358352
  12.6449775  62.9670772  71.4049725  13.5140935  63.1411425  71.0436360
  12.1656526  63.7865189  71.2825454   8.6399993  50.1629970  51.6581481
   8.6278663  51.1071810  51.8149751   9.5323415  49.9800115  51.3640942
   6.8135955  70.0867873  63.0839159   7.7163202  70.1191484  63.4005654
   6.5873325  69.1568324  63.0985494   8.5689557  68.8398860  59.7449237
   7.6185188  68.8400722  59.6313610   8.8722043  68.0931595  59.2285272
  12.4552113  46.7572746  55.9127417  11.6884508  46.2031233  56.0584100
  12.8662818  46.8294615  56.7741569   4.4593874  53.0457542  70.0032599
   5.3225335  52.6894347  70.2135923   3.8859284  52.7071437  70.6908003
  24.3042251  74.6759398  60.8095000  24.9420661  74.5566146  60.1058340
  24.1863093  75.6240242  60.8682952  21.1131957  74.6286827  60.7456524
  20.7750468  74.5127891  59.8577059  21.9821725  74.2277992  60.7257530
  16.9718773  76.4822303  56.7353415  16.4083638  76.3912240  55.9669703
  16.8571168  75.6622207  57.2155908  21.5951740  75.7821678  66.7042730
  21.5840381  75.3874476  65.8323234  21.7572379  75.0487751  67.2976501
  14.5183205  77.9773495  59.5737636  15.3104496  77.6364319  59.1583935
  14.7579855  78.0868470  60.4939789  22.5518331  80.1493271  52.0467880
  21.9006311  80.7347351  51.6601894  23.3462694  80.6799466  52.1062918
  16.4773958  77.2382408  52.4455015  17.2504834  76.6911395  52.3067890
  16.8299357  78.1026657  52.6569476  18.3159001  78.5658790  65.6521914
  18.0248867  79.4704421  65.5368580  18.9515985  78.6075318  66.3665983
  19.2415208  75.9435639  62.2423273  19.8378780  75.7191661  61.5280236
  19.2990179  75.2020384  62.8448721  18.8140236  73.3975074  50.0773464
  19.0665757  72.8756595  49.3156927  17.8764795  73.2341219  50.1800148
  23.8583519  72.4010852  57.8848208  24.6446608  71.9830275  57.5338625
  24.1222223  73.3056944  58.0529856  24.0293596  77.8383703  52.5836865
  23.3939429  77.9118329  53.2957769  23.6991003  78.4277301  51.9055944
  29.2591946  72.3386085  58.7881186  29.9917118  71.7685302  59.0219016
  28.5031302  71.9507686  59.2287692  18.5336525  75.3003180  52.2797839
  18.4172783  74.6248083  52.9478924  18.6438785  74.8135554  51.4629992
  20.8768066  74.7613327  55.9844529  20.5126273  74.2343948  56.6957450
  21.7335182  74.3711796  55.8111014  26.7817367  66.0507660  63.2475795
  26.4500691  66.9203071  63.0237010  26.1862980  65.7343944  63.9269825
  20.5173553  69.7903227  50.9805877  20.6847955  70.6583463  51.3476348
  20.3270722  69.9530508  50.0567166  23.2748886  78.2520206  62.6471708
  22.9749609  79.1545244  62.5387515  22.9299946  77.9852389  63.4992860
  16.7261368  74.7034002  58.6808412  15.8011864  74.5710216  58.8886104
  16.9745781  75.4828222  59.1778354  26.6746030  70.7702746  60.3269145
  25.7662907  70.7018154  60.0327906  26.6233626  71.2474691  61.1550970
  20.4962774  72.2460884  51.9652544  20.3762399  72.6917935  52.8038024
  19.8015362  72.5946202  51.4066082  14.0870179  74.3467276  59.5152201
  14.2162560  74.6001755  60.4291613  13.4067630  74.9394984  59.1956856
  18.2569666  85.0164526  55.6142675  18.1793696  85.9672351  55.6931156
  17.6531309  84.6710398  56.2717602  20.7486896  72.1892391  68.2704042
  19.9720230  72.7486311  68.2606907  21.3877459  72.6749174  68.7918912
  28.5407676  68.9719184  62.1047019  27.8982057  69.2651717  61.4586813
  28.0362605  68.8572104  62.9100215  26.1947840  72.7182357  52.7932878
  27.1065696  72.9509744  52.6180576  25.6857487  73.3019402  52.2307957
  19.0033268  74.9977845  67.8322009  19.7447952  75.5362889  67.5556833
  18.2970253  75.6244133  67.9893561  24.4788608  77.1406985  66.4294171
  24.8871964  76.6989396  65.6848803  23.7565869  76.5659613  66.6828364
  20.8319678  72.0779592  63.8027728  21.6780873  72.5019005  63.9462377
  20.7718315  71.4213216  64.4966291  24.8017422  77.7008176  60.1846460
  24.1726285  77.8653890  59.4822527  24.4143084  78.1149785  60.9557424
  28.6806654  78.6362614  57.5390823  27.9957692  79.0161515  56.9887857
  28.7650503  79.2457940  58.2722771  23.9819123  69.7383960  65.4608901
  23.7380055  70.4926021  64.9243177  24.2579054  70.1169308  66.2956148
  25.9357586  76.2822573  64.1386167  26.1474481  76.9254333  63.4620548
  25.8887334  75.4484889  63.6708097  23.5383815  68.8940393  61.0422739
  22.6768294  69.1921647  61.3339477  23.5646249  69.1110792  60.1103772
  20.3545384  77.4382584  57.4496545  20.8183730  77.7170287  56.6601167
  20.0902182  76.5366028  57.2669635  17.2469465  76.9854065  60.3876308
  17.8170822  77.4141334  59.7493792  17.8377577  76.7036650  61.0860494
  19.2914270  73.5605736  54.2586110  19.9938314  74.0126780  54.7260036
  18.9594899  72.9189555  54.8866003  17.7394632  72.1517493  68.6337319
  17.1093292  72.8333774  68.8672716  17.6330720  72.0400574  67.6890457
  13.0339604  71.8189289  59.5603243  12.2438658  72.0746817  59.0843354
  13.5250852  72.6337627  59.6655284  27.0503414  79.1594528  62.3108524
  27.8720857  78.7574715  62.0291206  27.0465817  79.0562762  63.2624640
  14.9854350  72.1833868  56.5186720  14.1885513  72.2952562  57.0370216
  14.7579942  72.5220520  55.6527611  20.8160017  78.7078571  64.4669235
  20.8804450  79.1698979  65.3027406  20.1070941  78.0775936  64.5951544
  11.3177307  72.0719779  61.9918234  11.5685346  72.9566789  62.2575810
  11.8536856  71.8924381  61.2193326  20.5308035  80.3746679  54.3348215
  20.3953710  81.2198215  54.7633063  21.0717847  80.5765956  53.5714149
  17.0175374  66.4538259  70.9962570  16.6242320  65.9004457  71.6710214
  17.8341515  66.7648837  71.3869088  13.9837432  77.8922117  54.9076140
  14.4961953  78.6865367  55.0581705  14.6360145  77.1948407  54.8409742
  15.7932317  81.0087873  56.9898893  15.9698945  81.9305838  56.8019877
  16.5889150  80.6946292  57.4193273  19.9343335  67.8696138  68.5882827
  20.6753049  68.4703291  68.5087289  20.1661258  67.1273776  68.0300869
  15.0784673  73.0552505  66.8661056  14.9638189  72.1537762  67.1668155
  14.2229191  73.3016202  66.5145873  22.1576511  80.9970245  68.4648557
  21.7140365  80.2106624  68.1469462  22.8193725  81.1849396  67.7992448
  16.9163632  82.5266047  62.9909236  17.4671057  82.3983110  62.2186229
  16.0775108  82.8260936  62.6404128  24.2557749  81.2773045  66.4929958
  24.2376225  82.0981926  66.0010227  25.1777669  81.1527121  66.7180099
  20.7130803  78.7917175  67.3353467  21.2459140  78.0305463  67.1052775
  20.1844885  78.4990827  68.0777621  23.8800498  63.8977241  62.8647108
  23.5364768  64.7878882  62.7886219  24.2479461  63.7078898  62.0016693
  11.9486349  76.2210771  55.6835711  12.7861571  76.6307780  55.4669418
  12.1264617  75.2810213  55.6535904  23.8450781  73.8885852  51.3719544
  23.3297405  74.6590456  51.6107931  23.5728090  73.2150988  51.9952605
  21.4297892  68.7335553  56.4304782  20.5739488  68.3442403  56.2510421
  21.8424844  68.8127513  55.5704567  22.9597039  66.2681896  60.8296342
  22.4561834  66.2312031  60.0164147  23.2527646  67.1774639  60.8892998
  19.2039925  66.3520626  59.8362523  20.0692921  66.1563434  59.4768413
  19.2717434  66.1230977  60.7631880  28.8185055  76.6418206  53.3072717
  28.0414498  76.3029366  52.8627879  29.4976536  76.6470830  52.6327682
  23.6337084  71.7612944  53.1979325  23.3287220  72.0759093  54.0489468
  24.5867526  71.8394364  53.2406658  22.0783516  77.9203167  54.8472279
  21.5504878  77.1855927  54.5345516  21.5771019  78.6977844  54.6012247
  27.0576362  76.1152188  59.9639325  26.4000037  76.8051449  60.0519454
  27.8616761  76.5048620  60.3073311  16.8102244  68.5822834  57.2078890
  17.3845996  68.3598015  56.4752083  17.3973226  68.6511528  57.9607492
  25.8681821  74.4696560  58.0143267  26.3813703  75.1026552  58.5164976
  26.5183045  73.8697756  57.6486627  17.1371831  70.6127295  51.2274775
  16.3009143  70.9501981  51.5484050  16.9976600  70.4776274  50.2901912
  19.1124911  65.4564082  55.9353960  18.4589324  65.1413100  55.3110574
  19.0705386  64.8339823  56.6613783  20.2236116  75.7383378  47.8507252
  19.3163178  75.5072631  48.0498401  20.7207148  74.9420997  48.0381233
  23.1304195  84.4480885  50.7703938  22.4565894  84.7512581  51.3788896
  23.5170017  85.2509965  50.4209395  22.3462652  71.9446016  60.2601607
  21.4285213  72.1660963  60.1023295  22.7622795  72.0192326  59.4013315
  23.1297700  73.3437432  55.3904288  23.8769519  73.8558829  55.0811410
  23.3989289  73.0221484  56.2508681  21.4024350  75.8395972  52.3731242
  20.4935569  75.5555005  52.4703712  21.4319434  76.2595051  51.5134549
  26.6343617  79.4502562  56.1422409  26.1805944  78.6093472  56.1987600
  26.0037584  80.0863960  56.4797190  25.5776537  70.3794548  57.3723077
  24.8399294  69.8671934  57.7033319  25.8303310  69.9394930  56.5606354
  25.0776556  81.2879059  57.0772228  25.3699531  81.8484116  56.3584593
  25.5875177  81.5807620  57.8325387  25.6788164  63.1570800  57.9664846
  25.9847041  62.2968163  57.6790761  26.4040769  63.7488420  57.7663840
  11.9712520  73.5601487  56.3546444  11.7736920  72.9670847  55.6297511
  11.4159184  73.2553697  57.0722383  19.9509244  73.4524593  58.4741037
  20.0057854  72.4998429  58.3983514  19.1400446  73.6084032  58.9582336
  21.1000438  77.3804716  49.7119320  20.6619867  76.6640575  49.2524958
  21.8410878  77.6080831  49.1504412  17.8901604  72.0701653  56.2331416
  17.0769469  72.3695823  56.6396608  18.3860598  71.6757342  56.9505898
  20.0410182  82.0659410  58.1665681  19.9986360  82.2920256  57.2374213
  20.9572880  81.8322784  58.3151482  23.4875815  72.5343477  65.0646310
  23.8425203  72.7614950  65.9240776  24.1347947  72.8661854  64.4423565
  29.2173552  75.6561913  55.7695639  29.0791451  75.8463509  54.8416828
  28.8609771  76.4181296  56.2263690  17.3815678  69.6420008  61.8492651
  18.0215058  69.5008767  61.1515614  16.5493209  69.3554522  61.4731253
  29.2442932  77.7238440  60.7806910  29.6779439  77.6313729  61.6289965
  29.9574513  77.6995941  60.1426926  18.1575982  78.9422439  57.9627643
  18.9516581  78.4472759  57.7610218  17.4467675  78.4140302  57.5995349
  22.9770827  81.3240534  62.3140011  23.0307849  81.8931471  63.0817727
  22.1085608  81.4942419  61.9494048  14.4658746  73.0865520  54.0387396
  13.5356334  73.0249976  54.2557358  14.5616218  72.5641473  53.2424037
  14.3844295  69.6120333  56.6265638  14.6451112  70.5265666  56.5174798
  15.2061467  69.1444776  56.7762251  15.8569220  71.0258090  63.7964462
  16.5292274  70.8175453  63.1477111  15.0299007  70.8280176  63.3569695
  30.1058482  77.7662141  63.3139796  30.2994372  78.6707951  63.5599071
  30.0059100  77.3069560  64.1478381  21.7594792  67.6520031  65.8130123
  21.1122707  68.3509981  65.7194600  22.5295808  68.0856175  66.1806371
  25.1673590  77.9168884  68.8880676  25.0159097  77.6879435  67.9710760
  25.1578270  78.8739485  68.9012021  21.9358927  75.4900796  63.8726943
  22.8650987  75.6411956  63.6995910  21.5149957  75.5784817  63.0175589
  20.7347258  79.5151461  61.6425481  20.5958344  79.1470245  62.5151419
  19.9461855  80.0299100  61.4709438  21.3295410  84.6160557  52.9851017
  21.5047166  84.1448600  53.7996640  20.6428198  85.2426323  53.2132278
  22.2852474  78.8933063  59.0314318  21.9502306  78.8533833  59.9271968
  21.7856419  78.2277779  58.5584729  16.2596717  74.3000693  64.5566899
  16.1216515  73.5680932  65.1578439  17.1701641  74.2109593  64.2751087
  25.2211665  76.2389098  49.3051378  24.6040836  75.5135926  49.2084431
  24.7528154  76.9998458  48.9618452  18.8879018  74.0120653  64.0450579
  19.5978637  73.3713845  64.0037198  18.8448326  74.2633548  64.9676760
  26.8765797  80.9488006  66.9657158  26.8178343  80.2647226  66.2987741
  27.2785315  81.6906996  66.5137784  17.6007952  70.9985871  65.8646219
  17.0645309  70.5476609  66.5167815  17.0124661  71.1331779  65.1216683
  15.8956496  87.7649920  59.7590877  16.1353094  88.3968444  60.4369896
  15.0525692  87.4137960  60.0456236  17.0110211  70.4574522  48.4272682
  16.1339677  70.3363323  48.0634929  17.4867964  69.6660600  48.1751571
  26.8783204  78.9127590  65.1971138  25.9909983  78.5753512  65.3197537
  27.4481755  78.1810621  65.4339903   8.5312351  75.2451682  58.5214189
   9.2183391  74.9313412  57.9335205   8.3760480  76.1493046  58.2481441
  13.3347073  70.1341878  62.9499213  13.2505262  69.5267548  62.2149623
  12.5129780  70.6250897  62.9508709  20.4084357  83.5729042  62.1632381
  20.3354529  84.3784014  62.6751686  19.9661751  83.7721008  61.3380403
  20.1974137  82.8100812  55.6735203  19.4141659  83.3522493  55.7673427
  20.8966882  83.3274792  56.0729444  23.5070787  68.6195442  58.3169408
  24.0039487  67.8665404  57.9970478  22.7357769  68.6559758  57.7512617
  22.8683041  83.4715876  64.3190540  23.5811013  84.1063341  64.2466441
  22.3773070  83.5679742  63.5030542  24.5900568  77.3767129  55.8907832
  23.6556847  77.4968592  55.7212536  24.7677236  76.4739596  55.6267841
  20.0905756  70.7612825  58.0441093  19.7203543  70.2083865  58.7321998
  20.5864848  70.1570958  57.4916093  27.9773119  73.2184448  56.4257866
  28.4433571  74.0512440  56.3518168  28.4280620  72.7529430  57.1303124
  17.9194955  81.2210320  65.1396111  18.6204414  81.8546803  65.2925505
  17.4490070  81.5625051  64.3791750  26.0449350  79.5628270  53.4244018
  26.3209194  79.4484864  54.3337892  25.1753849  79.1645754  53.3856191
  25.9489782  65.5865035  60.4648767  25.0352862  65.8169262  60.6330974
  26.3782883  65.6703479  61.3162799  25.7196241  73.7754927  62.9648661
  25.0667691  74.0230835  62.3101114  26.0976620  72.9619065  62.6311138
  22.6803414  83.8114620  57.0676831  22.8625809  82.9936276  57.5304584
  23.5036400  84.0282313  56.6301721  23.0145580  82.7382806  54.3291880
  23.5433346  82.2275260  53.7162042  23.2773799  82.4225336  55.1937413
  21.7683814  74.5174738  69.4514698  21.0924451  74.4168868  70.1217073
  22.5911447  74.3613952  69.9150695  13.5162673  80.7546675  62.0727213
  14.1016109  80.0090363  62.2055118  13.3187511  81.0650632  62.9563877
  16.3701328  83.7897922  57.0889656  15.7011703  84.2744050  56.6053696
  16.2314198  84.0367143  58.0033034   8.1080327  73.3252275  60.7931657
   8.1464427  72.7915866  61.5868775   7.6020620  72.7987481  60.1742634
  20.5106596  85.8241666  63.6872314  21.0624904  85.9873287  64.4521399
  20.8512790  86.4146104  63.0152339  15.4871090  68.1716816  64.2894199
  15.5512416  69.0331646  63.8771597  15.4238210  67.5590817  63.5566557
  14.9623362  70.2439948  67.9367233  15.5895401  69.8617025  68.5504757
  14.1051281  70.0254150  68.3022926  25.3617471  80.6502923  69.5420969
  25.9057375  81.2632882  69.0475923  24.7804316  81.2082502  70.0587982
  11.7388905  72.0516377  53.8685588  12.0342346  71.1427056  53.8152642
  10.8376941  72.0304117  53.5466590  23.6474984  83.7723641  60.6735996
  23.5226123  82.9713381  60.1646942  24.3054075  84.2669835  60.1849966
  15.2683152  70.1272374  59.8513137  14.5469738  70.7408342  59.7120610
  16.0576408  70.6630139  59.7729782  25.7109892  81.5732661  62.3015546
  24.7640228  81.4538013  62.2293873  26.0592665  80.6855159  62.3841808
  18.0709465  67.4626800  66.1253788  18.5943867  67.7089097  66.8880098
  17.8521799  68.2946835  65.7056926  13.4676747  69.7330475  53.9924913
  13.1389453  68.8527854  53.8100019  13.8216117  69.6778144  54.8801302
  22.7156325  81.3685378  58.5019899  22.5681288  80.4402085  58.6827469
  23.5409819  81.3905468  58.0176974  16.5818570  70.0203445  54.3600391
  16.9214642  70.5489366  53.6378999  17.0290690  70.3583851  55.1358957
  26.3190447  82.1913936  59.5884771  27.2436995  81.9856798  59.4509223
  26.1505751  81.9430338  60.4974113  19.2762010  68.4040495  63.8103459
  18.9358831  67.6048308  64.2124139  18.5701017  68.7042206  63.2380292
  19.9278482  65.4889808  62.2630782  20.7504552  65.0150286  62.1409672
  20.1716546  66.2680292  62.7629468  18.5686717  68.5178066  52.5593684
  19.2895079  68.8959319  52.0557400  17.9452021  69.2366943  52.6628661
  22.7117840  69.2223215  53.4952016  22.9281454  70.1047853  53.1940844
  22.2311907  68.8309429  52.7657658  17.4517061  72.1808928  60.0722760
  17.3061642  72.4949232  60.9647042  16.9742265  72.7993829  59.5193659
  19.3113444  69.1711476  60.1203650  19.2975013  68.2752570  59.7835948
  20.0285872  69.1782140  60.7541936  21.1639575  69.6048817  62.1656777
  20.9057352  70.5265887  62.1641108  20.6324615  69.2079251  62.8557242
  26.1085763  82.7099604  54.9446863  26.2822641  82.1446026  54.1920715
  26.6014655  83.5100499  54.7626353  11.9262723  74.7214273  63.0110422
  11.3816191  75.4974081  63.1430696  12.8042073  75.0685077  62.8529543
  18.7150340  68.0525857  55.3891220  18.8366251  67.1242503  55.5882108
  18.4252382  68.0664543  54.4769536  21.5841530  65.7380767  58.5257940
  21.6063227  65.8020100  57.5709920  22.0009589  64.8985276  58.7198446
  27.0960936  82.0266368  52.0443761  27.7911841  82.6473061  52.2631076
  27.4384086  81.1761719  52.3196139  12.7128745  73.8484169  65.9040578
  11.9710481  73.9966805  66.4905209  12.3921489  74.1092435  65.0407328
  28.9952359  79.4766074  53.5731092  29.5203683  79.8153346  52.8480412
  28.9074712  78.5413089  53.3894226  20.6572408  83.3900147  65.7020968
  20.9659534  83.1449294  66.5743668  21.4547890  83.5946786  65.2139839
  20.6793020  85.5438057  57.9326345  20.2398010  85.0514436  58.6259202
  21.4301137  85.0011025  57.6918420  13.1585359  81.7349598  57.9350973
  13.9843379  81.4353370  57.5549617  12.8079411  80.9657220  58.3840762
  18.1266892  81.0876066  60.0048647  17.5046901  80.4246771  59.7050875
  18.7971759  81.1137198  59.3222294  11.3593964  79.6535924  58.8939907
  10.5225872  79.2258099  58.7123908  11.3317609  79.8468368  59.8310698
  18.1991419  69.5657854  69.5981153  18.2479575  70.4419977  69.2158922
  18.7413934  69.0235247  69.0252796  28.6846265  80.1098977  68.8782290
  27.8941809  80.0923116  68.3386789  28.4479620  80.6487271  69.6331326
  28.8044140  76.9591444  66.1915018  28.8542145  76.7941451  67.1330541
  28.6958063  76.0918703  65.8012899  17.6880399  79.6379989  53.4807107
  17.8368519  80.3215454  52.8273780  18.4946842  79.6185079  53.9956563
  26.0947903  72.9422372  67.5074325  26.9957765  72.8028837  67.2158323
  26.1695877  73.1076827  68.4472503  20.4290708  70.3189227  66.3527511
  19.5594017  70.6122793  66.0810100  20.6650188  70.9029672  67.0734775
  30.3062337  79.3788385  66.4357040  30.0147145  79.7418366  67.2720501
  29.6934468  78.6655394  66.2570372  28.5549525  74.5021000  64.9037098
  29.0303647  74.6948646  64.0955949  27.6315091  74.5580186  64.6580482
  15.4433032  75.6645167  54.4868176  15.1979074  74.7607497  54.6848386
  15.6128946  75.6662318  53.5447654  23.1329742  66.5368843  63.8692932
  23.6511686  67.2729870  63.5439420  22.7784874  66.8432837  64.7039691
  14.7128679  71.3973525  51.9854338  14.0197924  71.4717880  51.3294374
  14.4680431  70.6333868  52.5075855  23.3842336  62.9569126  59.3893828
  23.6644090  62.2892315  60.0154255  24.1692943  63.1498222  58.8768492
  21.1875804  82.1328120  50.9518855  20.6149771  82.7518307  50.4989327
  21.7608598  82.6827482  51.4858777  27.2551194  71.3786760  63.1365403
  28.2068617  71.4784858  63.1577628  27.0854645  70.5865029  63.6463488
  25.2765574  68.4642343  63.3224804  24.6815506  68.7447356  62.6271293
  24.9915270  68.9536244  64.0941546  24.4073064  82.4165270  52.0827437
  25.3403737  82.3510832  52.2860312  24.3196277  83.2521537  51.6241970
  27.0361081  81.7331140  49.0431385  26.9574712  81.3991004  49.9367142
  27.8570748  82.2252908  49.0422857  29.7339272  74.5992880  62.2507703
  29.7015592  73.6608880  62.4367387  30.3439896  74.6776916  61.5173528
  21.5722603  73.4688933  48.2934907  22.5181708  73.3395141  48.3623325
  21.1936848  72.7303595  48.7704335  29.8833760  71.3903923  62.2965986
  29.3672809  70.6062380  62.1095915  30.7673709  71.0622640  62.4612506
  21.4561295  77.5206679  69.7535564  22.3764305  77.6985278  69.9475611
  21.4210878  76.5762724  69.6015263  19.7565520  71.3938909  48.2289792
  18.8496975  71.0972022  48.3052506  20.0341501  71.0968727  47.3624079
  10.6743460  72.7145272  58.6788839  10.3546245  71.8610581  58.3863213
  10.1276889  72.9293851  59.4346806  14.4523368  75.4307713  62.3958345
  14.6709378  76.3624821  62.4146379  14.8649142  75.0715688  63.1813149
  21.3727586  65.9375799  54.3834034  20.5628314  65.5922884  54.7589280
  22.0612003  65.6283342  54.9721645  23.3018134  65.0153846  56.0058330
  23.8549173  65.4349299  56.6648353  23.5388220  64.0889594  56.0481286
  19.3251233  71.0040919  71.7861094  19.2247960  71.9535276  71.7173185
  19.1072775  70.6759158  70.9137164  18.5264305  68.2525844  48.3701772
  19.3883469  68.5780743  48.6297589  18.7114649  67.4657340  47.8574837
  10.5431720  76.3348184  60.6481960   9.8495192  75.9202137  60.1351915
  11.2904711  76.3768720  60.0515379  26.6796941  67.1254371  55.5136995
  26.0995610  67.7839175  55.1315047  26.4132874  66.3031715  55.1024412
  25.1300507  66.5259428  57.7158315  25.6300286  66.6375963  56.9072634
  25.7736115  66.2220481  58.3559123  19.1882503  74.4338058  70.6026156
  18.7049585  75.2338418  70.8090045  19.2743442  74.4446003  69.6493600
  12.4568463  76.2666438  58.5247975  12.4339151  76.3654125  57.5729858
  12.7669099  77.1131589  58.8465141  15.1155841  78.3242593  62.6394590
  16.0699094  78.2926535  62.5724521  14.9168364  77.8633216  63.4544816
  15.7055223  76.8943709  65.2065387  16.5248112  77.3887787  65.2300225
  15.9792031  75.9775677  65.1782955  25.4621819  69.2854461  54.5693343
  24.5747674  69.5704112  54.3513538  25.8775808  69.1248224  53.7220620
  28.8136355  69.3100982  58.2847682  29.5896745  69.7997435  58.5572299
  28.0884489  69.7359036  58.7419552  31.2508914  70.0228601  59.3421623
  31.8453405  69.7824337  58.6314931  31.3235498  69.3035732  59.9695159
  13.4706070  83.8662212  59.6564788  13.3360538  83.1062613  59.0902786
  13.0538132  84.5903112  59.1893576  24.6065033  79.0499136  48.6641363
  25.3100883  79.2549138  49.2799018  23.8827681  79.6175898  48.9290446
  25.4362843  74.8008997  54.7843633  25.3798044  75.2577548  53.9451265
  25.9891185  74.0399682  54.6066476  29.2467649  70.5898729  55.6093753
  28.9904583  70.1895365  56.4401960  28.6220517  71.3042523  55.4843892
  16.6275195  84.7631529  59.8683230  16.5107580  85.7076962  59.7661920
  15.8067642  84.4605091  60.2569029  26.5151730  79.4881665  50.7139823
  27.3497334  79.0562863  50.5317298  26.3536073  79.3163679  51.6416717
  26.1697622  75.9913778  52.0796162  26.1146426  75.8258050  51.1384606
  25.5443677  76.6989811  52.2358352  10.9590137  71.2281843  65.9057584
  11.6049001  70.7180797  66.3944810  10.7507288  71.9650524  66.4801010
  23.4843529  78.2962690  71.4049725  24.3534689  78.4703342  71.0436360
  23.0050281  79.1157107  71.2825454  19.4793748  65.4921887  51.6581481
  19.4672417  66.4363727  51.8149751  20.3717170  65.3092033  51.3640942
  17.6529710  85.4159791  63.0839159  18.5556956  85.4483401  63.4005654
  17.4267080  84.4860242  63.0985494  19.4083312  84.1690778  59.7449237
  18.4578943  84.1692639  59.6313610  19.7115798  83.4223512  59.2285272
  23.2945867  62.0864664  55.9127417  22.5278263  61.5323151  56.0584100
  23.7056572  62.1586533  56.7741569  15.2987628  68.3749460  70.0032599
  16.1619090  68.0186265  70.2135923  14.7253039  68.0363355  70.6908003
  35.1436005  90.0051316  60.8095000  35.7814415  89.8858063  60.1058340
  35.0256848  90.9532160  60.8682952  31.9525711  89.9578744  60.7456524
  31.6144223  89.8419809  59.8577059  32.8215480  89.5569909  60.7257530
  27.8112527  91.8114221  56.7353415  27.2477392  91.7204158  55.9669703
  27.6964922  90.9914125  57.2155908  32.4345494  91.1113596  66.7042730
  32.4234135  90.7166394  65.8323234  32.5966134  90.3779669  67.2976501
  25.3576959  93.3065412  59.5737636  26.1498251  92.9656237  59.1583935
  25.5973609  93.4160387  60.4939789  33.3912086  95.4785188  52.0467880
  32.7400066  96.0639269  51.6601894  34.1856449  96.0091383  52.1062918
  27.3167713  92.5674325  52.4455015  28.0898589  92.0203313  52.3067890
  27.6693112  93.4318575  52.6569476  29.1552756  93.8950708  65.6521914
  28.8642621  94.7996339  65.5368580  29.7909740  93.9367235  66.3665983
  30.0808962  91.2727556  62.2423273  30.6772535  91.0483579  61.5280236
  30.1383934  90.5312302  62.8448721  29.6533991  88.7266992  50.0773464
  29.9059511  88.2048513  49.3156927  28.7158550  88.5633137  50.1800148
  34.6977274  87.7302770  57.8848208  35.4840363  87.3122193  57.5338625
  34.9615978  88.6348862  58.0529856  34.8687351  93.1675620  52.5836865
  34.2333184  93.2410247  53.2957769  34.5384757  93.7569219  51.9055944
  40.0985701  87.6678003  58.7881186  40.8310873  87.0977220  59.0219016
  39.3425056  87.2799604  59.2287692  29.3730280  90.6295098  52.2797839
  29.2566538  89.9540001  52.9478924  29.4832539  90.1427471  51.4629992
  31.7161820  90.0905245  55.9844529  31.3520028  89.5635866  56.6957450
  32.5728936  89.7003714  55.8111014  31.3567307  85.1195144  50.9805877
  31.5241710  85.9875381  51.3476348  31.1664476  85.2822426  50.0567166
  34.1142641  93.5812123  62.6471708  33.8143364  94.4837162  62.5387515
  33.7693700  93.3144306  63.4992860  27.5655122  90.0325920  58.6808412
  26.6405619  89.9002134  58.8886104  27.8139535  90.8120139  59.1778354
  37.5139784  86.0994663  60.3269145  36.6056662  86.0310072  60.0327906
  37.4627380  86.5766608  61.1550970  31.3356528  87.5752802  51.9652544
  31.2156153  88.0209853  52.8038024  30.6409117  87.9238119  51.4066082
  24.9263933  89.6759194  59.5152201  25.0556314  89.9293673  60.4291613
  24.2461384  90.2686902  59.1956856  29.0963420 100.3456444  55.6142675
  29.0187450 101.2964269  55.6931156  28.4925064 100.0002316  56.2717602
  31.5880650  87.5184309  68.2704042  30.8113984  88.0778229  68.2606907
  32.2271213  88.0041092  68.7918912  39.3801431  84.3011102  62.1047019
  38.7375811  84.5943635  61.4586813  38.8756359  84.1864022  62.9100215
  37.0341594  88.0474275  52.7932878  37.9459451  88.2801662  52.6180576
  36.5251242  88.6311319  52.2307957  29.8427022  90.3269762  67.8322009
  30.5841707  90.8654806  67.5556833  29.1364008  90.9536051  67.9893561
  35.3182362  92.4698903  66.4294171  35.7265718  92.0281313  65.6848803
  34.5959624  91.8951530  66.6828364  31.6713432  87.4071510  63.8027728
  32.5174627  87.8310923  63.9462377  31.6112070  86.7505134  64.4966291
  35.6411177  93.0300093  60.1846460  35.0120039  93.1945808  59.4822527
  35.2536839  93.4441703  60.9557424  39.5200409  93.9654531  57.5390823
  38.8351447  94.3453433  56.9887857  39.6044258  94.5749858  58.2722771
  34.8212877  85.0675878  65.4608901  34.5773809  85.8217938  64.9243177
  35.0972808  85.4461226  66.2956148  36.7751340  91.6114490  64.1386167
  36.9868235  92.2546250  63.4620548  36.7281089  90.7776807  63.6708097
  34.3777569  84.2232311  61.0422739  33.5162048  84.5213565  61.3339477
  34.4040004  84.4402710  60.1103772  31.1939139  92.7674502  57.4496545
  31.6577484  93.0462205  56.6601167  30.9295937  91.8657946  57.2669635
  28.0863220  92.3145983  60.3876308  28.6564577  92.7433251  59.7493792
  28.6771332  92.0328568  61.0860494  30.1308025  88.8897654  54.2586110
  30.8332068  89.3418698  54.7260036  29.7988653  88.2481473  54.8866003
  28.5788386  87.4809411  68.6337319  27.9487047  88.1625691  68.8672716
  28.4724474  87.3692492  67.6890457  23.8733359  87.1481207  59.5603243
  23.0832413  87.4038735  59.0843354  24.3644606  87.9629544  59.6655284
  37.8897168  94.4886446  62.3108524  38.7114612  94.0866633  62.0291206
  37.8859571  94.3854680  63.2624640  25.8248104  87.5125786  56.5186720
  25.0279267  87.6244480  57.0370216  25.5973696  87.8512438  55.6527611
  31.6553772  94.0370489  64.4669235  31.7198204  94.4990896  65.3027406
  30.9464696  93.4067854  64.5951544  22.1571062  87.4011697  61.9918234
  22.4079100  88.2858707  62.2575810  22.6930610  87.2216299  61.2193326
  45.9803161  90.8325194  58.6593496  45.2266870  90.2632592  58.5037500
  46.1150702  90.7987859  59.6064130  31.3701789  95.7038597  54.3348215
  31.2347464  96.5490132  54.7633063  31.9111602  95.9057874  53.5714149
  27.8569129  81.7830176  70.9962570  27.4636075  81.2296375  71.6710214
  28.6735269  82.0940755  71.3869088  24.8231187  93.2214035  54.9076140
  25.3355707  94.0157285  55.0581705  25.4753900  92.5240325  54.8409742
  26.6326071  96.3379791  56.9898893  26.8092700  97.2597756  56.8019877
  27.4282905  96.0238210  57.4193273  30.7737090  83.1988055  68.5882827
  31.5146803  83.7995209  68.5087289  31.0055013  82.4565693  68.0300869
  25.9178428  88.3844423  66.8661056  25.8031943  87.4829680  67.1668155
  25.0622946  88.6308119  66.5145873  32.9970266  96.3262163  68.4648557
  32.5534120  95.5398542  68.1469462  33.6587479  96.5141314  67.7992448
  27.7557387  97.8557965  62.9909236  28.3064812  97.7275028  62.2186229
  26.9168863  98.1552854  62.6404128  35.0951504  96.6064963  66.4929958
  35.0769979  97.4273844  66.0010227  36.0171424  96.4819038  66.7180099
  31.5524558  94.1209092  67.3353467  32.0852895  93.3597381  67.1052775
  31.0238639  93.8282744  68.0777621  22.7880103  91.5502689  55.6835711
  23.6255325  91.9599697  55.4669418  22.9658371  90.6102131  55.6535904
  34.6844536  89.2177770  51.3719544  34.1691159  89.9882374  51.6107931
  34.4121844  88.5442906  51.9952605  32.2691647  84.0627470  56.4304782
  31.4133243  83.6734321  56.2510421  32.6818598  84.1419431  55.5704567
  33.7990793  81.5973814  60.8296342  33.2955589  81.5603949  60.0164147
  34.0921400  82.5066556  60.8892998  30.0433679  81.6812543  59.8362523
  30.9086676  81.4855352  59.4768413  30.1111188  81.4522895  60.7631880
  39.6578810  91.9710124  53.3072717  38.8808252  91.6321284  52.8627879
  40.3370291  91.9762747  52.6327682  34.4730839  87.0904862  53.1979325
  34.1680974  87.4051011  54.0489468  35.4261281  87.1686282  53.2406658
  32.9177271  93.2495085  54.8472279  32.3898632  92.5147845  54.5345516
  32.4164773  94.0269761  54.6012247  37.8970117  91.4444105  59.9639325
  37.2393791  92.1343367  60.0519454  38.7010516  91.8340537  60.3073311
  27.6495998  83.9114751  57.2078890  28.2239750  83.6889933  56.4752083
  28.2366981  83.9803446  57.9607492  36.7075575  89.7988478  58.0143267
  37.2207457  90.4318470  58.5164976  37.3576799  89.1989674  57.6486627
  27.9765585  85.9419212  51.2274775  27.1402898  86.2793899  51.5484050
  27.8370355  85.8068192  50.2901912  29.9518666  80.7856000  55.9353960
  29.2983078  80.4705017  55.3110574  29.9099140  80.1631741  56.6613783
  31.0629871  91.0675295  47.8507252  30.1556933  90.8364549  48.0498401
  31.5600903  90.2712914  48.0381233  33.9697950  99.7772802  50.7703938
  33.2959648 100.0804499  51.3788896  34.3563772 100.5801883  50.4209395
  33.1856406  87.2737934  60.2601607  32.2678968  87.4952881  60.1023295
  33.6016550  87.3484244  59.4013315  33.9691454  88.6729349  55.3904288
  34.7163273  89.1850747  55.0811410  34.2383044  88.3513402  56.2508681
  32.2418104  91.1687890  52.3731242  31.3329323  90.8846923  52.4703712
  32.2713188  91.5886969  51.5134549  37.4737372  94.7794480  56.1422409
  37.0199699  93.9385389  56.1987600  36.8431338  95.4155878  56.4797190
  36.4170291  85.7086466  57.3723077  35.6793048  85.1963852  57.7033319
  36.6697065  85.2686847  56.5606354  35.9170311  96.6170976  57.0772228
  36.2093285  97.1776033  56.3584593  36.4268931  96.9099537  57.8325387
  36.5181919  78.4862718  57.9664846  36.8240795  77.6260081  57.6790761
  37.2434523  79.0780338  57.7663840  22.8106275  88.8893404  56.3546444
  22.6130674  88.2962765  55.6297511  22.2552939  88.5845614  57.0722383
  30.7902998  88.7816511  58.4741037  30.8451608  87.8290347  58.3983514
  29.9794200  88.9375950  58.9582336  31.9394192  92.7096634  49.7119320
  31.5013622  91.9932493  49.2524958  32.6804633  92.9372749  49.1504412
  28.7295358  87.3993570  56.2331416  27.9163224  87.6987741  56.6396608
  29.2254352  87.0049259  56.9505898  30.8803936  97.3951327  58.1665681
  30.8380115  97.6212174  57.2374213  31.7966635  97.1614702  58.3151482
  34.3269570  87.8635395  65.0646310  34.6818958  88.0906868  65.9240776
  34.9741701  88.1953772  64.4423565  40.0567307  90.9853831  55.7695639
  39.9185205  91.1755427  54.8416828  39.7003526  91.7473214  56.2263690
  28.2209433  84.9711926  61.8492651  28.8608812  84.8300685  61.1515614
  27.3886964  84.6846439  61.4731253  40.0836686  93.0530358  60.7806910
  40.5173193  92.9605647  61.6289965  40.7968267  93.0287858  60.1426926
  28.9969737  94.2714356  57.9627643  29.7910335  93.7764676  57.7610218
  28.2861429  93.7432219  57.5995349  33.8164581  96.6532452  62.3140011
  33.8701604  97.2223388  63.0817727  32.9479363  96.8234337  61.9494048
  25.3052500  88.4157438  54.0387396  24.3750088  88.3541894  54.2557358
  25.4009972  87.8933391  53.2424037  25.2238049  84.9412251  56.6265638
  25.4844867  85.8557584  56.5174798  26.0455222  84.4736693  56.7762251
  26.6962975  86.3550008  63.7964462  27.3686028  86.1467370  63.1477111
  25.8692761  86.1572094  63.3569695  40.9452236  93.0954058  63.3139796
  41.1388126  93.9999869  63.5599071  40.8452854  92.6361478  64.1478381
  32.5988547  82.9811949  65.8130123  31.9516462  83.6801899  65.7194600
  33.3689562  83.4148093  66.1806371  36.0067345  93.2460801  68.8880676
  35.8552851  93.0171353  67.9710760  35.9972024  94.2031403  68.9012021
  32.7752681  90.8192714  63.8726943  33.7044741  90.9703874  63.6995910
  32.3543711  90.9076735  63.0175589  31.5741013  94.8443378  61.6425481
  31.4352099  94.4762163  62.5151419  30.7855609  95.3591018  61.4709438
  32.1689165  99.9452475  52.9851017  32.3440921  99.4740518  53.7996640
  31.4821953 100.5718241  53.2132278  33.1246228  94.2224981  59.0314318
  32.7896061  94.1825751  59.9271968  32.6250174  93.5569697  58.5584729
  27.0990472  89.6292611  64.5566899  26.9610270  88.8972850  65.1578439
  28.0095395  89.5401511  64.2751087  36.0605420  91.5681015  49.3051378
  35.4434590  90.8427844  49.2084431  35.5921908  92.3290376  48.9618452
  29.7272773  89.3412570  64.0450579  30.4372391  88.7005763  64.0037198
  29.6842081  89.5925465  64.9676760  37.7159551  96.2779924  66.9657158
  37.6572097  95.5939144  66.2987741  38.1179070  97.0198914  66.5137784
  28.4401707  86.3277788  65.8646219  27.9039064  85.8768527  66.5167815
  27.8518415  86.4623697  65.1216683  26.7350250 103.0941838  59.7590877
  26.9746848 103.7260362  60.4369896  25.8919447 102.7429878  60.0456236
  27.8503966  85.7866440  48.4272682  26.9733432  85.6655240  48.0634929
  28.3261719  84.9952518  48.1751571  37.7176959  94.2419508  65.1971138
  36.8303737  93.9045429  65.3197537  38.2875510  93.5102539  65.4339903
  19.3706106  90.5743599  58.5214189  20.0577146  90.2605329  57.9335205
  19.2154234  91.4784964  58.2481441  24.1740828  85.4633796  62.9499213
  24.0899017  84.8559466  62.2149623  23.3523534  85.9542814  62.9508709
  31.2478112  98.9020960  62.1632381  31.1748283  99.7075932  62.6751686
  30.8055505  99.1012926  61.3380403  31.0367892  98.1392730  55.6735203
  30.2535413  98.6814410  55.7673427  31.7360637  98.6566710  56.0729444
  34.3464542  83.9487360  58.3169408  34.8433241  83.1957322  57.9970478
  33.5751523  83.9851676  57.7512617  42.1994299  89.6527725  59.9587700
  42.1884175  90.5352440  59.5881633  41.3311679  89.2999276  59.7642237
  33.7076795  98.8007794  64.3190540  34.4204768  99.4355259  64.2466441
  33.2166824  98.8971660  63.5030542  35.4294322  92.7059047  55.8907832
  34.4950601  92.8260509  55.7212536  35.6070991  91.8031513  55.6267841
  30.9299510  86.0904742  58.0441093  30.5597298  85.5375783  58.7321998
  31.4258603  85.4862876  57.4916093  38.8166874  88.5476366  56.4257866
  39.2827326  89.3804358  56.3518168  39.2674374  88.0821348  57.1303124
  28.7588709  96.5502238  65.1396111  29.4598169  97.1838720  65.2925505
  28.2883824  96.8916969  64.3791750  36.8843105  94.8920187  53.4244018
  37.1602949  94.7776782  54.3337892  36.0147604  94.4937672  53.3856191
  36.5589995  89.1046845  62.9648661  35.9061445  89.3522752  62.3101114
  36.9370375  88.2910983  62.6311138  33.5197169  99.1406538  57.0676831
  33.7019563  98.3228194  57.5304584  34.3430155  99.3574230  56.6301721
  33.8539334  98.0674723  54.3291880  34.3827101  97.5567178  53.7162042
  34.1167554  97.7517253  55.1937413  32.6077568  89.8466656  69.4514698
  31.9318205  89.7460785  70.1217073  33.4305202  89.6905870  69.9150695
  24.3556427  96.0838593  62.0727213  24.9409864  95.3382280  62.2055118
  24.1581266  96.3942549  62.9563877  27.2095082  99.1189840  57.0889656
  26.5405458  99.6035968  56.6053696  27.0707952  99.3659060  58.0033034
  18.9474082  88.6544193  60.7931657  18.9858181  88.1207783  61.5868775
  18.4414375  88.1279398  60.1742634  31.3500351 101.1533583  63.6872314
  31.9018659 101.3165205  64.4521399  31.6906544 101.7438021  63.0152339
  26.3264844  83.5008733  64.2894199  26.3906171  84.3623564  63.8771597
  26.2631964  82.8882735  63.5566557  25.8017117  85.5731866  67.9367233
  26.4289155  85.1908943  68.5504757  24.9445036  85.3546068  68.3022926
  36.2011225  95.9794841  69.5420969  36.7451129  96.5924799  69.0475923
  35.6198070  96.5374419  70.0587982  22.5782659  87.3808295  53.8685588
  22.8736100  86.4718973  53.8152642  21.6770695  87.3596034  53.5466590
  34.4868738  99.1015559  60.6735996  34.3619878  98.3005299  60.1646942
  35.1447829  99.5961752  60.1849966  26.1076906  85.4564291  59.8513137
  25.3863492  86.0700259  59.7120610  26.8970162  85.9922056  59.7729782
  36.5503647  96.9024579  62.3015546  35.6033982  96.7829930  62.2293873
  36.8986420  96.0147077  62.3841808  28.9103220  82.7918718  66.1253788
  29.4337622  83.0381015  66.8880098  28.6915553  83.6238753  65.7056926
  24.3070501  85.0622393  53.9924913  23.9783207  84.1819771  53.8100019
  24.6609872  85.0070061  54.8801302  33.5550080  96.6977295  58.5019899
  33.4075042  95.7694003  58.6827469  34.3803573  96.7197386  58.0176974
  27.4212324  85.3495362  54.3600391  27.7608397  85.8781284  53.6378999
  27.8684445  85.6875768  55.1358957  37.1584202  97.5205854  59.5884771
  38.0830749  97.3148715  59.4509223  36.9899505  97.2722255  60.4974113
  30.1155765  83.7332413  63.8103459  29.7752585  82.9340226  64.2124139
  29.4094771  84.0334124  63.2380292  30.7672237  80.8181726  62.2630782
  31.5898306  80.3442204  62.1409672  31.0110300  81.5972209  62.7629468
  29.4080471  83.8469984  52.5593684  30.1288834  84.2251237  52.0557400
  28.7845775  84.5658861  52.6628661  33.5511594  84.5515133  53.4952016
  33.7675209  85.4339771  53.1940844  33.0705661  84.1601346  52.7657658
  28.2910816  87.5100846  60.0722760  28.1455396  87.8241149  60.9647042
  27.8136019  88.1285746  59.5193659  30.1507198  84.5003394  60.1203650
  30.1368767  83.6044487  59.7835948  30.8679627  84.5074058  60.7541936
  32.0033329  84.9340734  62.1656777  31.7451107  85.8557805  62.1641108
  31.4718370  84.5371169  62.8557242  36.9479518  98.0391521  54.9446863
  37.1216395  97.4737944  54.1920715  37.4408409  98.8392416  54.7626353
  22.7656478  90.0506191  63.0110422  22.2209946  90.8265999  63.1430696
  23.6435828  90.3976995  62.8529543  29.5544094  83.3817774  55.3891220
  29.6760006  82.4534421  55.5882108  29.2646137  83.3956460  54.4769536
  32.4235285  81.0672685  58.5257940  32.4456982  81.1312018  57.5709920
  32.8403344  80.2277194  58.7198446  42.8018909  90.8027944  56.5637163
  43.2450055  90.0535270  56.1656286  41.9245419  90.7938081  56.1810895
  37.9354690  97.3558286  52.0443761  38.6305595  97.9764979  52.2631076
  38.2777841  96.5053637  52.3196139  23.5522500  89.1776087  65.9040578
  22.8104236  89.3258722  66.4905209  23.2315244  89.4384352  65.0407328
  39.8346114  94.8057991  53.5731092  40.3597438  95.1445264  52.8480412
  39.7468466  93.8705007  53.3894226  31.4966162  98.7192065  65.7020968
  31.8053289  98.4741212  66.5743668  32.2941644  98.9238704  65.2139839
  31.5186774 100.8729975  57.9326345  31.0791765 100.3806353  58.6259202
  32.2694891 100.3302942  57.6918420  23.9979113  97.0641516  57.9350973
  24.8237133  96.7645287  57.5549617  23.6473165  96.2949138  58.3840762
  28.9660646  96.4167984  60.0048647  28.3440656  95.7538689  59.7050875
  29.6365513  96.4429116  59.3222294  22.1987718  94.9827842  58.8939907
  21.3619627  94.5550016  58.7123908  22.1711364  95.1760285  59.8310698
  29.0385174  84.8949772  69.5981153  29.0873329  85.7711895  69.2158922
  29.5807688  84.3527165  69.0252796  39.5240020  95.4390895  68.8782290
  38.7335563  95.4215034  68.3386789  39.2873374  95.9779189  69.6331326
  39.6437895  92.2883361  66.1915018  39.6935900  92.1233369  67.1330541
  39.5351818  91.4210620  65.8012899  28.5274153  94.9671907  53.4807107
  28.6762274  95.6507372  52.8273780  29.3340597  94.9476997  53.9956563
  36.9341657  88.2714289  67.5074325  37.8351520  88.1320754  67.2158323
  37.0089632  88.4368744  68.4472503  31.2684462  85.6481144  66.3527511
  30.3987772  85.9414710  66.0810100  31.5043943  86.2321589  67.0734775
  41.1456091  94.7080303  66.4357040  40.8540900  95.0710283  67.2720501
  40.5328223  93.9947311  66.2570372  42.3451774  92.2733183  58.9559610
  43.1798665  92.7122987  59.1197170  42.4810903  91.7971836  58.1367856
  39.3943280  89.8312918  64.9037098  39.8697401  90.0240564  64.0955949
  38.4708845  89.8872103  64.6580482  26.2826786  90.9937085  54.4868176
  26.0372828  90.0899415  54.6848386  26.4522701  90.9954235  53.5447654
  33.9723496  81.8660761  63.8692932  34.4905440  82.6021788  63.5439420
  33.6178629  82.1724754  64.7039691  25.5522434  86.7265442  51.9854338
  24.8591679  86.8009797  51.3294374  25.3074186  85.9625786  52.5075855
  32.0269559  97.4620038  50.9518855  31.4543526  98.0810225  50.4989327
  32.6002353  98.0119399  51.4858777  38.0944949  86.7078678  63.1365403
  39.0462372  86.8076775  63.1577628  37.9248399  85.9156946  63.6463488
  35.2466819  97.7457188  52.0827437  36.1797492  97.6802749  52.2860312
  35.1590031  98.5813455  51.6241970  37.8754835  97.0623058  49.0431385
  37.7968467  96.7282922  49.9367142  38.6964502  97.5544826  49.0422857
  40.5733026  89.9284797  62.2507703  40.5409347  88.9900798  62.4367387
  41.1833650  90.0068834  61.5173528  32.4116357  88.7980850  48.2934907
  33.3575462  88.6687058  48.3623325  32.0330602  88.0595512  48.7704335
  40.7227515  86.7195841  62.2965986  40.2066564  85.9354297  62.1095915
  41.6067463  86.3914557  62.4612506  38.3838242  80.4636856  58.2561799
  38.1863063  80.1551945  59.1405131  38.9937947  81.1898495  58.3859729
  46.3909576  90.9900804  61.3913740  47.1212965  90.7286092  61.9521443
  45.7816522  90.2529526  61.4315808  44.4724873  89.1308667  61.9888191
  43.7458037  88.9964632  61.3804683  44.0572160  89.4385495  62.7944909
  32.2955050  92.8498596  69.7535564  33.2158059  93.0277195  69.9475611
  32.2604633  91.9054642  69.6015263  30.5959275  86.7230827  48.2289792
  29.6890730  86.4263939  48.3052506  30.8735256  86.4260645  47.3624079
  21.5137215  88.0437190  58.6788839  21.1939999  87.1902498  58.3863213
  20.9670643  88.2585768  59.4346806  25.2917122  90.7599631  62.3958345
  25.5103132  91.6916739  62.4146379  25.7042896  90.4007606  63.1813149
  32.2121340  81.2667716  54.3834034  31.4022069  80.9214801  54.7589280
  32.9005757  80.9575260  54.9721645  34.1411889  80.3445763  56.0058330
  34.6942927  80.7641217  56.6648353  34.3781975  79.4181511  56.0481286
  30.1644988  86.3332837  71.7861094  30.0641715  87.2827194  71.7173185
  29.9466530  86.0051076  70.9137164  29.3658059  83.5817762  48.3701772
  30.2277223  83.9072660  48.6297589  29.5508403  82.7949258  47.8574837
  21.3825475  91.6640102  60.6481960  20.6888946  91.2494054  60.1351915
  22.1298466  91.7060638  60.0515379  37.5190696  82.4546288  55.5136995
  36.9389365  83.1131092  55.1315047  37.2526628  81.6323633  55.1024412
  35.9694262  81.8551346  57.7158315  36.4694040  81.9667881  56.9072634
  36.6129870  81.5512399  58.3559123  30.0276258  89.7629976  70.6026156
  29.5443340  90.5630336  70.8090045  30.1137197  89.7737921  69.6493600
  23.2962217  91.5958355  58.5247975  23.2732906  91.6946043  57.5729858
  23.6062854  92.4423506  58.8465141  25.9549595  93.6534510  62.6394590
  26.9092849  93.6218453  62.5724521  25.7562119  93.1925134  63.4544816
  26.5448977  92.2235626  65.2065387  27.3641866  92.7179705  65.2300225
  26.8185785  91.3067595  65.1782955  36.3015574  84.6146379  54.5693343
  35.4141429  84.8996029  54.3513538  36.7169563  84.4540142  53.7220620
  24.3099824  99.1954130  59.6564788  24.1754292  98.4354531  59.0902786
  23.8931886  99.9195030  59.1893576  35.4458787  94.3791053  48.6641363
  36.1494637  94.5841056  49.2799018  34.7221436  94.9467815  48.9290446
  36.2756597  90.1300915  54.7843633  36.2191799  90.5869466  53.9451265
  36.8284940  89.3691599  54.6066476  44.3973741  88.6586720  58.1165044
  43.8373299  88.7279909  58.8896606  43.7917245  88.4827704  57.3964540
  27.4668950 100.0923447  59.8683230  27.3501334 101.0368879  59.7661920
  26.6461396  99.7897008  60.2569029  37.3545484  94.8173583  50.7139823
  38.1891088  94.3854781  50.5317298  37.1929827  94.6455596  51.6416717
  37.0091377  91.3205696  52.0796162  36.9540180  91.1549967  51.1384606
  36.3837432  92.0281729  52.2358352  21.7983892  86.5573760  65.9057584
  22.4442755  86.0472714  66.3944810  21.5901043  87.2942442  66.4801010
  34.3237284  93.6254608  71.4049725  35.1928443  93.7995260  71.0436360
  33.8444035  94.4449025  71.2825454  30.3187502  80.8213805  51.6581481
  30.3066172  81.7655645  51.8149751  31.2110924  80.6383950  51.3640942
  28.4923464 100.7451709  63.0839159  29.3950711 100.7775319  63.4005654
  28.2660834  99.8152160  63.0985494  30.2477066  99.4982695  59.7449237
  29.2972697  99.4984557  59.6313610  30.5509552  98.7515430  59.2285272
  26.1381383  83.7041377  70.0032599  27.0012844  83.3478182  70.2135923
  25.5646793  83.3655272  70.6908003  45.9829760 105.3343234  60.8095000
  46.6208170 105.2149981  60.1058340  45.8650602 106.2824078  60.8682952
  42.7919466 105.2870662  60.7456524  42.4537977 105.1711727  59.8577059
  43.6609234 104.8861827  60.7257530  38.6506282 107.1406138  56.7353415
  38.0871147 107.0496075  55.9669703  38.5358677 106.3206043  57.2155908
  43.2739249 106.4405514  66.7042730  43.2627890 106.0458312  65.8323234
  43.4359888 105.7071586  67.2976501  36.1970713 108.6357330  59.5737636
  36.9892005 108.2948155  59.1583935  36.4367364 108.7452305  60.4939789
  44.2305840 110.8077106  52.0467880  43.5793820 111.3931186  51.6601894
  45.0250203 111.3383301  52.1062918  38.1561467 107.8966243  52.4455015
  38.9292343 107.3495230  52.3067890  38.5086866 108.7610492  52.6569476
  39.9946510 109.2242625  65.6521914  39.7036376 110.1288256  65.5368580
  40.6303494 109.2659153  66.3665983  40.9202717 106.6019474  62.2423273
  41.5166289 106.3775496  61.5280236  40.9777688 105.8604219  62.8448721
  40.4927745 104.0558909  50.0773464  40.7453266 103.5340431  49.3156927
  39.5552304 103.8925055  50.1800148  45.5371028 103.0594688  57.8848208
  46.3234117 102.6414111  57.5338625  45.8009732 103.9640780  58.0529856
  45.7081105 108.4967538  52.5836865  45.0726938 108.5702164  53.2957769
  45.3778512 109.0861137  51.9055944  50.9379455 102.9969921  58.7881186
  51.6704627 102.4269138  59.0219016  50.1818811 102.6091521  59.2287692
  40.2124034 105.9587015  52.2797839  40.0960292 105.2831919  52.9478924
  40.3226294 105.4719389  51.4629992  42.5555575 105.4197162  55.9844529
  42.1913782 104.8927783  56.6957450  43.4122691 105.0295631  55.8111014
  48.4604876  96.7091495  63.2475795  48.1288200  97.5786906  63.0237010
  47.8650489  96.3927779  63.9269825  42.1961062 100.4487062  50.9805877
  42.3635464 101.3167298  51.3476348  42.0058231 100.6114344  50.0567166
  44.9536395 108.9104041  62.6471708  44.6537118 109.8129080  62.5387515
  44.6087455 108.6436224  63.4992860  38.4048877 105.3617838  58.6808412
  37.4799373 105.2294052  58.8886104  38.6533290 106.1412057  59.1778354
  48.3533539 101.4286581  60.3269145  47.4450416 101.3601990  60.0327906
  48.3021135 101.9058526  61.1550970  42.1750283 102.9044719  51.9652544
  42.0549908 103.3501770  52.8038024  41.4802871 103.2530037  51.4066082
  35.7657688 105.0051111  59.5152201  35.8950069 105.2585590  60.4291613
  35.0855139 105.5978819  59.1956856  42.4274405 102.8476227  68.2704042
  41.6507739 103.4070147  68.2606907  43.0664968 103.3333010  68.7918912
  50.2195185  99.6303019  62.1047019  49.5769566  99.9235553  61.4586813
  49.7150114  99.5155940  62.9100215  47.8735349 103.3766193  52.7932878
  48.7853205 103.6093579  52.6180576  47.3644996 103.9603237  52.2307957
  40.6820777 105.6561680  67.8322009  41.4235461 106.1946724  67.5556833
  39.9757762 106.2827969  67.9893561  46.1576117 107.7990820  66.4294171
  46.5659473 107.3573231  65.6848803  45.4353378 107.2243448  66.6828364
  42.5107187 102.7363427  63.8027728  43.3568382 103.1602841  63.9462377
  42.4505824 102.0797052  64.4966291  46.4804931 108.3592011  60.1846460
  45.8513794 108.5237725  59.4822527  46.0930593 108.7733621  60.9557424
  50.3594163 109.2946449  57.5390823  49.6745201 109.6745350  56.9887857
  50.4438012 109.9041776  58.2722771  45.6606632 100.3967796  65.4608901
  45.4167564 101.1509856  64.9243177  45.9366562 100.7753143  66.2956148
  47.6145095 106.9406408  64.1386167  47.8261990 107.5838168  63.4620548
  47.5674843 106.1068725  63.6708097  45.2171324  99.5524229  61.0422739
  44.3555803  99.8505482  61.3339477  45.2433758  99.7694628  60.1103772
  42.0332893 108.0966419  57.4496545  42.4971239 108.3754122  56.6601167
  41.7689691 107.1949864  57.2669635  38.9256974 107.6437901  60.3876308
  39.4958331 108.0725169  59.7493792  39.5165086 107.3620485  61.0860494
  40.9701779 104.2189572  54.2586110  41.6725823 104.6710615  54.7260036
  40.6382408 103.5773390  54.8866003  39.4182141 102.8101328  68.6337319
  38.7880801 103.4917609  68.8672716  39.3118229 102.6984410  67.6890457
  34.7127113 102.4773124  59.5603243  33.9226167 102.7330653  59.0843354
  35.2038361 103.2921462  59.6655284  48.7290923 109.8178363  62.3108524
  49.5508366 109.4158551  62.0291206  48.7253326 109.7146598  63.2624640
  36.6641859 102.8417703  56.5186720  35.8673022 102.9536398  57.0370216
  36.4367451 103.1804356  55.6527611  42.4947526 109.3662407  64.4669235
  42.5591959 109.8282814  65.3027406  41.7858450 108.7359772  64.5951544
  32.9964816 102.7303615  61.9918234  33.2472855 103.6150625  62.2575810
  33.5324365 102.5508216  61.2193326  56.8196916 106.1617112  58.6593496
  56.0660624 105.5924510  58.5037500  56.9544457 106.1279776  59.6064130
  42.2095544 111.0330514  54.3348215  42.0741219 111.8782050  54.7633063
  42.7505356 111.2349792  53.5714149  38.6962883  97.1122094  70.9962570
  38.3029829  96.5588293  71.6710214  39.5129024  97.4232673  71.3869088
  35.6624941 108.5505952  54.9076140  36.1749462 109.3449202  55.0581705
  36.3147654 107.8532243  54.8409742  37.4719826 111.6671709  56.9898893
  37.6486454 112.5889673  56.8019877  38.2676659 111.3530128  57.4193273
  41.6130844  98.5279973  68.5882827  42.3540558  99.1287126  68.5087289
  41.8448767  97.7857611  68.0300869  36.7572182 103.7136340  66.8661056
  36.6425698 102.8121598  67.1668155  35.9016700 103.9600037  66.5145873
  43.8364020 111.6554081  68.4648557  43.3927874 110.8690459  68.1469462
  44.4981234 111.8433231  67.7992448  38.5951141 113.1849882  62.9909236
  39.1458566 113.0566946  62.2186229  37.7562617 113.4844771  62.6404128
  45.9345258 111.9356881  66.4929958  45.9163734 112.7565762  66.0010227
  46.8565178 111.8110956  66.7180099  42.3918312 109.4501010  67.3353467
  42.9246649 108.6889298  67.1052775  41.8632393 109.1574662  68.0777621
  45.5588007  94.5561076  62.8647108  45.2152277  95.4462718  62.7886219
  45.9266970  94.3662734  62.0016693  33.6273858 106.8794607  55.6835711
  34.4649080 107.2891615  55.4669418  33.8052126 105.9394049  55.6535904
  45.5238290 104.5469687  51.3719544  45.0084914 105.3174292  51.6107931
  45.2515599 103.8734823  51.9952605  43.1085401  99.3919388  56.4304782
  42.2526997  99.0026238  56.2510421  43.5212353  99.4711349  55.5704567
  44.6384548  96.9265731  60.8296342  44.1349343  96.8895866  60.0164147
  44.9315155  97.8358474  60.8892998  40.8827434  97.0104461  59.8362523
  41.7480430  96.8147270  59.4768413  40.9504943  96.7814813  60.7631880
  50.4972564 107.3002042  53.3072717  49.7202007 106.9613201  52.8627879
  51.1764045 107.3054665  52.6327682  45.3124593 102.4196779  53.1979325
  45.0074729 102.7342928  54.0489468  46.2655035 102.4978199  53.2406658
  43.7571025 108.5787003  54.8472279  43.2292387 107.8439762  54.5345516
  43.2558528 109.3561679  54.6012247  48.7363871 106.7736023  59.9639325
  48.0787546 107.4635284  60.0519454  49.5404270 107.1632455  60.3073311
  38.4889753  99.2406669  57.2078890  39.0633505  99.0181850  56.4752083
  39.0760735  99.3095363  57.9607492  47.5469330 105.1280396  58.0143267
  48.0601212 105.7610388  58.5164976  48.1970554 104.5281591  57.6486627
  38.8159340 101.2711130  51.2274775  37.9796652 101.6085816  51.5484050
  38.6764109 101.1360110  50.2901912  40.7912420  96.1147918  55.9353960
  40.1376833  95.7996935  55.3110574  40.7492895  95.4923658  56.6613783
  41.9023625 106.3967213  47.8507252  40.9950687 106.1656466  48.0498401
  42.3994657 105.6004832  48.0381233  44.8091704 115.1064720  50.7703938
  44.1353403 115.4096417  51.3788896  45.1957526 115.9093800  50.4209395
  44.0250161 102.6029851  60.2601607  43.1072722 102.8244798  60.1023295
  44.4410304 102.6776162  59.4013315  44.8085209 104.0021267  55.3904288
  45.5557027 104.5142664  55.0811410  45.0776798 103.6805320  56.2508681
  43.0811859 106.4979808  52.3731242  42.1723078 106.2138841  52.4703712
  43.1106943 106.9178886  51.5134549  48.3131126 110.1086397  56.1422409
  47.8593453 109.2677307  56.1987600  47.6825093 110.7447796  56.4797190
  47.2564046 101.0378383  57.3723077  46.5186802 100.5255769  57.7033319
  47.5090819 100.5978765  56.5606354  46.7564065 111.9462894  57.0772228
  47.0487040 112.5067951  56.3584593  47.2662686 112.2391455  57.8325387
  47.3575673  93.8154635  57.9664846  47.6634550  92.9551999  57.6790761
  48.0828278  94.4072255  57.7663840  33.6500029 104.2185322  56.3546444
  33.4524429 103.6254683  55.6297511  33.0946693 103.9137532  57.0722383
  41.6296753 104.1108428  58.4741037  41.6845363 103.1582265  58.3983514
  40.8187955 104.2667867  58.9582336  42.7787947 108.0388551  49.7119320
  42.3407376 107.3224410  49.2524958  43.5198387 108.2664666  49.1504412
  39.5689113 102.7285488  56.2331416  38.7556978 103.0279659  56.6396608
  40.0648107 102.3341177  56.9505898  41.7197691 112.7243245  58.1665681
  41.6773869 112.9504091  57.2374213  42.6360389 112.4906620  58.3151482
  45.1663324 103.1927313  65.0646310  45.5212712 103.4198786  65.9240776
  45.8135456 103.5245689  64.4423565  50.8961061 106.3145748  55.7695639
  50.7578960 106.5047344  54.8416828  50.5397280 107.0765131  56.2263690
  39.0603187 100.3003844  61.8492651  39.7002567 100.1592603  61.1515614
  38.2280718 100.0138357  61.4731253  50.9230441 108.3822275  60.7806910
  51.3566948 108.2897565  61.6289965  51.6362022 108.3579776  60.1426926
  39.8363491 109.6006274  57.9627643  40.6304090 109.1056594  57.7610218
  39.1255184 109.0724137  57.5995349  44.6558336 111.9824370  62.3140011
  44.7095358 112.5515306  63.0817727  43.7873117 112.1526255  61.9494048
  36.1446255 103.7449356  54.0387396  35.2143843 103.6833811  54.2557358
  36.2403727 103.2225309  53.2424037  36.0631804 100.2704169  56.6265638
  36.3238621 101.1849502  56.5174798  36.8848976  99.8028611  56.7762251
  37.5356729 101.6841926  63.7964462  38.2079783 101.4759288  63.1477111
  36.7086516 101.4864012  63.3569695  51.7845990 108.4245976  63.3139796
  51.9781881 109.3291787  63.5599071  51.6846609 107.9653395  64.1478381
  43.4382301  98.3103867  65.8130123  42.7910216  99.0093816  65.7194600
  44.2083317  98.7440011  66.1806371  46.8461099 108.5752719  68.8880676
  46.6946606 108.3463271  67.9710760  46.8365779 109.5323320  68.9012021
  43.6146436 106.1484632  63.8726943  44.5438496 106.2995791  63.6995910
  43.1937466 106.2368652  63.0175589  42.4134767 110.1735296  61.6425481
  42.2745853 109.8054080  62.5151419  41.6249364 110.6882935  61.4709438
  43.0082919 115.2744392  52.9851017  43.1834675 114.8032436  53.7996640
  42.3215707 115.9010159  53.2132278  43.9639982 109.5516899  59.0314318
  43.6289815 109.5117669  59.9271968  43.4643928 108.8861615  58.5584729
  37.9384226 104.9584529  64.5566899  37.8004024 104.2264768  65.1578439
  38.8489150 104.8693429  64.2751087  46.8999174 106.8972933  49.3051378
  46.2828345 106.1719761  49.2084431  46.4315663 107.6582293  48.9618452
  40.5666527 104.6704488  64.0450579  41.2766146 104.0297680  64.0037198
  40.5235835 104.9217383  64.9676760  48.5553306 111.6071841  66.9657158
  48.4965852 110.9231062  66.2987741  48.9572824 112.3490831  66.5137784
  39.2795461 101.6569706  65.8646219  38.7432818 101.2060444  66.5167815
  38.6912170 101.7915615  65.1216683  38.6897720 101.1158357  48.4272682
  37.8127186 100.9947158  48.0634929  39.1655473 100.3244436  48.1751571
  48.5570713 109.5711425  65.1971138  47.6697492 109.2337347  65.3197537
  49.1269264 108.8394457  65.4339903  30.2099860 105.9035517  58.5214189
  30.8970900 105.5897247  57.9335205  30.0547989 106.8076882  58.2481441
  35.0134582 100.7925714  62.9499213  34.9292771 100.1851383  62.2149623
  34.1917289 101.2834732  62.9508709  42.0871866 114.2312878  62.1632381
  42.0142038 115.0367849  62.6751686  41.6449260 114.4304844  61.3380403
  41.8761646 113.4684648  55.6735203  41.0929168 114.0106328  55.7673427
  42.5754391 113.9858627  56.0729444  45.1858296  99.2779277  58.3169408
  45.6826996  98.5249240  57.9970478  44.4145278  99.3143594  57.7512617
  53.0388054 104.9819643  59.9587700  53.0277930 105.8644358  59.5881633
  52.1705433 104.6291194  59.7642237  44.5470550 114.1299712  64.3190540
  45.2598522 114.7647177  64.2466441  44.0560579 114.2263578  63.5030542
  46.2688077 108.0350964  55.8907832  45.3344356 108.1552427  55.7212536
  46.4464745 107.1323431  55.6267841  41.7693265 101.4196660  58.0441093
  41.3991052 100.8667701  58.7321998  42.2652357 100.8154794  57.4916093
  49.6560628 103.8768284  56.4257866  50.1221080 104.7096275  56.3518168
  50.1068129 103.4113265  57.1303124  39.5982464 111.8794155  65.1396111
  40.2991923 112.5130638  65.2925505  39.1277579 112.2208887  64.3791750
  47.7236859 110.2212105  53.4244018  47.9996703 110.1068700  54.3337892
  46.8541358 109.8229590  53.3856191  47.6277291  96.2448871  60.4648767
  46.7140371  96.4753098  60.6330974  48.0570392  96.3287315  61.3162799
  47.3983749 104.4338763  62.9648661  46.7455200 104.6814670  62.3101114
  47.7764129 103.6202901  62.6311138  44.3590923 114.4698456  57.0676831
  44.5413318 113.6520112  57.5304584  45.1823909 114.6866148  56.6301721
  44.6933089 113.3966641  54.3291880  45.2220855 112.8859096  53.7162042
  44.9561308 113.0809171  55.1937413  43.4471323 105.1758574  69.4514698
  42.7711960 105.0752703  70.1217073  44.2698956 105.0197787  69.9150695
  35.1950182 111.4130510  62.0727213  35.7803618 110.6674198  62.2055118
  34.9975020 111.7234467  62.9563877  29.7867836 103.9836110  60.7931657
  29.8251936 103.4499701  61.5868775  29.2808129 103.4571316  60.1742634
  37.1658599  98.8300651  64.2894199  37.2299925  99.6915482  63.8771597
  37.1025719  98.2174653  63.5566557  36.6410871 100.9023783  67.9367233
  37.2682910 100.5200861  68.5504757  35.7838790 100.6837985  68.3022926
  47.0404980 111.3086759  69.5420969  47.5844884 111.9216717  69.0475923
  46.4591825 111.8666337  70.0587982  33.4176414 102.7100213  53.8685588
  33.7129855 101.8010891  53.8152642  32.5164450 102.6887952  53.5466590
  45.3262493 114.4307477  60.6735996  45.2013632 113.6297217  60.1646942
  45.9841584 114.9253670  60.1849966  36.9470661 100.7856209  59.8513137
  36.2257247 101.3992177  59.7120610  37.7363917 101.3213974  59.7729782
  47.3897401 112.2316497  62.3015546  46.4427737 112.1121848  62.2293873
  47.7380174 111.3438995  62.3841808  39.7496974  98.1210636  66.1253788
  40.2731376  98.3672932  66.8880098  39.5309308  98.9530670  65.7056926
  35.1464255 100.3914310  53.9924913  34.8176962  99.5111689  53.8100019
  35.5003626 100.3361979  54.8801302  44.3943834 112.0269213  58.5019899
  44.2468797 111.0985920  58.6827469  45.2197328 112.0489304  58.0176974
  38.2606079 100.6787280  54.3600391  38.6002151 101.2073201  53.6378999
  38.7078199 101.0167686  55.1358957  47.9977956 112.8497772  59.5884771
  48.9224504 112.6440633  59.4509223  47.8293260 112.6014173  60.4974113
  40.9549519  99.0624331  63.8103459  40.6146340  98.2632144  64.2124139
  40.2488526  99.3626042  63.2380292  41.6065991  96.1473643  62.2630782
  42.4292061  95.6734121  62.1409672  41.8504055  96.9264127  62.7629468
  40.2474226  99.1761902  52.5593684  40.9682588  99.5543154  52.0557400
  39.6239530  99.8950778  52.6628661  44.3905349  99.8807051  53.4952016
  44.6068963 100.7631688  53.1940844  43.9099416  99.4893264  52.7657658
  39.1304570 102.8392764  60.0722760  38.9849151 103.1533067  60.9647042
  38.6529774 103.4577664  59.5193659  40.9900953  99.8295312  60.1203650
  40.9762522  98.9336405  59.7835948  41.7073381  99.8365976  60.7541936
  42.8427084 100.2632652  62.1656777  42.5844861 101.1849723  62.1641108
  42.3112124  99.8663087  62.8557242  47.7873272 113.3683439  54.9446863
  47.9610150 112.8029862  54.1920715  48.2802164 114.1684334  54.7626353
  33.6050232 105.3798108  63.0110422  33.0603700 106.1557916  63.1430696
  34.4829582 105.7268913  62.8529543  40.3937849  98.7109692  55.3891220
  40.5153760  97.7826338  55.5882108  40.1039891  98.7248378  54.4769536
  43.2629039  96.3964603  58.5257940  43.2850736  96.4603936  57.5709920
  43.6797098  95.5569111  58.7198446  53.6412664 106.1319862  56.5637163
  54.0843810 105.3827187  56.1656286  52.7639174 106.1229998  56.1810895
  48.7748445 112.6850204  52.0443761  49.4699350 113.3056896  52.2631076
  49.1171595 111.8345555  52.3196139  34.3916254 104.5068005  65.9040578
  33.6497990 104.6550640  66.4905209  34.0708998 104.7676270  65.0407328
  50.6739868 110.1349909  53.5731092  51.1991192 110.4737182  52.8480412
  50.5862221 109.1996924  53.3894226  42.3359917 114.0483983  65.7020968
  42.6447043 113.8033129  66.5743668  43.1335399 114.2530621  65.2139839
  34.8372868 112.3933433  57.9350973  35.6630888 112.0937205  57.5549617
  34.4866920 111.6241056  58.3840762  39.8054401 111.7459901  60.0048647
  39.1834410 111.0830606  59.7050875  40.4759268 111.7721033  59.3222294
  33.0381473 110.3119760  58.8939907  32.2013381 109.8841934  58.7123908
  33.0105118 110.5052203  59.8310698  39.8778928 100.2241689  69.5981153
  39.9267084 101.1003812  69.2158922  40.4201443  99.6819083  69.0252796
  50.3633774 110.7682813  68.8782290  49.5729318 110.7506952  68.3386789
  50.1267129 111.3071106  69.6331326  50.4831649 107.6175279  66.1915018
  50.5329654 107.4525287  67.1330541  50.3745572 106.7502538  65.8012899
  39.3667908 110.2963825  53.4807107  39.5156028 110.9799289  52.8273780
  40.1734351 110.2768915  53.9956563  47.7735412 103.6006207  67.5074325
  48.6745274 103.4612672  67.2158323  47.8483386 103.7660662  68.4472503
  42.1078217 100.9773062  66.3527511  41.2381526 101.2706628  66.0810100
  42.3437697 101.5613507  67.0734775  51.9849846 110.0372221  66.4357040
  51.6934654 110.4002201  67.2720501  51.3721977 109.3239229  66.2570372
  53.1845528 107.6025100  58.9559610  54.0192420 108.0414904  59.1197170
  53.3204657 107.1263754  58.1367856  50.2337034 105.1604835  64.9037098
  50.7091156 105.3532482  64.0955949  49.3102600 105.2164021  64.6580482
  37.1220541 106.3229002  54.4868176  36.8766583 105.4191332  54.6848386
  37.2916455 106.3246153  53.5447654  44.8117251  97.1952679  63.8692932
  45.3299195  97.9313706  63.5439420  44.4572383  97.5016672  64.7039691
  36.3916188 102.0557360  51.9854338  35.6985433 102.1301715  51.3294374
  36.1467940 101.2917704  52.5075855  45.0629845  93.6152961  59.3893828
  45.3431599  92.9476150  60.0154255  45.8480452  93.8082057  58.8768492
  42.8663313 112.7911955  50.9518855  42.2937280 113.4102142  50.4989327
  43.4396107 113.3411317  51.4858777  48.9338703 102.0370595  63.1365403
  49.8856126 102.1368693  63.1577628  48.7642154 101.2448864  63.6463488
  46.9553083  99.1226179  63.3224804  46.3603015  99.4031191  62.6271293
  46.6702779  99.6120079  64.0941546  46.0860573 113.0749105  52.0827437
  47.0191246 113.0094667  52.2860312  45.9983786 113.9105372  51.6241970
  48.7148590 112.3914976  49.0431385  48.6362221 112.0574839  49.9367142
  49.5358257 112.8836744  49.0422857  51.4126781 105.2576715  62.2507703
  51.3803101 104.3192716  62.4367387  52.0227405 105.3360752  61.5173528
  43.2510112 104.1272768  48.2934907  44.1969217 103.9978976  48.3623325
  42.8724357 103.3887430  48.7704335  51.5621269 102.0487758  62.2965986
  51.0460318 101.2646215  62.1095915  52.4461218 101.7206475  62.4612506
  49.2231996  95.7928774  58.2561799  49.0256818  95.4843862  59.1405131
  49.8331702  96.5190413  58.3859729  57.2303331 106.3192722  61.3913740
  57.9606719 106.0578010  61.9521443  56.6210276 105.5821444  61.4315808
  55.3118628 104.4600584  61.9888191  54.5851792 104.3256549  61.3804683
  54.8965915 104.7677413  62.7944909  43.1348804 108.1790514  69.7535564
  44.0551814 108.3569113  69.9475611  43.0998387 107.2346559  69.6015263
  41.4353029 102.0522744  48.2289792  40.5284484 101.7555857  48.3052506
  41.7129010 101.7552562  47.3624079  32.3530969 103.3729108  58.6788839
  32.0333754 102.5194416  58.3863213  31.8064398 103.5877686  59.4346806
  36.1310877 106.0891549  62.3958345  36.3496887 107.0208657  62.4146379
  36.5436651 105.7299523  63.1813149  43.0515095  96.5959634  54.3834034
  42.2415823  96.2506719  54.7589280  43.7399512  96.2867178  54.9721645
  44.9805643  95.6737681  56.0058330  45.5336682  96.0933134  56.6648353
  45.2175729  94.7473429  56.0481286  41.0038742 101.6624755  71.7861094
  40.9035469 102.6119112  71.7173185  40.7860284 101.3342993  70.9137164
  40.2051814  98.9109680  48.3701772  41.0670978  99.2364578  48.6297589
  40.3902158  98.1241175  47.8574837  32.2219229 106.9932019  60.6481960
  31.5282701 106.5785972  60.1351915  32.9692220 107.0352556  60.0515379
  48.3584450  97.7838206  55.5136995  47.7783119  98.4423010  55.1315047
  48.0920383  96.9615551  55.1024412  46.8088016  97.1843264  57.7158315
  47.3087795  97.2959798  56.9072634  47.4523624  96.8804317  58.3559123
  40.8670012 105.0921893  70.6026156  40.3837094 105.8922253  70.8090045
  40.9530951 105.1029838  69.6493600  34.1355972 106.9250273  58.5247975
  34.1126660 107.0237960  57.5729858  34.4456608 107.7715424  58.8465141
  36.7943350 108.9826428  62.6394590  37.7486603 108.9510370  62.5724521
  36.5955873 108.5217052  63.4544816  37.3842732 107.5527544  65.2065387
  38.2035621 108.0471623  65.2300225  37.6579540 106.6359512  65.1782955
  47.1409328  99.9438296  54.5693343  46.2535183 100.2287947  54.3513538
  47.5563317  99.7832060  53.7220620  50.4923864  99.9684817  58.2847682
  51.2684254 100.4581270  58.5572299  49.7671998 100.3942872  58.7419552
  52.9296423 100.6812437  59.3421623  53.5240914 100.4408173  58.6314931
  53.0023007  99.9619567  59.9695159  46.2852542 109.7082971  48.6641363
  46.9888392 109.9132974  49.2799018  45.5615190 110.2759733  48.9290446
  47.1150352 105.4592832  54.7843633  47.0585553 105.9161384  53.9451265
  47.6678694 104.6983517  54.6066476  50.9255158 101.2482564  55.6093753
  50.6692092 100.8479200  56.4401960  50.3008026 101.9626358  55.4843892
  55.2367496 103.9878637  58.1165044  54.6767054 104.0571827  58.8896606
  54.6310999 103.8119622  57.3964540  48.1939239 110.1465500  50.7139823
  49.0284843 109.7146699  50.5317298  48.0323582 109.9747514  51.6416717
  47.8485131 106.6497614  52.0796162  47.7933935 106.4841885  51.1384606
  47.2231186 107.3573647  52.2358352  32.6377646 101.8865678  65.9057584
  33.2836510 101.3764632  66.3944810  32.4294797 102.6234360  66.4801010
  45.1631038 108.9546525  71.4049725  46.0322198 109.1287178  71.0436360
  44.6837790 109.7740942  71.2825454  41.1581257  96.1505723  51.6581481
  41.1459926  97.0947563  51.8149751  42.0504678  95.9675868  51.3640942
  41.0870821 114.8274613  59.7449237  40.1366452 114.8276475  59.6313610
  41.3903307 114.0807348  59.2285272  44.9733376  92.7448499  55.9127417
  44.2065772  92.1906986  56.0584100  45.3844081  92.8170368  56.7741569
  36.9775137  99.0333295  70.0032599  37.8406599  98.6770100  70.2135923
  36.4040548  98.6947190  70.6908003  56.3764783 118.3886605  57.8848208
  57.1627872 117.9706028  57.5338625  56.6403487 119.2932697  58.0529856
  61.7773210 118.3261838  58.7881186  62.5098382 117.7561055  59.0219016
  61.0212565 117.9383439  59.2287692  59.2998630 112.0383413  63.2475795
  58.9681955 112.9078824  63.0237010  58.7044243 111.7219697  63.9269825
  53.0354816 115.7778980  50.9805877  53.2029219 116.6459216  51.3476348
  52.8451985 115.9406261  50.0567166  59.1927293 116.7578499  60.3269145
  58.2844171 116.6893907  60.0327906  59.1414889 117.2350444  61.1550970
  53.0144037 118.2336637  51.9652544  52.8943662 118.6793688  52.8038024
  52.3196626 118.5821955  51.4066082  53.2668159 118.1768144  68.2704042
  52.4901493 118.7362064  68.2606907  53.9058722 118.6624927  68.7918912
  61.0588940 114.9594937  62.1047019  60.4163320 115.2527470  61.4586813
  60.5543868 114.8447857  62.9100215  58.7129103 118.7058110  52.7932878
  59.6246960 118.9385497  52.6180576  58.2038750 119.2895155  52.2307957
  53.3500941 118.0655345  63.8027728  54.1962136 118.4894758  63.9462377
  53.2899579 117.4088969  64.4966291  56.5000386 115.7259713  65.4608901
  56.2561318 116.4801774  64.9243177  56.7760317 116.1045061  66.2956148
  56.0565078 114.8816146  61.0422739  55.1949557 115.1797400  61.3339477
  56.0827513 115.0986545  60.1103772  67.6590670 121.4909030  58.6593496
  66.9054379 120.9216428  58.5037500  67.7938211 121.4571694  59.6064130
  49.5356638 112.4414012  70.9962570  49.1423583 111.8880210  71.6710214
  50.3522778 112.7524590  71.3869088  52.4524599 113.8571891  68.5882827
  53.1934312 114.4579044  68.5087289  52.6842522 113.1149529  68.0300869
  56.3981762 109.8852994  62.8647108  56.0546031 110.7754635  62.7886219
  56.7660724 109.6954651  62.0016693  56.3632045 119.8761605  51.3719544
  55.8478668 120.6466210  51.6107931  56.0909353 119.2026741  51.9952605
  53.9479156 114.7211306  56.4304782  53.0920752 114.3318156  56.2510421
  54.3606107 114.8003266  55.5704567  55.4778302 112.2557649  60.8296342
  54.9743098 112.2187784  60.0164147  55.7708909 113.1650392  60.8892998
  51.7221188 112.3396379  59.8362523  52.5874185 112.1439187  59.4768413
  51.7898697 112.1106730  60.7631880  61.3366319 122.6293960  53.3072717
  60.5595761 122.2905119  52.8627879  62.0157800 122.6346583  52.6327682
  56.1518348 117.7488697  53.1979325  55.8468483 118.0634846  54.0489468
  57.1048790 117.8270117  53.2406658  49.3283507 114.5698587  57.2078890
  49.9027259 114.3473768  56.4752083  49.9154490 114.6387281  57.9607492
  58.3863084 120.4572313  58.0143267  58.8994966 121.0902305  58.5164976
  59.0364308 119.8573509  57.6486627  49.6553094 116.6003048  51.2274775
  48.8190407 116.9377734  51.5484050  49.5157864 116.4652027  50.2901912
  51.6306175 111.4439835  55.9353960  50.9770587 111.1288853  55.3110574
  51.5886649 110.8215576  56.6613783  54.8643915 117.9321769  60.2601607
  53.9466477 118.1536716  60.1023295  55.2804059 118.0068079  59.4013315
  55.6478963 119.3313185  55.3904288  56.3950782 119.8434582  55.0811410
  55.9170553 119.0097237  56.2508681  58.0957800 116.3670301  57.3723077
  57.3580557 115.8547687  57.7033319  58.3484574 115.9270683  56.5606354
  58.1969428 109.1446553  57.9664846  58.5028304 108.2843916  57.6790761
  58.9222032 109.7364173  57.7663840  50.4082867 118.0577406  56.2331416
  49.5950733 118.3571576  56.6396608  50.9041861 117.6633095  56.9505898
  56.0057079 118.5219230  65.0646310  56.3606467 118.7490703  65.9240776
  56.6529210 118.8537607  64.4423565  61.7354816 121.6437666  55.7695639
  61.5972714 121.8339262  54.8416828  61.3791035 122.4057049  56.2263690
  49.8996942 115.6295761  61.8492651  50.5396321 115.4884520  61.1515614
  49.0674472 115.3430275  61.4731253  46.9025558 115.5996086  56.6265638
  47.1632376 116.5141420  56.5174798  47.7242731 115.1320529  56.7762251
  48.3750484 117.0133843  63.7964462  49.0473537 116.8051206  63.1477111
  47.5480270 116.8155929  63.3569695  54.2776056 113.6395784  65.8130123
  53.6303971 114.3385734  65.7194600  55.0477071 114.0731928  66.1806371
  50.1189216 116.9861624  65.8646219  49.5826573 116.5352362  66.5167815
  49.5305924 117.1207532  65.1216683  49.5291475 116.4450275  48.4272682
  48.6520941 116.3239076  48.0634929  50.0049228 115.6536353  48.1751571
  45.8528337 116.1217631  62.9499213  45.7686526 115.5143301  62.2149623
  45.0311043 116.6126650  62.9508709  56.0252051 114.6071195  58.3169408
  56.5220750 113.8541157  57.9970478  55.2539032 114.6435512  57.7512617
  63.8781808 120.3111560  59.9587700  63.8671684 121.1936276  59.5881633
  63.0099188 119.9583111  59.7642237  52.6087019 116.7488578  58.0441093
  52.2384807 116.1959618  58.7321998  53.1046112 116.1446711  57.4916093
  60.4954383 119.2060201  56.4257866  60.9614835 120.0388193  56.3518168
  60.9461883 118.7405183  57.1303124  58.4671045 111.5740788  60.4648767
  57.5534125 111.8045015  60.6330974  58.8964147 111.6579232  61.3162799
  58.2377504 119.7630680  62.9648661  57.5848954 120.0106588  62.3101114
  58.6157884 118.9494818  62.6311138  48.0052353 114.1592569  64.2894199
  48.0693680 115.0207400  63.8771597  47.9419473 113.5466570  63.5566557
  47.4804626 116.2315701  67.9367233  48.1076664 115.8492778  68.5504757
  46.6232544 116.0129903  68.3022926  47.7864415 116.1148127  59.8513137
  47.0651001 116.7284095  59.7120610  48.5757671 116.6505892  59.7729782
  50.5890729 113.4502553  66.1253788  51.1125131 113.6964850  66.8880098
  50.3703062 114.2822588  65.7056926  45.9858010 115.7206228  53.9924913
  45.6570716 114.8403607  53.8100019  46.3397381 115.6653897  54.8801302
  49.0999833 116.0079198  54.3600391  49.4395906 116.5365119  53.6378999
  49.5471954 116.3459604  55.1358957  51.7943274 114.3916248  63.8103459
  51.4540094 113.5924062  64.2124139  51.0882280 114.6917959  63.2380292
  52.4459746 111.4765561  62.2630782  53.2685815 111.0026039  62.1409672
  52.6897809 112.2556045  62.7629468  51.0867980 114.5053819  52.5593684
  51.8076343 114.8835072  52.0557400  50.4633284 115.2242696  52.6628661
  55.2299103 115.2098968  53.4952016  55.4462718 116.0923606  53.1940844
  54.7493170 114.8185182  52.7657658  51.8294707 115.1587230  60.1203650
  51.8156276 114.2628323  59.7835948  52.5467136 115.1657893  60.7541936
  53.6820838 115.5924570  62.1656777  53.4238616 116.5141640  62.1641108
  53.1505879 115.1955004  62.8557242  51.2331603 114.0401610  55.3891220
  51.3547515 113.1118256  55.5882108  50.9433646 114.0540296  54.4769536
  54.1022794 111.7256520  58.5257940  54.1244491 111.7895853  57.5709920
  54.5190853 110.8861029  58.7198446  64.4806418 121.4611780  56.5637163
  64.9237564 120.7119105  56.1656286  63.6032928 121.4521916  56.1810895
  50.7172683 115.5533607  69.5981153  50.7660838 116.4295730  69.2158922
  51.2595197 115.0111000  69.0252796  58.6129166 118.9298125  67.5074325
  59.5139029 118.7904590  67.2158323  58.6877141 119.0952580  68.4472503
  52.9471971 116.3064980  66.3527511  52.0775281 116.5998546  66.0810100
  53.1831452 116.8905425  67.0734775  64.0239283 122.9317018  58.9559610
  64.8586174 123.3706822  59.1197170  64.1598412 122.4555671  58.1367856
  61.0730789 120.4896753  64.9037098  61.5484910 120.6824399  64.0955949
  60.1496354 120.5455939  64.6580482  55.6511005 112.5244596  63.8692932
  56.1692949 113.2605623  63.5439420  55.2966138 112.8308590  64.7039691
  47.2309943 117.3849278  51.9854338  46.5379188 117.4593633  51.3294374
  46.9861695 116.6209621  52.5075855  55.9023599 108.9444879  59.3893828
  56.1825353 108.2768068  60.0154255  56.6874206 109.1373975  58.8768492
  59.7732458 117.3662513  63.1365403  60.7249881 117.4660611  63.1577628
  59.6035908 116.5740782  63.6463488  57.7946837 114.4518096  63.3224804
  57.1996769 114.7323109  62.6271293  57.5096534 114.9411997  64.0941546
  62.2520535 120.5868633  62.2507703  62.2196856 119.6484633  62.4367387
  62.8621159 120.6652669  61.5173528  54.0903866 119.4564686  48.2934907
  55.0362971 119.3270894  48.3623325  53.7118111 118.7179348  48.7704335
  62.4015024 117.3779676  62.2965986  61.8854073 116.5938133  62.1095915
  63.2854972 117.0498393  62.4612506  60.0625751 111.1220692  58.2561799
  59.8650572 110.8135780  59.1405131  60.6725456 111.8482331  58.3859729
  68.0697085 121.6484640  61.3913740  68.8000474 121.3869928  61.9521443
  67.4604031 120.9113361  61.4315808  66.1512382 119.7892502  61.9888191
  65.4245546 119.6548467  61.3804683  65.7359669 120.0969331  62.7944909
  52.2746783 117.3814662  48.2289792  51.3678239 117.0847775  48.3052506
  52.5522764 117.0844480  47.3624079  53.8908849 111.9251552  54.3834034
  53.0809578 111.5798637  54.7589280  54.5793266 111.6159096  54.9721645
  55.8199397 111.0029599  56.0058330  56.3730436 111.4225052  56.6648353
  56.0569484 110.0765347  56.0481286  51.8432497 116.9916672  71.7861094
  51.7429224 117.9411029  71.7173185  51.6254039 116.6634911  70.9137164
  51.0445568 114.2401597  48.3701772  51.9064732 114.5656496  48.6297589
  51.2295912 113.4533093  47.8574837  59.1978205 113.1130124  55.5136995
  58.6176874 113.7714928  55.1315047  58.9314137 112.2907468  55.1024412
  57.6481771 112.5135181  57.7158315  58.1481549 112.6251716  56.9072634
  58.2917379 112.2096234  58.3559123  57.9803083 115.2730214  54.5693343
  57.0928938 115.5579865  54.3513538  58.3957072 115.1123977  53.7220620
  61.3317619 115.2976735  58.2847682  62.1078009 115.7873188  58.5572299
  60.6065753 115.7234789  58.7419552  63.7690177 116.0104354  59.3421623
  64.3634668 115.7700090  58.6314931  63.8416761 115.2911485  59.9695159
  57.9544106 120.7884750  54.7843633  57.8979308 121.2453301  53.9451265
  58.5072449 120.0275435  54.6066476  61.7648912 116.5774482  55.6093753
  61.5085846 116.1771118  56.4401960  61.1401780 117.2918276  55.4843892
  66.0761250 119.3170555  58.1165044  65.5160808 119.3863744  58.8896606
  65.4704753 119.1411540  57.3964540  51.9975011 111.4797640  51.6581481
  51.9853681 112.4239480  51.8149751  52.8898433 111.2967786  51.3640942
  55.8127131 108.0740417  55.9127417  55.0459526 107.5198904  56.0584100
  56.2237836 108.1462286  56.7741569  47.8168892 114.3625213  70.0032599
  48.6800353 114.0062018  70.2135923  47.2434302 114.0239108  70.6908003
  69.0363182 124.4738471  57.9664846  69.3422059 123.6135834  57.6790761
  69.7615787 125.0656091  57.7663840  66.7417354 124.2736797  59.3893828
  67.0219108 123.6059986  60.0154255  67.5267961 124.4665892  58.8768492
  66.6520885 123.4032335  55.9127417  65.8853281 122.8490821  56.0584100
  67.0631590 123.4754203  56.7741569   2.6254743  21.0237686  47.5340306
   3.2633153  20.9044433  46.8303646   2.5075586  21.9718530  47.5928258
   2.1796011  18.7489139  44.6093514   2.9659101  18.3308563  44.2583931
   2.4434716  19.6535232  44.7775163   2.3506089  24.1861990  39.3082171
   1.7151922  24.2596616  40.0203076   2.0203495  24.7755589  38.6301250
   7.5804439  18.6864373  45.5126493   8.3129610  18.1163589  45.7464322
   6.8243794  18.2985973  45.9532998   1.5961378  24.5998493  49.3717014
   1.2962101  25.5023532  49.2632821   1.2512438  24.3330676  50.2238167
   4.9958522  17.1181033  47.0514451   4.0875400  17.0496441  46.7573212
   4.9446118  17.5952978  47.8796277   6.8620169  15.3197471  48.8292325
   6.2194549  15.6130005  48.1832120   6.3575097  15.2050392  49.6345522
   4.5160332  19.0660645  39.5178185   5.4278188  19.2988031  39.3425882
   4.0069979  19.6497689  38.9553263   2.8001100  23.4885272  53.1539477
   3.2084456  23.0467683  52.4094110   2.0778361  22.9137900  53.4073670
   3.1229915  24.0486463  46.9091766   2.4938777  24.2132177  46.2067834
   2.7355577  24.4628073  47.6802730   7.0019146  24.9840901  44.2636130
   6.3170185  25.3639802  43.7133163   7.0862996  25.5936228  44.9968078
   4.2570078  22.6300860  50.8631473   4.4686973  23.2732620  50.1865855
   4.2099826  21.7963176  50.3953403   5.3715906  25.5072815  49.0353831
   6.1933350  25.1053003  48.7536512   5.3678309  25.4041049  49.9869947
  13.4621899  21.8511564  45.3838802  12.7085607  21.2818962  45.2282807
  13.5969440  21.8174228  46.3309437   2.5770242  27.6251333  53.2175265
   2.5588717  28.4460214  52.7255534   3.4990162  27.5005408  53.4425406
   2.1663273  20.2364139  38.0964850   1.6509897  21.0068744  38.3353238
   1.8940582  19.5629275  38.7197912   7.1397548  22.9896494  40.0318024
   6.3626990  22.6507653  39.5873186   7.8189028  22.9949117  39.3572989
   1.9549577  18.1091231  39.9224631   1.6499712  18.4237380  40.7734775
   2.9080019  18.1872651  39.9651964   5.3788854  22.4630475  46.6884632
   4.7212529  23.1529736  46.7764760   6.1829254  22.8526907  47.0318618
   4.1894313  20.8174848  44.7388573   4.7026195  21.4504840  45.2410283
   4.8395537  20.2176043  44.3731933   1.4516687  30.7959172  37.4949245
   0.7778386  31.0990869  38.1034202   1.8382509  31.5988252  37.1454702
   1.4510192  19.6915719  42.1149594   2.1982011  20.2037116  41.8056716
   1.7201781  19.3699772  42.9753988   4.9556109  25.7980849  42.8667716
   4.5018437  24.9571759  42.9232906   4.3250076  26.4342247  43.2042496
   3.8989029  16.7272835  44.0968383   3.1611786  16.2150221  44.4278626
   4.1515803  16.2873217  43.2851660   3.3989049  27.6357346  43.8017534
   3.6912023  28.1962403  43.0829900   3.9087669  27.9285907  44.5570693
   1.8088308  18.8821764  51.7891617   2.1637695  19.1093238  52.6486082
   2.4560439  19.2140141  51.1668872   7.5386045  22.0040200  42.4940946
   7.4003943  22.1941796  41.5662135   7.1822263  22.7659583  42.9508997
   7.5655424  24.0716727  47.5052217   7.9991931  23.9792016  48.3535271
   8.2787005  24.0474228  46.8672233   1.2983319  27.6718821  49.0385318
   1.3520341  28.2409758  49.8063034   0.4298100  27.8420706  48.6739355
   8.4270974  24.1140428  50.0385103   8.6206864  25.0186238  50.2844377
   8.3271592  23.6547847  50.8723688   3.4886082  24.2647171  55.6125983
   3.3371589  24.0357722  54.6956067   3.4790762  25.2217772  55.6257328
   3.5424157  22.5867385  36.0296685   2.9253328  21.8614213  35.9329737
   3.0740646  23.3476745  35.6863759   5.1978289  27.2966293  53.6902465
   5.1390835  26.6125513  53.0233048   5.5997807  28.0385283  53.2383091
   5.1995696  25.2605877  51.9216445   4.3122475  24.9231799  52.0442844
   5.7694247  24.5288908  52.1585210   9.6813037  20.6714095  46.6833006
   9.6702913  21.5538810  46.3126939   8.8130416  20.3185645  46.4887543
   1.1895533  29.8194164  51.0435847   1.9023505  30.4541628  50.9711748
   0.6985562  29.9158030  50.2275848   2.9113060  23.7245416  42.6153138
   1.9769339  23.8446879  42.4457843   3.0889729  22.8217883  42.3513148
   6.2985612  19.5662736  43.1503172   6.7646064  20.3990727  43.0763475
   6.7493112  19.1007717  43.8548431   4.3661843  25.9106557  40.1489324
   4.6421687  25.7963151  41.0583198   3.4966341  25.5124042  40.1101497
   4.0408733  20.1233215  49.6893968   3.3880183  20.3709122  49.0346420
   4.4189113  19.3097353  49.3556445   1.0015907  30.1592908  43.7922138
   1.1838301  29.3414564  44.2549890   1.8248893  30.3760600  43.3547028
   1.3358072  29.0861093  41.0537186   1.8645839  28.5753547  40.4407349
   1.5986292  28.7703623  41.9182719   3.6829963  26.9981211  56.2666275
   4.2269867  27.6111169  55.7721230   3.1016808  27.5560789  56.7833288
   1.9687476  30.1201929  47.3981303   1.8438615  29.3191668  46.8892248
   2.6266567  30.6148122  46.9095273   4.0322384  27.9210949  49.0260853
   3.0852720  27.8016300  48.9539180   4.3805157  27.0333447  49.1087114
   1.0368818  27.7163665  45.2265205   0.8893780  26.7880372  45.4072775
   1.8622311  27.7383756  44.7422280   4.6402939  28.5392224  46.3130078
   5.5649487  28.3335085  46.1754529   4.4718243  28.2908625  47.2219419
   4.4298256  29.0577891  41.6692169   4.6035133  28.4924314  40.9166022
   4.9227147  29.8578786  41.4871659  10.2837647  21.8214314  43.2882469
  10.7268793  21.0721639  42.8901592   9.4064157  21.8124450  42.9056201
   5.4173428  28.3744655  38.7689068   6.1124333  28.9951348  38.9876382
   5.7596578  27.5240007  39.0441446   7.3164851  25.8244361  40.2976398
   7.8416175  26.1631634  39.5725719   7.2287204  24.8891376  40.1139533
   7.0058757  26.4577265  55.6027596   6.2154301  26.4401403  55.0632096
   6.7692112  26.9965558  56.3576633   7.1256632  23.3069731  52.9160325
   7.1754637  23.1419738  53.8575848   7.0170556  22.4396990  52.5258206
   4.4160395  19.2900659  54.2319632   5.3170258  19.1507124  53.9403629
   4.4908369  19.4555114  55.1717809   8.6274829  25.7266673  53.1602347
   8.3359638  26.0896653  53.9965807   8.0146961  25.0133681  52.9815679
   9.8270512  23.2919552  45.6804917  10.6617403  23.7309356  45.8442477
   9.9629640  22.8158205  44.8613163   6.8762017  20.8499287  51.6282405
   7.3516139  21.0426933  50.8201256   5.9527583  20.9058473  51.3825788
   5.5763686  17.7265047  49.8610710   6.5281109  17.8263145  49.8822934
   5.4067137  16.9343316  50.3708794   2.7285556  28.7643557  38.8072744
   3.6616230  28.6989119  39.0105619   2.6408769  29.5999824  38.3487276
   5.3573573  28.0809428  35.7676691   5.2787205  27.7469291  36.6612449
   6.1783240  28.5731196  35.7668164   8.0551764  20.9471167  48.9753010
   8.0228084  20.0087168  49.1612694   8.6652388  21.0255204  48.2418835
   8.2046253  17.7382210  49.0211293   7.6885301  16.9540667  48.8341222
   9.0886201  17.4100927  49.1857812  13.8728314  22.0087174  48.1159047
  14.6031703  21.7472462  48.6766750  13.2635260  21.2715896  48.1561115
  11.9543611  20.1495036  48.7133498  11.2276775  20.0151001  48.1049989
  11.5390898  20.4571865  49.5190216   7.1348848  15.6579269  45.0092989
   7.9109238  16.1475722  45.2817606   6.4096982  16.0837324  45.4664858
   9.5721406  16.3706889  46.0666929  10.1665897  16.1302624  45.3560238
   9.6447990  15.6514019  46.6940466   2.9277525  25.3977423  35.3886669
   3.6313375  25.6027426  36.0044325   2.2040174  25.9654185  35.6535753
   3.7575335  21.1487284  41.5088940   3.7010537  21.6055836  40.6696572
   4.3103678  20.3877969  41.3311782   7.5680141  16.9377016  42.3339059
   7.3117075  16.5373652  43.1647267   6.9433009  17.6520810  42.2089198
  11.8792479  19.6773089  44.8410351  11.3192037  19.7466279  45.6141913
  11.2735982  19.5014074  44.1209847   4.8364222  25.8359952  37.4385130
   5.6709826  25.4041151  37.2562604   4.6748565  25.6641966  38.3662024
   4.4910114  22.3392066  38.8041469   4.4358918  22.1736337  37.8629913
   3.8656170  23.0468098  38.9603659   1.8056022  24.6440977  58.1295032
   2.6747181  24.8181630  57.7681667   1.3262773  25.4635394  58.0070761
  13.4648497  36.3529603  47.5340306  14.1026907  36.2336351  46.8303646
  13.3469340  37.3010447  47.5928258  10.2738204  36.3057031  47.4701831
   9.9356715  36.1898096  46.5822366  11.1427972  35.9048197  47.4502837
   6.1325019  38.1592508  43.4598722   5.5689884  38.0682445  42.6915010
   6.0177414  37.3392412  43.9401214  10.7557987  37.4591883  53.4288036
  10.7446627  37.0644681  52.5568540  10.9178626  36.7257956  54.0221808
   3.6789451  39.6543699  46.2982942   4.4710743  39.3134524  45.8829242
   3.9186101  39.7638674  47.2185096  11.7124578  41.8263476  38.7713187
  11.0612558  42.4117556  38.3847201  12.5068941  42.3569670  38.8308224
   5.6380205  38.9152613  39.1700321   6.4111081  38.3681600  39.0313197
   5.9905604  39.7796862  39.3814783   7.4765248  40.2428995  52.3767220
   7.1855114  41.1474626  52.2613887   8.1122232  40.2845523  53.0911290
   8.4021455  37.6205843  48.9668580   8.9985027  37.3961866  48.2525543
   8.4596426  36.8790589  49.5694028   7.9746483  35.0745279  36.8018771
   8.2272004  34.5526800  36.0402234   7.0371042  34.9111424  36.9045455
  13.0189766  34.0781057  44.6093514  13.8052855  33.6600480  44.2583931
  13.2828470  34.9827149  44.7775163  13.1899843  39.5153907  39.3082171
  12.5545676  39.5888534  40.0203076  12.8597250  40.1047506  38.6301250
  18.4198193  34.0156290  45.5126493  19.1523365  33.4455507  45.7464322
  17.6637549  33.6277891  45.9532998   7.6942772  36.9773385  39.0043146
   7.5779030  36.3018288  39.6724230   7.8045032  36.4905759  38.1875299
  10.0374313  36.4383532  42.7089835   9.6732520  35.9114153  43.4202757
  10.8941429  36.0482001  42.5356321  15.9423613  27.7277864  49.9721101
  15.6106938  28.5973275  49.7482316  15.3469227  27.4114148  50.6515132
   9.6779800  31.4673432  37.7051184   9.8454202  32.3353668  38.0721655
   9.4876969  31.6300713  36.7812473  12.4355133  39.9290410  49.3717014
  12.1355856  40.8315449  49.2632821  12.0906192  39.6622594  50.2238167
   5.8867614  36.3804207  45.4053719   4.9618111  36.2480421  45.6131410
   6.1352028  37.1598427  45.9023661  15.8352277  32.4472951  47.0514451
  14.9269154  32.3788359  46.7573212  15.7839872  32.9244896  47.8796277
   9.6569021  33.9231089  38.6897851   9.5368646  34.3688140  39.5283331
   8.9621609  34.2716407  38.1311389   3.2476425  36.0237481  46.2397508
   3.3768807  36.2771960  47.1536919   2.5673877  36.6165189  45.9202163
   7.4175913  46.6934731  42.3387982   7.3399942  47.6442556  42.4176462
   6.8137556  46.3480603  42.9962908   9.9093142  33.8662596  54.9949349
   9.1326477  34.4256516  54.9852213  10.5483705  34.3519379  55.5164219
  17.7013923  30.6489389  48.8292325  17.0588303  30.9421922  48.1832120
  17.1968852  30.5342309  49.6345522  15.3554087  34.3952562  39.5178185
  16.2671943  34.6279949  39.3425882  14.8463734  34.9789606  38.9553263
   8.1639515  36.6748050  54.5567316   8.9054199  37.2133094  54.2802139
   7.4576500  37.3014338  54.7138868  13.6394854  38.8177190  53.1539477
  14.0478210  38.3759601  52.4094110  12.9172116  38.2429818  53.4073670
   9.9925924  33.7549797  50.5273034  10.8387120  34.1789210  50.6707683
   9.9324562  33.0983421  51.2211597  13.9623669  39.3778381  46.9091766
  13.3332531  39.5424095  46.2067834  13.5749331  39.7919990  47.6802730
  17.8412901  40.3132819  44.2636130  17.1563939  40.6931720  43.7133163
  17.9256750  40.9228145  44.9968078  13.1425370  31.4154165  52.1854208
  12.8986302  32.1696226  51.6488484  13.4185300  31.7939513  53.0201455
  15.0963833  37.9592778  50.8631473  15.3080728  38.6024537  50.1865855
  15.0493581  37.1255094  50.3953403  12.6990061  30.5710598  47.7668046
  11.8374541  30.8691852  48.0584783  12.7252496  30.7880997  46.8349078
   9.5151631  39.1152789  44.1741851   9.9789976  39.3940492  43.3846474
   9.2508429  38.2136233  43.9914942   6.4075712  38.6624270  47.1121614
   6.9777069  39.0911539  46.4739099   6.9983824  38.3806855  47.8105800
   8.4520517  35.2375941  40.9831416   9.1544560  35.6896985  41.4505343
   8.1201145  34.5959760  41.6111309   6.9000878  33.8287698  55.3582626
   6.2699539  34.5103979  55.5918023   6.7936966  33.7170779  54.4135764
   2.1945851  33.4959494  46.2848550   1.4044905  33.7517022  45.8088661
   2.6857098  34.3107832  46.3900590  16.2109660  40.8364733  49.0353831
  17.0327104  40.4344920  48.7536512  16.2072063  40.7332967  49.9869947
   4.1460596  33.8604073  43.2432027   3.3491760  33.9722767  43.7615522
   3.9186189  34.1990725  42.3772917   9.9766264  40.3848776  51.1914541
  10.0410696  40.8469184  52.0272713   9.2677188  39.7546141  51.3196851
   0.4783554  33.7489984  48.7163541   0.7291592  34.6336994  48.9821117
   1.0143102  33.5694586  47.9438633  24.3015654  37.1803481  45.3838802
  23.5479362  36.6110880  45.2282807  24.4363195  37.1466146  46.3309437
   9.6914282  42.0516884  41.0593522   9.5559956  42.8968419  41.4878369
  10.2324094  42.2536161  40.2959455   6.1781621  28.1308464  57.7207877
   5.7848567  27.5774662  58.3955521   6.9947762  28.4419042  58.1114394
   3.1443679  39.5692322  41.6321447   3.6568200  40.3635572  41.7827011
   3.7966392  38.8718612  41.5655048   4.9538564  42.6858078  43.7144200
   5.1305192  43.6076043  43.5265184   5.7495397  42.3716497  44.1438580
   9.0949582  29.5466343  55.3128133   9.8359296  30.1473496  55.2332596
   9.3267505  28.8043981  54.7546176   4.2390920  34.7322710  53.5906363
   4.1244435  33.8307967  53.8913462   3.3835438  34.9786407  53.2391180
  11.3182758  42.6740450  55.1893864  10.8746612  41.8876829  54.8714768
  11.9799972  42.8619601  54.5237754   6.0769879  44.2036252  49.7154542
   6.6277304  44.0753315  48.9431536   5.2381355  44.5031141  49.3649435
  13.4163996  42.9543250  53.2175265  13.3982471  43.7752131  52.7255534
  14.3383916  42.8297325  53.4425406   9.8737050  40.4687380  54.0598773
  10.4065387  39.7075668  53.8298081   9.3451131  40.1761032  54.8022928
  13.0406745  25.5747446  49.5892415  12.6971015  26.4649087  49.5131526
  13.4085708  25.3849103  48.7262000   1.1092596  37.8980976  42.4081017
   1.9467818  38.3077984  42.1914725   1.2870863  36.9580418  42.3781211
  13.0057028  35.5656057  38.0964850  12.4903651  36.3360661  38.3353238
  12.7334336  34.8921193  38.7197912  10.5904139  30.4105758  43.1550089
   9.7345735  30.0212608  42.9755727  11.0031091  30.4897718  42.2949874
  12.1203286  27.9452101  47.5541648  11.6168081  27.9082236  46.7409454
  12.4133892  28.8544844  47.6138305   8.3646171  28.0290831  46.5607830
   9.2299168  27.8333639  46.2013720   8.4323680  27.8001182  47.4877187
  17.9791302  38.3188411  40.0318024  17.2020745  37.9799571  39.5873186
  18.6582783  38.3241035  39.3572989  12.7943331  33.4383149  39.9224631
  12.4893467  33.7529298  40.7734775  13.7473773  33.5164569  39.9651964
  11.2389763  39.5973372  41.5717585  10.7111124  38.8626132  41.2590823
  10.7377266  40.3748049  41.3257554  16.2182609  37.7922393  46.6884632
  15.5606283  38.4821654  46.7764760  17.0223008  38.1818825  47.0318618
   5.9708491  30.2593038  43.9324197   6.5452242  30.0368220  43.1997390
   6.5579473  30.3281733  44.6852798  15.0288068  36.1466765  44.7388573
  15.5419949  36.7796757  45.2410283  15.6789292  35.5467961  44.3731933
   6.2978078  32.2897499  37.9520082   5.4615390  32.6272186  38.2729357
   6.1582847  32.1546479  37.0147219   8.2731158  27.1334287  42.6599266
   7.6195571  26.8183305  42.0355881   8.2311632  26.5110028  43.3859089
   9.3842363  37.4153582  34.5752558   8.4769425  37.1842836  34.7743707
   9.8813395  36.6191202  34.7626540  12.2910442  46.1251090  37.4949245
  11.6172141  46.4282786  38.1034202  12.6776264  46.9280170  37.1454702
  11.5068899  33.6216221  46.9846914  10.5891460  33.8431168  46.8268602
  11.9229042  33.6962531  46.1258621  12.2903946  35.0207637  42.1149594
  13.0375765  35.5329034  41.8056716  12.5595536  34.6991689  42.9753988
  10.5630597  37.5166177  39.0976548   9.6541816  37.2325210  39.1949018
  10.5925680  37.9365256  38.2379855  15.7949864  41.1272767  42.8667716
  15.3412191  40.2863677  42.9232906  15.1643831  41.7634165  43.2042496
  14.7382783  32.0564753  44.0968383  14.0005540  31.5442139  44.4278626
  14.9909557  31.6165134  43.2851660  14.2382803  42.9649263  43.8017534
  14.5305778  43.5254321  43.0829900  14.7481424  43.2577824  44.5570693
  14.8394411  24.8341005  44.6910153  15.1453288  23.9738368  44.4036068
  15.5647016  25.4258625  44.4909147   1.1318767  35.2371691  43.0791751
   0.9343167  34.6441052  42.3542817   0.5765431  34.9323902  43.7967689
   9.1115491  35.1294798  45.1986344   9.1664100  34.1768634  45.1228820
   8.3006693  35.2854237  45.6827642  10.2606684  39.0574921  36.4364627
   9.8226114  38.3410780  35.9770264  11.0017125  39.2851036  35.8749718
   7.0507850  33.7471858  42.9576723   6.2375716  34.0466028  43.3641915
   7.5466845  33.3527546  43.6751205   9.2016428  43.7429615  44.8910987
   9.1592607  43.9690461  43.9619519  10.1179127  43.5092989  45.0396789
  12.6482062  34.2113682  51.7891617  13.0031450  34.4385155  52.6486082
  13.2954193  34.5432059  51.1668872  18.3779799  37.3332118  42.4940946
  18.2397698  37.5233714  41.5662135  18.0216018  38.0951501  42.9508997
   6.5421925  31.3190213  48.5737958   7.1821305  31.1778972  47.8760921
   5.7099456  31.0324727  48.1976560  18.4049179  39.4008645  47.5052217
  18.8385685  39.3083934  48.3535271  19.1180759  39.3766145  46.8672233
   7.3182229  40.6192644  44.6872950   8.1122828  40.1242964  44.4855525
   6.6073922  40.0910507  44.3240656  12.1377074  43.0010739  49.0385318
  12.1914096  43.5701675  49.8063034  11.2691855  43.1712624  48.6739355
   3.6264993  34.7635725  40.7632703   2.6962581  34.7020181  40.9802665
   3.7222465  34.2411678  39.9669344   3.5450542  31.2890538  43.3510944
   3.8057359  32.2035871  43.2420105   4.3667714  30.8214981  43.5007557
   5.0175467  32.7028295  50.5209769   5.6898520  32.4945657  49.8722418
   4.1905254  32.5050381  50.0815001  19.2664728  39.4432346  50.0385103
  19.4600618  40.3478156  50.2844377  19.1665346  38.9839765  50.8723688
  10.9201039  29.3290236  52.5375430  10.2728954  30.0280186  52.4439906
  11.6902054  29.7626380  52.9051678  14.3279837  39.5939088  55.6125983
  14.1765343  39.3649640  54.6956067  14.3184516  40.5509690  55.6257328
  11.0965173  37.1671001  50.5972250  12.0257233  37.3182161  50.4241217
  10.6756203  37.2555022  49.7420896   9.8953505  41.1921666  48.3670787
   9.7564591  40.8240450  49.2396725   9.1068101  41.7069305  48.1954745
  10.4901657  46.2930762  39.7096324  10.6653413  45.8218805  40.5241946
   9.8034445  46.9196528  39.9377584  11.4458720  40.5703268  45.7559625
  11.1108553  40.5304038  46.6517275  10.9462666  39.9047984  45.2830035
   5.4202964  35.9770898  51.2812206   5.2822762  35.2451137  51.8823745
   6.3307888  35.8879798  50.9996394  14.3817912  37.9159303  36.0296685
  13.7647083  37.1906131  35.9329737  13.9134400  38.6768663  35.6863759
   8.0485265  35.6890858  50.7695886   8.7584883  35.0484050  50.7282504
   8.0054573  35.9403752  51.6922067  16.0372044  42.6258211  53.6902465
  15.9784590  41.9417431  53.0233048  16.4391562  43.3677201  53.2383091
   6.7614199  32.6756076  52.5891525   6.2251556  32.2246814  53.2413122
   6.1730907  32.8101984  51.8461990   5.0562742  49.4420125  46.4836184
   5.2959341  50.0738649  47.1615202   4.2131939  49.0908165  46.7701543
   6.1716458  32.1344727  35.1517989   5.2945924  32.0133528  34.7880236
   6.6474211  31.3430805  34.8996878  16.0389451  40.5897795  51.9216445
  15.1516230  40.2523717  52.0442844  16.6088002  39.8580826  52.1585210
   2.4953320  31.8112083  49.6744520   2.4111509  31.2037753  48.9394930
   1.6736027  32.3021102  49.6754016   9.5690604  45.2499247  48.8877688
   9.4960776  46.0554219  49.3996992   9.1267997  45.4491213  48.0625709
   9.3580384  44.4871017  42.3980509   8.5747906  45.0292697  42.4918734
  10.0573129  45.0044997  42.7974751  12.6677034  30.2965647  45.0414715
  13.1645734  29.5435609  44.7215785  11.8964015  30.3329963  44.4757924
  20.5206791  36.0006012  46.6833006  20.5096668  36.8830728  46.3126939
  19.6524171  35.6477563  46.4887543  12.0289288  45.1486081  51.0435847
  12.7417260  45.7833546  50.9711748  11.5379316  45.2449947  50.2275848
  13.7506815  39.0537334  42.6153138  12.8163093  39.1738796  42.4457843
  13.9283483  38.1509801  42.3513148   9.2512003  32.4383030  44.7686399
   8.8809790  31.8854070  45.4567305   9.7471095  31.8341163  44.2161399
  17.1379366  34.8954653  43.1503172  17.6039818  35.7282645  43.0763475
  17.5886867  34.4299635  43.8548431   7.0801201  42.8980525  51.8641417
   7.7810661  43.5317008  52.0170812   6.6096316  43.2395256  51.1037057
  15.2055597  41.2398475  40.1489324  15.4815441  41.1255069  41.0583198
  14.3360096  40.8415959  40.1101497  15.1096029  27.2635240  47.1894074
  14.1959109  27.4939467  47.3576281  15.5389130  27.3473684  48.0408106
  14.8802487  35.4525132  49.6893968  14.2273938  35.7001040  49.0346420
  15.2582867  34.6389270  49.3556445  11.8409661  45.4884825  43.7922138
  12.0232056  44.6706481  44.2549890  12.6642647  45.7052518  43.3547028
  12.1751827  44.4153011  41.0537186  12.7039593  43.9045465  40.4407349
  12.4380046  44.0995541  41.9182719  10.9290060  36.1944943  56.1760005
  10.2530697  36.0939073  56.8462380  11.7517694  36.0384157  56.6396002
   2.6768919  42.4316880  48.7972520   3.2622356  41.6860568  48.9300424
   2.4793758  42.7420837  49.6809184   5.5307575  45.4668127  43.8134962
   4.8617950  45.9514255  43.3299002   5.3920444  45.7137348  44.7278341
   9.6712843  47.5011871  50.4117621  10.2231151  47.6643492  51.1766706
  10.0119037  48.0916309  49.7397646   4.6477336  29.8487021  51.0139505
   4.7118663  30.7101851  50.6016903   4.5844457  29.2361022  50.2811864
   4.1229609  31.9210153  54.6612540   4.7501648  31.5387230  55.2750064
   3.2657528  31.7024355  55.0268232  14.5223717  42.3273128  56.2666275
  15.0663621  42.9403086  55.7721230  13.9410562  42.8852707  56.7833288
  12.8081230  45.4493846  47.3981303  12.6832370  44.6483586  46.8892248
  13.4660322  45.9440040  46.9095273   4.4289399  31.8042579  46.5758443
   3.7075984  32.4178546  46.4365916   5.2182654  32.3400344  46.4975089
  14.8716139  43.2502866  49.0260853  13.9246474  43.1308218  48.9539180
  15.2198912  42.3625364  49.1087114   7.2315712  29.1397005  52.8499095
   7.7550114  29.3859302  53.6125404   7.0128045  29.9717040  52.4302232
   2.6282993  31.4100680  40.7170220   2.2995699  30.5298059  40.5345326
   2.9822364  31.3548349  41.6046609  11.8762572  43.0455583  45.2265205
  11.7287535  42.1172290  45.4072775  12.7016066  43.0675673  44.7422280
   5.7424816  31.6973650  41.0845697   6.0820889  32.2259571  40.3624306
   6.1896937  32.0354056  41.8604264  15.4796694  43.8684141  46.3130078
  16.4043241  43.6627003  46.1754529  15.3111997  43.6200542  47.2219419
   8.4368257  30.0810700  50.5348765   8.0965078  29.2818513  50.9369445
   7.7307264  30.3812411  49.9625599   9.0884729  27.1660013  48.9876088
   9.9110798  26.6920491  48.8654979   9.3322793  27.9450497  49.4874775
   7.7292964  30.1948271  39.2838990   8.4501326  30.5729524  38.7802707
   7.1058268  30.9137148  39.3873968  11.8724086  30.8993420  40.2197322
  12.0887701  31.7818058  39.9186151  11.3918154  30.5079634  39.4902964
   6.6123308  33.8579133  46.7968067   6.4667889  34.1719436  47.6892349
   6.1348511  34.4764034  46.2438966   8.4719691  30.8481681  46.8448957
   8.4581259  29.9522775  46.5081255   9.1892119  30.8552345  47.4787243
  10.3245821  31.2819022  48.8902084  10.0663599  32.2036092  48.8886414
   9.7930862  30.8849456  49.5802548  15.2692010  44.3869809  41.6692169
  15.4428888  43.8216231  40.9166022  15.7620901  45.1870704  41.4871659
   1.0868970  36.3984478  49.7355728   0.5422438  37.1744286  49.8676003
   1.9648320  36.7455282  49.5774850   7.8756587  29.7296062  42.1136527
   7.9972498  28.8012708  42.3127414   7.5858629  29.7434748  41.2014842
  10.7447777  27.4150972  45.2503247  10.7669474  27.4790305  44.2955226
  11.1615836  26.5755481  45.4443753  21.1231401  37.1506232  43.2882469
  21.5662547  36.4013557  42.8901592  20.2457912  37.1416368  42.9056201
  16.2567183  43.7036573  38.7689068  16.9518087  44.3243266  38.9876382
  16.5990333  42.8531924  39.0441446   1.8734992  35.5254374  52.6285885
   1.1316728  35.6737009  53.2150516   1.5527736  35.7862640  51.7652635
  18.1558606  41.1536279  40.2976398  18.6809930  41.4923551  39.5725719
  18.0680958  40.2183294  40.1139533   9.8178654  45.0670352  52.4266275
  10.1265781  44.8219499  53.2988975  10.6154137  45.2716991  51.9385145
   9.8399267  47.2208262  44.6571652   9.4004257  46.7284641  45.3504508
  10.5907383  46.6781230  44.4163727   2.3191606  43.4119803  44.6596280
   3.1449625  43.1123575  44.2794923   1.9685658  42.6427425  45.1086068
   7.2873139  42.7646271  46.7293953   6.6653148  42.1016976  46.4296181
   7.9578006  42.7907403  46.0467601   7.3597666  31.2428059  56.3226459
   7.4085822  32.1190182  55.9404229   7.9020180  30.7005452  55.7498103
  17.8452512  41.7869182  55.6027596  17.0548056  41.7693321  55.0632096
  17.6085866  42.3257476  56.3576633  17.9650387  38.6361649  52.9160325
  18.0148392  38.4711656  53.8575848  17.8564310  37.7688908  52.5258206
   6.8486646  41.3150194  40.2052414   6.9974766  41.9985659  39.5519087
   7.6553089  41.2955284  40.7201870  15.2554149  34.6192577  54.2319632
  16.1564012  34.4799042  53.9403629  15.3302124  34.7847032  55.1717809
   9.5896955  31.9959431  53.0772818   8.7200264  32.2892997  52.8055407
   9.8256435  32.5799876  53.7980082  19.4668584  41.0558590  53.1602347
  19.1753392  41.4188571  53.9965807  18.8540715  40.3425598  52.9815679
  20.6664266  38.6211470  45.6804917  21.5011157  39.0601274  45.8442477
  20.8023395  38.1450123  44.8613163  17.7155772  36.1791205  51.6282405
  18.1909894  36.3718851  50.8201256  16.7921337  36.2350391  51.3825788
   4.6039279  37.3415372  41.2113483   4.3585321  36.4377702  41.4093693
   4.7735193  37.3432522  40.2692961  12.2935988  28.2139048  50.5938238
  12.8117932  28.9500075  50.2684727  11.9391121  28.5203042  51.4284998
   3.8734926  33.0743730  38.7099644   3.1804171  33.1488085  38.0539680
   3.6286678  32.3104073  39.2321161  12.5448583  24.6339331  46.1139135
  12.8250336  23.9662520  46.7399562  13.3299190  24.8268427  45.6013799
  10.3482051  43.8098325  37.6764161   9.7756018  44.4288512  37.2234633
  10.9214845  44.3597686  38.2104083  16.4157441  33.0556965  49.8610710
  17.3674864  33.1555063  49.8822934  16.2460891  32.2635233  50.3708794
  14.4371820  30.1412548  50.0470111  13.8421753  30.4217561  49.3516600
  14.1521517  30.6306449  50.8186852  13.5679311  44.0935475  38.8072744
  14.5009984  44.0281037  39.0105619  13.4802524  44.9291742  38.3487276
  16.1967328  43.4101345  35.7676691  16.1180959  43.0761209  36.6612449
  17.0176994  43.9023113  35.7668164  18.8945519  36.2763085  48.9753010
  18.8621839  35.3379085  49.1612694  19.5046142  36.3547121  48.2418835
  10.7328850  35.1459138  35.0180214  11.6787954  35.0165346  35.0868632
  10.3543095  34.4073799  35.4949642  19.0440007  33.0674128  49.0211293
  18.5279056  32.2832585  48.8341222  19.9279956  32.7392845  49.1857812
  16.7050734  26.8115144  44.9807106  16.5075555  26.5030232  45.8650438
  17.3150440  27.5376782  45.1105035  24.7122069  37.3379091  48.1159047
  25.4425457  37.0764380  48.6766750  24.1029014  36.6007813  48.1561115
  22.7937366  35.4786954  48.7133498  22.0670529  35.3442919  48.1049989
  22.3784653  35.7863783  49.5190216  10.6167542  39.1976884  56.4780871
  11.5370552  39.3755483  56.6720917  10.5817125  38.2532929  56.3260570
   8.9171767  33.0709114  34.9535099   8.0103222  32.7742227  35.0297813
   9.1947748  32.7738932  34.0869385   3.6129615  37.1077918  49.1203652
   3.8315624  38.0395026  49.1391686   4.0255389  36.7485893  49.9058456
  10.5333833  27.6146004  41.1079340   9.7234561  27.2693089  41.4834586
  11.2218249  27.3053547  41.6966952  12.4624381  26.6924050  42.7303637
  13.0155419  27.1119504  43.3893660  12.6994467  25.7659799  42.7726593
   8.4857480  32.6811124  58.5106401   8.3854207  33.6305481  58.4418492
   8.2679022  32.3529363  57.6382471   7.6870551  29.9296049  35.0947078
   8.5489715  30.2550947  35.3542896   7.8720896  29.1427545  34.5820144
  15.8403188  28.8024576  42.2382301  15.2601857  29.4609380  41.8560354
  15.5739121  27.9801920  41.8269719  14.2906754  28.2029633  44.4403622
  14.7906533  28.3146168  43.6317940  14.9342362  27.8990686  45.0804430
   8.3488750  36.1108263  57.3271463   7.8655832  36.9108623  57.5335352
   8.4349689  36.1216208  56.3738907   1.6174710  37.9436643  45.2493282
   1.5945398  38.0424330  44.2975165   1.9275346  38.7901793  45.5710448
   4.2762088  40.0012798  49.3639896   5.2305341  39.9696740  49.2969828
   4.0774611  39.5403421  50.1790122   4.8661470  38.5713914  51.9310694
   5.6854359  39.0657992  51.9545531   5.1398277  37.6545882  51.9028261
  14.6228066  30.9624666  41.2938650  13.7353921  31.2474317  41.0758844
  15.0382055  30.8018429  40.4465926  17.9742602  30.9871187  45.0092989
  18.7502992  31.4767639  45.2817606  17.2490736  31.4129241  45.4664858
  20.4115161  31.6998806  46.0666929  21.0059651  31.4594542  45.3560238
  20.4841744  30.9805937  46.6940466   2.6312316  45.5432417  46.3810094
   2.4966784  44.7832818  45.8148092   2.2144379  46.2673317  45.9138883
  13.7671279  40.7269341  35.3886669  14.4707129  40.9319343  36.0044325
  13.0433928  41.2946103  35.6535753  14.5969090  36.4779202  41.5088940
  14.5404291  36.9347753  40.6696572  15.1497432  35.7169887  41.3311782
  18.4073896  32.2668934  42.3339059  18.1510830  31.8665569  43.1647267
  17.7826764  32.9812728  42.2089198  22.7186233  35.0065007  44.8410351
  22.1585791  35.0758196  45.6141913  22.1129737  34.8305992  44.1209847
   5.7881442  46.4401734  46.5928537   5.6713826  47.3847167  46.4907227
   4.9673889  46.1375296  46.9814336  15.6757977  41.1651870  37.4385130
  16.5103581  40.7333068  37.2562604  15.5142320  40.9933884  38.3662024
  15.3303869  37.6683983  38.8041469  15.2752673  37.5028255  37.8629913
  14.7049924  38.3760016  38.9603659  12.6449776  39.9732895  58.1295032
  13.5140936  40.1473547  57.7681667  12.1656528  40.7927312  58.0070761
   8.6399994  27.1692092  38.3826787   8.6278664  28.1133932  38.5395058
   9.5323416  26.9862238  38.0886248   6.8135956  47.0929996  49.8084465
   7.7163203  47.1253606  50.1250960   6.5873326  46.1630447  49.8230801
   8.5689558  45.8460983  46.4694544   7.6185189  45.8462844  46.3558916
   8.8722045  45.0993717  45.9530579  12.4552114  23.7634869  42.6372724
  11.6884510  23.2093356  42.7829406  12.8662819  23.8356738  43.4986876
   4.4593875  30.0519665  56.7277905   5.3225336  29.6956469  56.9381230
   3.8859286  29.7133559  57.4153310  24.3042252  51.6821521  47.5340306
  24.9420662  51.5628268  46.8303646  24.1863095  52.6302365  47.5928258
  21.1131958  51.6348949  47.4701831  20.7750470  51.5190014  46.5822366
  21.9821726  51.2340114  47.4502837  16.9718774  53.4884426  43.4598722
  16.4083639  53.3974362  42.6915010  16.8571169  52.6684330  43.9401214
  21.5951741  52.7883801  53.4288036  21.5840382  52.3936599  52.5568540
  21.7572381  52.0549873  54.0221808  14.5183206  54.9835617  46.2982942
  15.3104498  54.6426442  45.8829242  14.7579856  55.0930592  47.2185096
  22.5518333  57.1555393  38.7713187  21.9006312  57.7409474  38.3847201
  23.3462695  57.6861588  38.8308224  16.4773960  54.2444530  39.1700321
  17.2504836  53.6973517  39.0313197  16.8299359  55.1088780  39.3814783
  18.3159002  55.5720913  52.3767220  18.0248868  56.4766543  52.2613887
  18.9515987  55.6137440  53.0911290  19.2415209  52.9497761  48.9668580
  19.8378781  52.7253784  48.2525543  19.2990181  52.2082507  49.5694028
  18.8140238  50.4037196  36.8018771  19.0665758  49.8818718  36.0402234
  17.8764797  50.2403342  36.9045455  23.8583520  49.4072975  44.6093514
  24.6446610  48.9892398  44.2583931  24.1222225  50.3119067  44.7775163
  24.0293598  54.8445825  39.3082171  23.3939431  54.9180452  40.0203076
  23.6991004  55.4339424  38.6301250  18.5336526  52.3065302  39.0043146
  18.4172784  51.6310206  39.6724230  18.6438786  51.8197676  38.1875299
  20.8768067  51.7675450  42.7089835  20.5126274  51.2406071  43.4202757
  21.7335183  51.3773919  42.5356321  26.7817368  43.0569782  49.9721101
  26.4500693  43.9265193  49.7482316  26.1862981  42.7406066  50.6515132
  20.5173554  46.7965349  37.7051184  20.6847957  47.6645586  38.0721655
  20.3270723  46.9592631  36.7812473  23.2748887  55.2582328  49.3717014
  22.9749610  56.1607367  49.2632821  22.9299947  54.9914511  50.2238167
  16.7261369  51.7096125  45.4053719  15.8011865  51.5772339  45.6131410
  16.9745782  52.4890344  45.9023661  26.6746031  47.7764868  47.0514451
  25.7662908  47.7080277  46.7573212  26.6233627  48.2536813  47.8796277
  20.4962775  49.2523007  38.6897851  20.3762400  49.6980057  39.5283331
  19.8015363  49.6008324  38.1311389  14.0870180  51.3529399  46.2397508
  14.2162561  51.6063877  47.1536919  13.4067631  51.9457107  45.9202163
  18.2569667  62.0226648  42.3387982  18.1793697  62.9734474  42.4176462
  17.6531311  61.6772521  42.9962908  20.7486897  49.1954514  54.9949349
  19.9720231  49.7548434  54.9852213  21.3877460  49.6811297  55.5164219
  28.5407678  45.9781307  48.8292325  27.8982058  46.2713840  48.1832120
  28.0362606  45.8634227  49.6345522  26.1947841  49.7244480  39.5178185
  27.1065697  49.9571867  39.3425882  25.6857488  50.3081524  38.9553263
  19.0033269  52.0039967  54.5567316  19.7447954  52.5425011  54.2802139
  18.2970255  52.6306256  54.7138868  24.4788609  54.1469108  53.1539477
  24.8871965  53.7051518  52.4094110  23.7565870  53.5721735  53.4073670
  20.8319679  49.0841715  50.5273034  21.6780874  49.5081128  50.6707683
  20.7718317  48.4275339  51.2211597  24.8017424  54.7070298  46.9091766
  24.1726286  54.8716012  46.2067834  24.4143086  55.1211908  47.6802730
  23.9819124  46.7446083  52.1854208  23.7380056  47.4988143  51.6488484
  24.2579055  47.1231430  53.0201455  25.9357587  53.2884695  50.8631473
  26.1474482  53.9316455  50.1865855  25.8887335  52.4547012  50.3953403
  23.5383816  45.9002516  47.7668046  22.6768295  46.1983769  48.0584783
  23.5646251  46.1172915  46.8349078  20.3545385  54.4444706  44.1741851
  20.8183731  54.7232409  43.3846474  20.0902184  53.5428151  43.9914942
  17.2469466  53.9916188  47.1121614  17.8170824  54.4203456  46.4739099
  17.8377578  53.7098773  47.8105800  19.2914271  50.5667859  40.9831416
  19.9938315  51.0188902  41.4505343  18.9594900  49.9251678  41.6111309
  17.7394633  49.1579615  55.3582626  17.1093294  49.8395896  55.5918023
  17.6330721  49.0462697  54.4135764  13.0339605  48.8251411  46.2848550
  12.2438659  49.0808940  45.8088661  13.5250853  49.6399749  46.3900590
  27.0503415  56.1656651  49.0353831  27.8720859  55.7636838  48.7536512
  27.0465818  56.0624885  49.9869947  14.9854351  49.1895991  43.2432027
  14.1885514  49.3014685  43.7615522  14.7579943  49.5282643  42.3772917
  20.8160018  55.7140694  51.1914541  20.8804451  56.1761101  52.0272713
  20.1070942  55.0838059  51.3196851  11.3177308  49.0781902  48.7163541
  11.5685347  49.9628912  48.9821117  11.8536857  48.8986503  47.9438633
  20.5308036  57.3808801  41.0593522  20.3953711  58.2260337  41.4878369
  21.0717849  57.5828079  40.2959455  17.0175376  43.4600381  57.7207877
  16.6242321  42.9066580  58.3955521  17.8341516  43.7710960  58.1114394
  13.9837433  54.8984239  41.6321447  14.4961954  55.6927490  41.7827011
  14.6360146  54.2010530  41.5655048  15.7932318  58.0149996  43.7144200
  15.9698947  58.9367960  43.5265184  16.5889152  57.7008415  44.1438580
  19.9343337  44.8758260  55.3128133  20.6753050  45.4765414  55.2332596
  20.1661260  44.1335898  54.7546176  15.0784675  50.0614628  53.5906363
  14.9638190  49.1599885  53.8913462  14.2229192  50.3078324  53.2391180
  22.1576512  58.0032368  55.1893864  21.7140367  57.2168747  54.8714768
  22.8193726  58.1911518  54.5237754  16.9163634  59.5328170  49.7154542
  17.4671059  59.4045233  48.9431536  16.0775110  59.8323059  49.3649435
  24.2557751  58.2835168  53.2175265  24.2376226  59.1044049  52.7255534
  25.1777671  58.1589243  53.4425406  20.7130805  55.7979297  54.0598773
  21.2459141  55.0367586  53.8298081  20.1844886  55.5052949  54.8022928
  23.8800500  40.9039363  49.5892415  23.5364769  41.7941005  49.5131526
  24.2479462  40.7141021  48.7262000  11.9486350  53.2272894  42.4081017
  12.7861572  53.6369902  42.1914725  12.1264618  52.2872336  42.3781211
  23.8450782  50.8947974  38.0964850  23.3297406  51.6652579  38.3353238
  23.5728091  50.2213111  38.7197912  21.4297893  45.7397675  43.1550089
  20.5739490  45.3504526  42.9755727  21.8424845  45.8189636  42.2949874
  22.9597040  43.2744018  47.5541648  22.4561836  43.2374154  46.7409454
  23.2527647  44.1836761  47.6138305  19.2039926  43.3582748  46.5607830
  20.0692923  43.1625557  46.2013720  19.2717435  43.1293100  47.4877187
  28.8185056  53.6480329  40.0318024  28.0414499  53.3091489  39.5873186
  29.4976537  53.6532952  39.3572989  23.6337086  48.7675067  39.9224631
  23.3287221  49.0821216  40.7734775  24.5867528  48.8456486  39.9651964
  22.0783517  54.9265290  41.5717585  21.5504879  54.1918049  41.2590823
  21.5771020  55.7039966  41.3257554  27.0576363  53.1214310  46.6884632
  26.4000038  53.8113572  46.7764760  27.8616763  53.5110742  47.0318618
  16.8102245  45.5884956  43.9324197  17.3845997  45.3660138  43.1997390
  17.3973227  45.6573651  44.6852798  25.8681822  51.4758683  44.7388573
  26.3813704  52.1088675  45.2410283  26.5183046  50.8759879  44.3731933
  17.1371832  47.6189417  37.9520082  16.3009144  47.9564104  38.2729357
  16.9976602  47.4838397  37.0147219  19.1124913  42.4626205  42.6599266
  18.4589325  42.1475222  42.0355881  19.0705387  41.8401945  43.3859089
  20.2236118  52.7445500  34.5752558  19.3163179  52.5134754  34.7743707
  20.7207150  51.9483119  34.7626540  23.1304196  61.4543007  37.4949245
  22.4565895  61.7574704  38.1034202  23.5170018  62.2572088  37.1454702
  22.3462653  48.9508139  46.9846914  21.4285214  49.1723086  46.8268602
  22.7622797  49.0254449  46.1258621  23.1297701  50.3499554  42.1149594
  23.8769520  50.8620951  41.8056716  23.3989290  50.0283607  42.9753988
  21.4024351  52.8458095  39.0976548  20.4935570  52.5617128  39.1949018
  21.4319435  53.2657174  38.2379855  26.6343618  56.4564684  42.8667716
  26.1805946  55.6155594  42.9232906  26.0037585  57.0926083  43.2042496
  25.5776538  47.3856671  44.0968383  24.8399295  46.8734057  44.4278626
  25.8303312  46.9457052  43.2851660  25.0776558  58.2941181  43.8017534
  25.3699532  58.8546238  43.0829900  25.5875178  58.5869742  44.5570693
  25.6788165  40.1632923  44.6910153  25.9847042  39.3030286  44.4036068
  26.4040770  40.7550543  44.4909147  11.9712521  50.5663609  43.0791751
  11.7736921  49.9732970  42.3542817  11.4159185  50.2615819  43.7967689
  19.9509245  50.4586716  45.1986344  20.0057855  49.5060552  45.1228820
  19.1400447  50.6146155  45.6827642  21.1000439  54.3866839  36.4364627
  20.6619869  53.6702698  35.9770264  21.8410880  54.6142953  35.8749718
  17.8901605  49.0763775  42.9576723  17.0769471  49.3757946  43.3641915
  18.3860599  48.6819464  43.6751205  20.0410183  59.0721532  44.8910987
  19.9986362  59.2982379  43.9619519  20.9572882  58.8384907  45.0396789
  23.4875817  49.5405600  51.7891617  23.8425204  49.7677073  52.6486082
  24.1347948  49.8723977  51.1668872  17.3815680  46.6482131  48.5737958
  18.0215059  46.5070890  47.8760921  16.5493210  46.3616644  48.1976560
  18.1575984  55.9484561  44.6872950  18.9516582  55.4534881  44.4855525
  17.4467676  55.4202424  44.3240656  22.9770828  58.3302657  49.0385318
  23.0307850  58.8993593  49.8063034  22.1085609  58.5004542  48.6739355
  14.4658747  50.0927643  40.7632703  13.5356335  50.0312098  40.9802665
  14.5616219  49.5703596  39.9669344  14.3844296  46.6182456  43.3510944
  14.6451113  47.5327789  43.2420105  15.2061468  46.1506898  43.5007557
  15.8569221  48.0320213  50.5209769  16.5292275  47.8237575  49.8722418
  15.0299008  47.8342299  50.0815001  21.7594793  44.6582154  52.5375430
  21.1122709  45.3572104  52.4439906  22.5295809  45.0918298  52.9051678
  25.1673591  54.9231006  55.6125983  25.0159098  54.6941558  54.6956067
  25.1578271  55.8801608  55.6257328  21.9358928  52.4962919  50.5972250
  22.8650988  52.6474078  50.4241217  21.5149958  52.5846940  49.7420896
  20.7347260  56.5213583  48.3670787  20.5958345  56.1532368  49.2396725
  19.9461856  57.0361223  48.1954745  21.3295412  61.6222680  39.7096324
  21.5047167  61.1510723  40.5241946  20.6428200  62.2488446  39.9377584
  22.2852475  55.8995186  45.7559625  21.9502307  55.8595956  46.6517275
  21.7856420  55.2339902  45.2830035  16.2596719  51.3062816  51.2812206
  16.1216517  50.5743055  51.8823745  17.1701642  51.2171716  50.9996394
  25.2211666  53.2451220  36.0296685  24.6040837  52.5198048  35.9329737
  24.7528155  54.0060581  35.6863759  18.8879019  51.0182775  50.7695886
  19.5978638  50.3775967  50.7282504  18.8448328  51.2695670  51.6922067
  26.8765798  57.9550129  53.6902465  26.8178344  57.2709349  53.0233048
  27.2785316  58.6969119  53.2383091  17.6007953  48.0047993  52.5891525
  17.0645310  47.5538732  53.2413122  17.0124662  48.1393902  51.8461990
  15.8956497  64.7712042  46.4836184  16.1353095  65.4030567  47.1615202
  15.0525693  64.4200083  46.7701543  17.0110212  47.4636645  35.1517989
  16.1339679  47.3425445  34.7880236  17.4867965  46.6722723  34.8996878
  26.8783205  55.9189713  51.9216445  25.9909984  55.5815634  52.0442844
  27.4481756  55.1872744  52.1585210   8.5312352  52.2513804  45.2459496
   9.2183392  51.9375534  44.6580511   8.3760481  53.1555169  44.9726747
  13.3347075  47.1404001  49.6744520  13.2505263  46.5329670  48.9394930
  12.5129781  47.6313019  49.6754016  20.4084359  60.5791165  48.8877688
  20.3354530  61.3846136  49.3996992  19.9661752  60.7783131  48.0625709
  20.1974138  59.8162935  42.3980509  19.4141660  60.3584615  42.4918734
  20.8966884  60.3336915  42.7974751  23.5070788  45.6257564  45.0414715
  24.0039488  44.8727527  44.7215785  22.7357770  45.6621881  44.4757924
  22.8683042  60.4777999  51.0435847  23.5811014  61.1125464  50.9711748
  22.3773071  60.5741865  50.2275848  24.5900569  54.3829252  42.6153138
  23.6556848  54.5030714  42.4457843  24.7677238  53.4801718  42.3513148
  20.0905757  47.7674947  44.7686399  19.7203545  47.2145988  45.4567305
  20.5864850  47.1633081  44.2161399  17.9194956  58.2272442  51.8641417
  18.6204415  58.8608925  52.0170812  17.4490071  58.5687174  51.1037057
  26.0449352  56.5690392  40.1489324  26.3209196  56.4546987  41.0583198
  25.1753850  56.1707877  40.1101497  25.9489783  42.5927158  47.1894074
  25.0352863  42.8231385  47.3576281  26.3782885  42.6765602  48.0408106
  25.7196242  50.7817050  49.6893968  25.0667692  51.0292957  49.0346420
  26.0976622  49.9681188  49.3556445  22.6803416  60.8176743  43.7922138
  22.8625810  59.9998399  44.2549890  23.5036402  61.0344435  43.3547028
  23.0145581  59.7444928  41.0537186  23.5433348  59.2337383  40.4407349
  23.2773801  59.4287458  41.9182719  21.7683815  51.5236861  56.1760005
  21.0924452  51.4230990  56.8462380  22.5911449  51.3676075  56.6396002
  13.5162674  57.7608797  48.7972520  14.1016111  57.0152485  48.9300424
  13.3187512  58.0712754  49.6809184  16.3701329  60.7960045  43.8134962
  15.7011704  61.2806172  43.3299002  16.2314199  61.0429265  44.7278341
   8.1080329  50.3314398  47.5176963   8.1464428  49.7977988  48.3114081
   7.6020621  49.8049603  46.8987940  20.5106598  62.8303788  50.4117621
  21.0624906  62.9935410  51.1766706  20.8512791  63.4208226  49.7397646
  15.4871091  45.1778938  51.0139505  15.5512417  46.0393769  50.6016903
  15.4238211  44.5652940  50.2811864  14.9623363  47.2502071  54.6612540
  15.5895402  46.8679148  55.2750064  14.1051282  47.0316273  55.0268232
  25.3617472  57.6565046  56.2666275  25.9057376  58.2695004  55.7721230
  24.7804317  58.2144624  56.7833288  11.7388906  49.0578500  40.5930895
  12.0342347  48.1489178  40.5397948  10.8376942  49.0366239  40.2711897
  23.6474985  60.7785764  47.3981303  23.5226124  59.9775504  46.8892248
  24.3054076  61.2731957  46.9095273  15.2683153  47.1334496  46.5758443
  14.5469739  47.7470464  46.4365916  16.0576409  47.6692261  46.4975089
  25.7109893  58.5794784  49.0260853  24.7640229  58.4600135  48.9539180
  26.0592666  57.6917282  49.1087114  18.0709467  44.4688923  52.8499095
  18.5943869  44.7151219  53.6125404  17.8521800  45.3008958  52.4302232
  13.4676748  46.7392597  40.7170220  13.1389454  45.8589976  40.5345326
  13.8216118  46.6840266  41.6046609  22.7156327  58.3747500  45.2265205
  22.5681289  57.4464208  45.4072775  23.5409820  58.3967591  44.7422280
  16.5818571  47.0265567  41.0845697  16.9214643  47.5551489  40.3624306
  17.0290691  47.3645973  41.8604264  26.3190448  59.1976059  46.3130078
  27.2436996  58.9918920  46.1754529  26.1505752  58.9492460  47.2219419
  19.2762012  45.4102618  50.5348765  18.9358832  44.6110431  50.9369445
  18.5701018  45.7104329  49.9625599  19.9278484  42.4951930  48.9876088
  20.7504553  42.0212409  48.8654979  20.1716547  43.2742414  49.4874775
  18.5686718  45.5240189  39.2838990  19.2895081  45.9021442  38.7802707
  17.9452022  46.2429066  39.3873968  22.7117841  46.2285338  40.2197322
  22.9281455  47.1109976  39.9186151  22.2311908  45.8371551  39.4902964
  17.4517062  49.1871051  46.7968067  17.3061643  49.5011354  47.6892349
  16.9742266  49.8055951  46.2438966  19.3113445  46.1773599  46.8448957
  19.2975014  45.2814692  46.5081255  20.0285873  46.1844263  47.4787243
  21.1639576  46.6110939  48.8902084  20.9057354  47.5328010  48.8886414
  20.6324616  46.2141374  49.5802548  26.1085765  59.7161726  41.6692169
  26.2822642  59.1508149  40.9166022  26.6014656  60.5162621  41.4871659
  11.9262724  51.7276395  49.7355728  11.3816193  52.5036203  49.8676003
  12.8042074  52.0747200  49.5774850  18.7150341  45.0587979  42.1136527
  18.8366252  44.1304626  42.3127414  18.4252384  45.0726665  41.2014842
  21.5841532  42.7442890  45.2503247  21.6063228  42.8082223  44.2955226
  22.0009591  41.9047398  45.4443753  27.0960937  59.0328491  38.7689068
  27.7911842  59.6535183  38.9876382  27.4384087  58.1823842  39.0441446
  12.7128746  50.8546292  52.6285885  11.9710482  51.0028927  53.2150516
  12.3921491  51.1154557  51.7652635  28.9952360  56.4828196  40.2976398
  29.5203684  56.8215469  39.5725719  28.9074713  55.5475212  40.1139533
  20.6572409  60.3962270  52.4266275  20.9659535  60.1511417  53.2988975
  21.4547891  60.6008908  51.9385145  20.6793021  62.5500180  44.6571652
  20.2398011  62.0576558  45.3504508  21.4301138  62.0073147  44.4163727
  13.1585360  58.7411720  44.6596280  13.9843380  58.4415492  44.2794923
  12.8079412  57.9719343  45.1086068  18.1266893  58.0938189  46.7293953
  17.5046902  57.4308894  46.4296181  18.7971760  58.1199321  46.0467601
  11.3593965  56.6598047  45.6185213  10.5225873  56.2320221  45.4369215
  11.3317610  56.8530490  46.5556005  18.1991421  46.5719977  56.3226459
  18.2479576  47.4482100  55.9404229  18.7413935  46.0297370  55.7498103
  17.6880400  56.6442112  40.2052414  17.8368520  57.3277576  39.5519087
  18.4946844  56.6247202  40.7201870  26.0947904  49.9484494  54.2319632
  26.9957767  49.8090959  53.9403629  26.1695878  50.1138949  55.1717809
  20.4290709  47.3251349  53.0772818  19.5594019  47.6184915  52.8055407
  20.6650189  47.9091794  53.7980082  30.3062338  56.3850508  53.1602347
  30.0147147  56.7480488  53.9965807  29.6934470  55.6717516  52.9815679
  28.5549526  51.5083122  51.6282405  29.0303648  51.7010769  50.8201256
  27.6315092  51.5642308  51.3825788  15.4433033  52.6707290  41.2113483
  15.1979075  51.7669620  41.4093693  15.6128948  52.6724440  40.2692961
  23.1329743  43.5430966  50.5938238  23.6511687  44.2791993  50.2684727
  22.7784876  43.8494959  51.4284998  14.7128681  48.4035647  38.7099644
  14.0197926  48.4780002  38.0539680  14.4680433  47.6395991  39.2321161
  23.3842337  39.9631249  46.1139135  23.6644091  39.2954438  46.7399562
  24.1692944  40.1560344  45.6013799  21.1875806  59.1390242  37.6764161
  20.6149773  59.7580430  37.2234633  21.7608599  59.6889604  38.2104083
  27.2551195  48.3848883  49.8610710  28.2068618  48.4846980  49.8822934
  27.0854646  47.5927151  50.3708794  25.2765575  45.4704466  50.0470111
  24.6815507  45.7509479  49.3516600  24.9915272  45.9598367  50.8186852
  24.4073065  59.4227393  38.8072744  25.3403739  59.3572954  39.0105619
  24.3196278  60.2583659  38.3487276  27.0361082  58.7393263  35.7676691
  26.9574714  58.4053127  36.6612449  27.8570749  59.2315031  35.7668164
  21.5722604  50.4751055  35.0180214  22.5181709  50.3457263  35.0868632
  21.1936849  49.7365717  35.4949642  27.5444489  42.1407061  44.9807106
  27.3469310  41.8322149  45.8650438  28.1544194  42.8668700  45.1105035
  21.4561297  54.5268801  56.4780871  22.3764306  54.7047400  56.6720917
  21.4210880  53.5824847  56.3260570  19.7565521  48.4001032  34.9535099
  18.8496977  48.1034144  35.0297813  20.0341502  48.1030850  34.0869385
  10.6743462  49.7207395  45.4034145  10.3546246  48.8672703  45.1108519
  10.1276890  49.9355973  46.1592113  14.4523369  52.4369836  49.1203652
  14.6709379  53.3686944  49.1391686  14.8649143  52.0777810  49.9058456
  21.3727587  42.9437921  41.1079340  20.5628315  42.5985006  41.4834586
  22.0612004  42.6345465  41.6966952  23.3018135  42.0215968  42.7303637
  23.8549174  42.4411422  43.3893660  23.5388222  41.0951716  42.7726593
  19.3251235  48.0103042  58.5106401  19.2247961  48.9597399  58.4418492
  19.1072777  47.6821281  57.6382471  18.5264306  45.2587967  35.0947078
  19.3883470  45.5842865  35.3542896  18.7114650  44.4719463  34.5820144
  10.5431722  53.3410307  47.3727267   9.8495193  52.9264259  46.8597221
  11.2904713  53.3830843  46.7760686  26.6796942  44.1316493  42.2382301
  26.0995611  44.7901297  41.8560354  26.4132875  43.3093838  41.8269719
  25.1300509  43.5321551  44.4403622  25.6300287  43.6438086  43.6317940
  25.7736117  43.2282604  45.0804430  19.1882505  51.4400181  57.3271463
  18.7049586  52.2400541  57.5335352  19.2743444  51.4508125  56.3738907
  12.4568464  53.2728560  45.2493282  12.4339152  53.3716248  44.2975165
  12.7669101  54.1193711  45.5710448  15.1155842  55.3304715  49.3639896
  16.0699096  55.2988658  49.2969828  14.9168366  54.8695339  50.1790122
  15.7055224  53.9005831  51.9310694  16.5248113  54.3949910  51.9545531
  15.9792032  52.9837800  51.9028261  25.4621820  46.2916584  41.2938650
  24.5747675  46.5766234  41.0758844  25.8775809  46.1310347  40.4465926
  13.4706071  60.8724335  46.3810094  13.3360539  60.1124736  45.8148092
  13.0538133  61.5965235  45.9138883  24.6065034  56.0561258  35.3886669
  25.3100884  56.2611261  36.0044325  23.8827683  56.6238020  35.6535753
  25.4362844  51.8071120  41.5088940  25.3798046  52.2639671  40.6696572
  25.9891187  51.0461804  41.3311782  16.6275197  61.7693652  46.5928537
  16.5107581  62.7139084  46.4907227  15.8067643  61.4667213  46.9814336
  26.5151731  56.4943788  37.4385130  27.3497335  56.0624986  37.2562604
  26.3536074  56.3225801  38.3662024  26.1697623  52.9975901  38.8041469
  26.1146427  52.8320172  37.8629913  25.5443679  53.7051934  38.9603659
  10.9590138  48.2343965  52.6302891  11.6049002  47.7242919  53.1190116
  10.7507290  48.9712647  53.2046316  23.4843531  55.3024813  58.1295032
  24.3534690  55.4765465  57.7681667  23.0050282  56.1219230  58.0070761
  19.4793749  42.4984010  38.3826787  19.4672419  43.4425850  38.5395058
  20.3717171  42.3154155  38.0886248  17.6529711  62.4221914  49.8084465
  18.5556958  62.4545524  50.1250960  17.4267081  61.4922365  49.8230801
  19.4083313  61.1752900  46.4694544  18.4578944  61.1754762  46.3558916
  19.7115799  60.4285635  45.9530579  23.2945868  39.0926787  42.6372724
  22.5278264  38.5385273  42.7829406  23.7056573  39.1648655  43.4986876
  15.2987629  45.3811582  56.7277905  16.1619091  45.0248387  56.9381230
  14.7253040  45.0425477  57.4153310  27.8112528  68.8176343  43.4598722
  27.2477393  68.7266280  42.6915010  27.6964923  67.9976248  43.9401214
  25.3576960  70.3127535  46.2982942  26.1498252  69.9718359  45.8829242
  25.5973610  70.4222510  47.2185096  29.6533992  65.7329114  36.8018771
  29.9059513  65.2110635  36.0402234  28.7158551  65.5695260  36.9045455
  31.3567309  62.1257267  37.7051184  31.5241711  62.9937503  38.0721655
  31.1664478  62.2884549  36.7812473  31.3356530  64.5814924  38.6897851
  31.2156155  65.0271975  39.5283331  30.6409118  64.9300242  38.1311389
  24.9263934  66.6821316  46.2397508  25.0556316  66.9355795  47.1536919
  24.2461386  67.2749024  45.9202163  30.1308026  65.8959777  40.9831416
  30.8332069  66.3480820  41.4505343  29.7988654  65.2543595  41.6111309
  23.8733360  64.1543329  46.2848550  23.0832414  64.4100858  45.8088661
  24.3644607  64.9691667  46.3900590  25.8248105  64.5187908  43.2432027
  25.0279269  64.6306603  43.7615522  25.5973697  64.8574561  42.3772917
  22.1571063  64.4073820  48.7163541  22.4079101  65.2920830  48.9821117
  22.6930611  64.2278421  47.9438633  27.8569130  58.7892299  57.7207877
  27.4636076  58.2358498  58.3955521  28.6735271  59.1002877  58.1114394
  24.8231188  70.2276157  41.6321447  25.3355709  71.0219407  41.7827011
  25.4753901  69.5302448  41.5655048  26.6326073  73.3441913  43.7144200
  26.8092701  74.2659878  43.5265184  27.4282906  73.0300333  44.1438580
  25.9178429  65.3906545  53.5906363  25.8031944  64.4891803  53.8913462
  25.0622947  65.6370242  53.2391180  27.7557388  74.8620087  49.7154542
  28.3064813  74.7337151  48.9431536  26.9168864  75.1614976  49.3649435
  22.7880105  68.5564811  42.4081017  23.6255327  68.9661820  42.1914725
  22.9658372  67.6164254  42.3781211  27.6495999  60.9176874  43.9324197
  28.2239751  60.6952055  43.1997390  28.2366982  60.9865568  44.6852798
  27.9765587  62.9481335  37.9520082  27.1402899  63.2856021  38.2729357
  27.8370356  62.8130315  37.0147219  22.8106276  65.8955527  43.0791751
  22.6130676  65.3024887  42.3542817  22.2552940  65.5907737  43.7967689
  28.7295359  64.4055693  42.9576723  27.9163225  64.7049864  43.3641915
  29.2254354  64.0111382  43.6751205  28.2209434  61.9774049  48.5737958
  28.8608814  61.8362808  47.8760921  27.3886965  61.6908562  48.1976560
  25.3052502  65.4219561  40.7632703  24.3750090  65.3604016  40.9802665
  25.4009974  64.8995513  39.9669344  25.2238051  61.9474374  43.3510944
  25.4844868  62.8619707  43.2420105  26.0455223  61.4798816  43.5007557
  26.6962976  63.3612131  50.5209769  27.3686029  63.1529493  49.8722418
  25.8692762  63.1634217  50.0815001  27.0990473  66.6354734  51.2812206
  26.9610271  65.9034972  51.8823745  28.0095397  66.5463634  50.9996394
  28.4401708  63.3339911  52.5891525  27.9039065  62.8830649  53.2413122
  27.8518416  63.4685820  51.8461990  26.7350251  80.1003960  46.4836184
  26.9746850  80.7322484  47.1615202  25.8919448  79.7492000  46.7701543
  27.8503967  62.7928562  35.1517989  26.9733433  62.6717363  34.7880236
  28.3261720  62.0014641  34.8996878  19.3706107  67.5805722  45.2459496
  20.0577147  67.2667452  44.6580511  19.2154236  68.4847087  44.9726747
  24.1740829  62.4695919  49.6744520  24.0899018  61.8621588  48.9394930
  23.3523536  62.9604937  49.6754016  24.3556428  73.0900715  48.7972520
  24.9409865  72.3444403  48.9300424  24.1581267  73.4004672  49.6809184
  18.9474083  65.6606315  47.5176963  18.9858183  65.1269906  48.3114081
  18.4414376  65.1341521  46.8987940  26.3264845  60.5070856  51.0139505
  26.3906172  61.3685687  50.6016903  26.2631966  59.8944858  50.2811864
  25.8017118  62.5793988  54.6612540  26.4289157  62.1971066  55.2750064
  24.9445037  62.3608190  55.0268232  22.5782661  64.3870418  40.5930895
  22.8736102  63.4781096  40.5397948  21.6770696  64.3658157  40.2711897
  26.1076908  62.4626414  46.5758443  25.3863493  63.0762382  46.4365916
  26.8970163  62.9984179  46.4975089  28.9103221  59.7980841  52.8499095
  29.4337623  60.0443137  53.6125404  28.6915554  60.6300875  52.4302232
  24.3070502  62.0684515  40.7170220  23.9783208  61.1881894  40.5345326
  24.6609873  62.0132184  41.6046609  27.4212325  62.3557485  41.0845697
  27.7608398  62.8843406  40.3624306  27.8684446  62.6937891  41.8604264
  29.4080473  60.8532107  39.2838990  30.1288835  61.2313359  38.7802707
  28.7845777  61.5720983  39.3873968  30.1507200  61.5065517  46.8448957
  30.1368768  60.6106610  46.5081255  30.8679628  61.5136180  47.4787243
  22.7656479  67.0568313  49.7355728  22.2209947  67.8328121  49.8676003
  23.6435829  67.4039118  49.5774850  23.5522501  66.1838209  52.6285885
  22.8104237  66.3320845  53.2150516  23.2315245  66.4446475  51.7652635
  23.9979115  74.0703638  44.6596280  24.8237134  73.7707410  44.2794923
  23.6473166  73.3011261  45.1086068  22.1987720  71.9889965  45.6185213
  21.3619628  71.5612139  45.4369215  22.1711365  72.1822408  46.5556005
  29.0385175  61.9011894  56.3226459  29.0873331  62.7774017  55.9404229
  29.5807689  61.3589287  55.7498103  26.2826788  67.9999207  41.2113483
  26.0372830  67.0961537  41.4093693  26.4522702  68.0016358  40.2692961
  25.5522435  63.7327565  38.7099644  24.8591680  63.8071920  38.0539680
  25.3074187  62.9687909  39.2321161  32.4116359  65.8042973  35.0180214
  33.3575463  65.6749181  35.0868632  32.0330604  65.0657635  35.4949642
  30.5959276  63.7292949  34.9535099  29.6890731  63.4326062  35.0297813
  30.8735257  63.4322767  34.0869385  21.5137216  65.0499313  45.4034145
  21.1940000  64.1964621  45.1108519  20.9670644  65.2647891  46.1592113
  25.2917124  67.7661754  49.1203652  25.5103133  68.6978862  49.1391686
  25.7042898  67.4069728  49.9058456  29.3658060  60.5879885  35.0947078
  30.2277224  60.9134783  35.3542896  29.5508405  59.8011380  34.5820144
  21.3825476  68.6702224  47.3727267  20.6888948  68.2556177  46.8597221
  22.1298467  68.7122761  46.7760686  23.2962219  68.6020478  45.2493282
  23.2732907  68.7008165  44.2975165  23.6062855  69.4485629  45.5710448
  25.9549597  70.6596633  49.3639896  26.9092850  70.6280575  49.2969828
  25.7562120  70.1987257  50.1790122  26.5448979  69.2297749  51.9310694
  27.3641868  69.7241828  51.9545531  26.8185786  68.3129717  51.9028261
  24.3099825  76.2016253  46.3810094  24.1754293  75.4416653  45.8148092
  23.8931888  76.9257152  45.9138883  27.4668951  77.0985570  46.5928537
  27.3501335  78.0431002  46.4907227  26.6461397  76.7959131  46.9814336
  21.7983893  63.5635883  52.6302891  22.4442757  63.0534837  53.1190116
  21.5901044  64.3004565  53.2046316  28.4923465  77.7513831  49.8084465
  29.3950712  77.7837442  50.1250960  28.2660835  76.8214282  49.8230801
  26.1381384  60.7103500  56.7277905  27.0012845  60.3540305  56.9381230
  25.5646795  60.3717395  57.4153310  39.9946511  86.2304748  52.3767220
  39.7036377  87.1350379  52.2613887  40.6303496  86.2721276  53.0911290
  38.5951143  90.1912005  49.7154542  39.1458568  90.0629068  48.9431536
  37.7562619  90.4906894  49.3649435  37.5744006  95.4295878  46.4836184
  37.8140604  96.0614402  47.1615202  36.7313202  95.0783918  46.7701543
  30.2099861  82.9097640  45.2459496  30.8970901  82.5959370  44.6580511
  30.0547990  83.8139004  44.9726747  42.0871868  91.2375000  48.8877688
  42.0142039  92.0429972  49.3996992  41.6449261  91.4366966  48.0625709
  39.5982465  88.8856278  51.8641417  40.2991924  89.5192761  52.0170812
  39.1277580  89.2271009  51.1037057  35.1950183  88.4192633  48.7972520
  35.7803620  87.6736321  48.9300424  34.9975021  88.7296590  49.6809184
  29.7867838  80.9898233  47.5176963  29.8251937  80.4561824  48.3114081
  29.2808130  80.4633439  46.8987940  42.3359918  91.0546105  52.4266275
  42.6447044  90.8095252  53.2988975  43.1335400  91.2592744  51.9385145
  51.9849847  87.0434343  53.1602347  51.6934656  87.4064324  53.9965807
  51.3721978  86.3301351  52.9815679  36.7943351  85.9888551  49.3639896
  37.7486605  85.9572493  49.2969828  36.5955875  85.5279174  50.1790122
  37.3842733  84.5589667  51.9310694  38.2035622  85.0533745  51.9545531
  37.6579541  83.6421635  51.9028261  35.1493580  91.5308170  46.3810094
  35.0148048  90.7708571  45.8148092  34.7325642  92.2549070  45.9138883
  39.3317220  93.0805749  49.8084465  40.2344467  93.1129359  50.1250960
  39.1054590  92.1506200  49.8230801  54.1133005  98.7759554  53.4288036
  54.1021645  98.3812352  52.5568540  54.2753644  98.0425626  54.0221808
  55.0699596 103.1431146  38.7713187  54.4187576 103.7285227  38.3847201
  55.8643959 103.6737341  38.8308224  48.9955223 100.2320283  39.1700321
  49.7686099  99.6849270  39.0313197  49.3480622 101.0964533  39.3814783
  50.8340266 101.5596666  52.3767220  50.5430132 102.4642297  52.2613887
  51.4697250 101.6013193  53.0911290  51.3321501  96.3912950  36.8018771
  51.5847022  95.8694471  36.0402234  50.3946060  96.2279095  36.9045455
  56.5474861 100.8321578  39.3082171  55.9120694 100.9056205  40.0203076
  56.2172268 101.4215177  38.6301250  61.7773211  95.3323961  45.5126493
  62.5098383  94.7623178  45.7464322  61.0212567  94.9445562  45.9532998
  51.0517790  98.2941055  39.0043146  50.9354048  97.6185959  39.6724230
  51.1620050  97.8073429  38.1875299  59.2998631  89.0445535  49.9721101
  58.9681956  89.9140946  49.7482316  58.7044245  88.7281819  50.6515132
  53.0354818  92.7841102  37.7051184  53.2029220  93.6521339  38.0721655
  52.8451987  92.9468384  36.7812473  55.7930151 101.2458081  49.3717014
  55.4930874 102.1483120  49.2632821  55.4481210 100.9790264  50.2238167
  59.1927295  93.7640621  47.0514451  58.2844172  93.6956030  46.7573212
  59.1414890  94.2412566  47.8796277  50.7750931 108.0102402  42.3387982
  50.6974960 108.9610227  42.4176462  50.1712574 107.6648274  42.9962908
  53.2668160  95.1830267  54.9949349  52.4901494  95.7424187  54.9852213
  53.9058723  95.6687050  55.5164219  61.0588941  91.9657060  48.8292325
  60.4163321  92.2589593  48.1832120  60.5543870  91.8509980  49.6345522
  58.7129105  95.7120233  39.5178185  59.6246961  95.9447620  39.3425882
  58.2038752  96.2957277  38.9553263  51.5214533  97.9915720  54.5567316
  52.2629217  98.5300764  54.2802139  50.8151518  98.6182009  54.7138868
  56.9969872 100.1344861  53.1539477  57.4053228  99.6927271  52.4094110
  56.2747134  99.5597488  53.4073670  57.3198687 100.6946051  46.9091766
  56.6907549 100.8591766  46.2067834  56.9324349 101.1087661  47.6802730
  61.1987919 101.6300489  44.2636130  60.5138957 102.0099391  43.7133163
  61.2831768 102.2395816  44.9968078  56.5000388  92.7321836  52.1854208
  56.2561320  93.4863896  51.6488484  56.7760318  93.1107184  53.0201455
  58.4538850  99.2760448  50.8631473  58.6655746  99.9192208  50.1865855
  58.4068599  98.4422765  50.3953403  56.0565079  91.8878269  47.7668046
  55.1949558  92.1859522  48.0584783  56.0827514  92.1048668  46.8349078
  52.8726649 100.4320459  44.1741851  53.3364994 100.7108162  43.3846474
  52.6083447  99.5303904  43.9914942  50.2575896  95.1455368  55.3582626
  49.6274557  95.8271649  55.5918023  50.1511984  95.0338450  54.4135764
  59.5684678 102.1532404  49.0353831  60.3902122 101.7512591  48.7536512
  59.5647081 102.0500638  49.9869947  53.3341282 101.7016447  51.1914541
  53.3985714 102.1636854  52.0272713  52.6252206 101.0713812  51.3196851
  67.6590671  98.4971152  45.3838802  66.9054380  97.9278550  45.2282807
  67.7938213  98.4633817  46.3309437  53.0489300 103.3684554  41.0593522
  52.9134974 104.2136090  41.4878369  53.5899112 103.5703832  40.2959455
  46.5018697 100.8859993  41.6321447  47.0143218 101.6803243  41.7827011
  47.1541410 100.1886283  41.5655048  48.3113582 104.0025749  43.7144200
  48.4880210 104.9243713  43.5265184  49.1070415 103.6884168  44.1438580
  52.4524600  90.8634013  55.3128133  53.1934314  91.4641167  55.2332596
  52.6842523  90.1211651  54.7546176  54.6757776 103.9908121  55.1893864
  54.2321630 103.2044500  54.8714768  55.3374990 104.1787271  54.5237754
  49.4344897 105.5203923  49.7154542  49.9852322 105.3920986  48.9431536
  48.5956373 105.8198812  49.3649435  56.7739014 104.2710921  53.2175265
  56.7557489 105.0919802  52.7255534  57.6958934 104.1464996  53.4425406
  53.2312068 101.7855050  54.0598773  53.7640405 101.0243339  53.8298081
  52.7026149 101.4928702  54.8022928  56.3632046  96.8823727  38.0964850
  55.8478669  97.6528332  38.3353238  56.0909354  96.2088864  38.7197912
  61.3366320  99.6356082  40.0318024  60.5595763  99.2967242  39.5873186
  62.0157801  99.6408705  39.3572989  56.1518349  94.7550820  39.9224631
  55.8468485  95.0696969  40.7734775  57.1048791  94.8332239  39.9651964
  54.5964781 100.9141043  41.5717585  54.0686142 100.1793802  41.2590823
  54.0952284 101.6915719  41.3257554  59.5757627  99.1090063  46.6884632
  58.9181301  99.7989325  46.7764760  60.3798026  99.4986495  47.0318618
  58.3863086  97.4634436  44.7388573  58.8994967  98.0964428  45.2410283
  59.0364310  96.8635632  44.3731933  52.7417381  98.7321253  34.5752558
  51.8344443  98.5010507  34.7743707  53.2388413  97.9358872  34.7626540
  55.6485460 107.4418760  37.4949245  54.9747159 107.7450457  38.1034202
  56.0351282 108.2447841  37.1454702  53.9205614  98.8333848  39.0976548
  53.0116834  98.5492881  39.1949018  53.9500698  99.2532927  38.2379855
  59.1524882 102.4440438  42.8667716  58.6987209 101.6031347  42.9232906
  58.5218849 103.0801836  43.2042496  58.0957801  93.3732424  44.0968383
  57.3580558  92.8609810  44.4278626  58.3484575  92.9332805  43.2851660
  57.5957821 104.2816934  43.8017534  57.8880796 104.8421991  43.0829900
  58.1056442 104.5745495  44.5570693  53.6181702 100.3742592  36.4364627
  53.1801132  99.6578451  35.9770264  54.3592143 100.6018706  35.8749718
  52.5591446 105.0597285  44.8910987  52.5167625 105.2858132  43.9619519
  53.4754145 104.8260660  45.0396789  56.0057080  95.5281353  51.7891617
  56.3606468  95.7552826  52.6486082  56.6529211  95.8599730  51.1668872
  61.7354817  98.6499789  42.4940946  61.5972716  98.8401385  41.5662135
  61.3791036  99.4119172  42.9508997  61.7624197 100.7176316  47.5052217
  62.1960703 100.6251605  48.3535271  62.4755777 100.6933816  46.8672233
  50.6757247 101.9360314  44.6872950  51.4697846 101.4410634  44.4855525
  49.9648939 101.4078177  44.3240656  55.4952092 104.3178410  49.0385318
  55.5489114 104.8869346  49.8063034  54.6266873 104.4880295  48.6739355
  62.6239746 100.7600016  50.0385103  62.8175636 101.6645827  50.2844377
  62.5240364 100.3007435  50.8723688  54.2776057  90.6457907  52.5375430
  53.6303972  91.3447857  52.4439906  55.0477072  91.0794051  52.9051678
  57.6854855 100.9106759  55.6125983  57.5340361 100.6817311  54.6956067
  57.6759534 101.8677361  55.6257328  54.4540191  98.4838672  50.5972250
  55.3832251  98.6349831  50.4241217  54.0331221  98.5722693  49.7420896
  53.2528523 102.5089336  48.3670787  53.1139609 102.1408121  49.2396725
  52.4643119 103.0236976  48.1954745  53.8476675 107.6098433  39.7096324
  54.0228431 107.1386476  40.5241946  53.1609463 108.2364199  39.9377584
  54.8033738 101.8870939  45.7559625  54.4683571 101.8471709  46.6517275
  54.3037684 101.2215655  45.2830035  57.7392930  99.2326973  36.0296685
  57.1222101  98.5073801  35.9329737  57.2709418  99.9936334  35.6863759
  59.3947062 103.9425882  53.6902465  59.3359608 103.2585102  53.0233048
  59.7966580 104.6844872  53.2383091  48.4137760 110.7587796  46.4836184
  48.6534359 111.3906320  47.1615202  47.5706957 110.4075836  46.7701543
  59.3964469 101.9065466  51.9216445  58.5091248 101.5691387  52.0442844
  59.9663020 101.1748497  52.1585210  41.0493616  98.2389557  45.2459496
  41.7364656  97.9251287  44.6580511  40.8941745  99.1430922  44.9726747
  52.9265622 106.5666918  48.8877688  52.8535794 107.3721889  49.3996992
  52.4843015 106.7658884  48.0625709  52.7155402 105.8038688  42.3980509
  51.9322924 106.3460368  42.4918734  53.4148147 106.3212668  42.7974751
  56.0252052  91.6133317  45.0414715  56.5220751  90.8603280  44.7215785
  55.2539033  91.6497634  44.4757924  63.8781809  97.3173683  46.6833006
  63.8671686  98.1998398  46.3126939  63.0099189  96.9645234  46.4887543
  55.3864306 106.4653752  51.0435847  56.0992278 107.1001217  50.9711748
  54.8954334 106.5617618  50.2275848  57.1081833 100.3705005  42.6153138
  56.1738111 100.4906467  42.4457843  57.2858501  99.4677471  42.3513148
  60.4954384  96.2122324  43.1503172  60.9614836  97.0450316  43.0763475
  60.9461884  95.7467306  43.8548431  50.4376219 104.2148195  51.8641417
  51.1385679 104.8484678  52.0170812  49.9671334 104.5562927  51.1037057
  58.5630615 102.5566145  40.1489324  58.8390459 102.4422740  41.0583198
  57.6935114 102.1583630  40.1101497  58.4671047  88.5802911  47.1894074
  57.5534127  88.8107138  47.3576281  58.8964148  88.6641355  48.0408106
  58.2377505  96.7692803  49.6893968  57.5848955  97.0168710  49.0346420
  58.6157885  95.9556941  49.3556445  55.1984679 106.8052496  43.7922138
  55.3807074 105.9874152  44.2549890  56.0217665 107.0220188  43.3547028
  55.5326845 105.7320681  41.0537186  56.0614611 105.2213136  40.4407349
  55.7955064 105.4163211  41.9182719  54.2865078  97.5112614  56.1760005
  53.6105715  97.4106743  56.8462380  55.1092712  97.3551828  56.6396002
  46.0343937 103.7484550  48.7972520  46.6197374 103.0028238  48.9300424
  45.8368776 104.0588507  49.6809184  48.8882593 106.7835798  43.8134962
  48.2192968 107.2681926  43.3299002  48.7495462 107.0305018  44.7278341
  40.6261592  96.3190151  47.5176963  40.6645692  95.7853741  48.3114081
  40.1201885  95.7925356  46.8987940  53.0287861 108.8179541  50.4117621
  53.5806169 108.9811163  51.1766706  53.3694055 109.4083979  49.7397646
  47.4804627  93.2377824  54.6612540  48.1076666  92.8554901  55.2750064
  46.6232546  93.0192026  55.0268232  57.8798735 103.6440799  56.2666275
  58.4238639 104.2570757  55.7721230  57.2985580 104.2020377  56.7833288
  56.1656248 106.7661517  47.3981303  56.0407388 105.9651257  46.8892248
  56.8235340 107.2607710  46.9095273  58.2291157 104.5670537  49.0260853
  57.2821492 104.4475888  48.9539180  58.5773930 103.6793035  49.1087114
  55.2337590 104.3623253  45.2265205  55.0862553 103.4339961  45.4072775
  56.0591084 104.3843344  44.7422280  58.8371712 105.1851812  46.3130078
  59.7618259 104.9794673  46.1754529  58.6687015 104.9368213  47.2219419
  55.2299104  92.2161091  40.2197322  55.4462719  93.0985729  39.9186151
  54.7493172  91.8247304  39.4902964  58.6267028 105.7037479  41.6692169
  58.8003906 105.1383902  40.9166022  59.1195919 106.5038374  41.4871659
  64.4806419  98.4673902  43.2882469  64.9237565  97.7181228  42.8901592
  63.6032930  98.4584039  42.9056201  59.6142201 105.0204244  38.7689068
  60.3093105 105.6410937  38.9876382  59.9565351 104.1699595  39.0441446
  61.5133624 102.4703949  40.2976398  62.0384948 102.8091222  39.5725719
  61.4255976 101.5350965  40.1139533  53.1753672 106.3838023  52.4266275
  53.4840799 106.1387170  53.2988975  53.9729154 106.5884661  51.9385145
  53.1974285 108.5375933  44.6571652  52.7579275 108.0452311  45.3504508
  53.9482401 107.9948900  44.4163727  45.6766623 104.7287473  44.6596280
  46.5024643 104.4291245  44.2794923  45.3260675 103.9595096  45.1086068
  50.6448157 104.0813942  46.7293953  50.0228166 103.4184647  46.4296181
  51.3153024 104.1075074  46.0467601  43.8775229 102.6473800  45.6185213
  43.0407137 102.2195974  45.4369215  43.8498874 102.8406243  46.5556005
  50.7172684  92.5595730  56.3226459  50.7660840  93.4357853  55.9404229
  51.2595198  92.0173123  55.7498103  61.2027530 103.1036853  55.6027596
  60.4123074 103.0860992  55.0632096  60.9660884 103.6425147  56.3576633
  61.3225405  99.9529319  52.9160325  61.3723410  99.7879327  53.8575848
  61.2139328  99.0856578  52.5258206  50.2061664 102.6317865  40.2052414
  50.3549784 103.3153329  39.5519087  51.0128107 102.6122955  40.7201870
  58.6129167  95.9360247  54.2319632  59.5139030  95.7966712  53.9403629
  58.6877142  96.1014702  55.1717809  52.9471973  93.3127102  53.0772818
  52.0775282  93.6060668  52.8055407  53.1831453  93.8967547  53.7980082
  62.8243602 102.3726261  53.1602347  62.5328410 102.7356241  53.9965807
  62.2115733 101.6593269  52.9815679  64.0239284  99.9379141  45.6804917
  64.8586175 100.3768945  45.8442477  64.1598413  99.4617794  44.8613163
  61.0730790  97.4958876  51.6282405  61.5484912  97.6886522  50.8201256
  60.1496355  97.5518061  51.3825788  55.6511006  89.5306719  50.5938238
  56.1692950  90.2667746  50.2684727  55.2966139  89.8370712  51.4284998
  53.7057069 105.1265995  37.6764161  53.1331036 105.7456183  37.2234633
  54.2789863 105.6765357  38.2104083  59.7732459  94.3724636  49.8610710
  60.7249882  94.4722733  49.8822934  59.6035909  93.5802904  50.3708794
  57.7946838  91.4580219  50.0470111  57.1996771  91.7385232  49.3516600
  57.5096535  91.9474120  50.8186852  56.9254329 105.4103146  38.8072744
  57.8585002 105.3448707  39.0105619  56.8377542 106.2459412  38.3487276
  59.5542346 104.7269016  35.7676691  59.4755977 104.3928880  36.6612449
  60.3752012 105.2190784  35.7668164  62.2520537  97.5930755  48.9753010
  62.2196857  96.6546756  49.1612694  62.8621160  97.6714792  48.2418835
  54.0903868  96.4626808  35.0180214  55.0362972  96.3333016  35.0868632
  53.7118113  95.7241470  35.4949642  62.4015025  94.3841799  49.0211293
  61.8854074  93.6000255  48.8341222  63.2854974  94.0560515  49.1857812
  60.0625752  88.1282814  44.9807106  59.8650573  87.8197902  45.8650438
  60.6725458  88.8544453  45.1105035  68.0697087  98.6546762  48.1159047
  68.8000475  98.3932050  48.6766750  67.4604032  97.9175484  48.1561115
  66.1512384  96.7954625  48.7133498  65.4245547  96.6610590  48.1049989
  65.7359671  97.1031453  49.5190216  53.9742560 100.5144554  56.4780871
  54.8945570 100.6923153  56.6720917  53.9392143  99.5700600  56.3260570
  52.2746785  94.3876785  34.9535099  51.3678240  94.0909897  35.0297813
  52.5522766  94.0906603  34.0869385  51.8432498  93.9978795  58.5106401
  51.7429225  94.9473152  58.4418492  51.6254040  93.6697034  57.6382471
  59.1978206  90.1192246  42.2382301  58.6176875  90.7777050  41.8560354
  58.9314139  89.2969591  41.8269719  57.6481772  89.5197304  44.4403622
  58.1481551  89.6313839  43.6317940  58.2917380  89.2158357  45.0804430
  51.7063768  97.4275934  57.3271463  51.2230850  98.2276294  57.5335352
  51.7924707  97.4383879  56.3738907  57.9803084  92.2792337  41.2938650
  57.0928939  92.5641987  41.0758844  58.3957073  92.1186100  40.4465926
  61.3317620  92.3038858  45.0092989  62.1078010  92.7935310  45.2817606
  60.6065754  92.7296912  45.4664858  63.7690179  93.0166477  46.0666929
  64.3634669  92.7762213  45.3560238  63.8416762  92.2973607  46.6940466
  45.9887334 106.8600088  46.3810094  45.8541802 106.1000489  45.8148092
  45.5719397 107.5840988  45.9138883  57.1246297 102.0437011  35.3886669
  57.8282147 102.2487014  36.0044325  56.4008946 102.6113773  35.6535753
  57.9544108  97.7946873  41.5088940  57.8979309  98.2515424  40.6696572
  58.5072450  97.0337557  41.3311782  61.7648914  93.5836605  42.3339059
  61.5085848  93.1833240  43.1647267  61.1401782  94.2980398  42.2089198
  66.0761251  96.3232678  44.8410351  65.5160809  96.3925867  45.6141913
  65.4704755  96.1473662  44.1209847  49.1456460 107.7569405  46.5928537
  49.0288844 108.7014837  46.4907227  48.3248906 107.4542966  46.9814336
  59.0332995 102.4819541  37.4385130  59.8678599 102.0500739  37.2562604
  58.8717338 102.3101554  38.3662024  58.6878887  98.9851654  38.8041469
  58.6327691  98.8195925  37.8629913  58.0624942  99.6927687  38.9603659
  56.0024794 101.2900566  58.1295032  56.8715954 101.4641218  57.7681667
  55.5231546 102.1094983  58.0070761  50.1710974 108.4097667  49.8084465
  51.0738221 108.4421277  50.1250960  49.9448344 107.4798118  49.8230801
  51.9264576 107.1628653  46.4694544  50.9760207 107.1630515  46.3558916
  52.2297062 106.4161388  45.9530579  47.8168893  91.3687335  56.7277905
  48.6800354  91.0124140  56.9381230  47.2434304  91.0301230  57.4153310
  67.6617270 112.9989192  47.5340306  68.2995680 112.8795939  46.8303646
  67.5438113 113.9470036  47.5928258  64.4706976 112.9516620  47.4701831
  64.1325488 112.8357684  46.5822366  65.3396744 112.5507785  47.4502837
  60.3293792 114.8052096  43.4598722  59.7658657 114.7142033  42.6915010
  60.2146187 113.9852001  43.9401214  64.9526759 114.1051472  53.4288036
  64.9415400 113.7104270  52.5568540  65.1147399 113.3717544  54.0221808
  57.8758224 116.3003288  46.2982942  58.6679516 115.9594112  45.8829242
  58.1154874 116.4098263  47.2185096  65.9093351 118.4723064  38.7713187
  65.2581330 119.0577144  38.3847201  66.7037713 119.0029259  38.8308224
  59.8348978 115.5612201  39.1700321  60.6079854 115.0141188  39.0313197
  60.1874377 116.4256450  39.3814783  61.6734020 116.8888583  52.3767220
  61.3823886 117.7934214  52.2613887  62.3091005 116.9305111  53.0911290
  62.5990227 114.2665432  48.9668580  63.1953799 114.0421454  48.2525543
  62.6565199 113.5250177  49.5694028  62.1715255 111.7204867  36.8018771
  62.4240776 111.1986388  36.0402234  61.2339815 111.5571013  36.9045455
  67.2158538 110.7240646  44.6093514  68.0021628 110.3060069  44.2583931
  67.4797243 111.6286738  44.7775163  67.3868616 116.1613496  39.3082171
  66.7514449 116.2348122  40.0203076  67.0566022 116.7507095  38.6301250
  72.6166965 110.6615879  45.5126493  73.3492137 110.0915096  45.7464322
  71.8606321 110.2737479  45.9532998  61.8911544 113.6232973  39.0043146
  61.7747802 112.9477877  39.6724230  62.0013804 113.1365347  38.1875299
  64.2343085 113.0843120  42.7089835  63.8701292 112.5573741  43.4202757
  65.0910201 112.6941589  42.5356321  70.1392386 104.3737453  49.9721101
  69.8075711 105.2432864  49.7482316  69.5437999 104.0573737  50.6515132
  63.8748572 108.1133020  37.7051184  64.0422974 108.9813256  38.0721655
  63.6845741 108.2760302  36.7812473  66.6323905 116.5749999  49.3717014
  66.3324628 117.4775038  49.2632821  66.2874965 116.3082182  50.2238167
  60.0836387 113.0263796  45.4053719  59.1586883 112.8940010  45.6131410
  60.3320800 113.8058015  45.9023661  70.0321049 109.0932539  47.0514451
  69.1237926 109.0247947  46.7573212  69.9808645 109.5704484  47.8796277
  63.8537793 110.5690677  38.6897851  63.7337418 111.0147728  39.5283331
  63.1590381 110.9175995  38.1311389  57.4445198 112.6697069  46.2397508
  57.5737579 112.9231548  47.1536919  56.7642649 113.2624777  45.9202163
  64.1061915 110.5122185  54.9949349  63.3295249 111.0716105  54.9852213
  64.7452478 110.9978968  55.5164219  71.8982696 107.2948977  48.8292325
  71.2557076 107.5881511  48.1832120  71.3937624 107.1801898  49.6345522
  69.5522859 111.0412151  39.5178185  70.4640715 111.2739537  39.3425882
  69.0432506 111.6249195  38.9553263  62.3608287 113.3207638  54.5567316
  63.1022972 113.8592682  54.2802139  61.6545273 113.9473927  54.7138868
  67.8363627 115.4636778  53.1539477  68.2446983 115.0219189  52.4094110
  67.1140888 114.8889406  53.4073670  64.1894697 110.4009385  50.5273034
  65.0355892 110.8248799  50.6707683  64.1293335 109.7443010  51.2211597
  68.1592441 116.0237969  46.9091766  67.5301304 116.1883683  46.2067834
  67.7718104 116.4379579  47.6802730  72.0381673 116.9592407  44.2636130
  71.3532712 117.3391308  43.7133163  72.1225523 117.5687734  44.9968078
  67.3394142 108.0613754  52.1854208  67.0955074 108.8155814  51.6488484
  67.6154073 108.4399101  53.0201455  69.2932605 114.6052366  50.8631473
  69.5049500 115.2484126  50.1865855  69.2462353 113.7714682  50.3953403
  66.8958834 107.2170187  47.7668046  66.0343313 107.5151440  48.0584783
  66.9221269 107.4340585  46.8349078  63.7120403 115.7612377  44.1741851
  64.1758749 116.0400080  43.3846474  63.4477201 114.8595822  43.9914942
  60.6044484 115.3083859  47.1121614  61.1745841 115.7371127  46.4739099
  61.1952596 115.0266443  47.8105800  62.6489289 111.8835530  40.9831416
  63.3513333 112.3356573  41.4505343  62.3169918 111.2419348  41.6111309
  61.0969651 110.4747286  55.3582626  60.4668312 111.1563567  55.5918023
  60.9905739 110.3630368  54.4135764  56.3914623 110.1419082  46.2848550
  55.6013677 110.3976611  45.8088661  56.8825871 110.9567420  46.3900590
  70.4078433 117.4824321  49.0353831  71.2295877 117.0804509  48.7536512
  70.4040836 117.3792556  49.9869947  58.3429369 110.5063661  43.2432027
  57.5460532 110.6182356  43.7615522  58.1154961 110.8450314  42.3772917
  64.1735036 117.0308365  51.1914541  64.2379469 117.4928772  52.0272713
  63.4645960 116.4005730  51.3196851  54.6752326 110.3949573  48.7163541
  54.9260365 111.2796583  48.9821117  55.2111875 110.2154174  47.9438633
  78.4984426 113.8263070  45.3838802  77.7448134 113.2570468  45.2282807
  78.6331967 113.7925734  46.3309437  63.8883054 118.6976472  41.0593522
  63.7528729 119.5428008  41.4878369  64.4292867 118.8995750  40.2959455
  60.3750394 104.7768052  57.7207877  59.9817339 104.2234251  58.3955521
  61.1916534 105.0878630  58.1114394  57.3412451 116.2151910  41.6321447
  57.8536972 117.0095160  41.7827011  57.9935164 115.5178201  41.5655048
  59.1507336 119.3317666  43.7144200  59.3273964 120.2535631  43.5265184
  59.9464170 119.0176086  44.1438580  63.2918355 106.1925931  55.3128133
  64.0328068 106.7933084  55.2332596  63.5236277 105.4503569  54.7546176
  58.4359693 111.3782298  53.5906363  58.3213208 110.4767556  53.8913462
  57.5804210 111.6245995  53.2391180  65.5151530 119.3200039  55.1893864
  65.0715385 118.5336417  54.8714768  66.1768744 119.5079189  54.5237754
  60.2738652 120.8495840  49.7154542  60.8246077 120.7212904  48.9431536
  59.4350127 121.1490729  49.3649435  67.6132768 119.6002839  53.2175265
  67.5951244 120.4211720  52.7255534  68.5352689 119.4756914  53.4425406
  64.0705823 117.1146968  54.0598773  64.6034159 116.3535256  53.8298081
  63.5419904 116.8220620  54.8022928  67.2375518 102.2207034  49.5892415
  66.8939787 103.1108676  49.5131526  67.6054480 102.0308692  48.7262000
  55.3061368 114.5440564  42.4081017  56.1436590 114.9537573  42.1914725
  55.4839636 113.6040007  42.3781211  67.2025800 112.2115645  38.0964850
  66.6872424 112.9820250  38.3353238  66.9303109 111.5380781  38.7197912
  64.7872911 107.0565346  43.1550089  63.9314508 106.6672196  42.9755727
  65.1999863 107.1357307  42.2949874  66.3172058 104.5911689  47.5541648
  65.8136854 104.5541824  46.7409454  66.6102665 105.5004432  47.6138305
  62.5614944 104.6750419  46.5607830  63.4267941 104.4793228  46.2013720
  62.6292453 104.4460771  47.4877187  72.1760074 114.9648000  40.0318024
  71.3989517 114.6259159  39.5873186  72.8551555 114.9700623  39.3572989
  66.9912103 110.0842737  39.9224631  66.6862239 110.3988886  40.7734775
  67.9442546 110.1624157  39.9651964  65.4358535 116.2432961  41.5717585
  64.9079897 115.5085720  41.2590823  64.9346038 117.0207637  41.3257554
  70.4151381 114.4381981  46.6884632  69.7575056 115.1281242  46.7764760
  71.2191781 114.8278413  47.0318618  60.1677263 106.9052627  43.9324197
  60.7421015 106.6827808  43.1997390  60.7548245 106.9741321  44.6852798
  69.2256840 112.7926354  44.7388573  69.7388722 113.4256346  45.2410283
  69.8758064 112.1927549  44.3731933  60.4946850 108.9357088  37.9520082
  59.6584162 109.2731774  38.2729357  60.3551620 108.8006068  37.0147219
  62.4699931 103.7793876  42.6599266  61.8164343 103.4642893  42.0355881
  62.4280405 103.1569616  43.3859089  63.5811136 114.0613171  34.5752558
  62.6738197 113.8302424  34.7743707  64.0782168 113.2650790  34.7626540
  66.4879214 122.7710678  37.4949245  65.8140913 123.0742375  38.1034202
  66.8745036 123.5739758  37.1454702  65.7037671 110.2675809  46.9846914
  64.7860232 110.4890756  46.8268602  66.1197815 110.3422120  46.1258621
  66.4872719 111.6667225  42.1149594  67.2344538 112.1788622  41.8056716
  66.7564308 111.3451278  42.9753988  64.7599369 114.1625766  39.0976548
  63.8510588 113.8784798  39.1949018  64.7894453 114.5824844  38.2379855
  69.9918636 117.7732355  42.8667716  69.5380963 116.9323265  42.9232906
  69.3612603 118.4093754  43.2042496  68.9351556 108.7024341  44.0968383
  68.1974313 108.1901727  44.4278626  69.1878329 108.2624723  43.2851660
  68.4351576 119.6108852  43.8017534  68.7274550 120.1713909  43.0829900
  68.9450196 119.9037413  44.5570693  69.0363183 101.4800593  44.6910153
  69.3422060 100.6197957  44.4036068  69.7615788 102.0718213  44.4909147
  55.3287539 111.8831280  43.0791751  55.1311939 111.2900641  42.3542817
  54.7734203 111.5783490  43.7967689  63.3084263 111.7754386  45.1986344
  63.3632873 110.8228223  45.1228820  62.4975465 111.9313825  45.6827642
  64.4575457 115.7034509  36.4364627  64.0194887 114.9870368  35.9770264
  65.1985898 115.9310624  35.8749718  61.2476623 110.3931446  42.9576723
  60.4344488 110.6925617  43.3641915  61.7435617 109.9987135  43.6751205
  63.3985201 120.3889203  44.8910987  63.3561380 120.6150049  43.9619519
  64.3147900 120.1552578  45.0396789  66.8450835 110.8573271  51.7891617
  67.2000222 111.0844744  52.6486082  67.4922966 111.1891647  51.1668872
  72.5748572 113.9791706  42.4940946  72.4366470 114.1693302  41.5662135
  72.2184790 114.7411089  42.9508997  60.7390698 107.9649802  48.5737958
  61.3790077 107.8238561  47.8760921  59.9068228 107.6784315  48.1976560
  72.6017951 116.0468233  47.5052217  73.0354458 115.9543522  48.3535271
  73.3149532 116.0225734  46.8672233  61.5151002 117.2652232  44.6872950
  62.3091600 116.7702552  44.4855525  60.8042694 116.7370095  44.3240656
  66.3345846 119.6470328  49.0385318  66.3882868 120.2161264  49.8063034
  65.4660627 119.8172213  48.6739355  57.8233765 111.4095314  40.7632703
  56.8931353 111.3479769  40.9802665  57.9191237 110.8871266  39.9669344
  57.7419314 107.9350127  43.3510944  58.0026131 108.8495460  43.2420105
  58.5636486 107.4674569  43.5007557  59.2144239 109.3487884  50.5209769
  59.8867293 109.1405246  49.8722418  58.3874026 109.1509970  50.0815001
  73.4633501 116.0891934  50.0385103  73.6569391 116.9937745  50.2844377
  73.3634119 115.6299353  50.8723688  65.1169811 105.9749825  52.5375430
  64.4697726 106.6739774  52.4439906  65.8870827 106.4085969  52.9051678
  68.5248609 116.2398677  55.6125983  68.3734116 116.0109228  54.6956067
  68.5153289 117.1969278  55.6257328  65.2933946 113.8130590  50.5972250
  66.2226006 113.9641749  50.4241217  64.8724976 113.9014610  49.7420896
  64.0922278 117.8381254  48.3670787  63.9533363 117.4700038  49.2396725
  63.3036874 118.3528893  48.1954745  64.6870430 122.9390350  39.7096324
  64.8622185 122.4678394  40.5241946  64.0003218 123.5656117  39.9377584
  65.6427493 117.2162857  45.7559625  65.3077325 117.1763627  46.6517275
  65.1431438 116.5507573  45.2830035  59.6171737 112.6230487  51.2812206
  59.4791535 111.8910726  51.8823745  60.5276660 112.5339387  50.9996394
  68.5786684 114.5618891  36.0296685  67.9615855 113.8365719  35.9329737
  68.1103173 115.3228251  35.6863759  62.2454037 112.3350446  50.7695886
  62.9553656 111.6943638  50.7282504  62.2023346 112.5863341  51.6922067
  70.2340816 119.2717799  53.6902465  70.1753362 118.5877019  53.0233048
  70.6360334 120.0136789  53.2383091  60.9582971 109.3215664  52.5891525
  60.4220328 108.8706402  53.2413122  60.3699680 109.4561573  51.8461990
  60.3685230 108.7804315  35.1517989  59.4914697 108.6593116  34.7880236
  60.8442983 107.9890394  34.8996878  70.2358223 117.2357383  51.9216445
  69.3485002 116.8983305  52.0442844  70.8056774 116.5040415  52.1585210
  51.8887370 113.5681475  45.2459496  52.5758410 113.2543205  44.6580511
  51.7335499 114.4722840  44.9726747  56.6922093 108.4571672  49.6744520
  56.6080281 107.8497341  48.9394930  55.8704799 108.9480690  49.6754016
  63.7659377 121.8958836  48.8877688  63.6929548 122.7013807  49.3996992
  63.3236770 122.0950801  48.0625709  63.5549156 121.1330606  42.3980509
  62.7716678 121.6752286  42.4918734  64.2541901 121.6504585  42.7974751
  66.8645806 106.9425235  45.0414715  67.3614506 106.1895197  44.7215785
  66.0932788 106.9789552  44.4757924  74.7175564 112.6465601  46.6833006
  74.7065440 113.5290316  46.3126939  73.8492943 112.2937151  46.4887543
  66.2258060 121.7945670  51.0435847  66.9386032 122.4293134  50.9711748
  65.7348089 121.8909536  50.2275848  67.9475587 115.6996922  42.6153138
  67.0131866 115.8198385  42.4457843  68.1252256 114.7969389  42.3513148
  63.4480775 109.0842618  44.7686399  63.0778563 108.5313658  45.4567305
  63.9439868 108.4800752  44.2161399  71.3348138 111.5414242  43.1503172
  71.8008591 112.3742233  43.0763475  71.7855639 111.0759223  43.8548431
  61.2769974 119.5440113  51.8641417  61.9779433 120.1776596  52.0170812
  60.8065089 119.8854845  51.1037057  69.4024370 117.8858063  40.1489324
  69.6784213 117.7714657  41.0583198  68.5328868 117.4875548  40.1101497
  69.3064801 103.9094829  47.1894074  68.3927881 104.1399055  47.3576281
  69.7357903 103.9933273  48.0408106  69.0771260 112.0984721  49.6893968
  68.4242710 112.3460628  49.0346420  69.4551640 111.2848859  49.3556445
  66.0378434 122.1344414  43.7922138  66.2200828 121.3166070  44.2549890
  66.8611420 122.3512106  43.3547028  66.3720599 121.0612599  41.0537186
  66.9008366 120.5505053  40.4407349  66.6348819 120.7455129  41.9182719
  65.1258833 112.8404532  56.1760005  64.4499470 112.7398661  56.8462380
  65.9486467 112.6843745  56.6396002  56.8737692 119.0776468  48.7972520
  57.4591129 118.3320156  48.9300424  56.6762530 119.3880425  49.6809184
  51.4655347 111.6482068  47.5176963  51.5039446 111.1145659  48.3114081
  50.9595639 111.1217274  46.8987940  58.8446109 106.4946609  51.0139505
  58.9087435 107.3561440  50.6016903  58.7813229 105.8820611  50.2811864
  58.3198381 108.5669741  54.6612540  58.9470420 108.1846819  55.2750064
  57.4626300 108.3483943  55.0268232  68.7192490 118.9732717  56.2666275
  69.2632394 119.5862675  55.7721230  68.1379335 119.5312295  56.7833288
  55.0963924 110.3746171  40.5930895  55.3917365 109.4656849  40.5397948
  54.1951960 110.3533910  40.2711897  67.0050003 122.0953435  47.3981303
  66.8801142 121.2943174  46.8892248  67.6629094 122.5899628  46.9095273
  58.6258171 108.4502167  46.5758443  57.9044757 109.0638135  46.4365916
  59.4151427 108.9859932  46.4975089  69.0684911 119.8962455  49.0260853
  68.1215247 119.7767806  48.9539180  69.4167684 119.0084953  49.1087114
  61.4284485 105.7856594  52.8499095  61.9518886 106.0318890  53.6125404
  61.2096818 106.6176628  52.4302232  56.8251766 108.0560268  40.7170220
  56.4964472 107.1757647  40.5345326  57.1791136 108.0007937  41.6046609
  66.0731345 119.6915171  45.2265205  65.9256307 118.7631878  45.4072775
  66.8984838 119.7135262  44.7422280  59.9393589 108.3433238  41.0845697
  60.2789661 108.8719159  40.3624306  60.3865709 108.6813644  41.8604264
  69.6765466 120.5143730  46.3130078  70.6012014 120.3086591  46.1754529
  69.5080770 120.2660131  47.2219419  62.6337030 106.7270289  50.5348765
  62.2933850 105.9278102  50.9369445  61.9276036 107.0272000  49.9625599
  63.2853502 103.8119601  48.9876088  64.1079571 103.3380079  48.8654979
  63.5291565 104.5910085  49.4874775  61.9261736 106.8407860  39.2838990
  62.6470099 107.2189112  38.7802707  61.3027040 107.5596736  39.3873968
  66.0692859 107.5453009  40.2197322  66.2856473 108.4277646  39.9186151
  65.5886926 107.1539222  39.4902964  60.8092080 110.5038722  46.7968067
  60.6636661 110.8179025  47.6892349  60.3317284 111.1223622  46.2438966
  62.6688463 107.4941270  46.8448957  62.6550032 106.5982363  46.5081255
  63.3860891 107.5011934  47.4787243  64.5214594 107.9278610  48.8902084
  64.2632372 108.8495681  48.8886414  63.9899634 107.5309045  49.5802548
  69.4660783 121.0329397  41.6692169  69.6397660 120.4675820  40.9166022
  69.9589674 121.8330292  41.4871659  55.2837742 113.0444066  49.7355728
  54.7391211 113.8203874  49.8676003  56.1617092 113.3914871  49.5774850
  62.0725359 106.3755650  42.1136527  62.1941270 105.4472296  42.3127414
  61.7827401 106.3894336  41.2014842  64.9416549 104.0610560  45.2503247
  64.9638246 104.1249894  44.2955226  65.3584608 103.2215069  45.4443753
  75.3200174 113.7965820  43.2882469  75.7631320 113.0473145  42.8901592
  74.4426684 113.7875956  42.9056201  70.4535955 120.3496162  38.7689068
  71.1486860 120.9702854  38.9876382  70.7959105 119.4991513  39.0441446
  56.0703764 112.1713962  52.6285885  55.3285500 112.3196598  53.2150516
  55.7496509 112.4322228  51.7652635  72.3527378 117.7995867  40.2976398
  72.8778702 118.1383140  39.5725719  72.2649731 116.8642882  40.1139533
  64.0147427 121.7129941  52.4266275  64.3234553 121.4679087  53.2988975
  64.8122909 121.9176579  51.9385145  56.5160378 120.0579391  44.6596280
  57.3418398 119.7583163  44.2794923  56.1654430 119.2887014  45.1086068
  61.4841911 119.4105859  46.7293953  60.8621920 118.7476564  46.4296181
  62.1546778 119.4366991  46.0467601  54.7168983 117.9765718  45.6185213
  53.8800891 117.5487892  45.4369215  54.6892628 118.1698161  46.5556005
  61.5566439 107.8887647  56.3226459  61.6054594 108.7649770  55.9404229
  62.0988953 107.3465040  55.7498103  72.0421284 118.4328771  55.6027596
  71.2516828 118.4152910  55.0632096  71.8054639 118.9717064  56.3576633
  72.1619159 115.2821237  52.9160325  72.2117164 115.1171244  53.8575848
  72.0533083 114.4148496  52.5258206  61.0455418 117.9609783  40.2052414
  61.1943538 118.6445247  39.5519087  61.8521862 117.9414873  40.7201870
  69.4522922 111.2652165  54.2319632  70.3532785 111.1258630  53.9403629
  69.5270896 111.4306620  55.1717809  63.7865727 108.6419020  53.0772818
  62.9169036 108.9352586  52.8055407  64.0225207 109.2259465  53.7980082
  73.6637356 117.7018179  53.1602347  73.3722164 118.0648159  53.9965807
  73.0509487 116.9885187  52.9815679  74.8633039 115.2671058  45.6804917
  75.6979930 115.7060862  45.8442477  74.9992167 114.7909712  44.8613163
  71.9124544 112.8250793  51.6282405  72.3878666 113.0178439  50.8201256
  70.9890110 112.8809979  51.3825788  58.8008051 113.9874960  41.2113483
  58.5554093 113.0837290  41.4093693  58.9703966 113.9892111  40.2692961
  66.4904761 104.8598637  50.5938238  67.0086705 105.5959664  50.2684727
  66.1359894 105.1662630  51.4284998  58.0703699 109.7203318  38.7099644
  57.3772944 109.7947673  38.0539680  57.8255450 108.9563662  39.2321161
  66.7417355 101.2798919  46.1139135  67.0219109 100.6122108  46.7399562
  67.5267962 101.4728015  45.6013799  64.5450824 120.4557913  37.6764161
  63.9724791 121.0748100  37.2234633  65.1183617 121.0057275  38.2104083
  70.6126213 109.7016553  49.8610710  71.5643636 109.8014651  49.8822934
  70.4429664 108.9094822  50.3708794  68.6340593 106.7872136  50.0470111
  68.0390525 107.0677149  49.3516600  68.3490290 107.2766037  50.8186852
  67.7648083 120.7395063  38.8072744  68.6978757 120.6740625  39.0105619
  67.6771296 121.5751330  38.3487276  70.3936100 120.0560934  35.7676691
  70.3149732 119.7220797  36.6612449  71.2145767 120.5482702  35.7668164
  73.0914291 112.9222673  48.9753010  73.0590611 111.9838674  49.1612694
  73.7014915 113.0006710  48.2418835  64.9297622 111.7918726  35.0180214
  65.8756727 111.6624934  35.0868632  64.5511867 111.0533388  35.4949642
  73.2408780 109.7133716  49.0211293  72.7247828 108.9292173  48.8341222
  74.1248728 109.3852433  49.1857812  70.9019507 103.4574732  44.9807106
  70.7044328 103.1489820  45.8650438  71.5119212 104.1836371  45.1105035
  78.9090841 113.9838680  48.1159047  79.6394230 113.7223968  48.6766750
  78.2997787 113.2467402  48.1561115  76.9906138 112.1246542  48.7133498
  76.2639302 111.9902507  48.1049989  76.5753425 112.4323371  49.5190216
  64.8136315 115.8436472  56.4780871  65.7339324 116.0215071  56.6720917
  64.7785898 114.8992517  56.3260570  63.1140539 109.7168702  34.9535099
  62.2071995 109.4201815  35.0297813  63.3916520 109.4198520  34.0869385
  54.0318480 111.0375066  45.4034145  53.7121264 110.1840374  45.1108519
  53.4851908 111.2523644  46.1592113  57.8098387 113.7537507  49.1203652
  58.0284397 114.6854615  49.1391686  58.2224161 113.3945481  49.9058456
  64.7302605 104.2605592  41.1079340  63.9203333 103.9152677  41.4834586
  65.4187022 103.9513136  41.6966952  66.6593153 103.3383639  42.7303637
  67.2124192 103.7579092  43.3893660  66.8963240 102.4119387  42.7726593
  62.6826252 109.3270712  58.5106401  62.5822979 110.2765069  58.4418492
  62.4647795 108.9988951  57.6382471  61.8839324 106.5755638  35.0947078
  62.7458488 106.9010536  35.3542896  62.0689668 105.7887133  34.5820144
  53.9006740 114.6577977  47.3727267  53.2070211 114.2431930  46.8597221
  54.6479731 114.6998514  46.7760686  70.0371960 105.4484164  42.2382301
  69.4570629 106.1068968  41.8560354  69.7707893 104.6261509  41.8269719
  68.4875527 104.8489222  44.4403622  68.9875305 104.9605756  43.6317940
  69.1311135 104.5450275  45.0804430  62.5457523 112.7567851  57.3271463
  62.0624604 113.5568211  57.5335352  62.6318462 112.7675796  56.3738907
  55.8143482 114.5896231  45.2493282  55.7914170 114.6883918  44.2975165
  56.1244119 115.4361382  45.5710448  58.4730860 116.6472386  49.3639896
  59.4274114 116.6156328  49.2969828  58.2743384 116.1863010  50.1790122
  59.0630242 115.2173502  51.9310694  59.8823131 115.7117581  51.9545531
  59.3367050 114.3005470  51.9028261  68.8196838 107.6084254  41.2938650
  67.9322693 107.8933905  41.0758844  69.2350827 107.4478018  40.4465926
  72.1711374 107.6330775  45.0092989  72.9471765 108.1227228  45.2817606
  71.4459509 108.0588830  45.4664858  74.6083933 108.3458395  46.0666929
  75.2028424 108.1054131  45.3560238  74.6810517 107.6265525  46.6940466
  67.9640052 117.3728929  35.3886669  68.6675902 117.5778932  36.0044325
  67.2402701 117.9405691  35.6535753  68.7937862 113.1238790  41.5088940
  68.7373063 113.5807342  40.6696572  69.3466205 112.3629475  41.3311782
  72.6042668 108.9128522  42.3339059  72.3479602 108.5125158  43.1647267
  71.9795536 109.6272316  42.2089198  76.9155006 111.6524595  44.8410351
  76.3554564 111.7217785  45.6141913  76.3098509 111.4765580  44.1209847
  69.8726749 117.8111458  37.4385130  70.7072353 117.3792657  37.2562604
  69.7111092 117.6393472  38.3662024  69.5272641 114.3143572  38.8041469
  69.4721445 114.1487843  37.8629913  68.9018697 115.0219604  38.9603659
  54.3165156 109.5511636  52.6302891  54.9624020 109.0410590  53.1190116
  54.1082308 110.2880318  53.2046316  66.8418549 116.6192483  58.1295032
  67.7109708 116.7933136  57.7681667  66.3625300 117.4386900  58.0070761
  62.8368767 103.8151681  38.3826787  62.8247437 104.7593520  38.5395058
  63.7292189 103.6321826  38.0886248  62.7658331 122.4920571  46.4694544
  61.8153962 122.4922433  46.3558916  63.0690817 121.7453306  45.9530579
  66.6520886 100.4094457  42.6372724  65.8853282  99.8552944  42.7829406
  67.0631591 100.4816326  43.4986876  58.6562647 106.6979253  56.7277905
  59.5194109 106.3416058  56.9381230  58.0828058 106.3593148  57.4153310
  78.0552293 126.0532563  44.6093514  78.8415382 125.6351986  44.2583931
  78.3190997 126.9578655  44.7775163  80.9786140 119.7029371  49.9721101
  80.6469465 120.5724781  49.7482316  80.3831754 119.3865655  50.6515132
  74.7142327 123.4424938  37.7051184  74.8816729 124.3105174  38.0721655
  74.5239496 123.6052219  36.7812473  80.8714804 124.4224457  47.0514451
  79.9631681 124.3539865  46.7573212  80.8202399 124.8996402  47.8796277
  74.6931548 125.8982595  38.6897851  74.5731173 126.3439646  39.5283331
  73.9984136 126.2467913  38.1311389  74.9455669 125.8414102  54.9949349
  74.1689003 126.4008022  54.9852213  75.5846232 126.3270885  55.5164219
  82.7376450 122.6240895  48.8292325  82.0950830 122.9173428  48.1832120
  82.2331379 122.5093815  49.6345522  80.3916614 126.3704068  39.5178185
  81.3034470 126.6031455  39.3425882  79.8826261 126.9541113  38.9553263
  75.0288451 125.7301303  50.5273034  75.8749647 126.1540716  50.6707683
  74.9687089 125.0734927  51.2211597  78.1787897 123.3905671  52.1854208
  77.9348829 124.1447732  51.6488484  78.4547827 123.7691019  53.0201455
  77.7352588 122.5462104  47.7668046  76.8737067 122.8443358  48.0584783
  77.7615023 122.7632503  46.8349078  71.2144148 120.1059970  57.7207877
  70.8211094 119.5526168  58.3955521  72.0310288 120.4170548  58.1114394
  74.1312109 121.5217849  55.3128133  74.8721823 122.1225002  55.2332596
  74.3630032 120.7795487  54.7546176  78.0769272 117.5498952  49.5892415
  77.7333541 118.4400593  49.5131526  78.4448235 117.3600609  48.7262000
  78.0419555 127.5407563  38.0964850  77.5266178 128.3112167  38.3353238
  77.7696863 126.8672699  38.7197912  75.6266666 122.3857264  43.1550089
  74.7708262 121.9964114  42.9755727  76.0393618 122.4649224  42.2949874
  77.1565812 119.9203607  47.5541648  76.6530608 119.8833742  46.7409454
  77.4496419 120.8296350  47.6138305  73.4008698 120.0042337  46.5607830
  74.2661695 119.8085145  46.2013720  73.4686207 119.7752688  47.4877187
  77.8305858 125.4134655  39.9224631  77.5255994 125.7280804  40.7734775
  78.7836300 125.4916075  39.9651964  71.0071017 122.2344545  43.9324197
  71.5814769 122.0119726  43.1997390  71.5942000 122.3033239  44.6852798
  71.3340605 124.2649006  37.9520082  70.4977917 124.6023692  38.2729357
  71.1945374 124.1297985  37.0147219  73.3093685 119.1085793  42.6599266
  72.6558097 118.7934811  42.0355881  73.2674159 118.4861534  43.3859089
  76.5431426 125.5967727  46.9846914  75.6253987 125.8182674  46.8268602
  76.9591569 125.6714037  46.1258621  77.3266473 126.9959143  42.1149594
  78.0738292 127.5080540  41.8056716  77.5958063 126.6743195  42.9753988
  79.7745310 124.0316259  44.0968383  79.0368067 123.5193645  44.4278626
  80.0272084 123.5916640  43.2851660  79.8756938 116.8092511  44.6910153
  80.1815815 115.9489874  44.4036068  80.6009543 117.4010131  44.4909147
  72.0870377 125.7223364  42.9576723  71.2738243 126.0217534  43.3641915
  72.5829372 125.3279052  43.6751205  77.6844589 126.1865188  51.7891617
  78.0393977 126.4136661  52.6486082  78.3316720 126.5183565  51.1668872
  71.5784452 123.2941719  48.5737958  72.2183831 123.1530478  47.8760921
  70.7461983 123.0076233  48.1976560  68.5813069 123.2642044  43.3510944
  68.8419886 124.1787377  43.2420105  69.4030241 122.7966487  43.5007557
  70.0537994 124.6779801  50.5209769  70.7261047 124.4697164  49.8722418
  69.2267780 124.4801887  50.0815001  75.9563566 121.3041742  52.5375430
  75.3091481 122.0031692  52.4439906  76.7264581 121.7377886  52.9051678
  71.7976726 124.6507582  52.5891525  71.2614083 124.1998320  53.2413122
  71.2093434 124.7853490  51.8461990  71.2078985 124.1096233  35.1517989
  70.3308451 123.9885034  34.7880236  71.6836738 123.3182311  34.8996878
  67.5315847 123.7863589  49.6744520  67.4474036 123.1789259  48.9394930
  66.7098553 124.2772608  49.6754016  77.7039561 122.2717153  45.0414715
  78.2008260 121.5187115  44.7215785  76.9326542 122.3081469  44.4757924
  74.2874530 124.4134536  44.7686399  73.9172317 123.8605576  45.4567305
  74.7833622 123.8092669  44.2161399  80.1458556 119.2386746  47.1894074
  79.2321636 119.4690973  47.3576281  80.5751657 119.3225190  48.0408106
  79.9165014 127.4276638  49.6893968  79.2636464 127.6752546  49.0346420
  80.2945394 126.6140776  49.3556445  69.6839863 121.8238527  51.0139505
  69.7481190 122.6853357  50.6016903  69.6206984 121.2112528  50.2811864
  69.1592136 123.8961659  54.6612540  69.7864175 123.5138736  55.2750064
  68.3020055 123.6775861  55.0268232  69.4651926 123.7794085  46.5758443
  68.7438511 124.3930053  46.4365916  70.2545181 124.3151850  46.4975089
  72.2678239 121.1148511  52.8499095  72.7912641 121.3610808  53.6125404
  72.0490572 121.9468546  52.4302232  67.6645520 123.3852186  40.7170220
  67.3358226 122.5049565  40.5345326  68.0184891 123.3299855  41.6046609
  70.7787343 123.6725156  41.0845697  71.1183416 124.2011077  40.3624306
  71.2259464 124.0105562  41.8604264  73.4730784 122.0562206  50.5348765
  73.1327605 121.2570019  50.9369445  72.7669790 122.3563917  49.9625599
  74.1247256 119.1411519  48.9876088  74.9473325 118.6671997  48.8654979
  74.3685320 119.9202003  49.4874775  72.7655491 122.1699777  39.2838990
  73.4863853 122.5481030  38.7802707  72.1420795 122.8888654  39.3873968
  76.9086613 122.8744926  40.2197322  77.1250228 123.7569564  39.9186151
  76.4280681 122.4831140  39.4902964  73.5082218 122.8233187  46.8448957
  73.4943786 121.9274281  46.5081255  74.2254646 122.8303851  47.4787243
  75.3608348 123.2570528  48.8902084  75.1026126 124.1787598  48.8886414
  74.8293389 122.8600962  49.5802548  72.9119114 121.7047568  42.1136527
  73.0335025 120.7764214  42.3127414  72.6221156 121.7186254  41.2014842
  75.7810304 119.3902478  45.2503247  75.8032001 119.4541811  44.2955226
  76.1978363 118.5506987  45.4443753  72.3960193 123.2179565  56.3226459
  72.4448349 124.0941688  55.9404229  72.9382707 122.6756958  55.7498103
  80.2916676 126.5944083  54.2319632  81.1926539 126.4550548  53.9403629
  80.3664651 126.7598538  55.1717809  74.6259482 123.9710938  53.0772818
  73.7562791 124.2644504  52.8055407  74.8618962 124.5551383  53.7980082
  77.3298515 120.1890554  50.5938238  77.8480459 120.9251581  50.2684727
  76.9753648 120.4954548  51.4284998  68.9097453 125.0495236  38.7099644
  68.2166698 125.1239591  38.0539680  68.6649205 124.2855579  39.2321161
  77.5811110 116.6090837  46.1139135  77.8612863 115.9414026  46.7399562
  78.3661716 116.8019933  45.6013799  81.4519968 125.0308471  49.8610710
  82.4037391 125.1306569  49.8822934  81.2823418 124.2386740  50.3708794
  79.4734347 122.1164054  50.0470111  78.8784280 122.3969067  49.3516600
  79.1884044 122.6057955  50.8186852  75.7691377 127.1210644  35.0180214
  76.7150481 126.9916852  35.0868632  75.3905622 126.3825306  35.4949642
  84.0802534 125.0425634  49.0211293  83.5641583 124.2584091  48.8341222
  84.9642483 124.7144351  49.1857812  81.7413261 118.7866650  44.9807106
  81.5438082 118.4781738  45.8650438  82.3512967 119.5128289  45.1105035
  73.9534294 125.0460620  34.9535099  73.0465749 124.7493733  35.0297813
  74.2310275 124.7490438  34.0869385  75.5696359 119.5897510  41.1079340
  74.7597088 119.2444595  41.4834586  76.2580776 119.2805053  41.6966952
  77.4986908 118.6675557  42.7303637  78.0517946 119.0871010  43.3893660
  77.7356994 117.7411305  42.7726593  73.5220007 124.6562630  58.5106401
  73.4216734 125.6056987  58.4418492  73.3041549 124.3280869  57.6382471
  72.7233078 121.9047555  35.0947078  73.5852242 122.2302454  35.3542896
  72.9083423 121.1179051  34.5820144  80.8765715 120.7776082  42.2382301
  80.2964384 121.4360886  41.8560354  80.6101648 119.9553426  41.8269719
  79.3269281 120.1781139  44.4403622  79.8269060 120.2897674  43.6317940
  79.9704889 119.8742192  45.0804430  79.6590593 122.9376172  41.2938650
  78.7716448 123.2225823  41.0758844  80.0744582 122.7769935  40.4465926
  83.0105129 122.9622693  45.0092989  83.7865519 123.4519145  45.2817606
  82.2853263 123.3880747  45.4664858  85.4477688 123.6750312  46.0666929
  86.0422178 123.4346048  45.3560238  85.5204271 122.9557443  46.6940466
  83.4436423 124.2420440  42.3339059  83.1873357 123.8417076  43.1647267
  82.8189291 124.9564234  42.2089198  73.6762521 119.1443598  38.3826787
  73.6641191 120.0885438  38.5395058  74.5685943 118.9613744  38.0886248
  77.4914641 115.7386375  42.6372724  76.7247037 115.1844862  42.7829406
  77.9025346 115.8108244  43.4986876  69.4956402 122.0271171  56.7277905
  70.3587863 121.6707976  56.9381230  68.9221813 121.6885066  57.4153310
  13.4648499  13.3591726  34.2585613  14.1026909  13.2398473  33.5548953
  13.3469342  14.3072570  34.3173565  10.7557988  14.4654006  40.1533343
  10.7446629  14.0706804  39.2813847  10.9178627  13.7320078  40.7467115
   7.4765249  17.2491118  39.1012527   7.1855115  18.1536748  38.9859193
   8.1122233  17.2907645  39.8156597   8.4021456  14.6267966  35.6913887
   8.9985028  14.4023988  34.9770850   8.4596427  13.8852712  36.2939335
  18.4198194  11.0218413  32.2371799  19.1523366  10.4517630  32.4709629
  17.6637550  10.6340013  32.6778305  12.4355134  16.9352533  36.0962321
  12.1355857  17.8377572  35.9878128  12.0906194  16.6684716  36.9483474
   7.4175914  23.6996853  29.0633289   7.3399944  24.6504678  29.1421769
   6.8137558  23.3542726  29.7208215  17.7013924   7.6551512  35.5537632
  17.0588305   7.9484045  34.9077427  17.1968853   7.5404432  36.3590829
   8.1639516  13.6810172  41.2812622   8.9054200  14.2195216  41.0047446
   7.4576501  14.3076461  41.4384174  13.6394856  15.8239313  39.8784784
  14.0478212  15.3821723  39.1339416  12.9172117  15.2491940  40.1318977
  13.9623670  16.3840503  33.6337073  13.3332533  16.5486217  32.9313141
  13.5749332  16.7982113  34.4048037  17.8412902  17.3194941  30.9881437
  17.1563940  17.6993842  30.4378470  17.9256752  17.9290268  31.7213384
  15.0963834  14.9654900  37.5876780  15.3080729  15.6086660  36.9111161
  15.0493582  14.1317217  37.1198710  16.2109662  17.8426856  35.7599137
  17.0327105  17.4407043  35.4781819  16.2072065  17.7395090  36.7115253
   9.9766265  17.3910899  37.9159848  10.0410698  17.8531306  38.7518020
   9.2677189  16.7608264  38.0442158  24.3015655  14.1865604  32.1084109
  23.5479363  13.6173002  31.9528113  24.4363196  14.1528269  33.0554744
  11.3182759  19.6802573  41.9139170  10.8746613  18.8938951  41.5960075
  11.9799973  19.8681723  41.2483061   6.0769880  21.2098374  36.4399849
   6.6277306  21.0815438  35.6676843   5.2381356  21.5093263  36.0894742
  13.4163997  19.9605373  39.9420572  13.3982473  20.7814254  39.4500841
  14.3383917  19.8359448  40.1670713   9.8737051  17.4749502  40.7844080
  10.4065388  16.7137790  40.5543388   9.3451133  17.1823154  41.5268234
  16.2182610  14.7984515  33.4129938  15.5606285  15.4883777  33.5010067
  17.0223009  15.1880947  33.7563925  15.7949865  18.1334889  29.5913023
  15.3412192  17.2925799  29.6478213  15.1643832  18.7696288  29.9287803
  14.2382804  19.9711386  30.5262841  14.5305779  20.5316443  29.8075206
  14.7481425  20.2639947  31.2816000   9.2016430  20.7491737  31.6156294
   9.1592608  20.9752583  30.6864826  10.1179128  20.5155112  31.7642095
  12.6482063  11.2175805  38.5136923  13.0031451  11.4447278  39.3731389
  13.2954195  11.5494182  37.8914179  18.4049180  16.4070768  34.2297524
  18.8385687  16.3146057  35.0780578  19.1180761  16.3828268  33.5917540
  12.1377075  20.0072862  35.7630624  12.1914097  20.5763798  36.5308340
  11.2691856  20.1774747  35.3984661  19.2664730  16.4494468  36.7630409
  19.4600620  17.3540279  37.0089684  19.1665348  15.9901887  37.5968994
  14.3279838  16.6001211  42.3371290  14.1765345  16.3711763  41.4201373
  14.3184518  17.5571812  42.3502635  11.0965175  14.1733124  37.3217556
  12.0257235  14.3244283  37.1486524  10.6756205  14.2617145  36.4666203
   9.8953506  18.1983788  35.0916094   9.7564592  17.8302573  35.9642032
   9.1068103  18.7131428  34.9200052  11.4458722  17.5765391  32.4804932
  11.1108554  17.5366161  33.3762581  10.9462667  16.9110107  32.0075342
   8.0485266  12.6952980  37.4941192   8.7584885  12.0546172  37.4527811
   8.0054574  12.9465875  38.4167373  16.0372045  19.6320334  40.4147772
  15.9784591  18.9479554  39.7478355  16.4391563  20.3739324  39.9628398
   5.0562744  26.4482247  33.2081491   5.2959342  27.0800772  33.8860509
   4.2131940  26.0970287  33.4946850  16.0389452  17.5959918  38.6461751
  15.1516231  17.2585839  38.7688150  16.6088003  16.8642949  38.8830517
   9.5690606  22.2561370  35.6122995   9.4960777  23.0616341  36.1242299
   9.1267999  22.4553336  34.7871016  20.5206793  13.0068135  33.4078313
  20.5096669  13.8892850  33.0372246  19.6524172  12.6539686  33.2132850
  12.0289289  22.1548204  37.7681153  12.7417261  22.7895669  37.6957055
  11.5379318  22.2512070  36.9521155   7.0801203  19.9042647  38.5886724
   7.7810662  20.5379130  38.7416118   6.6096318  20.2457379  37.8282363
  14.8802489  12.4587255  36.4139274  14.2273939  12.7063162  35.7591727
  15.2582868  11.6451393  36.0801752  11.8409662  22.4946948  30.5167445
  12.0232057  21.6768604  30.9795197  12.6642648  22.7114640  30.0792335
  10.9290062  13.2007066  42.9005311  10.2530699  13.1001195  43.5707687
  11.7517695  13.0446280  43.3641309   2.6768921  19.4379002  35.5217827
   3.2622357  18.6922690  35.6545731   2.4793759  19.7482959  36.4054491
   9.6712844  24.5073993  37.1362927  10.2231152  24.6705615  37.9012013
  10.0119038  25.0978431  36.4642952  14.5223719  19.3335251  42.9911582
  15.0663623  19.9465209  42.4966537  13.9410564  19.8914829  43.5078595
  12.8081232  22.4555969  34.1226610  12.6832371  21.6545709  33.6137555
  13.4660323  22.9502162  33.6340580  14.8716140  20.2564989  35.7506160
  13.9246476  20.1370340  35.6784486  15.2198913  19.3687487  35.8332421
  11.8762573  20.0517705  31.9510512  11.7287536  19.1234413  32.1318082
  12.7016067  20.0737796  31.4667587  15.4796695  20.8746264  33.0375385
  16.4043243  20.6689125  32.8999836  15.3111999  20.6262665  33.9464726
  15.2692011  21.3931931  28.3937476  15.4428889  20.8278354  27.6411329
  15.7620903  22.1932826  28.2116966  21.1231403  14.1568354  30.0127776
  21.5662549  13.4075679  29.6146899  20.2457913  14.1478491  29.6301508
   9.8178656  22.0732475  39.1511582  10.1265782  21.8281622  40.0234281
  10.6154138  22.2779113  38.6630452   9.8399268  24.2270385  31.3816958
   9.4004258  23.7346763  32.0749815  10.5907385  23.6843352  31.1409034
   7.2873140  19.7708394  33.4539260   6.6653149  19.1079099  33.1541488
   7.9578007  19.7969526  32.7712908  17.8452513  18.7931305  42.3272903
  17.0548057  18.7755444  41.7877403  17.6085868  19.3319599  43.0821940
  17.9650388  15.6423771  39.6405632  18.0148393  15.4773779  40.5821154
  17.8564312  14.7751030  39.2503512  15.2554151  11.6254699  40.9564938
  16.1564013  11.4861164  40.6648936  15.3302125  11.7909154  41.8963116
  19.4668585  18.0620713  39.8847653  19.1753393  18.4250693  40.7211114
  18.8540716  17.3487721  39.7060985  20.6664267  15.6273593  32.4050223
  21.5011159  16.0663397  32.5687784  20.8023396  15.1512246  31.5858469
  17.7155773  13.1853327  38.3527711  18.1909895  13.3780974  37.5446563
  16.7921339  13.2412513  38.1071095  16.4157442  10.0619087  36.5856017
  17.3674865  10.1617185  36.6068241  16.2460893   9.2697356  37.0954101
  18.8945520  13.2825207  35.6998316  18.8621840  12.3441208  35.8858000
  19.5046144  13.3609244  34.9664141  19.0440009  10.0736251  35.7456600
  18.5279057   9.2894707  35.5586528  19.9279957   9.7454967  35.9103119
  24.7122070  14.3441214  34.8404353  25.4425458  14.0826502  35.4012057
  24.1029015  13.6069936  34.8806421  22.7937367  12.4849077  35.4378804
  22.0670531  12.3505042  34.8295296  22.3784654  12.7925905  36.2435522
  10.6167543  16.2039006  43.2026177  11.5370553  16.3817605  43.3966224
  10.5817126  15.2595052  43.0505877   8.3488751  13.1170386  44.0516769
   7.8655833  13.9170746  44.2580658   8.4349690  13.1278330  43.0984213
   4.2762089  17.0074920  36.0885203   5.2305342  16.9758863  36.0215135
   4.0774612  16.5465544  36.9035429   4.8661471  15.5776036  38.6556001
   5.6854360  16.0720115  38.6790838   5.1398279  14.6608004  38.6273568
   2.6312318  22.5494540  33.1055401   2.4966786  21.7894941  32.5393399
   2.2144380  23.2735440  32.6384190  22.7186235  12.0127130  31.5655657
  22.1585793  12.0820319  32.3387219  22.1129738  11.8368114  30.8455153
   5.7881443  23.4463857  33.3173843   5.6713828  24.3909289  33.2152534
   4.9673890  23.1437418  33.7059643  12.6449777  16.9795018  44.8540338
  13.5140937  17.1535670  44.4926973  12.1656529  17.7989434  44.7316068
   6.8135958  24.0992119  36.5329772   7.7163204  24.1315729  36.8496267
   6.5873328  23.1692570  36.5476108   8.5689560  22.8523105  33.1939851
   7.6185191  22.8524967  33.0804223   8.8722046  22.1055840  32.6775885
  24.3042253  28.6883644  34.2585613  24.9420663  28.5690391  33.5548953
  24.1863096  29.6364488  34.3173565  21.1131959  28.6411072  34.1947138
  20.7750471  28.5252136  33.3067672  21.9821728  28.2402237  34.1748144
  16.9718775  30.4946548  30.1844029  16.4083640  30.4036485  29.4160316
  16.8571170  29.6746453  30.6646521  21.5951742  29.7945923  40.1533343
  21.5840383  29.3998722  39.2813847  21.7572382  29.0611996  40.7467115
  14.5183207  31.9897740  33.0228249  15.3104499  31.6488564  32.6074548
  14.7579857  32.0992715  33.9430402  22.5518334  34.1617516  25.4958493
  21.9006314  34.7471596  25.1092507  23.3462697  34.6923711  25.5553531
  16.4773961  31.2506653  25.8945628  17.2504837  30.7035640  25.7558504
  16.8299360  32.1150902  26.1060089  18.3159004  32.5783035  39.1012527
  18.0248870  33.4828666  38.9859193  18.9515988  32.6199563  39.8156597
  19.2415210  29.9559884  35.6913887  19.8378783  29.7315906  34.9770850
  19.2990182  29.2144629  36.2939335  18.8140239  27.4099319  23.5264078
  19.0665759  26.8880840  22.7647541  17.8764798  27.2465465  23.6290761
  23.8583522  26.4135097  31.3338821  24.6446611  25.9954521  30.9829238
  24.1222226  27.3181190  31.5020469  24.0293599  31.8507948  26.0327478
  23.3939432  31.9242574  26.7448382  23.6991005  32.4401547  25.3546557
  29.2591949  26.3510331  32.2371799  29.9917121  25.7809547  32.4709629
  28.5031304  25.9631931  32.6778305  18.5336528  29.3127425  25.7288453
  18.4172786  28.6372328  26.3969537  18.6438787  28.8259799  24.9120606
  20.8768068  28.7737572  29.4335142  20.5126276  28.2468193  30.1448063
  21.7335184  28.3836041  29.2601627  26.7817369  20.0631905  36.6966408
  26.4500694  20.9327316  36.4727623  26.1862982  19.7468189  37.3760438
  23.2748889  32.2644451  36.0962321  22.9749612  33.1669490  35.9878128
  22.9299948  31.9976634  36.9483474  16.7261370  28.7158248  32.1299025
  15.8011867  28.5834462  32.3376717  16.9745783  29.4952467  32.6268968
  26.6746032  24.7826991  33.7759758  25.7662910  24.7142399  33.4818519
  26.6233628  25.2598936  34.6041584  20.4962776  26.2585129  25.4143157
  20.3762402  26.7042180  26.2528638  19.8015365  26.6070447  24.8556695
  14.0870181  28.3591521  32.9642814  14.2162562  28.6126000  33.8782226
  13.4067632  28.9519229  32.6447469  18.2569668  39.0288771  29.0633289
  18.1793698  39.9796596  29.1421769  17.6531312  38.6834644  29.7208215
  20.7486898  26.2016637  41.7194655  19.9720232  26.7610557  41.7097520
  21.3877461  26.6873419  42.2409526  28.5407679  22.9843429  35.5537632
  27.8982059  23.2775962  34.9077427  28.0362607  22.8696350  36.3590829
  26.1947842  26.7306603  26.2423491  27.1065699  26.9633989  26.0671189
  25.6857490  27.3143647  25.6798570  19.0033270  29.0102090  41.2812622
  19.7447955  29.5487134  41.0047446  18.2970256  29.6368379  41.4384174
  24.4788610  31.1531230  39.8784784  24.8871966  30.7113641  39.1339416
  23.7565872  30.5783858  40.1318977  20.8319680  26.0903837  37.2518341
  21.6780875  26.5143251  37.3952990  20.7718318  25.4337461  37.9456904
  24.8017425  31.7132421  33.6337073  24.1726287  31.8778135  32.9313141
  24.4143087  32.1274031  34.4048037  28.6806657  32.6486859  30.9881437
  27.9957695  33.0285760  30.4378470  28.7650506  33.2582185  31.7213384
  23.9819126  23.7508205  38.9099514  23.7380057  24.5050266  38.3733790
  24.2579056  24.1293553  39.7446762  25.9357588  30.2946818  37.5876780
  26.1474484  30.9378578  36.9111161  25.8887337  29.4609134  37.1198710
  23.5383817  22.9064638  34.4913352  22.6768296  23.2045892  34.7830090
  23.5646252  23.1235037  33.5594385  20.3545387  31.4506829  30.8987158
  20.8183732  31.7294532  30.1091780  20.0902185  30.5490274  30.7160249
  17.2469468  30.9978311  33.8366921  17.8170825  31.4265579  33.1984406
  17.8377580  30.7160895  34.5351107  19.2914273  27.5729981  27.7076723
  19.9938316  28.0251025  28.1750649  18.9594901  26.9313800  28.3356616
  17.7394634  26.1641738  42.0827932  17.1093295  26.8458019  42.3163329
  17.6330722  26.0524820  41.1381071  13.0339607  25.8313534  33.0093857
  12.2438661  26.0871063  32.5333967  13.5250854  26.6461872  33.1145897
  27.0503416  33.1718773  35.7599137  27.8720860  32.7698961  35.4781819
  27.0465819  33.0687007  36.7115253  14.9854352  26.1958113  29.9677333
  14.1885515  26.3076808  30.4860829  14.7579944  26.5344766  29.1018224
  20.8160020  32.7202817  37.9159848  20.8804452  33.1823224  38.7518020
  20.1070944  32.0900181  38.0442158  11.3177310  26.0844025  35.4408847
  11.5685348  26.9691034  35.7066423  11.8536858  25.9048626  34.6683939
  35.1409409  29.5157522  32.1084109  34.3873118  28.9464920  31.9528113
  35.2756950  29.4820186  33.0554744  20.5308037  34.3870924  27.7838828
  20.3953712  35.2322460  28.2123676  21.0717850  34.5890202  27.0204762
  17.0175377  20.4662504  44.4453183  16.6242323  19.9128702  45.1200828
  17.8341517  20.7773082  44.8359701  13.9837435  31.9046362  28.3566753
  14.4961955  32.6989612  28.5072318  14.6360148  31.2072653  28.2900355
  15.7932319  35.0212118  30.4389506  15.9698948  35.9430083  30.2510490
  16.5889153  34.7070538  30.8683886  19.9343338  21.8820383  42.0373440
  20.6753051  22.4827536  41.9577902  20.1661261  21.1398021  41.4791483
  15.0784676  27.0676750  40.3151670  14.9638191  26.1662007  40.6158769
  14.2229194  27.3140447  39.9636486  22.1576514  35.0094491  41.9139170
  21.7140368  34.2230869  41.5960075  22.8193727  35.1973641  41.2483061
  16.9163635  36.5390292  36.4399849  17.4671060  36.4107356  35.6676843
  16.0775111  36.8385181  36.0894742  24.2557752  35.2897290  39.9420572
  24.2376227  36.1106172  39.4500841  25.1777672  35.1651366  40.1670713
  20.7130806  32.8041420  40.7844080  21.2459143  32.0429708  40.5543388
  20.1844887  32.5115072  41.5268234  23.8800501  17.9101486  36.3137722
  23.5364770  18.8003128  36.2376832  24.2479464  17.7203144  35.4507307
  11.9486352  30.2335016  29.1326324  12.7861574  30.6432025  28.9160032
  12.1264619  29.2934459  29.1026518  23.8450784  27.9010097  24.8210157
  23.3297407  28.6714702  25.0598544  23.5728092  27.2275233  25.4443218
  21.4297895  22.7459798  29.8795395  20.5739491  22.3566648  29.7001034
  21.8424846  22.8251759  29.0195181  22.9597041  20.2806141  34.2786955
  22.4561837  20.2436276  33.4654760  23.2527648  21.1898884  34.3383612
  19.2039927  20.3644871  33.2853137  20.0692924  20.1687679  32.9259026
  19.2717436  20.1355223  34.2122493  28.8185058  30.6542452  26.7563330
  28.0414501  30.3153611  26.3118492  29.4976539  30.6595075  26.0818295
  23.6337087  25.7737189  26.6469938  23.3287222  26.0883338  27.4980081
  24.5867529  25.8518609  26.6897271  22.0783519  31.9327412  28.2962892
  21.5504880  31.1980172  27.9836129  21.5771021  32.7102089  28.0502860
  27.0576365  30.1276433  33.4129938  26.4000039  30.8175694  33.5010067
  27.8616764  30.5172865  33.7563925  16.8102246  22.5947079  30.6569503
  17.3845998  22.3722260  29.9242696  17.3973229  22.6635773  31.4098105
  25.8681823  28.4820806  31.4633880  26.3813705  29.1150797  31.9655590
  26.5183047  27.8822001  31.0977240  19.1124914  19.4688328  29.3844573
  18.4589326  19.1537345  28.7601188  19.0705388  18.8464068  30.1104396
  20.2236119  29.7507623  21.2997865  19.3163181  29.5196876  21.4989014
  20.7207151  28.9545242  21.4871847  23.1304198  38.4605130  24.2194551
  22.4565896  38.7636827  24.8279509  23.5170020  39.2634210  23.8700008
  22.3462654  25.9570261  33.7092221  21.4285216  26.1785208  33.5513909
  22.7622798  26.0316572  32.8503928  23.1297702  27.3561677  28.8394901
  23.8769521  27.8683074  28.5302023  23.3989292  27.0345730  29.6999294
  21.4024352  29.8520218  25.8221855  20.4935572  29.5679250  25.9194325
  21.4319436  30.2719296  24.9625162  26.6343620  33.4626807  29.5913023
  26.1805947  32.6217717  29.6478213  26.0037586  34.0988205  29.9287803
  25.5776539  24.3918793  30.8213690  24.8399296  23.8796179  31.1523933
  25.8303313  23.9519175  30.0096967  25.0776559  35.3003304  30.5262841
  25.3699533  35.8608361  29.8075206  25.5875179  35.5931865  31.2816000
  25.6788167  17.1695045  31.4155459  25.9847043  16.3092409  31.1281374
  26.4040771  17.7612665  31.2154453  11.9712523  27.5725732  29.8037057
  11.7736922  26.9795092  29.0788124  11.4159187  27.2677942  30.5212996
  19.9509246  27.4648838  31.9231650  20.0057856  26.5122675  31.8474127
  19.1400448  27.6208277  32.4072949  21.1000440  31.3928961  23.1609934
  20.6619870  30.6764820  22.7015571  21.8410881  31.6205076  22.5995025
  17.8901606  26.0825898  29.6822029  17.0769472  26.3820068  30.0887221
  18.3860600  25.6881587  30.3996512  20.0410184  36.0783655  31.6156294
  19.9986363  36.3044501  30.6864826  20.9572883  35.8447029  31.7642095
  23.4875818  26.5467722  38.5136923  23.8425206  26.7739196  39.3731389
  24.1347949  26.8786099  37.8914179  29.2173555  29.6686158  29.2186252
  29.0791453  29.8587754  28.2907441  28.8609774  30.4305541  29.6754303
  17.3815681  23.6544253  35.2983264  18.0215060  23.5133013  34.6006228
  16.5493212  23.3678767  34.9221866  29.2442934  31.7362685  34.2297524
  29.6779441  31.6437974  35.0780578  29.9574515  31.7120186  33.5917540
  18.1575985  32.9546684  31.4118257  18.9516583  32.4597004  31.2100832
  17.4467677  32.4264547  31.0485962  22.9770829  35.3364779  35.7630624
  23.0307852  35.9055716  36.5308340  22.1085611  35.5066664  35.3984661
  14.4658748  27.0989766  27.4878009  13.5356336  27.0374221  27.7047972
  14.5616220  26.5765718  26.6914651  14.3844297  23.6244578  30.0756251
  14.6451115  24.5389912  29.9665412  15.2061470  23.1569021  30.2252864
  15.8569223  25.0382336  37.2455076  16.5292276  24.8299698  36.5967725
  15.0299009  24.8404422  36.8060308  30.1058484  31.7786386  36.7630409
  30.2994374  32.6832196  37.0089684  30.0059102  31.3193805  37.5968994
  21.7594795  21.6644277  39.2620736  21.1122710  22.3634226  39.1685213
  22.5295810  22.0980420  39.6296985  25.1673593  31.9293129  42.3371290
  25.0159099  31.7003680  41.4201373  25.1578272  32.8863730  42.3502635
  21.9358929  29.5025041  37.3217556  22.8650989  29.6536201  37.1486524
  21.5149959  29.5909062  36.4666203  20.7347261  33.5275706  35.0916094
  20.5958347  33.1594490  35.9642032  19.9461857  34.0423345  34.9200052
  21.3295413  38.6284802  26.4341630  21.5047169  38.1572846  27.2487253
  20.6428201  39.2550569  26.6622891  22.2852476  32.9057309  32.4804932
  21.9502309  32.8658079  33.3762581  21.7856422  32.2402024  32.0075342
  16.2596720  28.3124939  38.0057513  16.1216518  27.5805177  38.6069052
  17.1701643  28.2233839  37.7241701  25.2211668  30.2513343  22.7541991
  24.6040838  29.5260171  22.6575044  24.7528156  31.0122703  22.4109066
  18.8879021  28.0244898  37.4941192  19.5978639  27.3838090  37.4527811
  18.8448329  28.2757793  38.4167373  26.8765799  34.9612251  40.4147772
  26.8178345  34.2771471  39.7478355  27.2785318  35.7031241  39.9628398
  17.6007955  25.0110116  39.3136832  17.0645312  24.5600854  39.9658428
  17.0124663  25.1456025  38.5707296  15.8956498  41.7774165  33.2081491
  16.1353096  42.4092689  33.8860509  15.0525695  41.4262205  33.4946850
  26.8783207  32.9251835  38.6461751  25.9909985  32.5877757  38.7688150
  27.4481758  32.1934866  38.8830517   8.5312354  29.2575927  31.9704803
   9.2183394  28.9437657  31.3825818   8.3760482  30.1617292  31.6972054
  13.3347076  24.1466123  36.3989826  13.2505265  23.5391793  35.6640236
  12.5129782  24.6375142  36.3999323  20.4084360  37.5853288  35.6122995
  20.3354531  38.3908259  36.1242299  19.9661753  37.7845253  34.7871016
  20.1974140  36.8225058  29.1225816  19.4141662  37.3646738  29.2164041
  20.8966885  37.3399037  29.5220057  23.5070790  22.6319687  31.7660021
  24.0039489  21.8789649  31.4461092  22.7357771  22.6684004  31.2003231
  31.3600547  28.3360053  33.4078313  31.3490423  29.2184768  33.0372246
  30.4917927  27.9831603  33.2132850  22.8683044  37.4840122  37.7681153
  23.5811016  38.1187586  37.6957055  22.3773072  37.5803988  36.9521155
  24.5900570  31.3891374  29.3398445  23.6556849  31.5092837  29.1703149
  24.7677239  30.4863841  29.0758455  20.0905758  24.7737070  31.4931706
  19.7203546  24.2208110  32.1812612  20.5864851  24.1695203  30.9406706
  27.9773122  27.2308694  29.8748479  28.4433574  28.0636685  29.8008782
  28.4280622  26.7653675  30.5793737  17.9194957  35.2334565  38.5886724
  18.6204417  35.8671048  38.7416118  17.4490072  35.5749297  37.8282363
  26.0449353  33.5752515  26.8734631  26.3209197  33.4609109  27.7828505
  25.1753852  33.1770000  26.8346804  25.9489785  19.5989281  33.9139380
  25.0352864  19.8293507  34.0821587  26.3782886  19.6827725  34.7653413
  25.7196243  27.7879172  36.4139274  25.0667693  28.0355080  35.7591727
  26.0976623  26.9743311  36.0801752  22.6803417  37.8238866  30.5167445
  22.8625811  37.0060522  30.9795197  23.5036403  38.0406558  30.0792335
  23.0145582  36.7507051  27.7782493  23.5433349  36.2399505  27.1652655
  23.2773802  36.4349581  28.6428026  21.7683816  28.5298984  42.9005311
  21.0924453  28.4293113  43.5707687  22.5911450  28.3738197  43.3641309
  13.5162675  34.7670920  35.5217827  14.1016112  34.0214608  35.6545731
  13.3187514  35.0774877  36.4054491  16.3701330  37.8022167  30.5380269
  15.7011706  38.2868295  30.0544309  16.2314200  38.0491388  31.4523648
   8.1080330  27.3376520  34.2422270   8.1464429  26.8040111  35.0359388
   7.6020623  26.8111726  33.6233247  20.5106599  39.8365911  37.1362927
  21.0624907  39.9997532  37.9012013  20.8512792  40.4270349  36.4642952
  15.4871092  22.1841061  37.7384812  15.5512419  23.0455892  37.3262210
  15.4238212  21.5715062  37.0057171  14.9623365  24.2564193  41.3857846
  15.5895403  23.8741271  41.9995371  14.1051284  24.0378395  41.7513539
  25.3617473  34.6627168  42.9911582  25.9057377  35.2757127  42.4966537
  24.7804318  35.2206747  43.5078595  11.7388907  26.0640622  27.3176201
  12.0342349  25.1551301  27.2643255  10.8376943  26.0428362  26.9957204
  23.6474986  37.7847887  34.1226610  23.5226126  36.9837626  33.6137555
  24.3054077  38.2794080  33.6340580  15.2683154  24.1396619  33.3003750
  14.5469740  24.7532587  33.1611223  16.0576410  24.6754384  33.2220396
  25.7109895  35.5856907  35.7506160  24.7640230  35.4662258  35.6784486
  26.0592668  34.6979405  35.8332421  18.0709468  21.4751046  39.5744402
  18.5943870  21.7213342  40.3370711  17.8521801  22.3071080  39.1547539
  13.4676749  23.7454720  27.4415526  13.1389455  22.8652099  27.2590632
  13.8216120  23.6902389  28.3291916  22.7156328  35.3809623  31.9510512
  22.5681290  34.4526330  32.1318082  23.5409821  35.4029714  31.4667587
  16.5818572  24.0327690  27.8091004  16.9214645  24.5613611  27.0869612
  17.0290693  24.3708096  28.5849571  26.3190450  36.2038182  33.0375385
  27.2436997  35.9981043  32.8999836  26.1505753  35.9554583  33.9464726
  19.2762013  22.4164741  37.2594072  18.9358833  21.6172554  37.6614752
  18.5701019  22.7166451  36.6870905  19.9278485  19.5014053  35.7121395
  20.7504554  19.0274531  35.5900285  20.1716548  20.2804537  36.2120081
  18.5686719  22.5302311  26.0084297  19.2895082  22.9083564  25.5048014
  17.9452023  23.2491188  26.1119275  22.7117842  23.2347460  26.9442629
  22.9281457  24.1172098  26.6431457  22.2311909  22.8433674  26.2148271
  17.4517064  26.1933174  33.5213374  17.3061644  26.5073477  34.4137655
  16.9742267  26.8118074  32.9684272  19.3113446  23.1835722  33.5694263
  19.2975015  22.2876815  33.2326561  20.0285875  23.1906385  34.2032549
  21.1639577  23.6173062  35.6147391  20.9057355  24.5390133  35.6131721
  20.6324618  23.2203496  36.3047855  26.1085766  36.7223849  28.3937476
  26.2822643  36.1570271  27.6411329  26.6014657  37.5224744  28.2116966
  11.9262726  28.7338518  36.4601035  11.3816194  29.5098326  36.5921309
  12.8042076  29.0809323  36.3020156  18.7150342  22.0650102  28.8381833
  18.8366254  21.1366748  29.0372721  18.4252385  22.0788788  27.9260149
  21.5841533  19.7505012  31.9748553  21.6063230  19.8144345  31.0200533
  22.0009592  18.9109521  32.1689059  31.9625157  29.4860272  30.0127776
  32.4056303  28.7367597  29.6146899  31.0851667  29.4770408  29.6301508
  27.0960938  36.0390613  25.4934374  27.7911843  36.6597306  25.7121689
  27.4384089  35.1885965  25.7686752  12.7128748  27.8608414  39.3531192
  11.9710484  28.0091050  39.9395822  12.3921492  28.1216680  38.4897941
  28.9952362  33.4890319  27.0221705  29.5203686  33.8277592  26.2971025
  28.9074714  32.5537334  26.8384840  20.6572410  37.4024393  39.1511582
  20.9659537  37.1573539  40.0234281  21.4547892  37.6071031  38.6630452
  20.6793022  39.5562302  31.3816958  20.2398013  39.0638681  32.0749815
  21.4301139  39.0135270  31.1409034  13.1585361  35.7473843  31.3841586
  13.9843381  35.4477615  31.0040230  12.8079413  34.9781465  31.8331375
  18.1266894  35.1000311  33.4539260  17.5046904  34.4371016  33.1541488
  18.7971761  35.1261443  32.7712908  11.3593966  33.6660170  32.3430520
  10.5225875  33.2382344  32.1614521  11.3317612  33.8592613  33.2801311
  18.1991422  23.5782099  43.0471766  18.2479577  24.4544222  42.6649536
  18.7413936  23.0359492  42.4743409  28.6846268  34.1223223  42.3272903
  27.8941811  34.1047361  41.7877403  28.4479622  34.6611516  43.0821940
  28.8044143  30.9715689  39.6405632  28.8542148  30.8065696  40.5821154
  28.6958066  30.1042948  39.2503512  17.6880401  33.6504235  26.9297721
  17.8368522  34.3339699  26.2764393  18.4946845  33.6309325  27.4447176
  26.0947905  26.9546617  40.9564938  26.9957768  26.8153082  40.6648936
  26.1695880  27.1201072  41.8963116  20.4290710  24.3313472  39.8018125
  19.5594020  24.6247038  39.5300713  20.6650191  24.9153917  40.5225388
  30.3062339  33.3912630  39.8847653  30.0147148  33.7542611  40.7211114
  29.6934471  32.6779639  39.7060985  31.5058022  30.9565510  32.4050223
  32.3404913  31.3955314  32.5687784  31.6417151  30.4804163  31.5858469
  28.5549528  28.5145245  38.3527711  29.0303649  28.7072891  37.5446563
  27.6315093  28.5704431  38.1071095  15.4433034  29.6769412  27.9358789
  15.1979076  28.7731742  28.1339000  15.6128949  29.6786563  26.9938267
  23.1329744  20.5493089  37.3183545  23.6511688  21.2854116  36.9930034
  22.7784877  20.8557082  38.1530304  23.3842338  16.9693371  32.8384442
  23.6644092  16.3016560  33.4644868  24.1692945  17.1622467  32.3259105
  21.1875807  36.1452365  24.4009468  20.6149774  36.7642552  23.9479940
  21.7608601  36.6951727  24.9349390  27.2551197  25.3911005  36.5856017
  28.2068620  25.4909103  36.6068241  27.0854647  24.5989274  37.0954101
  25.2765576  22.4766588  36.7715418  24.6815508  22.7571601  36.0761906
  24.9915273  22.9660489  37.5432159  24.4073067  36.4289515  25.5318050
  25.3403740  36.3635077  25.7350926  24.3196279  37.2645782  25.0732583
  27.0361083  35.7455386  22.4921998  26.9574715  35.4115249  23.3857756
  27.8570750  36.2377153  22.4913470  29.7339275  28.6117125  35.6998316
  29.7015595  27.6733126  35.8858000  30.3439898  28.6901162  34.9664141
  21.5722605  27.4813178  21.7425520  22.5181710  27.3519386  21.8113938
  21.1936850  26.7427840  22.2194949  29.8833763  25.4028168  35.7456600
  29.3672812  24.6186625  35.5586528  30.7673712  25.0746885  35.9103119
  27.5444490  19.1469184  31.7052412  27.3469311  18.8384272  32.5895744
  28.1544195  19.8730823  31.8350342  35.5515824  29.6733132  34.8404353
  36.2819213  29.4118420  35.4012057  34.9422770  28.9361854  34.8806421
  33.6331121  27.8140994  35.4378804  32.9064285  27.6796959  34.8295296
  33.2178408  28.1217823  36.2435522  21.4561298  31.5330924  43.2026177
  22.3764307  31.7109523  43.3966224  21.4210881  30.5886969  43.0505877
  10.6743463  26.7269518  32.1279452  10.3546247  25.8734826  31.8353826
  10.1276891  26.9418096  32.8837419  14.4523370  29.4431959  35.8448959
  14.6709380  30.3749066  35.8636992  14.8649144  29.0839933  36.6303762
  21.3727588  19.9500044  27.8324647  20.5628317  19.6047129  28.2079893
  22.0612005  19.6407588  28.4212259  23.3018137  19.0278091  29.4548944
  23.8549175  19.4473544  30.1138967  23.5388223  18.1013839  29.4971900
  19.3251236  25.0165164  45.2351708  19.2247963  25.9659521  45.1663799
  19.1072778  24.6883403  44.3627778  10.5431723  30.3472429  34.0972574
   9.8495194  29.9326382  33.5842528  11.2904714  30.3892966  33.5005993
  26.6796944  21.1378616  28.9627608  26.0995613  21.7963420  28.5805660
  26.4132876  20.3155960  28.5515025  25.1300510  20.5383674  31.1648928
  25.6300288  20.6500208  30.3563247  25.7736118  20.2344726  31.8049737
  19.1882506  28.4462303  44.0516769  18.7049588  29.2462663  44.2580658
  19.2743445  28.4570248  43.0984213  12.4568465  30.2790683  31.9738589
  12.4339154  30.3778370  31.0220472  12.7669102  31.1255834  32.2955755
  15.1155843  32.3366838  36.0885203  16.0699097  32.3050780  36.0215135
  14.9168367  31.8757462  36.9035429  15.7055225  30.9067954  38.6556001
  16.5248114  31.4012033  38.6790838  15.9792033  29.9899922  38.6273568
  25.4621822  23.2978706  28.0183956  24.5747677  23.5828357  27.8004151
  25.8775811  23.1372470  27.1711233  28.8136358  23.3225227  31.7338295
  29.5896748  23.8121680  32.0062912  28.0884492  23.7483281  32.1910165
  31.2508916  24.0352846  32.7912236  31.8453407  23.7948582  32.0805544
  31.3235500  23.3159977  33.4185772  13.4706072  37.8786457  33.1055401
  13.3360540  37.1186858  32.5393399  13.0538134  38.6027357  32.6384190
  24.6065035  33.0623381  22.1131976  25.3100885  33.2673383  22.7289632
  23.8827684  33.6300143  22.3781060  25.4362845  28.8133242  28.2334246
  25.3798047  29.2701794  27.3941879  25.9891188  28.0523927  28.0557089
  29.2467651  24.6022974  29.0584366  28.9904586  24.2019610  29.8892573
  28.6220519  25.3166768  28.9334505  33.5579989  27.3419047  31.5655657
  32.9979547  27.4112237  32.3387219  32.9523493  27.1660032  30.8455153
  16.6275198  38.7755774  33.3173843  16.5107582  39.7201207  33.2152534
  15.8067644  38.4729336  33.7059643  26.5151733  33.5005910  24.1630436
  27.3497336  33.0687109  23.9807911  26.3536075  33.3287924  25.0907331
  26.1697625  30.0038023  25.5286775  26.1146428  29.8382295  24.5875220
  25.5443680  30.7114056  25.6848965  10.9590140  25.2406088  39.3548198
  11.6049003  24.7305042  39.8435423  10.7507291  25.9774769  39.9291623
  23.4843532  32.3086935  44.8540338  24.3534692  32.4827588  44.4926973
  23.0050283  33.1281352  44.7316068  17.6529712  39.4284036  36.5329772
  18.5556959  39.4607647  36.8496267  17.4267082  38.4984487  36.5476108
  19.4083314  38.1815023  33.1939851  18.4578945  38.1816884  33.0804223
  19.7115800  37.4347757  32.6775885  23.2945870  16.0988909  29.3618031
  22.5278265  15.5447396  29.5074713  23.7056575  16.1710778  30.2232182
  15.2987631  22.3873705  43.4523212  16.1619092  22.0310510  43.6626537
  14.7253041  22.0487600  44.1398616  35.1436008  44.0175561  34.2585613
  35.7814418  43.8982309  33.5548953  35.0256851  44.9656405  34.3173565
  31.9525714  43.9702989  34.1947138  31.6144225  43.8544054  33.3067672
  32.8215482  43.5694154  34.1748144  27.8112530  45.8238466  30.1844029
  27.2477395  45.7328403  29.4160316  27.6964925  45.0038370  30.6646521
  25.3576962  47.3189657  33.0228249  26.1498253  46.9780482  32.6074548
  25.5973612  47.4284632  33.9430402  33.3912088  49.4909433  25.4958493
  32.7400068  50.0763514  25.1092507  34.1856451  50.0215628  25.5553531
  27.3167715  46.5798571  25.8945628  28.0898591  46.0327558  25.7558504
  27.6693114  47.4442820  26.1060089  30.0808965  45.2851801  35.6913887
  30.6772537  45.0607824  34.9770850  30.1383936  44.5436547  36.2939335
  29.6533993  42.7391237  23.5264078  29.9059514  42.2172758  22.7647541
  28.7158552  42.5757382  23.6290761  34.6977276  41.7427015  31.3338821
  35.4840365  41.3246438  30.9829238  34.9615980  42.6473107  31.5020469
  34.8687353  47.1799865  26.0327478  34.2333186  47.2534492  26.7448382
  34.5384760  47.7693464  25.3546557  40.0985703  41.6802248  32.2371799
  40.8310875  41.1101465  32.4709629  39.3425059  41.2923849  32.6778305
  29.3730282  44.6419343  25.7288453  29.2566540  43.9664246  26.3969537
  29.4832542  44.1551717  24.9120606  31.7161823  44.1029490  29.4335142
  31.3520030  43.5760111  30.1448063  32.5728939  43.7127959  29.2601627
  37.6211124  35.3923822  36.6966408  37.2894448  36.2619233  36.4727623
  37.0256737  35.0760106  37.3760438  31.3567310  39.1319390  24.4296490
  31.5241712  39.9999626  24.7966961  31.1664479  39.2946671  23.5057780
  34.1142643  47.5936368  36.0962321  33.8143366  48.4961407  35.9878128
  33.7693703  47.3268552  36.9483474  27.5655125  44.0450165  32.1299025
  26.6405621  43.9126379  32.3376717  27.8139538  44.8244384  32.6268968
  37.5139787  40.1118909  33.7759758  36.6056664  40.0434317  33.4818519
  37.4627383  40.5890854  34.6041584  31.3356531  41.5877047  25.4143157
  31.2156156  42.0334098  26.2528638  30.6409119  41.9362365  24.8556695
  24.9263936  43.6883439  32.9642814  25.0556317  43.9417918  33.8782226
  24.2461387  44.2811147  32.6447469  29.0963423  54.3580689  29.0633289
  29.0187453  55.3088514  29.1421769  28.4925066  54.0126561  29.7208215
  31.5880653  41.5308554  41.7194655  30.8113987  42.0902474  41.7097520
  32.2271216  42.0165337  42.2409526  39.3801433  38.3135347  35.5537632
  38.7375814  38.6067880  34.9077427  38.8756362  38.1988267  36.3590829
  37.0341597  42.0598520  26.2423491  37.9459453  42.2925907  26.0671189
  36.5251244  42.6435564  25.6798570  31.6713435  41.4195755  37.2518341
  32.5174630  41.8435168  37.3952990  31.6112072  40.7629379  37.9456904
  35.6411179  47.0424339  33.6337073  35.0120042  47.2070053  32.9313141
  35.2536841  47.4565948  34.4048037  39.5200411  47.9778776  30.9881437
  38.8351449  48.3577678  30.4378470  39.6044260  48.5874103  31.7213384
  34.8212880  39.0800123  38.9099514  34.5773812  39.8342184  38.3733790
  35.0972811  39.4585471  39.7446762  34.3777572  38.2356556  34.4913352
  33.5162051  38.5337810  34.7830090  34.4040006  38.4526955  33.5594385
  31.1939141  46.7798747  30.8987158  31.6577487  47.0586450  30.1091780
  30.9295939  45.8782191  30.7160249  28.0863222  46.3270228  33.8366921
  28.6564579  46.7557497  33.1984406  28.6771334  46.0452813  34.5351107
  30.1308027  42.9021899  27.7076723  30.8332071  43.3542943  28.1750649
  29.7988656  42.2605718  28.3356616  28.5788389  41.4933656  42.0827932
  27.9487049  42.1749937  42.3163329  28.4724477  41.3816737  41.1381071
  23.8733361  41.1605452  33.0093857  23.0832415  41.4162980  32.5333967
  24.3644609  41.9753790  33.1145897  37.8897171  48.5010691  35.7599137
  38.7114614  48.0990878  35.4781819  37.8859574  48.3978925  36.7115253
  25.8248107  41.5250031  29.9677333  25.0279270  41.6368725  30.4860829
  25.5973699  41.8636683  29.1018224  22.1571064  41.4135942  35.4408847
  22.4079103  42.2982952  35.7066423  22.6930613  41.2340544  34.6683939
  45.9803164  44.8449439  32.1084109  45.2266872  44.2756837  31.9528113
  46.1150705  44.8112104  33.0554744  31.3701792  49.7162842  27.7838828
  31.2347467  50.5614377  28.2123676  31.9111604  49.9182119  27.0204762
  27.8569131  35.7954422  44.4453183  27.4636077  35.2420620  45.1200828
  28.6735272  36.1065000  44.8359701  24.8231189  47.2338280  28.3566753
  25.3355710  48.0281530  28.5072318  25.4753902  46.5364570  28.2900355
  26.6326074  50.3504036  30.4389506  26.8092702  51.2722001  30.2510490
  27.4282907  50.0362455  30.8683886  30.7737092  37.2112301  42.0373440
  31.5146806  37.8119454  41.9577902  31.0055015  36.4689938  41.4791483
  25.9178430  42.3968668  40.3151670  25.8031946  41.4953925  40.6158769
  25.0622948  42.6432365  39.9636486  27.7557389  51.8682210  36.4399849
  28.3064815  51.7399273  35.6676843  26.9168865  52.1677099  36.0894742
  34.7194255  33.2393404  36.3137722  34.3758525  34.1295045  36.2376832
  35.0873218  33.0495061  35.4507307  22.7880106  45.5626934  29.1326324
  23.6255328  45.9723942  28.9160032  22.9658374  44.6226376  29.1026518
  34.6844538  43.2302015  24.8210157  34.1691162  44.0006619  25.0598544
  34.4121847  42.5567151  25.4443218  32.2691649  38.0751715  29.8795395
  31.4133245  37.6858566  29.7001034  32.6818601  38.1543676  29.0195181
  33.7990796  35.6098059  34.2786955  33.2955591  35.5728194  33.4654760
  34.0921403  36.5190801  34.3383612  30.0433682  35.6936788  33.2853137
  30.9086678  35.4979597  32.9259026  30.1111191  35.4647140  34.2122493
  39.6578812  45.9834369  26.7563330  38.8808255  45.6445529  26.3118492
  40.3370293  45.9886993  26.0818295  34.4730841  41.1029107  26.6469938
  34.1680977  41.4175256  27.4980081  35.4261283  41.1810527  26.6897271
  32.9177273  47.2619330  28.2962892  32.3898635  46.5272090  27.9836129
  32.4164776  48.0394006  28.0502860  37.8970119  45.4568351  33.4129938
  37.2393794  46.1467612  33.5010067  38.7010518  45.8464783  33.7563925
  27.6496001  37.9238996  30.6569503  28.2239753  37.7014178  29.9242696
  28.2366983  37.9927691  31.4098105  36.7075578  43.8112723  31.4633880
  37.2207460  44.4442715  31.9655590  37.3576802  43.2113919  31.0977240
  27.9765588  39.9543457  24.6765389  27.1402900  40.2918144  24.9974663
  27.8370357  39.8192437  23.7392526  29.9518668  34.7980245  29.3844573
  29.2983081  34.4829262  28.7601188  29.9099143  34.1755986  30.1104396
  31.0629873  45.0799540  21.2997865  30.1556935  44.8488794  21.4989014
  31.5600905  44.2837160  21.4871847  33.9697952  53.7897048  24.2194551
  33.2959651  54.0928744  24.8279509  34.3563774  54.5926128  23.8700008
  33.1856409  41.2862179  33.7092221  32.2678970  41.5077126  33.5513909
  33.6016552  41.3608489  32.8503928  33.9691457  42.6853595  28.8394901
  34.7163276  43.1974992  28.5302023  34.2383046  42.3637647  29.6999294
  32.2418107  45.1812135  25.8221855  31.3329326  44.8971168  25.9194325
  32.2713191  45.6011214  24.9625162  37.4737374  48.7918725  29.5913023
  37.0199701  47.9509635  29.6478213  36.8431341  49.4280123  29.9287803
  36.4170294  39.7210711  30.8213690  35.6793051  39.2088097  31.1523933
  36.6697067  39.2811092  30.0096967  35.9170313  50.6295221  30.5262841
  36.2093288  51.1900279  29.8075206  36.4268934  50.9223782  31.2816000
  36.5181921  32.4986963  31.4155459  36.8240798  31.6384326  31.1281374
  37.2434526  33.0904583  31.2154453  22.8106277  42.9017649  29.8037057
  22.6130677  42.3087010  29.0788124  22.2552941  42.5969860  30.5212996
  30.7903001  42.7940756  31.9231650  30.8451611  41.8414592  31.8474127
  29.9794203  42.9500195  32.4072949  31.9394195  46.7220879  23.1609934
  31.5013624  46.0056738  22.7015571  32.6804635  46.9496994  22.5995025
  28.7295361  41.4117816  29.6822029  27.9163226  41.7111986  30.0887221
  29.2254355  41.0173504  30.3996512  30.8803939  51.4075573  31.6156294
  30.8380117  51.6336419  30.6864826  31.7966637  51.1738947  31.7642095
  34.3269572  41.8759640  38.5136923  34.6818960  42.1031113  39.3731389
  34.9741704  42.2078017  37.8914179  40.0567309  44.9978076  29.2186252
  39.9185208  45.1879672  28.2907441  39.7003528  45.7597459  29.6754303
  28.2209435  38.9836171  35.2983264  28.8608815  38.8424930  34.6006228
  27.3886966  38.6970685  34.9221866  40.0836689  47.0654603  34.2297524
  40.5173196  46.9729892  35.0780578  40.7968270  47.0412103  33.5917540
  28.9969739  48.2838602  31.4118257  29.7910338  47.7888922  31.2100832
  28.2861432  47.7556465  31.0485962  33.8164584  50.6656697  35.7630624
  33.8701606  51.2347633  36.5308340  32.9479365  50.8358582  35.3984661
  25.3052503  42.4281683  27.4878009  24.3750091  42.3666139  27.7047972
  25.4009975  41.9057636  26.6914651  25.2238052  38.9536496  30.0756251
  25.4844869  39.8681829  29.9665412  26.0455224  38.4860939  30.2252864
  26.6962977  40.3674253  37.2455076  27.3686031  40.1591615  36.5967725
  25.8692764  40.1696339  36.8060308  32.5988549  36.9936194  39.2620736
  31.9516464  37.6926144  39.1685213  33.3689565  37.4272338  39.6296985
  31.5741015  48.8567624  35.0916094  31.4352101  48.4886408  35.9642032
  30.7855612  49.3715263  34.9200052  32.1689167  53.9576720  26.4341630
  32.3440923  53.4864763  27.2487253  31.4821955  54.5842486  26.6622891
  33.1246231  48.2349226  32.4804932  32.7896063  48.1949996  33.3762581
  32.6250176  47.5693942  32.0075342  27.0990474  43.6416856  38.0057513
  26.9610272  42.9097095  38.6069052  28.0095398  43.5525756  37.7241701
  36.0605422  45.5805261  22.7541991  35.4434593  44.8552089  22.6575044
  35.5921911  46.3414621  22.4109066  29.7272775  43.3536816  37.4941192
  30.4372394  42.7130008  37.4527811  29.6842083  43.6049710  38.4167373
  28.4401709  40.3402033  39.3136832  27.9039066  39.8892772  39.9658428
  27.8518418  40.4747942  38.5707296  26.7350253  57.1066083  33.2081491
  26.9746851  57.7384607  33.8860509  25.8919449  56.7554123  33.4946850
  27.8503968  39.7990685  21.8763296  26.9733434  39.6779486  21.5125542
  28.3261721  39.0076763  21.6242184  19.3706108  44.5867845  31.9704803
  20.0577148  44.2729575  31.3825818  19.2154237  45.4909209  31.6972054
  24.1740830  39.4758041  36.3989826  24.0899019  38.8683711  35.6640236
  23.3523537  39.9667059  36.3999323  31.2478114  52.9145205  35.6122995
  31.1748286  53.7200177  36.1242299  30.8055508  53.1137171  34.7871016
  31.0367894  52.1516975  29.1225816  30.2535416  52.6938655  29.2164041
  31.7360639  52.6690955  29.5220057  34.3464544  37.9611605  31.7660021
  34.8433244  37.2081567  31.4461092  33.5751526  37.9975921  31.2003231
  42.1994302  43.6651970  33.4078313  42.1884178  44.5476686  33.0372246
  41.3311681  43.3123521  33.2132850  35.4294325  46.7183292  29.3398445
  34.4950604  46.8384754  29.1703149  35.6070993  45.8155759  29.0758455
  30.9299513  40.1028988  31.4931706  30.5597301  39.5500028  32.1812612
  31.4258605  39.4987121  30.9406706  38.8166876  42.5600611  29.8748479
  39.2827328  43.3928603  29.8008782  39.2674377  42.0945593  30.5793737
  36.8843107  48.9044432  26.8734631  37.1602951  48.7901027  27.7828505
  36.0147606  48.5061917  26.8346804  36.7883539  34.9281198  33.9139380
  35.8746619  35.1585425  34.0821587  37.2176640  35.0119642  34.7653413
  36.5589998  43.1171090  36.4139274  35.9061448  43.3646998  35.7591727
  36.9370377  42.3035228  36.0801752  33.5197171  53.1530783  30.5167445
  33.7019566  52.3352439  30.9795197  34.3430157  53.3698476  30.0792335
  33.8539337  52.0798968  27.7782493  34.3827103  51.5691423  27.1652655
  34.1167556  51.7641499  28.6428026  24.3556430  50.0962838  35.5217827
  24.9409866  49.3506526  35.6545731  24.1581268  50.4066794  36.4054491
  27.2095085  53.1314085  30.5380269  26.5405460  53.6160213  30.0544309
  27.0707955  53.3783306  31.4523648  18.9474084  42.6668438  34.2422270
  18.9858184  42.1332029  35.0359388  18.4414377  42.1403643  33.6233247
  26.3264847  37.5132978  37.7384812  26.3906173  38.3747809  37.3262210
  26.2631967  36.9006980  37.0057171  25.8017119  39.5856111  41.3857846
  26.4289158  39.2033188  41.9995371  24.9445038  39.3670313  41.7513539
  22.5782662  41.3932540  27.3176201  22.8736103  40.4843219  27.2643255
  21.6770698  41.3720280  26.9957204  34.4868741  53.1139804  34.1226610
  34.3619880  52.3129544  33.6137555  35.1447832  53.6085998  33.6340580
  26.1076909  39.4688537  33.3003750  25.3863495  40.0824504  33.1611223
  26.8970165  40.0046302  33.2220396  36.5503649  50.9148824  35.7506160
  35.6033985  50.7954175  35.6784486  36.8986422  50.0271322  35.8332421
  28.9103222  36.8042963  39.5744402  29.4337624  37.0505260  40.3370711
  28.6915556  37.6362998  39.1547539  24.3070504  39.0746638  27.4415526
  23.9783210  38.1944017  27.2590632  24.6609874  39.0194306  28.3291916
  33.5550082  50.7101540  31.9510512  33.4075045  49.7818248  32.1318082
  34.3803576  50.7321631  31.4667587  27.4212327  39.3619608  27.8091004
  27.7608399  39.8905529  27.0869612  27.8684447  39.7000014  28.5849571
  37.1584204  51.5330099  33.0375385  38.0830752  51.3272961  32.8999836
  36.9899508  51.2846500  33.9464726  30.1155767  37.7456658  37.2594072
  29.7752588  36.9464471  37.6614752  29.4094774  38.0458369  36.6870905
  30.7672239  34.8305971  35.7121395  31.5898309  34.3566449  35.5900285
  31.0110303  35.6096454  36.2120081  29.4080474  37.8594229  26.0084297
  30.1288836  38.2375482  25.5048014  28.7845778  38.5783106  26.1119275
  33.5511597  38.5639378  26.9442629  33.7675211  39.4464016  26.6431457
  33.0705664  38.1725592  26.2148271  28.2910818  41.5225091  33.5213374
  28.1455399  41.8365394  34.4137655  27.8136022  42.1409992  32.9684272
  30.1507201  38.5127639  33.5694263  30.1368770  37.6168733  33.2326561
  30.8679629  38.5198303  34.2032549  32.0033332  38.9464980  35.6147391
  31.7451109  39.8682050  35.6131721  31.4718372  38.5495414  36.3047855
  36.9479520  52.0515767  28.3937476  37.1216398  51.4862189  27.6411329
  37.4408412  52.8516662  28.2116966  22.7656480  44.0630436  36.4601035
  22.2209948  44.8390244  36.5921309  23.6435830  44.4101240  36.3020156
  29.5544097  37.3942020  28.8381833  29.6760008  36.4658666  29.0372721
  29.2646139  37.4080706  27.9260149  32.4235287  35.0796930  31.9748553
  32.4456984  35.1436263  31.0200533  32.8403346  34.2401439  32.1689059
  42.8018912  44.8152190  30.0127776  43.2450058  44.0659515  29.6146899
  41.9245422  44.8062326  29.6301508  37.9354693  51.3682531  25.4934374
  38.6305598  51.9889224  25.7121689  38.2777843  50.5177882  25.7686752
  23.5522502  43.1900332  39.3531192  22.8104238  43.3382967  39.9395822
  23.2315246  43.4508598  38.4897941  39.8346116  48.8182237  27.0221705
  40.3597440  49.1569509  26.2971025  39.7468469  47.8829252  26.8384840
  31.5186777  54.8854220  31.3816958  31.0791767  54.3930599  32.0749815
  32.2694894  54.3427188  31.1409034  23.9979116  51.0765761  31.3841586
  24.8237136  50.7769533  31.0040230  23.6473168  50.3073383  31.8331375
  28.9660649  50.4292229  33.4539260  28.3440658  49.7662934  33.1541488
  29.6365516  50.4553361  32.7712908  22.1987721  48.9952087  32.3430520
  21.3619629  48.5674262  32.1614521  22.1711366  49.1884531  33.2801311
  29.0385176  38.9074017  43.0471766  29.0873332  39.7836140  42.6649536
  29.5807691  38.3651410  42.4743409  28.5274156  48.9796152  26.9297721
  28.6762276  49.6631617  26.2764393  29.3340599  48.9601242  27.4447176
  31.2684465  39.6605389  39.8018125  30.3987774  39.9538955  39.5300713
  31.5043945  40.2445834  40.5225388  42.3451776  46.2857428  32.4050223
  43.1798668  46.7247232  32.5687784  42.4810905  45.8096081  31.5858469
  39.3943282  43.8437163  38.3527711  39.8697404  44.0364809  37.5446563
  38.4708848  43.8996349  38.1071095  26.2826789  45.0061330  27.9358789
  26.0372831  44.1023660  28.1339000  26.4522703  45.0078480  26.9938267
  33.9723499  35.8785006  37.3183545  34.4905443  36.6146033  36.9930034
  33.6178631  36.1849000  38.1530304  25.5522436  40.7389688  25.4344951
  24.8591681  40.8134043  24.7784987  25.3074188  39.9750031  25.9566468
  34.2236093  32.2985289  32.8384442  34.5037847  31.6308478  33.4644868
  35.0086700  32.4914384  32.3259105  32.0269561  51.4744283  24.4009468
  31.4543528  52.0934470  23.9479940  32.6002355  52.0243644  24.9349390
  38.0944951  40.7202923  36.5856017  39.0462374  40.8201021  36.6068241
  37.9248402  39.9281191  37.0954101  36.1159331  37.8058506  36.7715418
  35.5209263  38.0863519  36.0761906  35.8309027  38.2952407  37.5432159
  35.2466821  51.7581433  25.5318050  36.1797494  51.6926995  25.7350926
  35.1590034  52.5937700  25.0732583  37.8754838  51.0747303  22.4921998
  37.7968469  50.7407167  23.3857756  38.6964505  51.5669071  22.4913470
  40.5733029  43.9409043  35.6998316  40.5409349  43.0025043  35.8858000
  41.1833653  44.0193079  34.9664141  32.4116360  42.8105096  21.7425520
  33.3575465  42.6811304  21.8113938  32.0330605  42.0719757  22.2194949
  40.7227517  40.7320086  35.7456600  40.2066566  39.9478543  35.5586528
  41.6067466  40.4038803  35.9103119  38.3838244  34.4761102  31.7052412
  38.1863066  34.1676190  32.5895744  38.9937950  35.2022740  31.8350342
  30.5959277  40.7355072  21.6780406  29.6890732  40.4388185  21.7543119
  30.8735258  40.4384890  20.8114692  21.5137217  42.0561435  32.1279452
  21.1940002  41.2026743  31.8353826  20.9670646  42.2710013  32.8837419
  25.2917125  44.7723876  35.8448959  25.5103135  45.7040984  35.8636992
  25.7042899  44.4131851  36.6303762  32.2121343  35.2791962  27.8324647
  31.4022071  34.9339047  28.2079893  32.9005760  34.9699505  28.4212259
  34.1411891  34.3570008  29.4548944  34.6942930  34.7765462  30.1138967
  34.3781977  33.4305757  29.4971900  30.1644990  40.3457082  45.2351708
  30.0641717  41.2951439  45.1663799  29.9466532  40.0175321  44.3627778
  29.3658062  37.5942007  21.8192385  30.2277226  37.9196905  22.0788202
  29.5508406  36.8073503  21.3065451  21.3825477  45.6764347  34.0972574
  20.6888949  45.2618300  33.5842528  22.1298468  45.7184883  33.5005993
  37.5190698  36.4670534  28.9627608  36.9389367  37.1255338  28.5805660
  37.2526631  35.6447878  28.5515025  35.9694264  35.8675591  31.1648928
  36.4694043  35.9792126  30.3563247  36.6129872  35.5636644  31.8049737
  30.0276260  43.7754221  44.0516769  29.5443342  44.5754581  44.2580658
  30.1137199  43.7862166  43.0984213  23.2962220  45.6082601  31.9738589
  23.2732908  45.7070288  31.0220472  23.6062856  46.4547751  32.2955755
  25.9549598  47.6658756  36.0885203  26.9092851  47.6342698  36.0215135
  25.7562121  47.2049379  36.9035429  26.5448980  46.2359872  38.6556001
  27.3641869  46.7303950  38.6790838  26.8185788  45.3191840  38.6273568
  36.3015576  38.6270624  28.0183956  35.4141431  38.9120275  27.8004151
  36.7169565  38.4664387  27.1711233  39.6530112  38.6517145  31.7338295
  40.4290502  39.1413597  32.0062912  38.9278246  39.0775199  32.1910165
  42.0902671  39.3644764  32.7912236  42.6847162  39.1240500  32.0805544
  42.1629255  38.6451895  33.4185772  24.3099827  53.2078375  33.1055401
  24.1754295  52.4478776  32.5393399  23.8931889  53.9319275  32.6384190
  35.4458790  48.3915299  22.1131976  36.1494640  48.5965301  22.7289632
  34.7221438  48.9592061  22.3781060  36.2756600  44.1425160  28.2334246
  36.2191801  44.5993711  27.3941879  36.8284942  43.3815844  28.0557089
  40.0861406  39.9314892  29.0584366  39.8298340  39.5311527  29.8892573
  39.4614274  40.6458686  28.9334505  44.3973744  42.6710965  31.5655657
  43.8373302  42.7404154  32.3387219  43.7917247  42.4951950  30.8455153
  27.4668952  54.1047692  33.3173843  27.3501337  55.0493125  33.2152534
  26.6461399  53.8021254  33.7059643  37.3545487  48.8297828  24.1630436
  38.1891091  48.3979026  23.9807911  37.1929830  48.6579842  25.0907331
  37.0091379  45.3329941  25.5286775  36.9540183  45.1674213  24.5875220
  36.3837434  46.0405974  25.6848965  21.7983894  40.5698006  39.3548198
  22.4442758  40.0596959  39.8435423  21.5901045  41.3066687  39.9291623
  30.3187505  34.8338050  25.1072094  30.3066174  35.7779890  25.2640365
  31.2110927  34.6508196  24.8131555  28.4923467  54.7575954  36.5329772
  29.3950713  54.7899564  36.8496267  28.2660837  53.8276405  36.5476108
  30.2477069  53.5106941  33.1939851  29.2972700  53.5108802  33.0804223
  30.5509555  52.7639675  32.6775885  34.1339624  31.4280827  29.3618031
  33.3672020  30.8739313  29.5074713  34.5450329  31.5002696  30.2232182
  26.1381385  37.7165623  43.4523212  27.0012847  37.3602427  43.6626537
  25.5646796  37.3779517  44.1398616  40.4927748  58.0683154  23.5264078
  40.7453268  57.5464676  22.7647541  39.5552307  57.9049300  23.6290761
  40.2124037  59.9711260  25.7288453  40.0960295  59.2956164  26.3969537
  40.3226296  59.4843634  24.9120606  42.5555577  59.4321407  29.4335142
  42.1913785  58.9052028  30.1448063  43.4122693  59.0419877  29.2601627
  42.1961064  54.4611307  24.4296490  42.3635467  55.3291544  24.7966961
  42.0058233  54.6238589  23.5057780  42.1750285  56.9168965  25.4143157
  42.0549910  57.3626015  26.2528638  41.4802874  57.2654282  24.8556695
  35.7657690  59.0175356  32.9642814  35.8950071  59.2709835  33.8782226
  35.0855141  59.6103064  32.6447469  47.8735351  57.3890438  26.2423491
  48.7853208  57.6217825  26.0671189  47.3644999  57.9727482  25.6798570
  45.2171326  53.5648474  34.4913352  44.3555805  53.8629727  34.7830090
  45.2433761  53.7818873  33.5594385  40.9701782  58.2313817  27.7076723
  41.6725825  58.6834860  28.1750649  40.6382410  57.5897636  28.3356616
  34.7127116  56.4897369  33.0093857  33.9226170  56.7454898  32.5333967
  35.2038363  57.3045707  33.1145897  36.6641861  56.8541949  29.9677333
  35.8673024  56.9660643  30.4860829  36.4367453  57.1928601  29.1018224
  32.9964819  56.7427860  35.4408847  33.2472857  57.6274870  35.7066423
  33.5324367  56.5632461  34.6683939  33.6273860  60.8918852  29.1326324
  34.4649082  61.3015860  28.9160032  33.8052128  59.9518294  29.1026518
  45.5238293  58.5593932  24.8210157  45.0084916  59.3298537  25.0598544
  45.2515601  57.8859069  25.4443218  43.1085404  53.4043633  29.8795395
  42.2527000  53.0150484  29.7001034  43.5212355  53.4835594  29.0195181
  44.6384550  50.9389976  34.2786955  44.1349346  50.9020112  33.4654760
  44.9315157  51.8482719  34.3383612  40.8827436  51.0228706  33.2853137
  41.7480433  50.8271515  32.9259026  40.9504945  50.7939058  34.2122493
  45.3124596  56.4321024  26.6469938  45.0074731  56.7467174  27.4980081
  46.2655038  56.5102444  26.6897271  38.4889755  53.2530914  30.6569503
  39.0633507  53.0306096  29.9242696  39.0760738  53.3219609  31.4098105
  38.8159342  55.2835375  24.6765389  37.9796655  55.6210062  24.9974663
  38.6764112  55.1484355  23.7392526  40.7912423  50.1272163  29.3844573
  40.1376835  49.8121180  28.7601188  40.7492897  49.5047903  30.1104396
  41.9023628  60.4091458  21.2997865  40.9950690  60.1780712  21.4989014
  42.3994660  59.6129077  21.4871847  44.8085211  58.0145512  28.8394901
  45.5557030  58.5266909  28.5302023  45.0776801  57.6929565  29.6999294
  43.0811861  60.5104053  25.8221855  42.1723081  60.2263086  25.9194325
  43.1106945  60.9303131  24.9625162  47.2564048  55.0502628  30.8213690
  46.5186805  54.5380015  31.1523933  47.5090822  54.6103010  30.0096967
  47.3575676  47.8278880  31.4155459  47.6634552  46.9676244  31.1281374
  48.0828280  48.4196501  31.2154453  33.6500032  58.2309567  29.8037057
  33.4524431  57.6378928  29.0788124  33.0946696  57.9261777  30.5212996
  41.6296755  58.1232674  31.9231650  41.6845365  57.1706510  31.8474127
  40.8187957  58.2792113  32.4072949  42.7787949  62.0512797  23.1609934
  42.3407379  61.3348656  22.7015571  43.5198390  62.2788911  22.5995025
  39.5689115  56.7409733  29.6822029  38.7556981  57.0403904  30.0887221
  40.0648109  56.3465422  30.3996512  39.0603190  54.3128089  35.2983264
  39.7002569  54.1716848  34.6006228  38.2280721  54.0262602  34.9221866
  36.1446257  57.7573601  27.4878009  35.2143845  57.6958056  27.7047972
  36.2403729  57.2349554  26.6914651  36.0631806  54.2828414  30.0756251
  36.3238624  55.1973747  29.9665412  36.8848979  53.8152856  30.2252864
  46.8999177  60.9097178  22.7541991  46.2828347  60.1844006  22.6575044
  46.4315665  61.6706539  22.4109066  38.6897723  55.1282603  21.8763296
  37.8127189  55.0071403  21.5125542  39.1655476  54.3368681  21.6242184
  30.2099863  59.9159762  31.9704803  30.8970903  59.6021492  31.3825818
  30.0547991  60.8201127  31.6972054  45.1858299  53.2903522  31.7660021
  45.6826998  52.5373485  31.4461092  44.4145280  53.3267839  31.2003231
  41.7693267  55.4320905  31.4931706  41.3991055  54.8791946  32.1812612
  42.2652360  54.8279039  30.9406706  47.6277294  50.2573116  33.9139380
  46.7140373  50.4877343  34.0821587  48.0570395  50.3411560  34.7653413
  29.7867839  57.9960356  34.2422270  29.8251938  57.4623946  35.0359388
  29.2808132  57.4695561  33.6233247  33.4176416  56.7224458  27.3176201
  33.7129857  55.8135136  27.2643255  32.5164452  56.7012197  26.9957204
  36.9470663  54.7980454  33.3003750  36.2257249  55.4116422  33.1611223
  37.7363919  55.3338219  33.2220396  35.1464258  54.4038555  27.4415526
  34.8176964  53.5235934  27.2590632  35.5003629  54.3486224  28.3291916
  38.2606081  54.6911525  27.8091004  38.6002154  55.2197446  27.0869612
  38.7078202  55.0291931  28.5849571  40.2474228  53.1886147  26.0084297
  40.9682591  53.5667400  25.5048014  39.6239532  53.9075024  26.1119275
  44.3905351  53.8931296  26.9442629  44.6068966  54.7755934  26.6431457
  43.9099418  53.5017509  26.2148271  40.9900955  53.8419557  33.5694263
  40.9762524  52.9460650  33.2326561  41.7073384  53.8490221  34.2032549
  42.8427086  54.2756897  35.6147391  42.5844864  55.1973968  35.6131721
  42.3112127  53.8787332  36.3047855  33.6050235  59.3922353  36.4601035
  33.0603703  60.1682161  36.5921309  34.4829585  59.7393158  36.3020156
  40.3937851  52.7233937  28.8381833  40.5153763  51.7950583  29.0372721
  40.1039894  52.7372623  27.9260149  43.2629042  50.4088848  31.9748553
  43.2850739  50.4728181  31.0200533  43.6797101  49.5693356  32.1689059
  33.0381475  64.3244005  32.3430520  32.2013384  63.8966179  32.1614521
  33.0105121  64.5176448  33.2801311  36.3916191  56.0681605  25.4344951
  35.6985436  56.1425960  24.7784987  36.1467943  55.3041949  25.9566468
  43.2510114  58.1397013  21.7425520  44.1969219  58.0103221  21.8113938
  42.8724359  57.4011675  22.2194949  49.2231999  49.8053019  31.7052412
  49.0256820  49.4968107  32.5895744  49.8331704  50.5314658  31.8350342
  41.4353032  56.0646990  21.6780406  40.5284487  55.7680102  21.7543119
  41.7129013  55.7676808  20.8114692  32.3530972  57.3853353  32.1279452
  32.0333756  56.5318661  31.8353826  31.8064400  57.6001931  32.8837419
  43.0515097  50.6083879  27.8324647  42.2415826  50.2630964  28.2079893
  43.7399514  50.2991423  28.4212259  44.9805646  49.6861926  29.4548944
  45.5336684  50.1057380  30.1138967  45.2175732  48.7597674  29.4971900
  40.2051816  52.9233925  21.8192385  41.0670980  53.2488823  22.0788202
  40.3902160  52.1365421  21.3065451  32.2219232  61.0056264  34.0972574
  31.5282703  60.5910217  33.5842528  32.9692223  61.0476801  33.5005993
  48.3584453  51.7962451  28.9627608  47.7783122  52.4547255  28.5805660
  48.0920385  50.9739796  28.5515025  46.8088019  51.1967509  31.1648928
  47.3087797  51.3084043  30.3563247  47.4523627  50.8928562  31.8049737
  34.1355974  60.9374518  31.9738589  34.1126663  61.0362206  31.0220472
  34.4456611  61.7839669  32.2955755  47.1409331  53.9562542  28.0183956
  46.2535186  54.2412192  27.8004151  47.5563320  53.7956305  27.1711233
  46.2852544  63.7207216  22.1131976  46.9888394  63.9257219  22.7289632
  45.5615193  64.2883978  22.3781060  41.1581259  50.1629968  25.1072094
  41.1459929  51.1071808  25.2640365  42.0504681  49.9800113  24.8131555
  44.9733379  46.7572744  29.3618031  44.2065774  46.2031231  29.5074713
  45.3844084  46.8294613  30.2232182  58.1969430  63.1570798  31.4155459
  58.5028307  62.2968162  31.1281374  58.9222035  63.7488418  31.2154453
  51.0445571  68.2525842  21.8192385  51.9064735  68.5780741  22.0788202
  51.2295915  67.4657338  21.3065451  51.9975014  65.4921885  25.1072094
  51.9853683  66.4363725  25.2640365  52.8898436  65.3092031  24.8131555
  55.8127133  62.0864662  29.3618031  55.0459529  61.5323149  29.5074713
  56.2237838  62.1586531  30.2232182  67.6617271  90.0051314  34.2585613
  68.2995681  89.8858062  33.5548953  67.5438114  90.9532158  34.3173565
  64.4706977  89.9578742  34.1947138  64.1325489  89.8419807  33.3067672
  65.3396746  89.5569907  34.1748144  60.3293793  91.8114219  30.1844029
  59.7658658  91.7204156  29.4160316  60.2146188  90.9914123  30.6646521
  64.9526760  91.1113594  40.1533343  64.9415401  90.7166392  39.2813847
  65.1147400  90.3779667  40.7467115  57.8758225  93.3065410  33.0228249
  58.6679517  92.9656235  32.6074548  58.1154875  93.4160385  33.9430402
  65.9093352  95.4785187  25.4958493  65.2581332  96.0639267  25.1092507
  66.7037715  96.0091381  25.5553531  59.8348979  92.5674324  25.8945628
  60.6079855  92.0203311  25.7558504  60.1874378  93.4318573  26.1060089
  61.6734021  93.8950706  39.1012527  61.3823887  94.7996337  38.9859193
  62.3091006  93.9367234  39.8156597  62.5990228  91.2727554  35.6913887
  63.1953801  91.0483577  34.9770850  62.6565200  90.5312300  36.2939335
  62.1715257  88.7266990  23.5264078  62.4240777  88.2048511  22.7647541
  61.2339816  88.5633135  23.6290761  67.2158540  87.7302768  31.3338821
  68.0021629  87.3122191  30.9829238  67.4797244  88.6348860  31.5020469
  67.3868617  93.1675618  26.0327478  66.7514450  93.2410245  26.7448382
  67.0566023  93.7569217  25.3546557  72.6166967  87.6678001  32.2371799
  73.3492139  87.0977218  32.4709629  71.8606322  87.2799602  32.6778305
  61.8911545  90.6295096  25.7288453  61.7747804  89.9539999  26.3969537
  62.0013805  90.1427470  24.9120606  64.2343086  90.0905243  29.4335142
  63.8701294  89.5635864  30.1448063  65.0910202  89.7003712  29.2601627
  66.6323907  93.5812121  36.0962321  66.3324630  94.4837160  35.9878128
  66.2874966  93.3144305  36.9483474  60.0836388  90.0325918  32.1299025
  59.1586885  89.9002132  32.3376717  60.3320801  90.8120138  32.6268968
  63.8537794  87.5752800  25.4143157  63.7337419  88.0209851  26.2528638
  63.1590383  87.9238118  24.8556695  61.6144686 100.3456442  29.0633289
  61.5368716 101.2964267  29.1421769  61.0106330 100.0002314  29.7208215
  71.8982697  84.3011100  35.5537632  71.2557077  84.5943633  34.9077427
  71.3937625  84.1864020  36.3590829  69.5522860  88.0474273  26.2423491
  70.4640717  88.2801660  26.0671189  69.0432508  88.6311317  25.6798570
  62.3608288  90.3269761  41.2812622  63.1022973  90.8654805  41.0047446
  61.6545274  90.9536049  41.4384174  67.8363628  92.4698901  39.8784784
  68.2446984  92.0281312  39.1339416  67.1140890  91.8951529  40.1318977
  68.1592443  93.0300092  33.6337073  67.5301305  93.1945806  32.9313141
  67.7718105  93.4441701  34.4048037  72.0381675  93.9654530  30.9881437
  71.3532713  94.3453431  30.4378470  72.1225524  94.5749856  31.7213384
  69.2932606  91.6114489  37.5876780  69.5049501  92.2546248  36.9111161
  69.2462354  90.7776805  37.1198710  63.7120405  92.7674500  30.8987158
  64.1758750  93.0462203  30.1091780  63.4477203  91.8657944  30.7160249
  60.6044486  92.3145981  33.8366921  61.1745843  92.7433250  33.1984406
  61.1952598  92.0328566  34.5351107  61.0969652  87.4809409  42.0827932
  60.4668313  88.1625690  42.3163329  60.9905740  87.3692490  41.1381071
  70.4078434  94.4886444  35.7599137  71.2295878  94.0866631  35.4781819
  70.4040837  94.3854678  36.7115253  64.1735038  94.0370487  37.9159848
  64.2379470  94.4990894  38.7518020  63.4645962  93.4067852  38.0442158
  78.4984427  90.8325192  32.1084109  77.7448136  90.2632591  31.9528113
  78.6331968  90.7987857  33.0554744  63.8883055  95.7038595  27.7838828
  63.7528730  96.5490130  28.2123676  64.4292868  95.9057872  27.0204762
  57.3412453  93.2214033  28.3566753  57.8536973  94.0157283  28.5072318
  57.9935166  92.5240323  28.2900355  59.1507337  96.3379789  30.4389506
  59.3273966  97.2597754  30.2510490  59.9464171  96.0238208  30.8683886
  65.5151532  96.3262161  41.9139170  65.0715386  95.5398540  41.5960075
  66.1768745  96.5141312  41.2483061  60.2738653  97.8557963  36.4399849
  60.8246078  97.7275026  35.6676843  59.4350129  98.1552852  36.0894742
  67.6132770  96.6064961  39.9420572  67.5951245  97.4273842  39.4500841
  68.5352690  96.4819036  40.1670713  64.0705824  94.1209091  40.7844080
  64.6034161  93.3597379  40.5543388  63.5419905  93.8282742  41.5268234
  67.2025802  89.2177768  24.8210157  66.6872425  89.9882372  25.0598544
  66.9303110  88.5442904  25.4443218  72.1760076  91.9710122  26.7563330
  71.3989518  91.6321282  26.3118492  72.8551557  91.9762746  26.0818295
  66.9912105  87.0904860  26.6469938  66.6862240  87.4051009  27.4980081
  67.9442547  87.1686280  26.6897271  65.4358537  93.2495083  28.2962892
  64.9079898  92.5147843  27.9836129  64.9346039  94.0269759  28.0502860
  70.4151383  91.4444104  33.4129938  69.7575057  92.1343365  33.5010067
  71.2191782  91.8340536  33.7563925  69.2256841  89.7988476  31.4633880
  69.7388723  90.4318468  31.9655590  69.8758065  89.1989672  31.0977240
  63.5811137  91.0675293  21.2997865  62.6738199  90.8364547  21.4989014
  64.0782169  90.2712913  21.4871847  66.4879216  99.7772801  24.2194551
  65.8140914 100.0804497  24.8279509  66.8745038 100.5801881  23.8700008
  66.4872720  88.6729348  28.8394901  67.2344539  89.1850745  28.5302023
  66.7564310  88.3513400  29.6999294  64.7599370  91.1687888  25.8221855
  63.8510589  90.8846921  25.9194325  64.7894454  91.5886967  24.9625162
  69.9918638  94.7794478  29.5913023  69.5380965  93.9385388  29.6478213
  69.3612604  95.4155876  29.9287803  68.4351577  96.6170974  30.5262841
  68.7274551  97.1776032  29.8075206  68.9450197  96.9099535  31.2816000
  64.4575458  92.7096632  23.1609934  64.0194888  91.9932491  22.7015571
  65.1985899  92.9372747  22.5995025  63.3985202  97.3951326  31.6156294
  63.3561381  97.6212172  30.6864826  64.3147901  97.1614700  31.7642095
  72.5748573  90.9853829  29.2186252  72.4366471  91.1755425  28.2907441
  72.2184792  91.7473212  29.6754303  72.6017952  93.0530356  34.2297524
  73.0354459  92.9605645  35.0780578  73.3149533  93.0287856  33.5917540
  61.5151003  94.2714355  31.4118257  62.3091601  93.7764675  31.2100832
  60.8042695  93.7432218  31.0485962  66.3345847  96.6532450  35.7630624
  66.3882870  97.2223386  36.5308340  65.4660629  96.8234335  35.3984661
  73.4633502  93.0954057  36.7630409  73.6569392  93.9999867  37.0089684
  73.3634120  92.6361476  37.5968994  68.5248611  93.2460799  42.3371290
  68.3734117  93.0171351  41.4201373  68.5153290  94.2031401  42.3502635
  65.2933947  90.8192712  37.3217556  66.2226007  90.9703872  37.1486524
  64.8724977  90.9076733  36.4666203  64.0922279  94.8443377  35.0916094
  63.9533365  94.4762161  35.9642032  63.3036875  95.3591016  34.9200052
  64.6870431  99.9452473  26.4341630  64.8622186  99.4740516  27.2487253
  64.0003219 100.5718239  26.6622891  65.6427494  94.2224979  32.4804932
  65.3077327  94.1825749  33.3762581  65.1431440  93.5569695  32.0075342
  68.5786686  91.5681014  22.7541991  67.9615856  90.8427842  22.6575044
  68.1103174  92.3290374  22.4109066  70.2340817  96.2779922  40.4147772
  70.1753363  95.5939142  39.7478355  70.6360336  97.0198912  39.9628398
  59.2531516 103.0941836  33.2081491  59.4928114 103.7260360  33.8860509
  58.4100713 102.7429876  33.4946850  70.2358225  94.2419506  38.6461751
  69.3485003  93.9045428  38.7688150  70.8056776  93.5102537  38.8830517
  63.7659378  98.9020958  35.6122995  63.6929549  99.7075930  36.1242299
  63.3236771  99.1012924  34.7871016  63.5549158  98.1392728  29.1225816
  62.7716679  98.6814408  29.2164041  64.2541903  98.6566708  29.5220057
  74.7175565  89.6527723  33.4078313  74.7065441  90.5352439  33.0372246
  73.8492945  89.2999274  33.2132850  66.2258061  98.8007792  37.7681153
  66.9386034  99.4355257  37.6957055  65.7348090  98.8971658  36.9521155
  67.9475588  92.7059045  29.3398445  67.0131867  92.8260507  29.1703149
  68.1252257  91.8031512  29.0758455  71.3348140  88.5476364  29.8748479
  71.8008592  89.3804356  29.8008782  71.7855640  88.0821346  30.5793737
  61.2769975  96.5502236  38.5886724  61.9779435  97.1838719  38.7416118
  60.8065090  96.8916967  37.8282363  69.4024371  94.8920186  26.8734631
  69.6784215  94.7776780  27.7828505  68.5328870  94.4937670  26.8346804
  66.0378435  99.1406536  30.5167445  66.2200829  98.3228192  30.9795197
  66.8611421  99.3574229  30.0792335  66.3720600  98.0674721  27.7782493
  66.9008367  97.5567176  27.1652655  66.6348820  97.7517252  28.6428026
  65.1258834  89.8466654  42.9005311  64.4499471  89.7460784  43.5707687
  65.9486468  89.6905868  43.3641309  56.8737693  96.0838591  35.5217827
  57.4591130  95.3382279  35.6545731  56.6762532  96.3942547  36.4054491
  59.7276348  99.1189838  30.5380269  59.0586724  99.6035966  30.0544309
  59.5889218  99.3659059  31.4523648  63.8681617 101.1533582  37.1362927
  64.4199925 101.3165203  37.9012013  64.2087810 101.7438020  36.4642952
  68.7192491  95.9794839  42.9911582  69.2632395  96.5924797  42.4966537
  68.1379336  96.5374418  43.5078595  67.0050004  99.1015557  34.1226610
  66.8801144  98.3005297  33.6137555  67.6629095  99.5961751  33.6340580
  69.0684913  96.9024577  35.7506160  68.1215248  96.7829928  35.6784486
  69.4167686  96.0147075  35.8332421  66.0731346  96.6977294  31.9510512
  65.9256308  95.7694001  32.1318082  66.8984839  96.7197384  31.4667587
  69.6765468  97.5205852  33.0375385  70.6012015  97.3148714  32.8999836
  69.5080771  97.2722253  33.9464726  69.4660784  98.0391520  28.3937476
  69.6397661  97.4737942  27.6411329  69.9589675  98.8392415  28.2116966
  75.3200175  90.8027943  30.0127776  75.7631321  90.0535268  29.6146899
  74.4426685  90.7938079  29.6301508  70.4535956  97.3558284  25.4934374
  71.1486861  97.9764977  25.7121689  70.7959107  96.5053635  25.7686752
  72.3527380  94.8057990  27.0221705  72.8778704  95.1445262  26.2971025
  72.2649732  93.8705005  26.8384840  64.0147428  98.7192063  39.1511582
  64.3234555  98.4741210  40.0234281  64.8122910  98.9238702  38.6630452
  64.0368040 100.8729973  31.3816958  63.5973031 100.3806352  32.0749815
  64.7876157 100.3302941  31.1409034  56.5160379  97.0641514  31.3841586
  57.3418399  96.7645286  31.0040230  56.1654431  96.2949136  31.8331375
  61.4841912  96.4167982  33.4539260  60.8621922  95.7538687  33.1541488
  62.1546779  96.4429114  32.7712908  54.7168984  94.9827840  32.3430520
  53.8800893  94.5550015  32.1614521  54.6892630  95.1760284  33.2801311
  72.0421286  95.4390893  42.3272903  71.2516829  95.4215032  41.7877403
  71.8054640  95.9779187  43.0821940  72.1619161  92.2883360  39.6405632
  72.2117166  92.1233367  40.5821154  72.0533084  91.4210619  39.2503512
  61.0455419  94.9671905  26.9297721  61.1943540  95.6507370  26.2764393
  61.8521863  94.9476995  27.4447176  69.4522923  88.2714288  40.9564938
  70.3532786  88.1320753  40.6648936  69.5270898  88.4368743  41.8963116
  73.6637357  94.7080301  39.8847653  73.3722166  95.0710282  40.7211114
  73.0509489  93.9947309  39.7060985  74.8633040  92.2733181  32.4050223
  75.6979931  92.7122985  32.5687784  74.9992169  91.7971834  31.5858469
  71.9124546  89.8312916  38.3527711  72.3878667  90.0240562  37.5446563
  70.9890111  89.8872102  38.1071095  58.8008052  90.9937083  27.9358789
  58.5554094  90.0899413  28.1339000  58.9703967  90.9954233  26.9938267
  64.5450825  97.4620036  24.4009468  63.9724792  98.0810223  23.9479940
  65.1183619  98.0119397  24.9349390  67.7648085  97.7457186  25.5318050
  68.6978758  97.6802748  25.7350926  67.6771297  98.5813453  25.0732583
  70.3936101  97.0623056  22.4921998  70.3149733  96.7282920  23.3857756
  71.2145768  97.5544824  22.4913470  73.0914292  89.9284796  35.6998316
  73.0590613  88.9900796  35.8858000  73.7014916  90.0068832  34.9664141
  64.9297623  88.7980849  21.7425520  65.8756728  88.6687057  21.8113938
  64.5511868  88.0595510  22.2194949  73.2408781  86.7195839  35.7456600
  72.7247830  85.9354296  35.5586528  74.1248729  86.3914556  35.9103119
  78.9090842  90.9900802  34.8404353  79.6394231  90.7286091  35.4012057
  78.2997788  90.2529524  34.8806421  76.9906139  89.1308665  35.4378804
  76.2639303  88.9964630  34.8295296  76.5753426  89.4385494  36.2435522
  64.8136316  92.8498595  43.2026177  65.7339325  93.0277194  43.3966224
  64.7785899  91.9054640  43.0505877  63.1140540  86.7230825  21.6780406
  62.2071996  86.4263938  21.7543119  63.3916521  86.4260643  20.8114692
  62.5457524  89.7629974  44.0516769  62.0624605  90.5630334  44.2580658
  62.6318463  89.7737919  43.0984213  58.4730861  93.6534509  36.0885203
  59.4274115  93.6218451  36.0215135  58.2743385  93.1925132  36.9035429
  59.0630243  92.2235625  38.6556001  59.8823132  92.7179703  38.6790838
  59.3367051  91.3067593  38.6273568  72.1711376  84.6392898  31.7338295
  72.9471766  85.1289350  32.0062912  71.4459510  85.0650952  32.1910165
  74.6083934  85.3520517  32.7912236  75.2028425  85.1116253  32.0805544
  74.6810518  84.6327648  33.4185772  56.8281090  99.1954128  33.1055401
  56.6935558  98.4354529  32.5393399  56.4113152  99.9195028  32.6384190
  67.9640053  94.3791052  22.1131976  68.6675903  94.5841054  22.7289632
  67.2402702  94.9467814  22.3781060  68.7937863  90.1300913  28.2334246
  68.7373065  90.5869464  27.3941879  69.3466206  89.3691598  28.0557089
  72.6042669  85.9190645  29.0584366  72.3479603  85.5187280  29.8892573
  71.9795537  86.6334439  28.9334505  76.9155007  88.6586718  31.5655657
  76.3554565  88.7279907  32.3387219  76.3098510  88.4827703  30.8455153
  59.9850216 100.0923445  33.3173843  59.8682600 101.0368878  33.2152534
  59.1642662  99.7897007  33.7059643  69.8726750  94.8173581  24.1630436
  70.7072354  94.3854779  23.9807911  69.7111093  94.6455595  25.0907331
  69.5272643  91.3205694  25.5286775  69.4721446  91.1549966  24.5875220
  68.9018698  92.0281727  25.6848965  66.8418550  93.6254606  44.8540338
  67.7109709  93.7995258  44.4926973  66.3625301  94.4449023  44.7316068
  61.0104730 100.7451707  36.5329772  61.9131977 100.7775317  36.8496267
  60.7842100  99.8152158  36.5476108  62.7658332  99.4982694  33.1939851
  61.8153963  99.4984555  33.0804223  63.0690818  98.7515428  32.6775885
  78.5011026 105.3343232  34.2585613  79.1389436 105.2149979  33.5548953
  78.3831868 106.2824076  34.3173565  75.3100732 105.2870660  34.1947138
  74.9719243 105.1711725  33.3067672  76.1790500 104.8861825  34.1748144
  71.1687548 107.1406136  30.1844029  70.6052413 107.0496073  29.4160316
  71.0539943 106.3206041  30.6646521  75.7920515 106.4405512  40.1533343
  75.7809156 106.0458310  39.2813847  75.9541154 105.7071584  40.7467115
  68.7151979 108.6357328  33.0228249  69.5073271 108.2948153  32.6074548
  68.9548630 108.7452303  33.9430402  76.7487106 110.8077104  25.4958493
  76.0975086 111.3931185  25.1092507  77.5431469 111.3383299  25.5553531
  70.6742733 107.8966241  25.8945628  71.4473609 107.3495228  25.7558504
  71.0268132 108.7610491  26.1060089  72.5127776 109.2242624  39.1012527
  72.2217642 110.1288254  38.9859193  73.1484760 109.2659151  39.8156597
  73.4383983 106.6019472  35.6913887  74.0347555 106.3775495  34.9770850
  73.4958954 105.8604218  36.2939335  73.0109011 104.0558907  23.5264078
  73.2634532 103.5340429  22.7647541  72.0733570 103.8925053  23.6290761
  78.0552294 103.0594686  31.3338821  78.8415383 102.6414109  30.9829238
  78.3190998 103.9640778  31.5020469  78.2262371 108.4967536  26.0327478
  77.5908204 108.5702163  26.7448382  77.8959778 109.0861135  25.3546557
  83.4560721 102.9969919  32.2371799  84.1885893 102.4269136  32.4709629
  82.7000077 102.6091519  32.6778305  72.7305300 105.9587013  25.7288453
  72.6141558 105.2831917  26.3969537  72.8407560 105.4719387  24.9120606
  75.0736841 105.4197161  29.4335142  74.7095048 104.8927781  30.1448063
  75.9303957 105.0295630  29.2601627  80.9786142  96.7091493  36.6966408
  80.6469466  97.5786904  36.4727623  80.3831755  96.3927777  37.3760438
  74.7142328 100.4487060  24.4296490  74.8816730 101.3167297  24.7966961
  74.5239497 100.6114342  23.5057780  77.4717661 108.9104039  36.0962321
  77.1718384 109.8129078  35.9878128  77.1268721 108.6436222  36.9483474
  70.9230143 105.3617836  32.1299025  69.9980639 105.2294050  32.3376717
  71.1714556 106.1412055  32.6268968  80.8714805 101.4286579  33.7759758
  79.9631682 101.3601988  33.4818519  80.8202401 101.9058524  34.6041584
  74.6931549 102.9044718  25.4143157  74.5731174 103.3501768  26.2528638
  73.9984137 103.2530035  24.8556695  68.2838954 105.0051110  32.9642814
  68.4131335 105.2585588  33.8782226  67.6036405 105.5978818  32.6447469
  72.4538441 115.6748359  29.0633289  72.3762471 116.6256185  29.1421769
  71.8500084 115.3294232  29.7208215  74.9455671 102.8476225  41.7194655
  74.1689005 103.4070145  41.7097520  75.5846234 103.3333008  42.2409526
  82.7376451  99.6303018  35.5537632  82.0950832  99.9235551  34.9077427
  82.2331380  99.5155938  36.3590829  80.3916615 103.3766191  26.2423491
  81.3034471 103.6093578  26.0671189  79.8826262 103.9603235  25.6798570
  73.2002043 105.6561678  41.2812622  73.9416727 106.1946722  41.0047446
  72.4939028 106.2827967  41.4384174  78.6757383 107.7990819  39.8784784
  79.0840739 107.3573229  39.1339416  77.9534644 107.2243446  40.1318977
  75.0288453 102.7363425  37.2518341  75.8749648 103.1602839  37.3952990
  74.9687090 102.0797050  37.9456904  78.9986197 108.3592009  33.6337073
  78.3695060 108.5237723  32.9313141  78.6111859 108.7733619  34.4048037
  82.8775429 109.2946447  30.9881437  82.1926467 109.6745349  30.4378470
  82.9619278 109.9041774  31.7213384  78.1787898 100.3967794  38.9099514
  77.9348830 101.1509854  38.3733790  78.4547828 100.7753141  39.7446762
  80.1326361 106.9406406  37.5876780  80.3443256 107.5838166  36.9111161
  80.0856109 106.1068723  37.1198710  77.7352590  99.5524227  34.4913352
  76.8737069  99.8505480  34.7830090  77.7615024  99.7694626  33.5594385
  74.5514159 108.0966417  30.8987158  75.0152505 108.3754120  30.1091780
  74.2870957 107.1949862  30.7160249  71.4438240 107.6437899  33.8366921
  72.0139597 108.0725167  33.1984406  72.0346352 107.3620484  34.5351107
  73.4883045 104.2189570  27.7076723  74.1907089 104.6710613  28.1750649
  73.1563674 103.5773389  28.3356616  71.9363407 102.8101326  42.0827932
  71.3062067 103.4917607  42.3163329  71.8299495 102.6984408  41.1381071
  67.2308379 102.4773122  33.0093857  66.4407433 102.7330651  32.5333967
  67.7219626 103.2921460  33.1145897  81.2472189 109.8178362  35.7599137
  82.0689632 109.4158549  35.4781819  81.2434592 109.7146596  36.7115253
  69.1823125 102.8417702  29.9677333  68.3854288 102.9536396  30.4860829
  68.9548717 103.1804354  29.1018224  75.0128792 109.3662405  37.9159848
  75.0773225 109.8282812  38.7518020  74.3039716 108.7359770  38.0442158
  65.5146082 102.7303613  35.4408847  65.7654121 103.6150623  35.7066423
  66.0505631 102.5508214  34.6683939  89.3378182 106.1617110  32.1084109
  88.5841890 105.5924508  31.9528113  89.4725723 106.1279775  33.0554744
  74.7276810 111.0330512  27.7838828  74.5922485 111.8782048  28.2123676
  75.2686622 111.2349790  27.0204762  71.2144149  97.1122092  44.4453183
  70.8211095  96.5588291  45.1200828  72.0310290  97.4232671  44.8359701
  68.1806207 108.5505950  28.3566753  68.6930728 109.3449201  28.5072318
  68.8328920 107.8532241  28.2900355  69.9901092 111.6671707  30.4389506
  70.1667720 112.5889671  30.2510490  70.7857925 111.3530126  30.8683886
  74.1312110  98.5279971  42.0373440  74.8721824  99.1287124  41.9577902
  74.3630033  97.7857609  41.4791483  69.2753448 103.7136339  40.3151670
  69.1606964 102.8121596  40.6158769  68.4197966 103.9600035  39.9636486
  76.3545286 111.6554079  41.9139170  75.9109140 110.8690457  41.5960075
  77.0162500 111.8433229  41.2483061  71.1132407 113.1849881  36.4399849
  71.6639832 113.0566944  35.6676843  70.2743883 113.4844770  36.0894742
  78.4526524 111.9356879  39.9420572  78.4345000 112.7565760  39.4500841
  79.3746444 111.8110954  40.1670713  74.9099578 109.4501008  40.7844080
  75.4427915 108.6889297  40.5543388  74.3813659 109.1574660  41.5268234
  78.0769273  94.5561074  36.3137722  77.7333543  95.4462716  36.2376832
  78.4448236  94.3662732  35.4507307  66.1455124 106.8794605  29.1326324
  66.9830346 107.2891613  28.9160032  66.3233392 105.9394047  29.1026518
  78.0419556 104.5469685  24.8210157  77.5266180 105.3174290  25.0598544
  77.7696865 103.8734822  25.4443218  75.6266667  99.3919386  29.8795395
  74.7708263  99.0026237  29.7001034  76.0393619  99.4711347  29.0195181
  77.1565814  96.9265729  34.2786955  76.6530609  96.8895865  33.4654760
  77.4496421  97.8358472  34.3383612  73.4008700  97.0104459  33.2853137
  74.2661696  96.8147268  32.9259026  73.4686209  96.7814811  34.2122493
  83.0153830 107.3002040  26.7563330  82.2383273 106.9613200  26.3118492
  83.6945311 107.3054663  26.0818295  77.8305859 102.4196778  26.6469938
  77.5255995 102.7342927  27.4980081  78.7836301 102.4978197  26.6897271
  76.2752291 108.5787001  28.2962892  75.7473653 107.8439760  27.9836129
  75.7739794 109.3561677  28.0502860  81.2545137 106.7736021  33.4129938
  80.5968812 107.4635283  33.5010067  82.0585536 107.1632453  33.7563925
  71.0071019  99.2406667  30.6569503  71.5814771  99.0181849  29.9242696
  71.5942001  99.3095362  31.4098105  80.0650596 105.1280394  31.4633880
  80.5782478 105.7610386  31.9655590  80.7151820 104.5281590  31.0977240
  71.3340606 101.2711128  24.6765389  70.4977918 101.6085815  24.9974663
  71.1945375 101.1360108  23.7392526  73.3093686  96.1147916  29.3844573
  72.6558099  95.7996933  28.7601188  73.2674161  95.4923656  30.1104396
  74.4204891 106.3967211  21.2997865  73.5131953 106.1656465  21.4989014
  74.9175923 105.6004830  21.4871847  76.5431427 102.6029850  33.7092221
  75.6253988 102.8244797  33.5513909  76.9591570 102.6776160  32.8503928
  77.3266475 104.0021265  28.8394901  78.0738293 104.5142662  28.5302023
  77.5958064 103.6805318  29.6999294  75.5993125 106.4979806  25.8221855
  74.6904344 106.2138839  25.9194325  75.6288209 106.9178885  24.9625162
  80.8312392 110.1086395  29.5913023  80.3774719 109.2677305  29.6478213
  80.2006359 110.7447794  29.9287803  79.7745312 101.0378381  30.8213690
  79.0368068 100.5255768  31.1523933  80.0272085 100.5978763  30.0096967
  79.2745331 111.9462892  30.5262841  79.5668306 112.5067949  29.8075206
  79.7843952 112.2391453  31.2816000  79.8756939  93.8154633  31.4155459
  80.1815816  92.9551997  31.1281374  80.6009544  94.4072254  31.2154453
  66.1681295 104.2185320  29.8037057  65.9705695 103.6254681  29.0788124
  65.6127959 103.9137530  30.5212996  74.1478019 104.1108427  31.9231650
  74.2026629 103.1582263  31.8474127  73.3369221 104.2667866  32.4072949
  75.2969213 108.0388550  23.1609934  74.8588642 107.3224409  22.7015571
  76.0379653 108.2664664  22.5995025  72.0870379 102.7285486  29.6822029
  71.2738244 103.0279657  30.0887221  72.5829373 102.3341175  30.3996512
  74.2378957 112.7243243  31.6156294  74.1955135 112.9504090  30.6864826
  75.1541655 112.4906618  31.7642095  77.6844590 103.1927311  38.5136923
  78.0393978 103.4198784  39.3731389  78.3316722 103.5245688  37.8914179
  83.4142327 106.3145747  29.2186252  83.2760226 106.5047343  28.2907441
  83.0578546 107.0765129  29.6754303  71.5784453 100.3003842  35.2983264
  72.2183833 100.1592601  34.6006228  70.7461984 100.0138355  34.9221866
  83.4411707 108.3822274  34.2297524  83.8748214 108.2897563  35.0780578
  84.1543288 108.3579774  33.5917540  72.3544757 109.6006272  31.4118257
  73.1485356 109.1056592  31.2100832  71.6436450 109.0724135  31.0485962
  77.1739602 111.9824368  35.7630624  77.2276624 112.5515304  36.5308340
  76.3054383 112.1526253  35.3984661  68.6627521 103.7449354  27.4878009
  67.7325109 103.6833809  27.7047972  68.7584993 103.2225307  26.6914651
  68.5813070 100.2704167  30.0756251  68.8419887 101.1849500  29.9665412
  69.4030242  99.8028609  30.2252864  70.0537995 101.6841924  37.2455076
  70.7261049 101.4759286  36.5967725  69.2267782 101.4864010  36.8060308
  84.3027256 108.4245974  36.7630409  84.4963147 109.3291785  37.0089684
  84.2027875 107.9653393  37.5968994  75.9563567  98.3103865  39.2620736
  75.3091482  99.0093815  39.1685213  76.7264583  98.7440009  39.6296985
  79.3642365 108.5752717  42.3371290  79.2127872 108.3463269  41.4201373
  79.3547045 109.5323318  42.3502635  76.1327702 106.1484630  37.3217556
  77.0619762 106.2995789  37.1486524  75.7118732 106.2368651  36.4666203
  74.9316033 110.1735294  35.0916094  74.7927119 109.8054079  35.9642032
  74.1430630 110.6882934  34.9200052  75.5264185 115.2744391  26.4341630
  75.7015941 114.8032434  27.2487253  74.8396973 115.9010157  26.6622891
  76.4821248 109.5516897  32.4804932  76.1471081 109.5117667  33.3762581
  75.9825194 108.8861613  32.0075342  70.4565492 104.9584527  38.0057513
  70.3185290 104.2264766  38.6069052  71.3670416 104.8693427  37.7241701
  73.0847793 104.6704486  37.4941192  73.7947412 104.0297678  37.4527811
  73.0417101 104.9217381  38.4167373  81.0734572 111.6071840  40.4147772
  81.0147118 110.9231060  39.7478355  81.4754090 112.3490830  39.9628398
  71.7976727 101.6569704  39.3136832  71.2614084 101.2060443  39.9658428
  71.2093436 101.7915613  38.5707296  70.0925271 118.4233753  33.2081491
  70.3321869 119.0552278  33.8860509  69.2494467 118.0721793  33.4946850
  71.2078986 101.1158356  21.8763296  70.3308452 100.9947156  21.5125542
  71.6836739 100.3244434  21.6242184  81.0751979 109.5711424  38.6461751
  80.1878758 109.2337345  38.7688150  81.6450530 108.8394455  38.8830517
  62.7281126 105.9035515  31.9704803  63.4152166 105.5897245  31.3825818
  62.5729255 106.8076880  31.6972054  67.5315848 100.7925712  36.3989826
  67.4474037 100.1851381  35.6640236  66.7098555 101.2834730  36.3999323
  74.6053132 114.2312876  35.6122995  74.5323304 115.0367847  36.1242299
  74.1630526 114.4304842  34.7871016  74.3942912 113.4684646  29.1225816
  73.6110434 114.0106326  29.2164041  75.0935657 113.9858626  29.5220057
  77.7039562  99.2779275  31.7660021  78.2008262  98.5249238  31.4461092
  76.9326544  99.3143592  31.2003231  85.5569320 104.9819641  33.4078313
  85.5459196 105.8644356  33.0372246  84.6886699 104.6291192  33.2132850
  77.0651816 114.1299710  37.7681153  77.7779788 114.7647175  37.6957055
  76.5741845 114.2263576  36.9521155  78.7869343 108.0350963  29.3398445
  77.8525622 108.1552425  29.1703149  78.9646011 107.1323429  29.0758455
  74.2874531 101.4196658  31.4931706  73.9172318 100.8667699  32.1812612
  74.7833623 100.8154792  30.9406706  82.1741894 103.8768282  29.8748479
  82.6402346 104.7096273  29.8008782  82.6249395 103.4113263  30.5793737
  72.1163730 111.8794153  38.5886724  72.8173189 112.5130636  38.7416118
  71.6458844 112.2208885  37.8282363  80.2418125 110.2212103  26.8734631
  80.5177969 110.1068698  27.7828505  79.3722624 109.8229588  26.8346804
  80.1458557  96.2448869  33.9139380  79.2321637  96.4753096  34.0821587
  80.5751658  96.3287313  34.7653413  79.9165015 104.4338761  36.4139274
  79.2636466 104.6814668  35.7591727  80.2945395 103.6202899  36.0801752
  76.8772189 114.4698454  30.5167445  77.0594584 113.6520110  30.9795197
  77.7005175 114.6866146  30.0792335  77.2114355 113.3966639  27.7782493
  77.7402121 112.8859094  27.1652655  77.4742574 113.0809169  28.6428026
  75.9652588 105.1758572  42.9005311  75.2893226 105.0752701  43.5707687
  76.7880222 105.0197786  43.3641309  67.7131448 111.4130508  35.5217827
  68.2984884 110.6674196  35.6545731  67.5156286 111.7234465  36.4054491
  70.5670103 114.4481756  30.5380269  69.8980478 114.9327883  30.0544309
  70.4282972 114.6950976  31.4523648  62.3049102 103.9836109  34.2422270
  62.3433202 103.4499699  35.0359388  61.7989395 103.4571314  33.6233247
  74.7075371 116.4825499  37.1362927  75.2593679 116.6457121  37.9012013
  75.0481565 117.0729937  36.4642952  69.6839865  98.8300649  37.7384812
  69.7481191  99.6915480  37.3262210  69.6206985  98.2174651  37.0057171
  69.1592137 100.9023782  41.3857846  69.7864176 100.5200859  41.9995371
  68.3020056 100.6837984  41.7513539  79.5586246 111.3086757  42.9911582
  80.1026150 111.9216715  42.4966537  78.9773091 111.8666335  43.5078595
  65.9357680 102.7100211  27.3176201  66.2311121 101.8010889  27.2643255
  65.0345716 102.6887950  26.9957204  77.8443759 114.4307475  34.1226610
  77.7194898 113.6297215  33.6137555  78.5022850 114.9253668  33.6340580
  69.4651927 100.7856207  33.3003750  68.7438513 101.3992175  33.1611223
  70.2545183 101.3213972  33.2220396  79.9078667 112.2316495  35.7506160
  78.9609003 112.1121846  35.6784486  80.2561440 111.3438993  35.8332421
  72.2678240  98.1210634  39.5744402  72.7912642  98.3672930  40.3370711
  72.0490574  98.9530669  39.1547539  67.6645521 100.3914308  27.4415526
  67.3358228  99.5111687  27.2590632  68.0184892 100.3361977  28.3291916
  76.9125100 112.0269211  31.9510512  76.7650063 111.0985919  32.1318082
  77.7378594 112.0489302  31.4667587  70.7787345 100.6787278  27.8091004
  71.1183417 101.2073200  27.0869612  71.2259465 101.0167684  28.5849571
  80.5159222 112.8497770  33.0375385  81.4405770 112.6440631  32.8999836
  80.3474526 112.6014171  33.9464726  73.4730785  99.0624329  37.2594072
  73.1327606  98.2632142  37.6614752  72.7669792  99.3626040  36.6870905
  74.1247257  96.1473641  35.7121395  74.9473327  95.6734120  35.5900285
  74.3685321  96.9264125  36.2120081  72.7655492  99.1761900  26.0084297
  73.4863854  99.5543153  25.5048014  72.1420796  99.8950777  26.1119275
  76.9086615  99.8807049  26.9442629  77.1250229 100.7631687  26.6431457
  76.4280682  99.4893262  26.2148271  71.6485836 102.8392762  33.5213374
  71.5030417 103.1533065  34.4137655  71.1711040 103.4577662  32.9684272
  73.5082219  99.8295310  33.5694263  73.4943788  98.9336403  33.2326561
  74.2254647  99.8365974  34.2032549  75.3608350 100.2632650  35.6147391
  75.1026127 101.1849721  35.6131721  74.8293390  99.8663085  36.3047855
  80.3054538 113.3683437  28.3937476  80.4791416 112.8029860  27.6411329
  80.7983430 114.1684332  28.2116966  66.1231498 105.3798106  36.4601035
  65.5784966 106.1557914  36.5921309  67.0010848 105.7268911  36.3020156
  72.9119115  98.7109690  28.8381833  73.0335026  97.7826337  29.0372721
  72.6221157  98.7248376  27.9260149  75.7810305  96.3964601  31.9748553
  75.8032002  96.4603934  31.0200533  76.1978364  95.5569109  32.1689059
  86.1593930 106.1319860  30.0127776  86.6025076 105.3827186  29.6146899
  85.2820440 106.1229997  29.6301508  66.9097520 104.5068003  39.3531192
  66.1679256 104.6550638  39.9395822  66.5890264 104.7676268  38.4897941
  74.8541183 114.0483981  39.1511582  75.1628309 113.8033128  40.0234281
  75.6516665 114.2530619  38.6630452  74.8761795 116.2021891  31.3816958
  74.4366785 115.7098269  32.0749815  75.6269912 115.6594858  31.1409034
  67.3554134 112.3933431  31.3841586  68.1812154 112.0937203  31.0040230
  67.0048186 111.6241054  31.8331375  72.3235667 111.7459900  33.4539260
  71.7015676 111.0830605  33.1541488  72.9940534 111.7721032  32.7712908
  65.5562739 110.3119758  32.3430520  64.7194647 109.8841932  32.1614521
  65.5286384 110.5052201  33.2801311  72.3960194 100.2241688  43.0471766
  72.4448350 101.1003810  42.6649536  72.9382709  99.6819081  42.4743409
  82.8815040 110.7682811  42.3272903  82.0910584 110.7506950  41.7877403
  82.6448395 111.3071105  43.0821940  83.0012915 107.6175277  39.6405632
  83.0510920 107.4525285  40.5821154  82.8926838 106.7502536  39.2503512
  71.8849174 110.2963823  26.9297721  72.0337294 110.9799287  26.2764393
  72.6915617 110.2768913  27.4447176  80.2916678 103.6006205  40.9564938
  81.1926540 103.4612670  40.6648936  80.3664652 103.7660660  41.8963116
  74.6259483 100.9773060  39.8018125  73.7562792 101.2706626  39.5300713
  74.8618963 101.5613505  40.5225388  84.5031112 110.0372219  39.8847653
  84.2115920 110.4002199  40.7211114  83.8903243 109.3239227  39.7060985
  85.7026794 107.6025099  32.4050223  86.5373686 108.0414903  32.5687784
  85.8385923 107.1263752  31.5858469  82.7518300 105.1604833  38.3527711
  83.2272422 105.3532480  37.5446563  81.8283866 105.2164019  38.1071095
  69.6401807 106.3229001  27.9358789  69.3947849 105.4191331  28.1339000
  69.8097721 106.3246151  26.9938267  77.3298517  97.1952677  37.3183545
  77.8480461  97.9313704  36.9930034  76.9753649  97.5016670  38.1530304
  68.9097454 102.0557358  25.4344951  68.2166699 102.1301713  24.7784987
  68.6649206 101.2917702  25.9566468  77.5811111  93.6152960  32.8384442
  77.8612865  92.9476149  33.4644868  78.3661718  93.8082055  32.3259105
  81.4519969 102.0370594  36.5856017  82.4037392 102.1368691  36.6068241
  81.2823420 101.2448862  37.0954101  79.4734349  99.1226177  36.7715418
  78.8784281  99.4031189  36.0761906  79.1884045  99.6120078  37.5432159
  83.9308047 105.2576713  35.6998316  83.8984367 104.3192714  35.8858000
  84.5408671 105.3360750  34.9664141  75.7691378 104.1272766  21.7425520
  76.7150483 103.9978974  21.8113938  75.3905623 103.3887428  22.2194949
  84.0802535 102.0487757  35.7456600  83.5641584 101.2646213  35.5586528
  84.9642484 101.7206473  35.9103119  81.7413262  95.7928772  31.7052412
  81.5438084  95.4843860  32.5895744  82.3512968  96.5190411  31.8350342
  89.7484597 106.3192720  34.8404353  90.4787985 106.0578008  35.4012057
  89.1391542 105.5821442  34.8806421  87.8299894 104.4600583  35.4378804
  87.1033058 104.3256548  34.8295296  87.4147181 104.7677411  36.2435522
  75.6530070 108.1790512  43.2026177  76.5733080 108.3569111  43.3966224
  75.6179653 107.2346558  43.0505877  73.9534295 102.0522743  21.6780406
  73.0465750 101.7555855  21.7543119  74.2310276 101.7552561  20.8114692
  64.8712235 103.3729106  32.1279452  64.5515020 102.5194414  31.8353826
  64.3245664 103.5877684  32.8837419  68.6492143 106.0891547  35.8448959
  68.8678153 107.0208655  35.8636992  69.0617917 105.7299521  36.6303762
  75.5696361  96.5959632  27.8324647  74.7597089  96.2506717  28.2079893
  76.2580778  96.2867176  28.4212259  77.4986909  95.6737679  29.4548944
  78.0517948  96.0933133  30.1138967  77.7356995  94.7473427  29.4971900
  73.5220008 101.6624753  45.2351708  73.4216735 102.6119110  45.1663799
  73.3041550 101.3342992  44.3627778  72.7233080  98.9109678  21.8192385
  73.5852244  99.2364576  22.0788202  72.9083424  98.1241174  21.3065451
  64.7400495 106.9932017  34.0972574  64.0463967 106.5785970  33.5842528
  65.4873486 107.0352554  33.5005993  80.8765716  97.7838204  28.9627608
  80.2964385  98.4423008  28.5805660  80.6101649  96.9615549  28.5515025
  79.3269282  97.1843262  31.1648928  79.8269061  97.2959797  30.3563247
  79.9704890  96.8804315  31.8049737  73.3851278 105.0921892  44.0516769
  72.9018360 105.8922252  44.2580658  73.4712217 105.1029836  43.0984213
  66.6537238 106.9250271  31.9738589  66.6307926 107.0237959  31.0220472
  66.9637874 107.7715422  32.2955755  69.3124616 108.9826426  36.0885203
  70.2667869 108.9510369  36.0215135  69.1137139 108.5217050  36.9035429
  69.9023998 107.5527542  38.6556001  70.7216887 108.0471621  38.6790838
  70.1760806 106.6359510  38.6273568  79.6590594  99.9438295  28.0183956
  78.7716449 100.2287945  27.8004151  80.0744583  99.7832058  27.1711233
  83.0105130  99.9684816  31.7338295  83.7865520 100.4581268  32.0062912
  82.2853264 100.3942870  32.1910165  85.4477689 100.6812435  32.7912236
  86.0422180 100.4408171  32.0805544  85.5204273  99.9619565  33.4185772
  67.6674845 114.5246046  33.1055401  67.5329312 113.7646447  32.5393399
  67.2506907 115.2486946  32.6384190  79.6331618 105.4592831  28.2334246
  79.5766819 105.9161382  27.3941879  80.1859960 104.6983515  28.0557089
  83.4436424 101.2482562  29.0584366  83.1873358 100.8479198  29.8892573
  82.8189292 101.9626356  28.9334505  87.7548762 103.9878636  31.5655657
  87.1948320 104.0571825  32.3387219  87.1492265 103.8119620  30.8455153
  70.8243970 115.4215363  33.3173843  70.7076355 116.3660795  33.2152534
  70.0036417 115.1188924  33.7059643  80.3666397 106.6497612  25.5286775
  80.3115201 106.4841883  24.5875220  79.7412452 107.3573645  25.6848965
  65.1558912 101.8865676  39.3548198  65.8017776 101.3764630  39.8435423
  64.9476063 102.6234358  39.9291623  77.6812304 108.9546524  44.8540338
  78.5503464 109.1287176  44.4926973  77.2019056 109.7740941  44.7316068
  73.6762523  96.1505721  25.1072094  73.6641192  97.0947561  25.2640365
  74.5685944  95.9675866  24.8131555  71.8498485 116.0743625  36.5329772
  72.7525731 116.1067235  36.8496267  71.6235855 115.1444076  36.5476108
  73.6052087 114.8274611  33.1939851  72.6547718 114.8276473  33.0804223
  73.9084573 114.0807346  32.6775885  77.4914642  92.7448497  29.3618031
  76.7247038  92.1906984  29.5074713  77.9025347  92.8170366  30.2232182
  69.4956403  99.0333293  43.4523212  70.3587865  98.6770098  43.6626537
  68.9221814  98.6947188  44.1398616  86.1494486 120.6162578  34.1947138
  85.8112998 120.5003642  33.3067672  87.0184255 120.2153743  34.1748144
  86.6314269 121.7697429  40.1533343  86.6202910 121.3750228  39.2813847
  86.7934909 121.0363502  40.7467115  83.3521530 124.5534541  39.1012527
  83.0611396 125.4580172  38.9859193  83.9878515 124.5951069  39.8156597
  84.2777737 121.9311390  35.6913887  84.8741310 121.7067412  34.9770850
  84.3352709 121.1896135  36.2939335  91.8179896 112.0383411  36.6966408
  91.4863221 112.9078822  36.4727623  91.2225509 111.7219695  37.3760438
  81.7623897 120.6909754  32.1299025  80.8374394 120.5585968  32.3376717
  82.0108310 121.4703973  32.6268968  91.7108559 116.7578497  33.7759758
  90.8025437 116.6893905  33.4818519  91.6596155 117.2350442  34.6041584
  79.1232708 120.3343027  32.9642814  79.2525089 120.5877506  33.8782226
  78.4430159 120.9270735  32.6447469  85.7849425 118.1768143  41.7194655
  85.0082759 118.7362063  41.7097520  86.4239988 118.6624926  42.2409526
  93.5770206 114.9594935  35.5537632  92.9344586 115.2527469  34.9077427
  93.0725134 114.8447856  36.3590829  84.0395797 120.9853596  41.2812622
  84.7810482 121.5238640  41.0047446  83.3332783 121.6119885  41.4384174
  85.8682207 118.0655343  37.2518341  86.7143402 118.4894757  37.3952990
  85.8080845 117.4088967  37.9456904  89.0181652 115.7259712  38.9099514
  88.7742584 116.4801772  38.3733790  89.2941583 116.1045059  39.7446762
  88.5746344 114.8816145  34.4913352  87.7130823 115.1797398  34.7830090
  88.6008779 115.0986543  33.5594385  82.7757161 118.1393244  42.0827932
  82.1455822 118.8209525  42.3163329  82.6693249 118.0276326  41.1381071
  78.0702134 117.8065040  33.0093857  77.2801188 118.0622569  32.5333967
  78.5613381 118.6213378  33.1145897  76.3539837 118.0595531  35.4408847
  76.6047875 118.9442541  35.7066423  76.8899385 117.8800132  34.6683939
  82.0537904 112.4414010  44.4453183  81.6604849 111.8880209  45.1200828
  82.8704044 112.7524588  44.8359701  84.9705865 113.8571889  42.0373440
  85.7115578 114.4579042  41.9577902  85.2023788 113.1149527  41.4791483
  80.1147203 119.0428256  40.3151670  80.0000718 118.1413514  40.6158769
  79.2591721 119.2891953  39.9636486  88.9163028 109.8852992  36.3137722
  88.5727297 110.7754634  36.2376832  89.2841990 109.6954650  35.4507307
  87.9959568 112.2557647  34.2786955  87.4924364 112.2187782  33.4654760
  88.2890175 113.1650390  34.3383612  84.2402454 112.3396377  33.2853137
  85.1055451 112.1439186  32.9259026  84.3079963 112.1106729  34.2122493
  81.8464773 114.5698585  30.6569503  82.4208525 114.3473766  29.9242696
  82.4335756 114.6387279  31.4098105  84.1487441 111.4439834  29.3844573
  83.4951853 111.1288851  28.7601188  84.1067915 110.8215574  30.1104396
  87.3825181 117.9321767  33.7092221  86.4647743 118.1536714  33.5513909
  87.7985325 118.0068078  32.8503928  90.7150693 109.1446551  31.4155459
  91.0209570 108.2843915  31.1281374  91.4403298 109.7364171  31.2154453
  77.0075050 119.5477238  29.8037057  76.8099449 118.9546598  29.0788124
  76.4521714 119.2429448  30.5212996  88.5238345 118.5219228  38.5136923
  88.8787733 118.7490702  39.3731389  89.1710476 118.8537605  37.8914179
  82.4178208 115.6295760  35.2983264  83.0577587 115.4884519  34.6006228
  81.5855738 115.3430273  34.9221866  79.4206824 115.5996084  30.0756251
  79.6813642 116.5141418  29.9665412  80.2423997 115.1320527  30.2252864
  80.8931750 117.0133842  37.2455076  81.5654803 116.8051204  36.5967725
  80.0661536 116.8155928  36.8060308  86.7957322 113.6395783  39.2620736
  86.1485237 114.3385732  39.1685213  87.5658337 114.0731927  39.6296985
  86.9721456 121.4776547  37.3217556  87.9013516 121.6287707  37.1486524
  86.5512486 121.5660568  36.4666203  81.2959247 120.2876445  38.0057513
  81.1579045 119.5556683  38.6069052  82.2064170 120.1985345  37.7241701
  83.9241548 119.9996404  37.4941192  84.6341166 119.3589596  37.4527811
  83.8810856 120.2509299  38.4167373  82.6370482 116.9861622  39.3136832
  82.1007839 116.5352360  39.9658428  82.0487190 117.1207531  38.5707296
  73.5674881 121.2327433  31.9704803  74.2545920 120.9189163  31.3825818
  73.4123009 122.1368798  31.6972054  78.3709603 116.1217630  36.3989826
  78.2867792 115.5143299  35.6640236  77.5492309 116.6126648  36.3999323
  88.5433317 114.6071193  31.7660021  89.0402016 113.8541155  31.4461092
  87.7720298 114.6435510  31.2003231  85.1268285 116.7488576  31.4931706
  84.7566073 116.1959616  32.1812612  85.6227378 116.1446710  30.9406706
  90.9852311 111.5740787  33.9139380  90.0715391 111.8045013  34.0821587
  91.4145413 111.6579231  34.7653413  90.7558770 119.7630679  36.4139274
  90.1030220 120.0106586  35.7591727  91.1339150 118.9494817  36.0801752
  86.8046343 120.5050490  42.9005311  86.1286980 120.4044619  43.5707687
  87.6273977 120.3489703  43.3641309  78.5525202 126.7422426  35.5217827
  79.1378639 125.9966114  35.6545731  78.3550041 127.0526383  36.4054491
  73.1442857 119.3128026  34.2422270  73.1826956 118.7791617  35.0359388
  72.6383150 118.7863232  33.6233247  80.5233619 114.1592567  37.7384812
  80.5874946 115.0207398  37.3262210  80.4600739 113.5466568  37.0057171
  79.9985892 116.2315699  41.3857846  80.6257930 115.8492777  41.9995371
  79.1413810 116.0129901  41.7513539  80.3045681 116.1148125  33.3003750
  79.5832267 116.7284093  33.1611223  81.0938937 116.6505890  33.2220396
  83.1071995 113.4502552  39.5744402  83.6306397 113.6964848  40.3370711
  82.8884328 114.2822586  39.1547539  84.3124540 114.3916247  37.2594072
  83.9721360 113.5924060  37.6614752  83.6063546 114.6917958  36.6870905
  84.9641012 111.4765559  35.7121395  85.7867081 111.0026037  35.5900285
  85.2079075 112.2556043  36.2120081  82.4879591 118.1684680  33.5213374
  82.3424171 118.4824983  34.4137655  82.0104794 118.7869580  32.9684272
  84.3475973 115.1587228  33.5694263  84.3337542 114.2628321  33.2326561
  85.0648402 115.1657891  34.2032549  86.2002104 115.5924568  35.6147391
  85.9419882 116.5141639  35.6131721  85.6687144 115.1955002  36.3047855
  76.9625253 120.7090024  36.4601035  76.4178721 121.4849832  36.5921309
  77.8404603 121.0560829  36.3020156  86.6204060 111.7256518  31.9748553
  86.6425757 111.7895852  31.0200533  87.0372119 110.8861027  32.1689059
  77.7491275 119.8359920  39.3531192  77.0073011 119.9842556  39.9395822
  77.4284019 120.0968186  38.4897941  83.2353949 115.5533605  43.0471766
  83.2842104 116.4295728  42.6649536  83.7776463 115.0110998  42.4743409
  91.1310432 118.9298123  40.9564938  92.0320295 118.7904588  40.6648936
  91.2058407 119.0952578  41.8963116  85.4653237 116.3064978  39.8018125
  84.5956547 116.5998544  39.5300713  85.7012718 116.8905423  40.5225388
  88.1692271 112.5244595  37.3183545  88.6874215 113.2605622  36.9930034
  87.8147404 112.8308588  38.1530304  88.4204865 108.9444877  32.8384442
  88.7006619 108.2768066  33.4644868  89.2055472 109.1373973  32.3259105
  92.2913724 117.3662511  36.5856017  93.2431147 117.4660609  36.6068241
  92.1217174 116.5740780  37.0954101  90.3128103 114.4518094  36.7715418
  89.7178035 114.7323107  36.0761906  90.0277800 114.9411995  37.5432159
  94.9196290 117.3779674  35.7456600  94.4035339 116.5938131  35.5586528
  95.8036238 117.0498391  35.9103119  92.5807017 111.1220690  31.7052412
  92.3831838 110.8135778  32.5895744  93.1906722 111.8482329  31.8350342
  75.7105990 118.7021024  32.1279452  75.3908774 117.8486332  31.8353826
  75.1639418 118.9169602  32.8837419  79.4885897 121.4183465  35.8448959
  79.7071907 122.3500572  35.8636992  79.9011671 121.0591439  36.6303762
  88.3380663 111.0029597  29.4548944  88.8911702 111.4225050  30.1138967
  88.5750750 110.0765345  29.4971900  84.3613763 116.9916670  45.2351708
  84.2610490 117.9411027  45.1663799  84.1435305 116.6634909  44.3627778
  75.5794250 122.3223935  34.0972574  74.8857721 121.9077888  33.5842528
  76.3267241 122.3644472  33.5005993  84.2245033 120.4213809  44.0516769
  83.7412114 121.2214169  44.2580658  84.3105972 120.4321754  43.0984213
  77.4930992 122.2542189  31.9738589  77.4701680 122.3529876  31.0220472
  77.8031629 123.1007340  32.2955755  80.1518370 124.3118344  36.0885203
  81.1061624 124.2802286  36.0215135  79.9530894 123.8508968  36.9035429
  80.7417752 122.8819460  38.6556001  81.5610641 123.3763539  38.6790838
  81.0154560 121.9651428  38.6273568  75.9952667 117.2157594  39.3548198
  76.6411530 116.7056548  39.8435423  75.7869818 117.9526276  39.9291623
  88.3308397 108.0740415  29.3618031  87.5640792 107.5198902  29.5074713
  88.7419102 108.1462284  30.2232182  80.3350158 114.3625211  43.4523212
  81.1981619 114.0062016  43.6626537  79.7615568 114.0239106  44.1398616
  25.3617475  11.6689291  29.7156888  25.9057378  12.2819249  29.2211843
  24.7804319  12.2268869  30.2323901  28.6846269  11.1285345  29.0518210
  27.8941813  11.1109484  28.5122709  28.4479623  11.6673639  29.8067246
  23.4843533   9.3149058  31.5785645  24.3534693   9.4889710  31.2172280
  23.0050285  10.1343475  31.4561374  35.1436009  21.0237684  20.9830920
  35.7814419  20.9044431  20.2794260  35.0256852  21.9718528  21.0418872
  32.4345498  22.1299964  26.8778650  32.4234139  21.7352762  26.0059153
  32.5966138  21.3966036  27.4712421  29.1552759  24.9137075  25.8257834
  28.8642625  25.8182706  25.7104500  29.7909744  24.9553603  26.5401903
  30.0808966  22.2913924  22.4159193  30.6772538  22.0669946  21.7016156
  30.1383938  21.5498669  23.0184641  40.0985704  18.6864371  18.9617106
  40.8310876  18.1163588  19.1954936  39.3425060  18.2985971  19.4023612
  37.6211125  12.3985945  23.4211715  37.2894450  13.2681356  23.1972930
  37.0256738  12.0822229  24.1005745  34.1142644  24.5998491  22.8207627
  33.8143367  25.5023530  22.7123435  33.7693704  24.3330674  23.6728780
  29.0963424  31.3642811  15.7878595  29.0187454  32.3150636  15.8667076
  28.4925068  31.0188684  16.4453521  31.5880654  18.5370677  28.4439962
  30.8113988  19.0964597  28.4342827  32.2271217  19.0227460  28.9654832
  39.3801435  15.3197470  22.2782939  38.7375815  15.6130003  21.6322733
  38.8756363  15.2050390  23.0836135  29.8427026  21.3456130  28.0057929
  30.5841711  21.8841174  27.7292753  29.1364012  21.9722419  28.1629481
  35.3182366  23.4885271  26.6030091  35.7265722  23.0467681  25.8584723
  34.5959627  22.9137898  26.8564283  31.6713436  18.4257877  23.9763647
  32.5174631  18.8497291  24.1198296  31.6112074  17.7691502  24.6702211
  35.6411181  24.0486461  20.3582379  35.0120043  24.2132175  19.6558447
  35.2536843  24.4628071  21.1293343  39.5200412  24.9840899  17.7126743
  38.8351451  25.3639800  17.1623776  39.6044262  25.5936226  18.4458691
  34.8212881  16.0862246  25.6344821  34.5773813  16.8404306  25.0979097
  35.0972812  16.4647593  26.4692068  36.7751344  22.6300858  24.3122087
  36.9868239  23.2732618  23.6356468  36.7281092  21.7963175  23.8444017
  28.5788390  18.4995778  28.8073239  27.9487051  19.1812059  29.0408636
  28.4724478  18.3878860  27.8626377  37.8897172  25.5072814  22.4844444
  38.7114616  25.1053001  22.2027126  37.8859575  25.4041048  23.4360560
  31.6553775  25.0556857  24.6405155  31.7198208  25.5177264  25.4763326
  30.9464699  24.4254222  24.7687464  45.9803165  21.8511562  18.8329416
  45.2266873  21.2818960  18.6773420  46.1150706  21.8174227  19.7800050
  27.8569133  12.8016544  31.1698490  27.4636078  12.2482743  31.8446134
  28.6735273  13.1127123  31.5605008  30.7737094  14.2174423  28.7618747
  31.5146807  14.8181576  28.6823209  31.0055017  13.4752061  28.2036789
  25.9178432  19.4030791  27.0396976  25.8031947  18.5016048  27.3404075
  25.0622949  19.6494487  26.6881793  32.9970269  27.3448531  28.6384477
  32.5534124  26.5584909  28.3205381  33.6587483  27.5327681  27.9728368
  27.7557391  28.8744332  23.1645155  28.3064816  28.7461396  22.3922149
  26.9168867  29.1739221  22.8140048  35.0951508  27.6251331  26.6665878
  35.0769983  28.4460212  26.1746147  36.0171428  27.5005406  26.8916019
  31.5524562  25.1395460  27.5089387  32.0852898  24.3783748  27.2788695
  31.0238643  24.8469112  28.2513541  37.8970120  22.4630473  20.1375245
  37.2393795  23.1529735  20.2255374  38.7010520  22.8526905  20.4809231
  37.4737375  25.7980847  16.3158329  37.0199703  24.9571757  16.3723520
  36.8431342  26.4342246  16.6533109  35.9170315  27.6357344  17.2508147
  36.2093289  28.1962401  16.5320513  36.4268935  27.9285905  18.0061307
  30.8803940  28.4137695  18.3401601  30.8380119  28.6398541  17.4110133
  31.7966639  28.1801070  18.4887402  34.3269574  18.8821763  25.2382230
  34.6818961  19.1093236  26.0976696  34.9741705  19.2140139  24.6159485
  40.0836690  24.0716726  20.9542830  40.5173197  23.9792015  21.8025884
  40.7968271  24.0474226  20.3162846  33.8164585  27.6718820  22.4875931
  33.8701607  28.2409756  23.2553647  32.9479366  27.8420705  22.1229968
  40.9452240  24.1140426  23.4875716  41.1388130  25.0186237  23.7334991
  40.8452858  23.6547845  24.3214301  32.5988550  13.9998317  25.9866043
  31.9516466  14.6988266  25.8930520  33.3689566  14.4334461  26.3542291
  36.0067348  24.2647169  29.0616596  35.8552855  24.0357721  28.1446680
  35.9972028  25.2217770  29.0747941  32.7752685  21.8379082  24.0462863
  33.7044745  21.9890241  23.8731830  32.3543715  21.9263102  23.1911509
  31.5741017  25.8629746  21.8161400  31.4352102  25.4948531  22.6887339
  30.7855613  26.3777386  21.6445358  33.1246232  25.2411349  19.2050238
  32.7896064  25.2012119  20.1007888  32.6250177  24.5756065  18.7320648
  27.0990476  20.6478979  24.7302819  26.9610274  19.9159218  25.3314358
  28.0095399  20.5587879  24.4487007  29.7272776  20.3598938  24.2186499
  30.4372395  19.7192130  24.1773117  29.6842085  20.6111833  25.1412680
  37.7159555  27.2966292  27.1393078  37.6572101  26.6125512  26.4723661
  38.1179073  28.0385282  26.6873704  28.4401710  17.3464156  26.0382139
  27.9039067  16.8954895  26.6903735  27.8518419  17.4810065  25.2952603
  26.7350254  34.1128205  19.9326797  26.9746852  34.7446730  20.6105816
  25.8919450  33.7616245  20.2192156  37.7176962  25.2605875  25.3707058
  36.8303741  24.9231797  25.4933457  38.2875513  24.5288907  25.6075823
  31.2478116  29.9207328  22.3368301  31.1748287  30.7262299  22.8487606
  30.8055509  30.1199294  21.5116323  42.1994303  20.6714093  20.1323620
  42.1884179  21.5538808  19.7617553  41.3311682  20.3185644  19.9378157
  33.7076799  29.8194162  24.4926460  34.4204771  30.4541627  24.4202361
  33.2166828  29.9158028  23.6766462  28.7588713  27.5688605  25.3132031
  29.4598172  28.2025088  25.4661425  28.2883828  27.9103337  24.5527670
  36.5589999  20.1233213  23.1384581  35.9061449  20.3709120  22.4837034
  36.9370379  19.3097351  22.8047058  33.5197173  30.1592906  17.2412751
  33.7019567  29.3414562  17.7040504  34.3430159  30.3760598  16.8037641
  32.6077572  20.8653024  29.6250618  31.9318209  20.7647153  30.2952993
  33.4305206  20.7092238  30.0886615  24.3556431  27.1024960  22.2463133
  24.9409868  26.3568648  22.3791038  24.1581269  27.4128917  23.1299797
  31.3500355  32.1719951  23.8608234  31.9018663  32.3351573  24.6257319
  31.6906548  32.7624389  23.1888259  25.8017120  16.5918234  28.1103153
  26.4289159  16.2095311  28.7240677  24.9445039  16.3732436  28.4758846
  36.2011229  26.9981209  29.7156888  36.7451133  27.6111167  29.2211843
  35.6198074  27.5560787  30.2323901  34.4868742  30.1201927  20.8471916
  34.3619881  29.3191667  20.3382862  35.1447833  30.6148120  20.3585886
  36.5503650  27.9210947  22.4751466  35.6033986  27.8016298  22.4029793
  36.8986423  27.0333445  22.5577728  28.9103224  13.8105086  26.2989708
  29.4337626  14.0567382  27.0616018  28.6915557  14.6425121  25.8792846
  33.5550084  27.7163663  18.6755819  33.4075046  26.7880370  18.8563389
  34.3803577  27.7383754  18.1912894  37.1584205  28.5392222  19.7620691
  38.0830753  28.3335083  19.6245142  36.9899509  28.2908623  20.6710033
  36.9479522  29.0577889  15.1182783  37.1216399  28.4924312  14.3656635
  37.4408413  29.8578784  14.9362273  42.8018913  21.8214312  16.7373082
  43.2450059  21.0721637  16.3392206  41.9245423  21.8124449  16.3546814
  23.5522503  20.1962455  26.0776498  22.8104239  20.3445090  26.6641129
  23.2315248  20.4570720  25.2143248  31.4966166  29.7378433  25.8756888
  31.8053292  29.4927580  26.7479588  32.2941648  29.9425071  25.3875759
  31.5186778  31.8916342  18.1062265  31.0791768  31.3992721  18.7995122
  32.2694895  31.3489310  17.8654340  28.9660650  27.4354352  20.1784567
  28.3440659  26.7725057  19.8786794  29.6365517  27.4615483  19.4958214
  29.0385178  15.9136140  29.7717073  29.0873333  16.7898262  29.3894842
  29.5807692  15.3713533  29.1988716  39.5240023  26.4577263  29.0518210
  38.7335567  26.4401402  28.5122709  39.2873378  26.9965557  29.8067246
  39.6437898  23.3069729  26.3650938  39.6935903  23.1419737  27.3066461
  39.5351822  22.4396988  25.9748819  36.9341661  19.2900657  27.6810245
  37.8351524  19.1507122  27.3894243  37.0089635  19.4555112  28.6208422
  31.2684466  16.6667512  26.5263431  30.3987776  16.9601078  26.2546020
  31.5043946  17.2507957  27.2470695  41.1456095  25.7266671  26.6092960
  40.8540904  26.0896651  27.4456421  40.5328227  25.0133679  26.4306292
  42.3451778  23.2919551  19.1295530  43.1798669  23.7309355  19.2933090
  42.4810906  22.8158204  18.3103776  39.3943283  20.8499285  25.0773018
  39.8697405  21.0426932  24.2691869  38.4708849  20.9058471  24.8316401
  38.0944952  17.7265045  23.3101323  39.0462375  17.8263143  23.3313547
  37.9248403  16.9343314  23.8199408  36.1159332  14.8120629  23.4960724
  35.5209264  15.0925641  22.8007213  35.8309029  15.3014530  24.2677465
  40.5733030  20.9471165  22.4243623  40.5409350  20.0087166  22.6103307
  41.1833654  21.0255202  21.6909448  40.7227519  17.7382209  22.4701906
  40.2066567  16.9540665  22.2831835  41.6067467  17.4100925  22.6348426
  46.3909580  22.0087172  21.5649660  47.1212969  21.7472460  22.1257363
  45.7816526  21.2715894  21.6051728  44.4724877  20.1495035  22.1624111
  43.7458041  20.0150999  21.5540603  44.0572164  20.4571863  22.9680829
  32.2955054  23.8684964  29.9271484  33.2158063  24.0463563  30.1211531
  32.2604637  22.9241010  29.7751183  30.1644992  17.3519205  31.9597014
  30.0641718  18.3013562  31.8909105  29.9466534  17.0237444  31.0873084
  30.0276262  20.7816343  30.7762076  29.5443343  21.5816704  30.9825965
  30.1137201  20.7924288  29.8229520  25.9549599  24.6720878  22.8130510
  26.9092853  24.6404821  22.7460441  25.7562123  24.2111502  23.6280736
  26.5448981  23.2421994  25.3801307  27.3641870  23.7366073  25.4036145
  26.8185789  22.3253962  25.3518875  24.3099828  30.2140498  19.8300707
  24.1754296  29.4540899  19.2638706  23.8931890  30.9381398  19.3629496
  44.3973745  19.6773088  18.2900964  43.8373303  19.7466277  19.0632526
  43.7917248  19.5014072  17.5700460  27.4668954  31.1109815  20.0419150
  27.3501338  32.0555247  19.9397840  26.6461400  30.8083376  20.4304949
  34.3237288  24.6440976  31.5785645  35.1928447  24.8181628  31.2172280
  33.8444039  25.4635392  31.4561374  28.4923468  31.7638077  23.2575079
  29.3950715  31.7961687  23.5741574  28.2660838  30.8338528  23.2721414
  30.2477070  30.5169063  19.9185157  29.2972701  30.5170925  19.8049529
  30.5509556  29.7701798  19.4021192  26.1381386  14.7227745  30.1768519
  27.0012848  14.3664550  30.3871843  25.5646797  14.3841640  30.8643923
  45.9829763  36.3529602  20.9830920  46.6208173  36.2336349  20.2794260
  45.8650606  37.3010445  21.0418872  42.7919470  36.3057030  20.9192444
  42.4537981  36.1898094  20.0312979  43.6609238  35.9048195  20.8993450
  38.6506285  38.1592506  16.9089335  38.0871150  38.0682443  16.1405623
  38.5358680  37.3392411  17.3891828  43.2739253  37.4591881  26.8778650
  43.2627893  37.0644680  26.0059153  43.4359892  36.7257954  27.4712421
  36.1970717  39.6543698  19.7473556  36.9892009  39.3134522  19.3319855
  36.4367367  39.7638673  20.6675709  44.2305844  41.8263474  12.2203800
  43.5793824  42.4117554  11.8337814  45.0250207  42.3569669  12.2798838
  38.1561471  38.9152611  12.6190934  38.9292347  38.3681598  12.4803810
  38.5086870  39.7796860  12.8305396  39.9946514  40.2428993  25.8257834
  39.7036380  41.1474624  25.7104500  40.6303498  40.2845521  26.5401903
  40.9202721  37.6205842  22.4159193  41.5166293  37.3961864  21.7016156
  40.9777692  36.8790587  23.0184641  40.4927749  35.0745277  10.2509384
  40.7453270  34.5526798   9.4892847  39.5552308  34.9111422  10.3536068
  45.5371032  34.0781055  18.0584128  46.3234121  33.6600479  17.7074545
  45.8009736  34.9827148  18.2265776  45.7081109  39.5153906  12.7572784
  45.0726942  39.5888532  13.4693689  45.3778516  40.1047505  12.0791864
  50.9379459  34.0156289  18.9617106  51.6704631  33.4455505  19.1954936
  50.1818815  33.6277889  19.4023612  40.2124038  36.9773383  12.4533759
  40.0960296  36.3018286  13.1214844  40.3226298  36.4905757  11.6365912
  42.5555579  36.4383530  16.1580449  42.1913786  35.9114151  16.8693370
  43.4122695  36.0481999  15.9846934  48.4604879  27.7277863  23.4211715
  48.1288204  28.5973274  23.1972930  47.8650493  27.4114147  24.1005745
  44.9536399  39.9290409  22.8207627  44.6537122  40.8315447  22.7123435
  44.6087458  39.6622592  23.6728780  38.4048880  36.3804206  18.8544332
  37.4799377  36.2480420  19.0622024  38.6533294  37.1598425  19.3514274
  48.3533543  32.4472949  20.5005065  47.4450420  32.3788357  20.2063826
  48.3021138  32.9244894  21.3286890  42.1750287  33.9231087  12.1388464
  42.0549912  34.3688138  12.9773944  41.4802875  34.2716405  11.5802002
  35.7657691  36.0237479  19.6888121  35.8950073  36.2771958  20.6027533
  35.0855143  36.6165187  19.3692776  39.9357179  46.6934729  15.7878595
  39.8581208  47.6442554  15.8667076  39.3318822  46.3480602  16.4453521
  42.4274408  33.8662594  28.4439962  41.6507742  34.4256515  28.4342827
  43.0664971  34.3519377  28.9654832  50.2195189  30.6489387  22.2782939
  49.5769569  30.9421920  21.6322733  49.7150118  30.5342308  23.0836135
  47.8735353  34.3952560  12.9668798  48.7853209  34.6279947  12.7916496
  47.3645000  34.9789605  12.4043877  40.6820781  36.6748048  28.0057929
  41.4235465  37.2133092  27.7292753  39.9757766  37.3014337  28.1629481
  46.1576120  38.8177188  26.6030091  46.5659476  38.3759599  25.8584723
  45.4353382  38.2429816  26.8564283  42.5107190  33.7549795  23.9763647
  43.3568386  34.1789209  24.1198296  42.4505828  33.0983419  24.6702211
  46.4804935  39.3778379  20.3582379  45.8513797  39.5424093  19.6558447
  46.0930597  39.7919988  21.1293343  50.3594167  40.3132817  17.7126743
  49.6745205  40.6931718  17.1623776  50.4438016  40.9228143  18.4458691
  45.6606636  31.4154163  25.6344821  45.4167568  32.1696224  25.0979097
  45.9366566  31.7939511  26.4692068  47.6145099  37.9592776  24.3122087
  47.8261994  38.6024536  23.6356468  47.5674847  37.1255092  23.8444017
  45.2171327  30.5710596  21.2158659  44.3555807  30.8691850  21.5075396
  45.2433762  30.7880995  20.2839691  42.0332897  39.1152787  17.6232465
  42.4971242  39.3940490  16.8337087  41.7689695  38.2136232  17.4405555
  38.9256978  38.6624269  20.5612228  39.4958335  39.0911537  19.9229712
  39.5165090  38.3806853  21.2596413  40.9701783  35.2375939  14.4322030
  41.6725826  35.6896983  14.8995956  40.6382411  34.5959758  15.0601923
  39.4182144  33.8287696  28.8073239  38.7880805  34.5103977  29.0408636
  39.3118232  33.7170778  27.8626377  34.7127117  33.4959492  19.7339163
  33.9226171  33.7517021  19.2579274  35.2038364  34.3107830  19.8391204
  48.7290926  40.8364731  22.4844444  49.5508370  40.4344918  22.2027126
  48.7253329  40.7332965  23.4360560  36.6641862  33.8604071  16.6922640
  35.8673026  33.9722766  17.2106136  36.4367454  34.1990723  15.8263530
  42.4947530  40.3848774  24.6405155  42.5591962  40.8469182  25.4763326
  41.7858454  39.7546139  24.7687464  32.9964820  33.7489982  22.1654154
  33.2472858  34.6336992  22.4311730  33.5324368  33.5694584  21.3929246
  56.8196920  37.1803480  18.8329416  56.0660628  36.6110878  18.6773420
  56.9544461  37.1466144  19.7800050  42.2095548  42.0516882  14.5084135
  42.0741222  42.8968418  14.9368983  42.7505360  42.2536160  13.7450069
  38.6962887  28.1308462  31.1698490  38.3029833  27.5774660  31.8446134
  39.5129028  28.4419040  31.5605008  35.6624945  39.5692320  15.0812060
  36.1749466  40.3635570  15.2317625  36.3147658  38.8718610  15.0145661
  37.4719830  42.6858076  17.1634813  37.6486458  43.6076041  16.9755797
  38.2676663  42.3716496  17.5929193  41.6130848  29.5466341  28.7618747
  42.3540562  30.1473494  28.6823209  41.8448771  28.8043979  28.2036789
  36.7572186  34.7322708  27.0396976  36.6425701  33.8307965  27.3404075
  35.9016704  34.9786405  26.6881793  43.8364024  42.6740448  28.6384477
  43.3927878  41.8876827  28.3205381  44.4981238  42.8619599  27.9728368
  38.5951145  44.2036250  23.1645155  39.1458570  44.0753313  22.3922149
  37.7562621  44.5031139  22.8140048  45.9345262  42.9543248  26.6665878
  45.9163737  43.7752129  26.1746147  46.8565182  42.8297324  26.8916019
  42.3918316  40.4687378  27.5089387  42.9246653  39.7075666  27.2788695
  41.8632397  40.1761030  28.2513541  45.5588011  25.5747444  23.0383028
  45.2152281  26.4649086  22.9622139  45.9266974  25.3849102  22.1752613
  33.6273862  37.8980974  15.8571630  34.4649084  38.3077983  15.6405338
  33.8052129  36.9580416  15.8271824  45.5238294  35.5656055  11.5455463
  45.0084917  36.3360660  11.7843851  45.2515602  34.8921191  12.1688525
  43.1085405  30.4105756  16.6040702  42.2527001  30.0212606  16.4246341
  43.5212357  30.4897717  15.7440487  44.6384552  27.9452099  21.0032262
  44.1349347  27.9082234  20.1900067  44.9315158  28.8544842  21.0628918
  40.8827437  28.0290829  20.0098443  41.7480434  27.8333637  19.6504333
  40.9504946  27.8001181  20.9367800  50.4972568  38.3188410  13.4808637
  49.7202011  37.9799569  13.0363799  51.1764049  38.3241033  12.8063602
  45.3124597  33.4383147  13.3715245  45.0074733  33.7529296  14.2225388
  46.2655039  33.5164567  13.4142578  43.7571029  39.5973370  15.0208199
  43.2292390  38.8626130  14.7081436  43.2558532  40.3748047  14.7748167
  48.7363875  37.7922391  20.1375245  48.0787549  38.4821652  20.2255374
  49.5404274  38.1818823  20.4809231  38.4889756  30.2593037  17.3814810
  39.0633508  30.0368218  16.6488003  39.0760739  30.3281731  18.1343411
  47.5469334  36.1466764  18.1879187  48.0601215  36.7796755  18.6900896
  48.1970558  35.5467959  17.8222547  40.7912424  27.1334286  16.1089880
  40.1376837  26.8183303  15.4846494  40.7492898  26.5110026  16.8349702
  41.9023629  37.4153581   8.0243172  40.9950691  37.1842834   8.2234321
  42.3994661  36.6191200   8.2117153  44.8091708  46.1251088  10.9439858
  44.1353407  46.4282785  11.5524816  45.1957530  46.9280168  10.5945315
  44.0250165  33.6216219  20.4337527  43.1072726  33.8431166  20.2759215
  44.4410308  33.6962530  19.5749235  44.8085212  35.0207635  15.5640207
  45.5557031  35.5329032  15.2547329  45.0776802  34.6991688  16.4244601
  43.0811862  37.5166176  12.5467162  42.1723082  37.2325208  12.6439631
  43.1106946  37.9365254  11.6870469  48.3131130  41.1272765  16.3158329
  47.8593457  40.2863675  16.3723520  47.6825097  41.7634163  16.6533109
  47.2564049  32.0564751  17.5458997  46.5186806  31.5442137  17.8769239
  47.5090823  31.6165133  16.7342274  46.7564069  42.9649262  17.2508147
  47.0487044  43.5254319  16.5320513  47.2662690  43.2577823  18.0061307
  47.3575677  24.8341003  18.1400766  47.6634554  23.9738366  17.8526681
  48.0828282  25.4258623  17.9399760  33.6500033  35.2371690  16.5282364
  33.4524433  34.6441050  15.8033431  33.0946697  34.9323900  17.2458303
  41.6296757  35.1294796  18.6476957  41.6845366  34.1768633  18.5719434
  40.8187959  35.2854235  19.1318256  42.7787950  39.0574919   9.8855240
  42.3407380  38.3410778   9.4260878  43.5198391  39.2851034   9.3240332
  39.5689116  33.7471856  16.4067336  38.7556982  34.0466026  16.8132528
  40.0648111  33.3527545  17.1241818  41.7197694  43.7429613  18.3401601
  41.6773873  43.9690459  17.4110133  42.6360393  43.5092987  18.4887402
  45.1663328  34.2113680  25.2382230  45.5212716  34.4385153  26.0976696
  45.8135459  34.5432057  24.6159485  50.8961065  37.3332116  15.9431559
  50.7578964  37.5233712  15.0152748  50.5397284  38.0951499  16.3999610
  39.0603191  31.3190211  22.0228571  39.7002571  31.1778970  21.3251534
  38.2280722  31.0324725  21.6467173  50.9230445  39.4008643  20.9542830
  51.3566951  39.3083932  21.8025884  51.6362025  39.3766144  20.3162846
  39.8363495  40.6192642  18.1363563  40.6304094  40.1242962  17.9346138
  39.1255188  40.0910505  17.7731269  44.6558340  43.0010737  22.4875931
  44.7095362  43.5701674  23.2553647  43.7873121  43.1712622  22.1229968
  36.1446259  34.7635724  14.2123316  35.2143847  34.7020179  14.4293278
  36.2403731  34.2411676  13.4159957  36.0631808  31.2890536  16.8001558
  36.3238625  32.2035870  16.6910718  36.8848980  30.8214979  16.9498171
  37.5356733  32.7028294  23.9700382  38.2079786  32.4945656  23.3213031
  36.7086519  32.5050380  23.5305615  51.7845994  39.4432344  23.4875716
  51.9781884  40.3478154  23.7334991  51.6846612  38.9839763  24.3214301
  43.4382305  29.3290234  25.9866043  42.7910220  30.0280184  25.8930520
  44.2083320  29.7626378  26.3542291  46.8461103  39.5939087  29.0616596
  46.6946609  39.3649638  28.1446680  46.8365782  40.5509688  29.0747941
  43.6146439  37.1670999  24.0462863  44.5438499  37.3182159  23.8731830
  43.1937469  37.2555020  23.1911509  42.4134771  41.1921664  21.8161400
  42.2745857  40.8240448  22.6887339  41.6249367  41.7069303  21.6445358
  43.0082923  46.2930760  13.1586937  43.1834679  45.8218803  13.9732560
  42.3215711  46.9196526  13.3868198  43.9639986  40.5703266  19.2050238
  43.6289819  40.5304036  20.1007888  43.4643932  39.9047982  18.7320648
  37.9384230  35.9770897  24.7302819  37.8004028  35.2451135  25.3314358
  38.8489154  35.8879797  24.4487007  46.8999178  37.9159301   9.4787298
  46.2828349  37.1906129   9.3820351  46.4315666  38.6768661   9.1354372
  40.5666531  35.6890856  24.2186499  41.2766149  35.0484048  24.1773117
  40.5235839  35.9403751  25.1412680  48.5553310  42.6258209  27.1393078
  48.4965856  41.9417429  26.4723661  48.9572828  43.3677199  26.6873704
  39.2795465  32.6756074  26.0382139  38.7432822  32.2246812  26.6903735
  38.6912173  32.8101983  25.2952603  37.5744008  49.4420123  19.9326797
  37.8140607  50.0738647  20.6105816  36.7313205  49.0908163  20.2192156
  48.5570717  40.5897793  25.3707058  47.6697496  40.2523715  25.4933457
  49.1269268  39.8580824  25.6075823  30.2099864  36.9221885  18.6950109
  30.8970904  36.6083615  18.1071125  30.0547993  37.8263250  18.4217361
  35.0134586  31.8112081  23.1235133  34.9292775  31.2037751  22.3885543
  34.1917293  32.3021100  23.1244629  42.0871870  45.2499245  22.3368301
  42.0142042  46.0554217  22.8487606  41.6449263  45.4491211  21.5116323
  41.8761650  44.4871015  15.8471123  41.0929172  45.0292696  15.9409347
  42.5754395  45.0044995  16.2465364  45.1858300  30.2965645  18.4905328
  45.6827000  29.5435607  18.1706398  44.4145281  30.3329962  17.9248537
  53.0388057  36.0006010  20.1323620  53.0277934  36.8830726  19.7617553
  52.1705437  35.6477561  19.9378157  44.5470554  45.1486080  24.4926460
  45.2598526  45.7833544  24.4202361  44.0560582  45.2449945  23.6766462
  46.2688081  39.0537332  16.0643751  45.3344359  39.1738795  15.8948456
  46.4464749  38.1509799  15.8003761  41.7693269  32.4383028  18.2177013
  41.3991056  31.8854068  18.9057918  42.2652361  31.8341161  17.6652013
  49.6560632  34.8954651  16.5993786  50.1221084  35.7282643  16.5254088
  50.1068133  34.4299633  17.3039044  39.5982467  42.8980523  25.3132031
  40.2991927  43.5317006  25.4661425  39.1277582  43.2395255  24.5527670
  47.7236863  41.2398473  13.5979938  47.9996707  41.1255067  14.5073812
  46.8541362  40.8415958  13.5592111  47.6277295  27.2635238  20.6384687
  46.7140375  27.4939465  20.8066894  48.0570396  27.3473683  21.4898719
  47.3983753  35.4525130  23.1384581  46.7455203  35.7001038  22.4837034
  47.7764133  34.6389269  22.8047058  44.3590927  45.4884824  17.2412751
  44.5413322  44.6706480  17.7040504  45.1823913  45.7052516  16.8037641
  44.6933093  44.4153009  14.5027800  45.2220859  43.9045463  13.8897962
  44.9561312  44.0995539  15.3673333  43.4471326  36.1944941  29.6250618
  42.7711963  36.0939071  30.2952993  44.2698960  36.0384155  30.0886615
  35.1950185  42.4316878  22.2463133  35.7803622  41.6860566  22.3791038
  34.9975024  42.7420835  23.1299797  38.0488841  45.4668125  17.2625576
  37.3799216  45.9514253  16.7789616  37.9101710  45.7137346  18.1768954
  29.7867840  35.0022478  20.9667576  29.8251940  34.4686069  21.7604695
  29.2808133  34.4757684  20.3478554  42.1894109  47.5011869  23.8608234
  42.7412417  47.6643490  24.6257319  42.5300303  48.0916307  23.1888259
  37.1658602  29.8487019  24.4630119  37.2299929  30.7101850  24.0507516
  37.1025723  29.2361020  23.7302477  36.6410875  31.9210151  28.1103153
  37.2682914  31.5387229  28.7240677  35.7838794  31.7024353  28.4758846
  47.0404983  42.3273126  29.7156888  47.5844887  42.9403085  29.2211843
  46.4591828  42.8852705  30.2323901  33.4176418  33.7286580  14.0421508
  33.7129859  32.8197259  13.9888562  32.5164453  33.7074320  13.7202510
  45.3262496  45.4493844  20.8471916  45.2013636  44.6483584  20.3382862
  45.9841588  45.9440038  20.3585886  36.9470665  31.8042577  20.0249056
  36.2257250  32.4178545  19.8856530  37.7363920  32.3400342  19.9465702
  47.3897405  43.2502865  22.4751466  46.4427740  43.1308216  22.4029793
  47.7380178  42.3625363  22.5577728  39.7496978  29.1397003  26.2989708
  40.2731380  29.3859300  27.0616018  39.5309311  29.9717038  25.8792846
  35.1464259  31.4100678  14.1660833  34.8176965  30.5298057  13.9835939
  35.5003630  31.3548347  15.0537222  44.3943838  43.0455581  18.6755819
  44.2468801  42.1172288  18.8563389  45.2197332  43.0675671  18.1912894
  38.2606082  31.6973648  14.5336311  38.6002155  32.2259569  13.8114919
  38.7078203  32.0354054  15.3094877  47.9977960  43.8684139  19.7620691
  48.9224507  43.6627001  19.6245142  47.8293263  43.6200541  20.6710033
  40.9549523  30.0810699  23.9839379  40.6146344  29.2818512  24.3860059
  40.2488530  30.3812409  23.4116212  41.6065995  27.1660011  22.4366702
  42.4292064  26.6920489  22.3145592  41.8504059  27.9450495  22.9365388
  40.2474230  30.1948269  12.7329603  40.9682592  30.5729522  12.2293320
  39.6239534  30.9137146  12.8364581  44.3905352  30.8993418  13.6687936
  44.6068967  31.7818056  13.3676764  43.9099420  30.5079632  12.9393578
  39.1304574  33.8579132  20.2458680  38.9849155  34.1719435  21.1382962
  38.6529777  34.4764032  19.6929579  40.9900957  30.8481680  20.2939570
  40.9762525  29.9522773  19.9571868  41.7073385  30.8552343  20.9277856
  42.8427087  31.2819020  22.3392697  42.5844865  32.2036090  22.3377028
  42.3112128  30.8849454  23.0293161  47.7873276  44.3869807  15.1182783
  47.9610154  43.8216229  14.3656635  48.2802167  45.1870702  14.9362273
  33.6050236  36.3984476  23.1846342  33.0603704  37.1744284  23.3166616
  34.4829586  36.7455280  23.0265463  40.3937853  29.7296060  15.5627140
  40.5153764  28.8012706  15.7618028  40.1039895  29.7434746  14.6505455
  43.2629043  27.4150970  18.6993860  43.2850740  27.4790303  17.7445839
  43.6797102  26.5755479  18.8934366  53.6412667  37.1506230  16.7373082
  54.0843813  36.4013555  16.3392206  52.7639178  37.1416366  16.3546814
  48.7748449  43.7036571  12.2179681  49.4699353  44.3243264  12.4366996
  49.1171599  42.8531923  12.4932059  34.3916258  35.5254372  26.0776498
  33.6497994  35.6737008  26.6641129  34.0709002  35.7862638  25.2143248
  50.6739872  41.1536277  13.7467012  51.1991196  41.4923550  13.0216332
  50.5862224  40.2183292  13.5630146  42.3359920  45.0670351  25.8756888
  42.6447047  44.8219497  26.7479588  43.1335403  45.2716989  25.3875759
  42.3580533  47.2208260  18.1062265  41.9185523  46.7284639  18.7995122
  43.1088649  46.6781228  17.8654340  34.8372872  43.4119801  18.1086893
  35.6630891  43.1123573  17.7285537  34.4866924  42.6427423  18.5576682
  39.8054405  42.7646269  20.1784567  39.1834414  42.1016974  19.8786794
  40.4759272  42.7907401  19.4958214  33.0381477  41.3306127  19.0675827
  32.2013385  40.9028302  18.8859828  33.0105122  41.5238571  20.0046618
  39.8778932  31.2428057  29.7717073  39.9267088  32.1190180  29.3894842
  40.4201446  30.7005450  29.1988716  50.4831653  38.6361647  26.3650938
  50.5329658  38.4711654  27.3066461  50.3745576  37.7688906  25.9748819
  39.3667912  41.3150193  13.6543027  39.5156032  41.9985657  13.0009700
  40.1734355  41.2955283  14.1692483  47.7735415  34.6192575  27.6810245
  48.6745278  34.4799040  27.3894243  47.8483390  34.7847030  28.6208422
  42.1078221  31.9959430  26.5263431  41.2381530  32.2892996  26.2546020
  42.3437701  32.5799875  27.2470695  53.1845532  38.6211468  19.1295530
  54.0192423  39.0601272  19.2933090  53.3204661  38.1450121  18.3103776
  50.2337038  36.1791203  25.0773018  50.7091160  36.3718849  24.2691869
  49.3102603  36.2350389  24.8316401  37.1220545  37.3415370  14.6604096
  36.8766587  36.4377700  14.8584306  37.2916459  37.3432521  13.7183574
  44.8117254  28.2139047  24.0428852  45.3299198  28.9500074  23.7175340
  44.4572387  28.5203040  24.8775611  45.0629849  24.6339329  19.5629748
  45.3431602  23.9662518  20.1890175  45.8480456  24.8268425  19.0504412
  42.8663317  43.8098323  11.1254775  42.2937284  44.4288510  10.6725246
  43.4396111  44.3597685  11.6594697  48.9338707  33.0556963  23.3101323
  49.8856130  33.1555061  23.3313547  48.7642157  32.2635232  23.8199408
  46.9553086  30.1412546  23.4960724  46.3603019  30.4217559  22.8007213
  46.6702783  30.6306447  24.2677465  46.0860577  44.0935473  12.2563357
  47.0191250  44.0281035  12.4596232  45.9983790  44.9291740  11.7977890
  48.7148594  43.4101344   9.2167304  48.6362225  43.0761207  10.1103062
  49.5358260  43.9023111   9.2158777  51.4126785  36.2763083  22.4243623
  51.3803105  35.3379084  22.6103307  52.0227408  36.3547120  21.6909448
  43.2510116  35.1459136   8.4670827  44.1969220  35.0165344   8.5359245
  42.8724361  34.4073798   8.9440255  51.5621273  33.0674126  22.4701906
  51.0460322  32.2832583  22.2831835  52.4461222  32.7392843  22.6348426
  49.2232000  26.8115142  18.4297719  49.0256821  26.5030230  19.3141051
  49.8331706  27.5376781  18.5595649  57.2303335  37.3379090  21.5649660
  57.9606723  37.0764378  22.1257363  56.6210280  36.6007812  21.6051728
  55.3118632  35.4786952  22.1624111  54.5851795  35.3442917  21.5540603
  54.8965919  35.7863781  22.9680829  43.1348808  39.1976882  29.9271484
  44.0551818  39.3755481  30.1211531  43.0998391  38.2532927  29.7751183
  32.3530973  34.3915476  18.8524759  32.0333757  33.5380784  18.5599133
  31.8064401  34.6064054  19.6082726  36.1310881  37.1077917  22.5694265
  36.3496890  38.0395024  22.5882299  36.5436655  36.7485891  23.3549069
  43.0515098  27.6146002  14.5569954  42.2415827  27.2693087  14.9325200
  43.7399515  27.3053546  15.1457565  44.9805647  26.6924049  16.1794250
  45.5336685  27.1119502  16.8384273  45.2175733  25.7659797  16.2217206
  41.0038746  32.6811122  31.9597014  40.9035473  33.6305479  31.8909105
  40.7860288  32.3529361  31.0873084  32.2219233  38.0118387  20.8217880
  31.5282705  37.5972340  20.3087835  32.9692224  38.0538924  20.2251299
  48.3584454  28.8024574  15.6872915  47.7783123  29.4609378  15.3050967
  48.0920387  27.9801918  15.2760332  46.8088020  28.2029632  17.8894235
  47.3087799  28.3146166  17.0808554  47.4523628  27.8990684  18.5295043
  40.8670016  36.1108261  30.7762076  40.3837098  36.9108621  30.9825965
  40.9530955  36.1216206  29.8229520  34.1355976  37.9436641  18.6983895
  34.1126664  38.0424328  17.7465778  34.4456612  38.7901792  19.0201061
  36.7943354  40.0012796  22.8130510  37.7486607  39.9696738  22.7460441
  36.5955877  39.5403420  23.6280736  37.3842736  38.5713912  25.3801307
  38.2035625  39.0657991  25.4036145  37.6579543  37.6545880  25.3518875
  47.1409332  30.9624664  14.7429263  46.2535187  31.2474315  14.5249458
  47.5563321  30.8018428  13.8956540  50.4923868  30.9871185  18.4583602
  51.2684258  31.4767638  18.7308219  49.7672002  31.4129239  18.9155472
  52.9296427  31.6998804  19.5157543  53.5240917  31.4594540  18.8050851
  53.0023010  30.9805935  20.1431079  35.1493582  45.5432415  19.8300707
  35.0148050  44.7832816  19.2638706  34.7325645  46.2673315  19.3629496
  46.2852545  40.7269339   8.8377283  46.9888395  40.9319341   9.4534938
  45.5615194  41.2946101   9.1026366  47.1150356  36.4779200  14.9579553
  47.0585557  36.9347752  14.1187185  47.6678698  35.7169885  14.7802396
  50.9255162  32.2668932  15.7829672  50.6692096  31.8665568  16.6137880
  50.3008030  32.9812726  15.6579812  55.2367499  35.0065005  18.2900964
  54.6767057  35.0758195  19.0632526  54.6311003  34.8305990  17.5700460
  38.3062708  46.4401732  20.0419150  38.1895092  47.3847165  19.9397840
  37.4855154  46.1375294  20.4304949  48.1939243  41.1651868  10.8875743
  49.0284847  40.7333067  10.7053218  48.0323586  40.9933882  11.8152637
  47.8485135  37.6683981  12.2532082  47.7933939  37.5028253  11.3120526
  47.2231190  38.3760014  12.4094272  32.6377650  32.9052046  26.0793504
  33.2836514  32.3951000  26.5680730  32.4294801  33.6420727  26.6536930
  45.1631042  39.9732893  31.5785645  46.0322202  40.1473546  31.2172280
  44.6837794  40.7927310  31.4561374  39.3317222  47.0929994  23.2575079
  40.2344469  47.1253605  23.5741574  39.1054592  46.1630445  23.2721414
  41.0870824  45.8460981  19.9185157  40.1366455  45.8462842  19.8049529
  41.3903311  45.0993715  19.4021192  44.9733380  23.7634867  16.0863337
  44.2065776  23.2093354  16.2320020  45.3844085  23.8356736  16.9477489
  36.9775141  30.0519663  30.1768519  37.8406602  29.6956468  30.3871843
  36.4040552  29.7133558  30.8643923  56.8223518  51.6821519  20.9830920
  57.4601928  51.5628267  20.2794260  56.7044361  52.6302363  21.0418872
  53.6313224  51.6348947  20.9192444  53.2931736  51.5190012  20.0312979
  54.5002992  51.2340112  20.8993450  49.4900040  53.4884424  16.9089335
  48.9264905  53.3974361  16.1405623  49.3752435  52.6684328  17.3891828
  54.1133007  52.7883799  26.8778650  54.1021648  52.3936597  26.0059153
  54.2753647  52.0549872  27.4712421  47.0364472  54.9835615  19.7473556
  47.8285764  54.6426440  19.3319855  47.2761122  55.0930590  20.6675709
  55.0699599  57.1555391  12.2203800  54.4187578  57.7409472  11.8337814
  55.8643961  57.6861586  12.2798838  48.9955226  54.2444529  12.6190934
  49.7686102  53.6973516  12.4803810  49.3480625  55.1088778  12.8305396
  50.8340268  55.5720911  25.8257834  50.5430134  56.4766542  25.7104500
  51.4697253  55.6137438  26.5401903  51.7596475  52.9497759  22.4159193
  52.3560047  52.7253782  21.7016156  51.8171447  52.2082505  23.0184641
  51.3321504  50.4037195  10.2509384  51.5847024  49.8818716   9.4892847
  50.3946063  50.2403340  10.3536068  56.3764786  49.4072973  18.0584128
  57.1627876  48.9892396  17.7074545  56.6403491  50.3119065  18.2265776
  56.5474864  54.8445823  12.7572784  55.9120697  54.9180450  13.4693689
  56.2172270  55.4339422  12.0791864  61.7773213  49.3448206  18.9617106
  62.5098385  48.7747423  19.1954936  61.0212569  48.9569807  19.4023612
  51.0517792  52.3065301  12.4533759  50.9354050  51.6310204  13.1214844
  51.1620052  51.8197675  11.6365912  53.3949333  51.7675448  16.1580449
  53.0307540  51.2406069  16.8693370  54.2516449  51.3773917  15.9846934
  59.2998634  43.0569780  23.4211715  58.9681959  43.9265191  23.1972930
  58.7044247  42.7406064  24.1005745  53.0354820  46.7965347  11.1541797
  53.2029223  47.6645584  11.5212268  52.8451989  46.9592629  10.2303086
  55.7930153  55.2582326  22.8207627  55.4930876  56.1607365  22.7123435
  55.4481213  54.9914510  23.6728780  49.2442635  51.7096123  18.8544332
  48.3193131  51.5772337  19.0622024  49.4927048  52.4890342  19.3514274
  59.1927297  47.7764867  20.5005065  58.2844174  47.7080275  20.2063826
  59.1414893  48.2536811  21.3286890  53.0144041  49.2523005  12.1388464
  52.8943666  49.6980056  12.9773944  52.3196629  49.6008323  11.5802002
  46.6051446  51.3529397  19.6888121  46.7343827  51.6063876  20.6027533
  45.9248897  51.9457105  19.3692776  50.7750933  62.0226647  15.7878595
  50.6974963  62.9734472  15.8667076  50.1712577  61.6772519  16.4453521
  53.2668163  49.1954512  28.4439962  52.4901497  49.7548432  28.4342827
  53.9058726  49.6811295  28.9654832  61.0588944  45.9781305  22.2782939
  60.4163324  46.2713838  21.6322733  60.5543872  45.8634225  23.0836135
  58.7129107  49.7244478  12.9668798  59.6246963  49.9571865  12.7916496
  58.2038754  50.3081522  12.4043877  51.5214535  52.0039965  28.0057929
  52.2629220  52.5425009  27.7292753  50.8151521  52.6306254  28.1629481
  56.9969875  54.1469106  26.6030091  57.4053231  53.7051516  25.8584723
  56.2747136  53.5721733  26.8564283  53.3500945  49.0841713  23.9763647
  54.1962140  49.5081126  24.1198296  53.2899583  48.4275337  24.6702211
  57.3198690  54.7070297  20.3582379  56.6907552  54.8716011  19.6558447
  56.9324352  55.1211906  21.1293343  61.1987921  55.6424734  17.7126743
  60.5138960  56.0223636  17.1623776  61.2831771  56.2520061  18.4458691
  56.5000390  46.7446081  25.6344821  56.2561322  47.4988142  25.0979097
  56.7760321  47.1231429  26.4692068  58.4538853  53.2884693  24.3122087
  58.6655748  53.9316453  23.6356468  58.4068601  52.4547010  23.8444017
  56.0565082  45.9002514  21.2158659  55.1949561  46.1983768  21.5075396
  56.0827517  46.1172913  20.2839691  52.8726651  54.4444705  17.6232465
  53.3364997  54.7232408  16.8337087  52.6083449  53.5428149  17.4405555
  49.7650732  53.9916186  20.5612228  50.3352090  54.4203455  19.9229712
  50.3558844  53.7098771  21.2596413  51.8095537  50.5667857  14.4322030
  52.5119581  51.0188901  14.8995956  51.4776166  49.9251676  15.0601923
  50.2575899  49.1579614  28.8073239  49.6274560  49.8395895  29.0408636
  50.1511987  49.0462695  27.8626377  45.5520871  48.8251410  19.7339163
  44.7619925  49.0808938  19.2579274  46.0432119  49.6399748  19.8391204
  59.5684681  56.1656649  22.4844444  60.3902125  55.7636836  22.2027126
  59.5647084  56.0624883  23.4360560  47.5035617  49.1895989  16.6922640
  46.7066780  49.3014683  17.2106136  47.2761209  49.5282641  15.8263530
  53.3341284  55.7140692  24.6405155  53.3985717  56.1761099  25.4763326
  52.6252208  55.0838057  24.7687464  43.8358574  49.0781900  22.1654154
  44.0866613  49.9628910  22.4311730  44.3718123  48.8986502  21.3929246
  67.6590674  52.5095397  18.8329416  66.9054382  51.9402795  18.6773420
  67.7938215  52.4758062  19.7800050  53.0489302  57.3808800  14.5084135
  52.9134977  58.2260335  14.9368983  53.5899115  57.5828077  13.7450069
  46.5018699  54.8984238  15.0812060  47.0143220  55.6927488  15.2317625
  47.1541412  54.2010528  15.0145661  48.3113584  58.0149994  17.1634813
  48.4880212  58.9367959  16.9755797  49.1070418  57.7008413  17.5929193
  47.5965941  50.0614626  27.0396976  47.4819456  49.1599883  27.3404075
  46.7410458  50.3078323  26.6881793  49.4344900  59.5328168  23.1645155
  49.9852325  59.4045231  22.3922149  48.5956376  59.8323057  22.8140048
  56.7739017  58.2835166  26.6665878  56.7557492  59.1044047  26.1746147
  57.6958937  58.1589241  26.8916019  53.2312071  55.7979296  27.5089387
  53.7640407  55.0367584  27.2788695  52.7026152  55.5052947  28.2513541
  56.3981766  40.9039362  23.0383028  56.0546035  41.7941003  22.9622139
  56.7660728  40.7141019  22.1752613  44.4667616  53.2272892  15.8571630
  45.3042838  53.6369900  15.6405338  44.6445884  52.2872334  15.8271824
  56.3632048  50.8947973  11.5455463  55.8478672  51.6652577  11.7843851
  56.0909357  50.2213109  12.1688525  53.9479159  45.7397673  16.6040702
  53.0920756  45.3504524  16.4246341  54.3606111  45.8189634  15.7440487
  55.4778306  43.2744017  21.0032262  54.9743102  43.2374152  20.1900067
  55.7708913  44.1836759  21.0628918  51.7221192  43.3582746  20.0098443
  52.5874189  43.1625555  19.6504333  51.7898701  43.1293098  20.9367800
  61.3366322  53.6480327  13.4808637  60.5595765  53.3091487  13.0363799
  62.0157803  53.6532950  12.8063602  56.1518352  48.7675065  13.3715245
  55.8468487  49.0821214  14.2225388  57.1048794  48.8456485  13.4142578
  54.5964783  54.9265288  15.0208199  54.0686145  54.1918048  14.7081436
  54.0952286  55.7039964  14.7748167  59.5757629  53.1214309  20.1375245
  58.9181304  53.8113570  20.2255374  60.3798029  53.5110740  20.4809231
  49.3283511  45.5884954  17.3814810  49.9027263  45.3660136  16.6488003
  49.9154493  45.6573649  18.1343411  58.3863088  51.4758681  18.1879187
  58.8994970  52.1088673  18.6900896  59.0364312  50.8759877  17.8222547
  49.6553098  47.6189415  11.4010695  48.8190410  47.9564102  11.7219970
  49.5157868  47.4838395  10.4637832  51.6306179  42.4626203  16.1089880
  50.9770591  42.1475220  15.4846494  51.5886653  41.8401944  16.8349702
  52.7417384  52.7445498   8.0243172  51.8344445  52.5134752   8.2234321
  53.2388416  51.9483118   8.2117153  55.6485462  61.4543006  10.9439858
  54.9747161  61.7574702  11.5524816  56.0351284  62.2572086  10.5945315
  54.8643919  48.9508137  20.4337527  53.9466480  49.1723084  20.2759215
  55.2804063  49.0254447  19.5749235  55.6478967  50.3499552  15.5640207
  56.3950786  50.8620950  15.2547329  55.9170556  50.0283605  16.4244601
  53.9205617  52.8458093  12.5467162  53.0116836  52.5617126  12.6439631
  53.9500701  53.2657172  11.6870469  59.1524884  56.4564683  16.3158329
  58.6987212  55.6155593  16.3723520  58.5218851  57.0926081  16.6533109
  58.0957804  47.3856669  17.5458997  57.3580561  46.8734055  17.8769239
  58.3484577  46.9457050  16.7342274  57.5957824  58.2941179  17.2508147
  57.8880798  58.8546236  16.5320513  58.1056444  58.5869740  18.0061307
  58.1969431  40.1632921  18.1400766  58.5028308  39.3030284  17.8526681
  58.9222036  40.7550541  17.9399760  44.4893787  50.5663607  16.5282364
  44.2918187  49.9732968  15.8033431  43.9340451  50.2615818  17.2458303
  52.4690511  50.4586714  18.6476957  52.5239121  49.5060550  18.5719434
  51.6581713  50.6146153  19.1318256  53.6181705  54.3866837   9.8855240
  53.1801135  53.6702696   9.4260878  54.3592146  54.6142952   9.3240332
  50.4082871  49.0763774  16.4067336  49.5950736  49.3757944  16.8132528
  50.9041865  48.6819462  17.1241818  52.5591449  59.0721530  18.3401601
  52.5167628  59.2982377  17.4110133  53.4754148  58.8384905  18.4887402
  56.0057083  49.5405598  25.2382230  56.3606470  49.7677071  26.0976696
  56.6529214  49.8723975  24.6159485  61.7354820  52.6624034  15.9431559
  61.5972718  52.8525630  15.0152748  61.3791038  53.4243417  16.3999610
  49.8996946  46.6482129  22.0228571  50.5396325  46.5070888  21.3251534
  49.0674476  46.3616642  21.6467173  61.7624199  54.7300561  20.9542830
  62.1960706  54.6375850  21.8025884  62.4755780  54.7058061  20.3162846
  50.6757250  55.9484559  18.1363563  51.4697848  55.4534880  17.9346138
  49.9648942  55.4202423  17.7731269  55.4952094  58.3302655  22.4875931
  55.5489116  58.8993591  23.2553647  54.6266875  58.5004540  22.1229968
  46.9840013  50.0927641  14.2123316  46.0537601  50.0312097  14.4293278
  47.0797485  49.5703594  13.4159957  46.9025562  46.6182454  16.8001558
  47.1632379  47.5327787  16.6910718  47.7242734  46.1506897  16.9498171
  48.3750487  48.0320211  23.9700382  49.0473541  47.8237573  23.3213031
  47.5480274  47.8342297  23.5305615  62.6239749  54.7724262  23.4875716
  62.8175639  55.6770072  23.7334991  62.5240367  54.3131681  24.3214301
  54.2776059  44.6582152  25.9866043  53.6303975  45.3572102  25.8930520
  55.0477075  45.0918296  26.3542291  57.6854857  54.9231004  29.0616596
  57.5340364  54.6941556  28.1446680  57.6759537  55.8801606  29.0747941
  54.4540194  52.4962917  24.0462863  55.3832254  52.6474077  23.8731830
  54.0331224  52.5846938  23.1911509  53.2528526  56.5213581  21.8161400
  53.1139611  56.1532366  22.6887339  52.4643122  57.0361221  21.6445358
  53.8476678  61.6222678  13.1586937  54.0228433  61.1510721  13.9732560
  53.1609466  62.2488444  13.3868198  54.8033741  55.8995184  19.2050238
  54.4683573  55.8595954  20.1007888  54.3037686  55.2339900  18.7320648
  48.7777985  51.3062814  24.7302819  48.6397783  50.5743053  25.3314358
  49.6882908  51.2171714  24.4487007  57.7392932  53.2451219   9.4787298
  57.1222103  52.5198047   9.3820351  57.2709421  54.0060579   9.1354372
  51.4060285  51.0182774  24.2186499  52.1159904  50.3775966  24.1773117
  51.3629594  51.2695668  25.1412680  59.3947064  57.9550127  27.1393078
  59.3359610  57.2709347  26.4723661  59.7966582  58.6969117  26.6873704
  50.1189219  48.0047991  26.0382139  49.5826576  47.5538730  26.6903735
  49.5305928  48.1393900  25.2952603  49.5291478  47.4636643   8.6008602
  48.6520945  47.3425444   8.2370849  50.0049231  46.6722721   8.3487491
  59.3964471  55.9189711  25.3707058  58.5091250  55.5815633  25.4933457
  59.9663022  55.1872742  25.6075823  41.0493618  52.2513803  18.6950109
  41.7364658  51.9375533  18.1071125  40.8941747  53.1555167  18.4217361
  45.8528341  47.1403999  23.1235133  45.7686529  46.5329669  22.3885543
  45.0311047  47.6313017  23.1244629  52.9265625  60.5791163  22.3368301
  52.8535796  61.3846135  22.8487606  52.4843018  60.7783129  21.5116323
  52.7155404  59.8162933  15.8471123  51.9322926  60.3584613  15.9409347
  53.4148150  60.3336913  16.2465364  56.0252054  45.6257563  18.4905328
  56.5220754  44.8727525  18.1706398  55.2539036  45.6621879  17.9248537
  63.8781812  51.3297928  20.1323620  63.8671688  52.2122644  19.7617553
  63.0099191  50.9769479  19.9378157  55.3864308  60.4777997  24.4926460
  56.0992280  61.1125462  24.4202361  54.8954337  60.5741863  23.6766462
  57.1081835  54.3829250  16.0643751  56.1738114  54.5030712  15.8948456
  57.2858504  53.4801717  15.8003761  52.6087023  47.7674946  18.2177013
  52.2384811  47.2145986  18.9057918  53.1046116  47.1633079  17.6652013
  60.4954387  50.2246569  16.5993786  60.9614839  51.0574561  16.5254088
  60.9461887  49.7591551  17.3039044  50.4376222  58.2272441  25.3132031
  51.1385681  58.8608924  25.4661425  49.9671337  58.5687172  24.5527670
  58.5630618  56.5690390  13.5979938  58.8390462  56.4546985  14.5073812
  57.6935116  56.1707875  13.5592111  58.4671049  42.5927156  20.6384687
  57.5534129  42.8231383  20.8066894  58.8964151  42.6765600  21.4898719
  58.2377508  50.7817048  23.1384581  57.5848958  51.0292956  22.4837034
  58.6157888  49.9681186  22.8047058  55.1984682  60.8176741  17.2412751
  55.3807076  59.9998397  17.7040504  56.0217668  61.0344434  16.8037641
  55.5326847  59.7444926  14.5027800  56.0614614  59.2337381  13.8897962
  55.7955067  59.4287457  15.3673333  46.0343940  57.7608796  22.2463133
  46.6197377  57.0152484  22.3791038  45.8368778  58.0712752  23.1299797
  48.8882595  60.7960043  17.2625576  48.2192970  61.2806171  16.7789616
  48.7495465  61.0429264  18.1768954  40.6261595  50.3314396  20.9667576
  40.6645694  49.7977987  21.7604695  40.1201887  49.8049601  20.3478554
  53.0287864  62.8303787  23.8608234  53.5806172  62.9935408  24.6257319
  53.3694057  63.4208224  23.1888259  48.0052357  45.1778936  24.4630119
  48.0693683  46.0393767  24.0507516  47.9419477  44.5652938  23.7302477
  47.4804629  47.2502069  28.1103153  48.1076668  46.8679146  28.7240677
  46.6232548  47.0316271  28.4758846  57.8798738  57.6565044  29.7156888
  58.4238642  58.2695002  29.2211843  57.2985583  58.2144623  30.2323901
  44.2570172  49.0578498  14.0421508  44.5523613  48.1489176  13.9888562
  43.3558208  49.0366238  13.7202510  56.1656251  60.7785762  20.8471916
  56.0407390  59.9775502  20.3382862  56.8235342  61.2731955  20.3585886
  47.7864419  47.1334495  20.0249056  47.0651005  47.7470462  19.8856530
  48.5757675  47.6692259  19.9465702  58.2291159  58.5794782  22.4751466
  57.2821495  58.4600133  22.4029793  58.5773932  57.6917280  22.5577728
  50.5890733  44.4688921  26.2989708  51.1125134  44.7151218  27.0616018
  50.3703066  45.3008956  25.8792846  45.9858014  46.7392596  14.1660833
  45.6570720  45.8589975  13.9835939  46.3397384  46.6840264  15.0537222
  55.2337593  58.3747498  18.6755819  55.0862555  57.4464206  18.8563389
  56.0591086  58.3967589  18.1912894  49.0999837  47.0265566  14.5336311
  49.4395909  47.5551487  13.8114919  49.5471957  47.3645972  15.3094877
  58.8371714  59.1976057  19.7620691  59.7618262  58.9918919  19.6245142
  58.6687018  58.9492458  20.6710033  51.7943278  45.4102616  23.9839379
  51.4540098  44.6110429  24.3860059  51.0882284  45.7104327  23.4116212
  52.4459750  42.4951929  22.4366702  53.2685819  42.0212407  22.3145592
  52.6897813  43.2742412  22.9365388  51.0867984  45.5240187  12.7329603
  51.8076347  45.9021440  12.2293320  50.4633288  46.2429064  12.8364581
  55.2299107  46.2285336  13.6687936  55.4462721  47.1109974  13.3676764
  54.7493174  45.8371549  12.9393578  49.9698328  49.1871049  20.2458680
  49.8242909  49.5011352  21.1382962  49.4923532  49.8055950  19.6929579
  51.8294711  46.1773597  20.2939570  51.8156280  45.2814691  19.9571868
  52.5467139  46.1844261  20.9277856  53.6820842  46.6110937  22.3392697
  53.4238620  47.5328008  22.3377028  53.1505882  46.2141372  23.0293161
  58.6267031  59.7161725  15.1182783  58.8003908  59.1508147  14.3656635
  59.1195922  60.5162619  14.9362273  44.4443990  51.7276394  23.1846342
  43.8997459  52.5036202  23.3166616  45.3223340  52.0747198  23.0265463
  51.2331607  45.0587978  15.5627140  51.3547518  44.1304624  15.7618028
  50.9433649  45.0726664  14.6505455  54.1022798  42.7442888  18.6993860
  54.1244494  42.8082221  17.7445839  54.5190857  41.9047397  18.8934366
  64.4806422  52.4798148  16.7373082  64.9237568  51.7305473  16.3392206
  63.6032932  52.4708284  16.3546814  59.6142203  59.0328489  12.2179681
  60.3093108  59.6535182  12.4366996  59.9565353  58.1823840  12.4932059
  45.2310012  50.8546290  26.0776498  44.4891748  51.0028925  26.6641129
  44.9102757  51.1154556  25.2143248  61.5133626  56.4828195  13.7467012
  62.0384950  56.8215467  13.0216332  61.4255979  55.5475210  13.5630146
  53.1753675  60.3962268  25.8756888  53.4840801  60.1511415  26.7479588
  53.9729157  60.6008907  25.3875759  53.1974287  62.5500178  18.1062265
  52.7579277  62.0576557  18.7995122  53.9482404  62.0073145  17.8654340
  45.6766626  58.7411719  18.1086893  46.5024646  58.4415491  17.7285537
  45.3260678  57.9719341  18.5576682  50.6448159  58.0938187  20.1784567
  50.0228168  57.4308892  19.8786794  51.3153026  58.1199319  19.4958214
  43.8775231  56.6598045  19.0675827  43.0407139  56.2320220  18.8859828
  43.8498876  56.8530488  20.0046618  50.7172687  46.5719975  29.7717073
  50.7660842  47.4482098  29.3894842  51.2595201  46.0297368  29.1988716
  61.2027532  57.1161098  29.0518210  60.4123076  57.0985237  28.5122709
  60.9660887  57.6549392  29.8067246  61.3225407  53.9653565  26.3650938
  61.3723412  53.8003572  27.3066461  61.2139331  53.0980824  25.9748819
  50.2061666  56.6442110  13.6543027  50.3549786  57.3277575  13.0009700
  51.0128110  56.6247200  14.1692483  58.6129170  49.9484493  27.6810245
  59.5139033  49.8090957  27.3894243  58.6877144  50.1138947  28.6208422
  52.9471975  47.3251347  26.5263431  52.0775285  47.6184913  26.2546020
  53.1831455  47.9091792  27.2470695  62.8243604  56.3850506  26.6092960
  62.5328413  56.7480487  27.4456421  62.2115735  55.6717514  26.4306292
  64.0239287  53.9503386  19.1295530  64.8586178  54.3893190  19.2933090
  64.1598415  53.4742039  18.3103776  61.0730792  51.5083121  25.0773018
  61.5484914  51.7010767  24.2691869  60.1496358  51.5642307  24.8316401
  47.9614299  52.6707288  14.6604096  47.7160341  51.7669618  14.8584306
  48.1310214  52.6724438  13.7183574  55.6511009  43.5430964  24.0428852
  56.1692953  44.2791991  23.7175340  55.2966142  43.8494958  24.8775611
  47.2309947  48.4035645  12.1590258  46.5379192  48.4780000  11.5030294
  46.9861698  47.6395989  12.6811774  55.9023603  39.9631247  19.5629748
  56.1825357  39.2954436  20.1890175  56.6874210  40.1560342  19.0504412
  53.7057072  59.1390241  11.1254775  53.1331039  59.7580428  10.6725246
  54.2789865  59.6889602  11.6594697  59.7732461  48.3848881  23.3101323
  60.7249884  48.4846978  23.3313547  59.6035912  47.5927149  23.8199408
  57.7946841  45.4704464  23.4960724  57.1996773  45.7509477  22.8007213
  57.5096538  45.9598365  24.2677465  56.9254331  59.4227391  12.2563357
  57.8585005  59.3572953  12.4596232  56.8377544  60.2583658  11.7977890
  59.5542348  58.7393261   9.2167304  59.4755980  58.4053125  10.1103062
  60.3752015  59.2315029   9.2158777  62.2520539  51.6055000  22.4243623
  62.2196859  50.6671001  22.6103307  62.8621163  51.6839037  21.6909448
  54.0903870  50.4751053   8.4670827  55.0362975  50.3457262   8.5359245
  53.7118115  49.7365715   8.9440255  62.4015028  48.3966044  22.4701906
  61.8854076  47.6124501  22.2831835  63.2854976  48.0684761  22.6348426
  60.0625755  42.1407059  18.4297719  59.8650576  41.8322148  19.3141051
  60.6725460  42.8668698  18.5595649  68.0697089  52.6671007  21.5649660
  68.8000478  52.4056295  22.1257363  67.4604035  51.9299729  21.6051728
  66.1512386  50.8078870  22.1624111  65.4245550  50.6734835  21.5540603
  65.7359673  51.1155699  22.9680829  52.2746787  48.4001030   8.4025712
  51.3678243  48.1034143   8.4788426  52.5522768  48.1030848   7.5359999
  43.1924728  49.7207393  18.8524759  42.8727512  48.8672701  18.5599133
  42.6458156  49.9355971  19.6082726  46.9704635  52.4369834  22.5694265
  47.1890645  53.3686942  22.5882299  47.3830409  52.0777809  23.3549069
  53.8908853  42.9437920  14.5569954  53.0809581  42.5985005  14.9325200
  54.5793270  42.6345463  15.1457565  55.8199401  42.0215966  16.1794250
  56.3730440  42.4411420  16.8384273  56.0569488  41.0951714  16.2217206
  51.0445572  45.2587965   8.5437692  51.9064736  45.5842863   8.8033509
  51.2295916  44.4719461   8.0310757  43.0612988  53.3410305  20.8217880
  42.3676459  52.9264258  20.3087835  43.8085979  53.3830841  20.2251299
  59.1978208  44.1316492  15.6872915  58.6176877  44.7901296  15.3050967
  58.9314141  43.3093836  15.2760332  57.6481775  43.5321549  17.8894235
  58.1481553  43.6438084  17.0808554  58.2917383  43.2282602  18.5295043
  44.9749730  53.2728559  18.6983895  44.9520418  53.3716246  17.7465778
  45.2850367  54.1193709  19.0201061  47.6337108  55.3304714  22.8130510
  48.5880362  55.2988656  22.7460441  47.4349632  54.8695337  23.6280736
  48.2236490  53.9005830  25.3801307  49.0429379  54.3949908  25.4036145
  48.4973298  52.9837798  25.3518875  57.9803086  46.2916582  14.7429263
  57.0928941  46.5766233  14.5249458  58.3957075  46.1310345  13.8956540
  61.3317623  46.3163103  18.4583602  62.1078013  46.8059555  18.7308219
  60.6065757  46.7421157  18.9155472  63.7690181  47.0290722  19.5157543
  64.3634672  46.7886458  18.8050851  63.8416765  46.3097853  20.1431079
  45.9887337  60.8724333  19.8300707  45.8541805  60.1124734  19.2638706
  45.5719399  61.5965233  19.3629496  57.1246300  56.0561257   8.8377283
  57.8282150  56.2611259   9.4534938  56.4008949  56.6238018   9.1026366
  57.9544110  51.8071118  14.9579553  57.8979312  52.2639669  14.1187185
  58.5072453  51.0461802  14.7802396  61.7648916  47.5960850  15.7829672
  61.5085850  47.1957485  16.6137880  61.1401784  48.3104644  15.6579812
  66.0761254  50.3356923  18.2900964  65.5160812  50.4050112  19.0632526
  65.4704757  50.1597908  17.5700460  49.1456463  61.7693650  20.0419150
  49.0288847  62.7139083  19.9397840  48.3248909  61.4667212  20.4304949
  59.0332997  56.4943786  10.8875743  59.8678601  56.0624984  10.7053218
  58.8717340  56.3225799  11.8152637  58.6878889  52.9975899  12.2532082
  58.6327693  52.8320171  11.3120526  58.0624945  53.7051932  12.4094272
  43.4771404  48.2343963  26.0793504  44.1230268  47.7242917  26.5680730
  43.2688556  48.9712645  26.6536930  51.9975015  42.4984008  11.8317401
  51.9853685  43.4425848  11.9885671  52.8898437  42.3154154  11.5376862
  51.9264579  61.1752899  19.9185157  50.9760210  61.1754760  19.8049529
  52.2297065  60.4285633  19.4021192  55.8127134  39.0926785  16.0863337
  55.0459530  38.5385271  16.2320020  56.2237839  39.1648653  16.9477489
  47.8168895  45.3811581  30.1768519  48.6800357  45.0248385  30.3871843
  47.2434306  45.0425475  30.8643923  67.6617272  67.0113437  20.9830920
  68.2995682  66.8920184  20.2794260  67.5438115  67.9594281  21.0418872
  64.4706979  66.9640865  20.9192444  64.1325490  66.8481930  20.0312979
  65.3396747  66.5632030  20.8993450  60.3293794  68.8176341  16.9089335
  59.7658659  68.7266278  16.1405623  60.2146189  67.9976246  17.3891828
  64.9526762  68.1175717  26.8778650  64.9415402  67.7228515  26.0059153
  65.1147401  67.3841789  27.4712421  57.8758226  70.3127533  19.7473556
  58.6679518  69.9718358  19.3319855  58.1154876  70.4222508  20.6675709
  65.9093353  72.4847309  12.2203800  65.2581333  73.0701390  11.8337814
  66.7037716  73.0153504  12.2798838  59.8348980  69.5736446  12.6190934
  60.6079856  69.0265433  12.4803810  60.1874379  70.4380696  12.8305396
  62.5990230  68.2789677  22.4159193  63.1953802  68.0545699  21.7016156
  62.6565201  67.5374423  23.0184641  62.1715258  65.7329112  10.2509384
  62.4240779  65.2110634   9.4892847  61.2339817  65.5695258  10.3536068
  67.2158541  64.7364891  18.0584128  68.0021630  64.3184314  17.7074545
  67.4797245  65.6410983  18.2265776  67.3868618  70.1737741  12.7572784
  66.7514451  70.2472368  13.4693689  67.0566025  70.7631340  12.0791864
  72.6166968  64.6740124  18.9617106  73.3492140  64.1039341  19.1954936
  71.8606324  64.2861724  19.4023612  61.8911547  67.6357218  12.4533759
  61.7747805  66.9602122  13.1214844  62.0013807  67.1489592  11.6365912
  64.2343088  67.0967365  16.1580449  63.8701295  66.5697986  16.8693370
  65.0910204  66.7065834  15.9846934  70.1392388  58.3861698  23.4211715
  69.8075713  59.2557109  23.1972930  69.5438002  58.0697982  24.1005745
  63.8748575  62.1257265  11.1541797  64.0422977  62.9937502  11.5212268
  63.6845744  62.2884547  10.2303086  66.6323908  70.5874244  22.8207627
  66.3324631  71.4899283  22.7123435  66.2874967  70.3206427  23.6728780
  60.0836389  67.0388041  18.8544332  59.1586886  66.9064255  19.0622024
  60.3320803  67.8182260  19.3514274  70.0321052  63.1056784  20.5005065
  69.1237929  63.0372193  20.2063826  69.9808647  63.5828729  21.3286890
  63.8537796  64.5814923  12.1388464  63.7337421  65.0271973  12.9773944
  63.1590384  64.9300240  11.5802002  57.4445200  66.6821314  19.6888121
  57.5737582  66.9355793  20.6027533  56.7642652  67.2749022  19.3692776
  61.6144688  77.3518564  15.7878595  61.5368717  78.3026389  15.8667076
  61.0106331  77.0064437  16.4453521  64.1061917  64.5246430  28.4439962
  63.3295251  65.0840350  28.4342827  64.7452480  65.0103213  28.9654832
  71.8982698  61.3073223  22.2782939  71.2557078  61.6005756  21.6322733
  71.3937627  61.1926143  23.0836135  69.5522862  65.0536396  12.9668798
  70.4640718  65.2863783  12.7916496  69.0432509  65.6373440  12.4043877
  62.3608290  67.3331883  28.0057929  63.1022974  67.8716927  27.7292753
  61.6545275  67.9598172  28.1629481  67.8363629  69.4761024  26.6030091
  68.2446985  69.0343434  25.8584723  67.1140891  68.9013651  26.8564283
  64.1894699  64.4133630  23.9763647  65.0355895  64.8373044  24.1198296
  64.1293337  63.7567255  24.6702211  68.1592444  70.0362214  20.3582379
  67.5301306  70.2007928  19.6558447  67.7718106  70.4503824  21.1293343
  72.0381676  70.9716652  17.7126743  71.3532714  71.3515553  17.1623776
  72.1225525  71.5811979  18.4458691  67.3394145  62.0737999  25.6344821
  67.0955077  62.8280059  25.0979097  67.6154075  62.4523346  26.4692068
  69.2932608  68.6176611  24.3122087  69.5049503  69.2608371  23.6356468
  69.2462356  67.7838928  23.8444017  66.8958836  61.2294432  21.2158659
  66.0343315  61.5275685  21.5075396  66.9221271  61.4464831  20.2839691
  63.7120406  69.7736622  17.6232465  64.1758751  70.0524325  16.8337087
  63.4477204  68.8720067  17.4405555  60.6044487  69.3208104  20.5612228
  61.1745844  69.7495372  19.9229712  61.1952599  69.0390689  21.2596413
  62.6489292  65.8959775  14.4322030  63.3513335  66.3480818  14.8995956
  62.3169920  65.2543594  15.0601923  61.0969653  64.4871531  28.8073239
  60.4668314  65.1687812  29.0408636  60.9905741  64.3754613  27.8626377
  56.3914626  64.1543327  19.7339163  55.6013680  64.4100856  19.2579274
  56.8825873  64.9691665  19.8391204  70.4078435  71.4948567  22.4844444
  71.2295879  71.0928754  22.2027126  70.4040838  71.3916801  23.4360560
  58.3429371  64.5187907  16.6922640  57.5460535  64.6306601  17.2106136
  58.1154963  64.8574559  15.8263530  54.6752329  64.4073818  22.1654154
  54.9260367  65.2920828  22.4311730  55.2111877  64.2278419  21.3929246
  78.4984429  67.8387315  18.8329416  77.7448137  67.2694713  18.6773420
  78.6331970  67.8049980  19.7800050  63.8883057  72.7100717  14.5084135
  63.7528731  73.5552253  14.9368983  64.4292869  72.9119995  13.7450069
  60.3750396  58.7892297  31.1698490  59.9817342  58.2358496  31.8446134
  61.1916537  59.1002876  31.5605008  57.3412454  70.2276155  15.0812060
  57.8536975  71.0219406  15.2317625  57.9935167  69.5302446  15.0145661
  63.2918357  60.2050176  28.7618747  64.0328071  60.8057329  28.6823209
  63.5236280  59.4627814  28.2036789  60.2738654  74.8620085  23.1645155
  60.8246079  74.7337149  22.3922149  59.4350130  75.1614974  22.8140048
  67.2375520  56.2331279  23.0383028  66.8939790  57.1232921  22.9622139
  67.6054483  56.0432937  22.1752613  55.3061371  68.5564810  15.8571630
  56.1436593  68.9661818  15.6405338  55.4839638  67.6164252  15.8271824
  67.2025803  66.2239890  11.5455463  66.6872426  66.9944495  11.7843851
  66.9303111  65.5505026  12.1688525  64.7872914  61.0689591  16.6040702
  63.9314510  60.6796442  16.4246341  65.1999866  61.1481552  15.7440487
  66.3172061  58.6035934  21.0032262  65.8136856  58.5666070  20.1900067
  66.6102667  59.5128677  21.0628918  62.5614946  58.6874664  20.0098443
  63.4267943  58.4917473  19.6504333  62.6292455  58.4585016  20.9367800
  72.1760077  68.9772245  13.4808637  71.3989520  68.6383404  13.0363799
  72.8551558  68.9824868  12.8063602  66.9912106  64.0966982  13.3715245
  66.6862242  64.4113132  14.2225388  67.9442548  64.1748402  13.4142578
  65.4358538  70.2557206  15.0208199  64.9079899  69.5209965  14.7081436
  64.9346041  71.0331882  14.7748167  70.4151384  68.4506226  20.1375245
  69.7575058  69.1405488  20.2255374  71.2191783  68.8402658  20.4809231
  60.1677265  60.9176872  17.3814810  60.7421017  60.6952054  16.6488003
  60.7548248  60.9865567  18.1343411  69.2256843  66.8050599  18.1879187
  69.7388724  67.4380591  18.6900896  69.8758067  66.2051794  17.8222547
  60.4946853  62.9481333  11.4010695  59.6584165  63.2856020  11.7219970
  60.3551622  62.8130313  10.4637832  62.4699933  57.7918121  16.1089880
  61.8164346  57.4767138  15.4846494  62.4280407  57.1693861  16.8349702
  63.5811138  68.0737416   8.0243172  62.6738200  67.8426669   8.2234321
  64.0782170  67.2775035   8.2117153  66.4879217  76.7834923  10.9439858
  65.8140916  77.0866620  11.5524816  66.8745039  77.5864004  10.5945315
  65.7037674  64.2800054  20.4337527  64.7860235  64.5015001  20.2759215
  66.1197817  64.3546365  19.5749235  66.4872721  65.6791470  15.5640207
  67.2344540  66.1912867  15.2547329  66.7564311  65.3575523  16.4244601
  64.7599371  68.1750011  12.5467162  63.8510591  67.8909044  12.6439631
  64.7894455  68.5949089  11.6870469  69.9918639  71.7856600  16.3158329
  69.5380966  70.9447510  16.3723520  69.3612606  72.4217999  16.6533109
  68.9351558  62.7148586  17.5458997  68.1974315  62.2025973  17.8769239
  69.1878332  62.2748968  16.7342274  68.4351578  73.6233097  17.2508147
  68.7274553  74.1838154  16.5320513  68.9450199  73.9161658  18.0061307
  69.0363186  55.4924838  18.1400766  69.3422063  54.6322202  17.8526681
  69.7615791  56.0842459  17.9399760  55.3287542  65.8955525  16.5282364
  55.1311942  65.3024886  15.8033431  54.7734206  65.5907735  17.2458303
  63.3084266  65.7878631  18.6476957  63.3632875  64.8352468  18.5719434
  62.4975468  65.9438071  19.1318256  64.4575459  69.7158755   9.8855240
  64.0194889  68.9994613   9.4260878  65.1985900  69.9434869   9.3240332
  61.2476625  64.4055691  16.4067336  60.4344491  64.7049862  16.8132528
  61.7435620  64.0111380  17.1241818  63.3985203  74.4013448  18.3401601
  63.3561382  74.6274294  17.4110133  64.3147902  74.1676823  18.4887402
  66.8450837  64.8697516  25.2382230  67.2000225  65.0968989  26.0976696
  67.4922968  65.2015892  24.6159485  72.5748574  67.9915952  15.9431559
  72.4366473  68.1817548  15.0152748  72.2184793  68.7535334  16.3999610
  60.7390700  61.9774047  22.0228571  61.3790080  61.8362806  21.3251534
  59.9068231  61.6908560  21.6467173  72.6017954  70.0592479  20.9542830
  73.0354460  69.9667768  21.8025884  73.3149534  70.0349979  20.3162846
  61.5151004  71.2776477  18.1363563  62.3091603  70.7826797  17.9346138
  60.8042696  70.7494340  17.7731269  66.3345849  73.6594573  22.4875931
  66.3882871  74.2285509  23.2553647  65.4660630  73.8296458  22.1229968
  57.8233768  65.4219559  14.2123316  56.8931356  65.3604014  14.4293278
  57.9191240  64.8995512  13.4159957  57.7419317  61.9474372  16.8001558
  58.0026134  62.8619705  16.6910718  58.5636489  61.4798814  16.9498171
  59.2144242  63.3612129  23.9700382  59.8867295  63.1529491  23.3213031
  58.3874028  63.1634215  23.5305615  73.4633503  70.1016179  23.4875716
  73.6569393  71.0061990  23.7334991  73.3634121  69.6423598  24.3214301
  65.1169814  59.9874070  25.9866043  64.4697729  60.6864019  25.8930520
  65.8870829  60.4210214  26.3542291  65.2933948  67.8254835  24.0462863
  66.2226008  67.9765994  23.8731830  64.8724978  67.9138856  23.1911509
  64.0922280  71.8505499  21.8161400  63.9533366  71.4824284  22.6887339
  63.3036876  72.3653139  21.6445358  64.6870432  76.9514596  13.1586937
  64.8622188  76.4802639  13.9732560  64.0003220  77.5780362  13.3868198
  65.6427495  71.2287102  19.2050238  65.3077328  71.1887872  20.1007888
  65.1431441  70.5631818  18.7320648  59.6171739  66.6354732  24.7302819
  59.4791537  65.9034971  25.3314358  60.5276663  66.5463632  24.4487007
  68.5786687  68.5743136   9.4787298  67.9615858  67.8489964   9.3820351
  68.1103175  69.3352496   9.1354372  62.2454040  66.3474691  24.2186499
  62.9553658  65.7067883  24.1773117  62.2023348  66.5987586  25.1412680
  60.9582974  63.3339909  26.0382139  60.4220331  62.8830648  26.6903735
  60.3699682  63.4685818  25.2952603  60.3685233  62.7928560   8.6008602
  59.4914699  62.6717361   8.2370849  60.8442986  62.0014639   8.3487491
  70.2358226  71.2481628  25.3707058  69.3485005  70.9107550  25.4933457
  70.8056777  70.5164660  25.6075823  51.8887373  67.5805720  18.6950109
  52.5758413  67.2667450  18.1071125  51.7335502  68.4847085  18.4217361
  56.6922095  62.4695917  23.1235133  56.6080284  61.8621586  22.3885543
  55.8704801  62.9604935  23.1244629  63.7659379  75.9083081  22.3368301
  63.6929551  76.7138052  22.8487606  63.3236772  76.1075047  21.5116323
  63.5549159  75.1454851  15.8471123  62.7716681  75.6876531  15.9409347
  64.2541904  75.6628830  16.2465364  66.8645809  60.9549480  18.4905328
  67.3614508  60.2019443  18.1706398  66.0932790  60.9913797  17.9248537
  74.7175566  66.6589846  20.1323620  74.7065443  67.5414561  19.7617553
  73.8492946  66.3061397  19.9378157  67.9475590  69.7121168  16.0643751
  67.0131868  69.8322630  15.8948456  68.1252258  68.8093634  15.8003761
  63.4480778  63.0966863  18.2177013  63.0778565  62.5437904  18.9057918
  63.9439870  62.4924997  17.6652013  71.3348141  65.5538487  16.5993786
  71.8008593  66.3866478  16.5254088  71.7855641  65.0883468  17.3039044
  69.4024372  71.8982308  13.5979938  69.6784216  71.7838903  14.5073812
  68.5328871  71.4999793  13.5592111  69.3064804  57.9219074  20.6384687
  68.3927884  58.1523301  20.8066894  69.7357905  58.0057518  21.4898719
  69.0771262  66.1108966  23.1384581  68.4242712  66.3584873  22.4837034
  69.4551642  65.2973104  22.8047058  66.0378436  76.1468659  17.2412751
  66.2200831  75.3290315  17.7040504  66.8611422  76.3636351  16.8037641
  66.3720602  75.0736844  14.5027800  66.9008368  74.5629299  13.8897962
  66.6348821  74.7579374  15.3673333  65.1258835  66.8528777  29.6250618
  64.4499472  66.7522906  30.2952993  65.9486469  66.6967991  30.0886615
  59.7276350  76.1251961  17.2625576  59.0586725  76.6098088  16.7789616
  59.5889219  76.3721181  18.1768954  51.4655349  65.6606314  20.9667576
  51.5039449  65.1269904  21.7604695  50.9595642  65.1341519  20.3478554
  58.8446111  60.5070854  24.4630119  58.9087438  61.3685685  24.0507516
  58.7813232  59.8944856  23.7302477  58.3198384  62.5793987  28.1103153
  58.9470423  62.1971064  28.7240677  57.4626303  62.3608189  28.4758846
  55.0963927  64.3870416  14.0421508  55.3917368  63.4781094  13.9888562
  54.1951962  64.3658155  13.7202510  67.0050005  76.1077680  20.8471916
  66.8801145  75.3067420  20.3382862  67.6629097  76.6023873  20.3585886
  58.6258174  62.4626412  20.0249056  57.9044759  63.0762380  19.8856530
  59.4151429  62.9984177  19.9465702  69.0684914  73.9086700  22.4751466
  68.1215249  73.7892051  22.4029793  69.4167687  73.0209198  22.5577728
  61.4284487  59.7980839  26.2989708  61.9518889  60.0443135  27.0616018
  61.2096820  60.6300874  25.8792846  56.8251768  62.0684513  14.1660833
  56.4964474  61.1881892  13.9835939  57.1791139  62.0132182  15.0537222
  66.0731347  73.7039416  18.6755819  65.9256310  72.7756124  18.8563389
  66.8984841  73.7259507  18.1912894  59.9393591  62.3557483  14.5336311
  60.2789664  62.8843404  13.8114919  60.3865712  62.6937889  15.3094877
  69.6765469  74.5267975  19.7620691  70.6012016  74.3210836  19.6245142
  69.5080772  74.2784376  20.6710033  62.6337032  60.7394534  23.9839379
  62.2933853  59.9402347  24.3860059  61.9276038  61.0396245  23.4116212
  63.2853504  57.8243846  22.4366702  64.1079573  57.3504325  22.3145592
  63.5291568  58.6034330  22.9365388  61.9261739  60.8532105  12.7329603
  62.6470101  61.2313358  12.2293320  61.3027043  61.5720982  12.8364581
  66.0692861  61.5577254  13.6687936  66.2856476  62.4401892  13.3676764
  65.5886929  61.1663467  12.9393578  60.8092083  64.5162967  20.2458680
  60.6636664  64.8303270  21.1382962  60.3317286  65.1347867  19.6929579
  62.6688466  61.5065515  20.2939570  62.6550034  60.6106608  19.9571868
  63.3860894  61.5136179  20.9277856  64.5214596  61.9402855  22.3392697
  64.2632374  62.8619926  22.3377028  63.9899637  61.5433290  23.0293161
  69.4660785  75.0453642  15.1182783  69.6397663  74.4800065  14.3656635
  69.9589676  75.8454537  14.9362273  62.0725362  60.3879895  15.5627140
  62.1941273  59.4596541  15.7618028  61.7827404  60.4018581  14.6505455
  64.9416552  58.0734806  18.6993860  64.9638249  58.1374139  17.7445839
  65.3584611  57.2339314  18.8934366  75.3200176  67.8090065  16.7373082
  75.7631322  67.0597390  16.3392206  74.4426687  67.8000202  16.3546814
  70.4535958  74.3620407  12.2179681  71.1486862  74.9827099  12.4366996
  70.7959108  73.5115758  12.4932059  72.3527381  71.8120112  13.7467012
  72.8778705  72.1507385  13.0216332  72.2649733  70.8767128  13.5630146
  64.0368042  77.8792096  18.1062265  63.5973032  77.3868474  18.7995122
  64.7876158  77.3365063  17.8654340  61.4841914  73.4230105  20.1784567
  60.8621923  72.7600810  19.8786794  62.1546781  73.4491236  19.4958214
  61.5566441  61.9011893  29.7717073  61.6054597  62.7774015  29.3894842
  62.0988955  61.3589286  29.1988716  72.1619162  69.2945482  26.3650938
  72.2117167  69.1295490  27.3066461  72.0533085  68.4272741  25.9748819
  61.0455421  71.9734028  13.6543027  61.1943541  72.6569492  13.0009700
  61.8521864  71.9539118  14.1692483  69.4522924  65.2776410  27.6810245
  70.3532787  65.1382875  27.3894243  69.5270899  65.4430865  28.6208422
  63.7865730  62.6543265  26.5263431  62.9169039  62.9476831  26.2546020
  64.0225210  63.2383710  27.2470695  73.6637359  71.7142424  26.6092960
  73.3722167  72.0772404  27.4456421  73.0509490  71.0009432  26.4306292
  74.8633041  69.2795304  19.1295530  75.6979932  69.7185108  19.2933090
  74.9992170  68.8033957  18.3103776  71.9124547  66.8375038  25.0773018
  72.3878669  67.0302685  24.2691869  70.9890112  66.8934224  24.8316401
  58.8008054  67.9999206  14.6604096  58.5554095  67.0961536  14.8584306
  58.9703968  68.0016356  13.7183574  66.4904763  58.8722882  24.0428852
  67.0086707  59.6083909  23.7175340  66.1359896  59.1786875  24.8775611
  58.0703701  63.7327563  12.1590258  57.3772946  63.8071918  11.5030294
  57.8255453  62.9687907  12.6811774  66.7417358  55.2923164  19.5629748
  67.0219111  54.6246354  20.1890175  67.5267965  55.4852260  19.0504412
  64.5450826  74.4682158  11.1254775  63.9724793  75.0872346  10.6725246
  65.1183620  75.0181520  11.6594697  70.6126216  63.7140798  23.3101323
  71.5643639  63.8138896  23.3313547  70.4429666  62.9219067  23.8199408
  68.6340595  60.7996382  23.4960724  68.0390528  61.0801394  22.8007213
  68.3490292  61.2890283  24.2677465  67.7648086  74.7519309  12.2563357
  68.6978759  74.6864870  12.4596232  67.6771299  75.5875575  11.7977890
  70.3936103  74.0685179   9.2167304  70.3149734  73.7345042  10.1103062
  71.2145769  74.5606947   9.2158777  73.0914294  66.9346918  22.4243623
  73.0590614  65.9962919  22.6103307  73.7014917  67.0130955  21.6909448
  64.9297625  65.8042971   8.4670827  65.8756729  65.6749179   8.5359245
  64.5511870  65.0657633   8.9440255  73.2408782  63.7257962  22.4701906
  72.7247831  62.9416418  22.2831835  74.1248731  63.3976678  22.6348426
  70.9019509  57.4698977  18.4297719  70.7044330  57.1614065  19.3141051
  71.5119215  58.1960616  18.5595649  78.9090844  67.9962925  21.5649660
  79.6394232  67.7348213  22.1257363  78.2997789  67.2591647  21.6051728
  76.9906141  66.1370788  22.1624111  76.2639304  66.0026753  21.5540603
  76.5753428  66.4447616  22.9680829  63.1140542  63.7292948   8.4025712
  62.2071997  63.4326060   8.4788426  63.3916523  63.4322766   7.5359999
  54.0318482  65.0499311  18.8524759  53.7121266  64.1964619  18.5599133
  53.4851910  65.2647889  19.6082726  57.8098390  67.7661752  22.5694265
  58.0284399  68.6978860  22.5882299  58.2224163  67.4069726  23.3549069
  64.7302607  58.2729837  14.5569954  63.9203336  57.9276922  14.9325200
  65.4187024  57.9637381  15.1457565  66.6593156  57.3507884  16.1794250
  67.2124194  57.7703337  16.8384273  66.8963242  56.4243632  16.2217206
  62.6826255  63.3394958  31.9597014  62.5822982  64.2889315  31.8909105
  62.4647797  63.0113197  31.0873084  61.8839326  60.5879883   8.5437692
  62.7458490  60.9134781   8.8033509  62.0689671  59.8011379   8.0310757
  53.9006742  68.6702222  20.8217880  53.2070214  68.2556175  20.3087835
  54.6479733  68.7122759  20.2251299  70.0371963  59.4608409  15.6872915
  69.4570632  60.1193213  15.3050967  69.7707896  58.6385754  15.2760332
  68.4875529  58.8613467  17.8894235  68.9875308  58.9730001  17.0808554
  69.1311137  58.5574520  18.5295043  62.5457525  66.7692097  30.7762076
  62.0624607  67.5692457  30.9825965  62.6318464  66.7800041  29.8229520
  55.8143485  68.6020476  18.6983895  55.7914173  68.7008163  17.7465778
  56.1244121  69.4485627  19.0201061  68.8196841  61.6208500  14.7429263
  67.9322696  61.9058150  14.5249458  69.2350830  61.4602263  13.8956540
  72.1711377  61.6455021  18.4583602  72.9471767  62.1351473  18.7308219
  71.4459511  62.0713075  18.9155472  74.6083936  62.3582640  19.5157543
  75.2028426  62.1178376  18.8050851  74.6810519  61.6389770  20.1431079
  67.9640054  71.3853174   8.8377283  68.6675904  71.5903177   9.4534938
  67.2402703  71.9529936   9.1026366  68.7937865  67.1363036  14.9579553
  68.7373066  67.5931587  14.1187185  69.3466207  66.3753720  14.7802396
  72.6042671  62.9252767  15.7829672  72.3479605  62.5249403  16.6137880
  71.9795539  63.6396561  15.6579812  76.9155008  65.6648841  18.2900964
  76.3554566  65.7342030  19.0632526  76.3098512  65.4889825  17.5700460
  59.9850217  77.0985568  20.0419150  59.8682601  78.0431000  19.9397840
  59.1642663  76.7959129  20.4304949  69.8726752  71.8235703  10.8875743
  70.7072356  71.3916902  10.7053218  69.7111095  71.6517717  11.8152637
  69.5272644  68.3267817  12.2532082  69.4721448  68.1612088  11.3120526
  68.9018699  69.0343850  12.4094272  62.8368769  57.8275926  11.8317401
  62.8247439  58.7717766  11.9885671  63.7292191  57.6446071  11.5376862
  61.0104731  77.7513830  23.2575079  61.9131978  77.7837440  23.5741574
  60.7842101  76.8214281  23.2721414  62.7658333  76.5044816  19.9185157
  61.8153964  76.5046678  19.8049529  63.0690819  75.7577551  19.4021192
  66.6520889  54.4218702  16.0863337  65.8853285  53.8677189  16.2320020
  67.0631594  54.4940571  16.9477489  58.6562650  60.7103498  30.1768519
  59.5194111  60.3540303  30.3871843  58.0828061  60.3717393  30.8643923
  78.5011027  82.3405355  20.9830920  79.1389437  82.2212102  20.2794260
  78.3831870  83.2886199  21.0418872  75.3100733  82.2932783  20.9192444
  74.9719245  82.1773847  20.0312979  76.1790501  81.8923948  20.8993450
  71.1687549  84.1468259  16.9089335  70.6052414  84.0558196  16.1405623
  71.0539944  83.3268164  17.3891828  75.7920516  83.4467634  26.8778650
  75.7809157  83.0520433  26.0059153  75.9541156  82.7133707  27.4712421
  68.7151981  85.6419451  19.7473556  69.5073273  85.3010275  19.3319855
  68.9548631  85.7514426  20.6675709  76.7487108  87.8139227  12.2203800
  76.0975087  88.3993307  11.8337814  77.5431470  88.3445422  12.2798838
  70.6742735  84.9028364  12.6190934  71.4473611  84.3557351  12.4803810
  71.0268134  85.7672613  12.8305396  72.5127777  86.2304746  25.8257834
  72.2217643  87.1350377  25.7104500  73.1484762  86.2721274  26.5401903
  73.4383984  83.6081595  22.4159193  74.0347556  83.3837617  21.7016156
  73.4958956  82.8666340  23.0184641  73.0109013  81.0621030  10.2509384
  73.2634533  80.5402551   9.4892847  72.0733572  80.8987175  10.3536068
  78.0552295  80.0656808  18.0584128  78.8415385  79.6476232  17.7074545
  78.3191000  80.9702901  18.2265776  78.2262373  85.5029659  12.7572784
  77.5908206  85.5764285  13.4693689  77.8959779  86.0923258  12.0791864
  83.4560722  80.0032042  18.9617106  84.1885894  79.4331258  19.1954936
  82.7000078  79.6153642  19.4023612  72.7305301  82.9649136  12.4533759
  72.6141559  82.2894039  13.1214844  72.8407561  82.4781510  11.6365912
  75.0736842  82.4259283  16.1580449  74.7095049  81.8989904  16.8693370
  75.9303958  82.0357752  15.9846934  80.9786143  73.7153616  23.4211715
  80.6469468  74.5849027  23.1972930  80.3831756  73.3989900  24.1005745
  74.7142329  77.4549183  11.1541797  74.8816731  78.3229419  11.5212268
  74.5239498  77.6176465  10.2303086  77.4717662  85.9166162  22.8207627
  77.1718385  86.8191201  22.7123435  77.1268722  85.6498345  23.6728780
  70.9230144  82.3679959  18.8544332  69.9980640  82.2356173  19.0622024
  71.1714557  83.1474178  19.3514274  80.8714806  78.4348702  20.5005065
  79.9631683  78.3664110  20.2063826  80.8202402  78.9120647  21.3286890
  74.6931550  79.9106840  12.1388464  74.5731175  80.3563891  12.9773944
  73.9984138  80.2592158  11.5802002  68.2838955  82.0113232  19.6888121
  68.4131336  82.2647711  20.6027533  67.6036406  82.6040940  19.3692776
  72.4538442  92.6810482  15.7878595  72.3762472  93.6318307  15.8667076
  71.8500086  92.3356355  16.4453521  74.9455672  79.8538347  28.4439962
  74.1689006  80.4132268  28.4342827  75.5846235  80.3395130  28.9654832
  82.7376453  76.6365140  22.2782939  82.0950833  76.9297673  21.6322733
  82.2331381  76.5218061  23.0836135  80.3916616  80.3828313  12.9668798
  81.3034472  80.6155700  12.7916496  79.8826263  80.9665358  12.4043877
  73.2002044  82.6623801  28.0057929  73.9416729  83.2008845  27.7292753
  72.4939030  83.2890090  28.1629481  78.6757384  84.8052941  26.6030091
  79.0840740  84.3635352  25.8584723  77.9534645  84.2305569  26.8564283
  75.0288454  79.7425548  23.9763647  75.8749649  80.1664962  24.1198296
  74.9687092  79.0859172  24.6702211  78.9986198  85.3654132  20.3582379
  78.3695061  85.5299846  19.6558447  78.6111861  85.7795741  21.1293343
  82.8775430  86.3008570  17.7126743  82.1926469  86.6807471  17.1623776
  82.9619280  86.9103896  18.4458691  78.1787899  77.4029916  25.6344821
  77.9348831  78.1571977  25.0979097  78.4547830  77.7815264  26.4692068
  80.1326362  83.9468529  24.3122087  80.3443257  84.5900289  23.6356468
  80.0856110  83.1130845  23.8444017  77.7352591  76.5586349  21.2158659
  76.8737070  76.8567603  21.5075396  77.7615026  76.7756748  20.2839691
  74.5514160  85.1028540  17.6232465  75.0152506  85.3816243  16.8337087
  74.2870958  84.2011985  17.4405555  71.4438241  84.6500022  20.5612228
  72.0139598  85.0787290  19.9229712  72.0346353  84.3682606  21.2596413
  73.4883046  81.2251692  14.4322030  74.1907090  81.6772736  14.8995956
  73.1563675  80.5835511  15.0601923  71.9363408  79.8163449  28.8073239
  71.3062069  80.4979730  29.0408636  71.8299496  79.7046531  27.8626377
  67.2308380  79.4835245  19.7339163  66.4407434  79.7392774  19.2579274
  67.7219628  80.2983583  19.8391204  81.2472190  86.8240484  22.4844444
  82.0689634  86.4220672  22.2027126  81.2434593  86.7208718  23.4360560
  69.1823126  79.8479824  16.6922640  68.3854289  79.9598519  17.2106136
  68.9548718  80.1866477  15.8263530  75.0128793  86.3724528  24.6405155
  75.0773226  86.8344935  25.4763326  74.3039717  85.7421892  24.7687464
  89.3378183  83.1679233  18.8329416  88.5841891  82.5986631  18.6773420
  89.4725724  83.1341897  19.7800050  74.7276811  88.0392635  14.5084135
  74.5922486  88.8844171  14.9368983  75.2686624  88.2411913  13.7450069
  68.1806208  85.5568073  15.0812060  68.6930729  86.3511323  15.2317625
  68.8328921  84.8594364  15.0145661  69.9901093  88.6733829  17.1634813
  70.1667721  89.5951794  16.9755797  70.7857927  88.3592249  17.5929193
  74.1312112  75.5342094  28.7618747  74.8721825  76.1349247  28.6823209
  74.3630034  74.7919732  28.2036789  76.3545287  88.6616202  28.6384477
  75.9109142  87.8752580  28.3205381  77.0162501  88.8495352  27.9728368
  71.1132409  90.1912003  23.1645155  71.6639834  90.0629066  22.3922149
  70.2743884  90.4906892  22.8140048  78.4526525  88.9419001  26.6665878
  78.4345001  89.7627883  26.1746147  79.3746446  88.8173077  26.8916019
  74.9099580  86.4563131  27.5089387  75.4427916  85.6951419  27.2788695
  74.3813661  86.1636783  28.2513541  78.0769275  71.5623197  23.0383028
  77.7333544  72.4524839  22.9622139  78.4448237  71.3724855  22.1752613
  66.1455125  83.8856727  15.8571630  66.9830347  84.2953736  15.6405338
  66.3233393  82.9456170  15.8271824  78.0419557  81.5531808  11.5455463
  77.5266181  82.3236413  11.7843851  77.7696866  80.8796944  12.1688525
  75.6266668  76.3981509  16.6040702  74.7708265  76.0088359  16.4246341
  76.0393620  76.4773470  15.7440487  77.1565815  73.9327852  21.0032262
  76.6530611  73.8957987  20.1900067  77.4496422  74.8420595  21.0628918
  73.4008701  74.0166582  20.0098443  74.2661698  73.8209390  19.6504333
  73.4686210  73.7876934  20.9367800  83.0153831  84.3064163  13.4808637
  82.2383274  83.9675322  13.0363799  83.6945312  84.3116786  12.8063602
  77.8305860  79.4258900  13.3715245  77.5255996  79.7405049  14.2225388
  78.7836303  79.5040320  13.4142578  76.2752292  85.5849123  15.0208199
  75.7473654  84.8501883  14.7081436  75.7739795  86.3623800  14.7748167
  81.2545138  83.7798144  20.1375245  80.5968813  84.4697405  20.2255374
  82.0585538  84.1694576  20.4809231  71.0071020  76.2468790  17.3814810
  71.5814772  76.0243971  16.6488003  71.5942002  76.3157484  18.1343411
  80.0650597  82.1342517  18.1879187  80.5782479  82.7672508  18.6900896
  80.7151821  81.5343712  17.8222547  71.3340607  78.2773251  11.4010695
  70.4977919  78.6147937  11.7219970  71.1945377  78.1422231  10.4637832
  73.3093688  73.1210039  16.1089880  72.6558100  72.8059056  15.4846494
  73.2674162  72.4985779  16.8349702  74.4204893  83.4029334   8.0243172
  73.5131954  83.1718587   8.2234321  74.9175925  82.6066953   8.2117153
  76.5431428  79.6091972  20.4337527  75.6253989  79.8306919  20.2759215
  76.9591572  79.6838283  19.5749235  77.3266476  81.0083388  15.5640207
  78.0738295  81.5204785  15.2547329  77.5958065  80.6867441  16.4244601
  75.5993126  83.5041929  12.5467162  74.6904345  83.2200961  12.6439631
  75.6288210  83.9241007  11.6870469  80.8312393  87.1148518  16.3158329
  80.3774720  86.2739428  16.3723520  80.2006360  87.7509916  16.6533109
  79.7745313  78.0440504  17.5458997  79.0368070  77.5317890  17.8769239
  80.0272086  77.6040886  16.7342274  79.2745333  88.9525015  17.2508147
  79.5668307  89.5130072  16.5320513  79.7843953  89.2453576  18.0061307
  79.8756940  70.8216756  18.1400766  80.1815817  69.9614120  17.8526681
  80.6009545  71.4134376  17.9399760  66.1681296  81.2247443  16.5282364
  65.9705696  80.6316803  15.8033431  65.6127960  80.9199653  17.2458303
  74.1478020  81.1170549  18.6476957  74.2026630  80.1644386  18.5719434
  73.3369222  81.2729988  19.1318256  75.2969214  85.0450672   9.8855240
  74.8588644  84.3286531   9.4260878  76.0379655  85.2726787   9.3240332
  72.0870380  79.7347609  16.4067336  71.2738245  80.0341779  16.8132528
  72.5829374  79.3403298  17.1241818  74.2378958  89.7305366  18.3401601
  74.1955137  89.9566212  17.4110133  75.1541657  89.4968740  18.4887402
  77.6844592  80.1989433  25.2382230  78.0393979  80.4260907  26.0976696
  78.3316723  80.5307810  24.6159485  83.4142329  83.3207869  15.9431559
  83.2760227  83.5109465  15.0152748  83.0578547  84.0827252  16.3999610
  71.5784455  77.3065964  22.0228571  72.2183834  77.1654724  21.3251534
  70.7461985  77.0200478  21.6467173  83.4411708  85.3884396  20.9542830
  83.8748215  85.2959685  21.8025884  84.1543289  85.3641897  20.3162846
  72.3544759  86.6068395  18.1363563  73.1485357  86.1118715  17.9346138
  71.6436451  86.0786258  17.7731269  77.1739603  88.9886490  22.4875931
  77.2276625  89.5577427  23.2553647  76.3054384  89.1588375  22.1229968
  68.6627522  80.7511477  14.2123316  67.7325110  80.6895932  14.4293278
  68.7584994  80.2287429  13.4159957  68.5813071  77.2766289  16.8001558
  68.8419888  78.1911623  16.6910718  69.4030243  76.8090732  16.9498171
  70.0537996  78.6904047  23.9700382  70.7261050  78.4821409  23.3213031
  69.2267783  78.4926133  23.5305615  84.3027258  85.4308097  23.4875716
  84.4963148  86.3353907  23.7334991  84.2027876  84.9715516  24.3214301
  75.9563568  75.3165987  25.9866043  75.3091483  76.0155937  25.8930520
  76.7264584  75.7502131  26.3542291  79.3642366  85.5814840  29.0616596
  79.2127873  85.3525391  28.1446680  79.3547046  86.5385441  29.0747941
  76.1327703  83.1546752  24.0462863  77.0619763  83.3057912  23.8731830
  75.7118733  83.2430773  23.1911509  74.9316035  87.1797417  21.8161400
  74.7927120  86.8116201  22.6887339  74.1430631  87.6945056  21.6445358
  75.5264187  92.2806513  13.1586937  75.7015942  91.8094556  13.9732560
  74.8396975  92.9072279  13.3868198  76.4821250  86.5579020  19.2050238
  76.1471082  86.5179789  20.1007888  75.9825195  85.8923735  18.7320648
  70.4565494  81.9646650  24.7302819  70.3185292  81.2326888  25.3314358
  71.3670417  81.8755550  24.4487007  73.0847794  81.6766609  24.2186499
  73.7947413  81.0359801  24.1773117  73.0417103  81.9279504  25.1412680
  81.0734573  88.6133962  27.1393078  81.0147119  87.9293182  26.4723661
  81.4754091  89.3552952  26.6873704  71.7976728  78.6631827  26.0382139
  71.2614085  78.2122565  26.6903735  71.2093437  78.7977736  25.2952603
  70.0925272  95.4295876  19.9326797  70.3321870  96.0614400  20.6105816
  69.2494468  95.0783916  20.2192156  71.2078987  78.1220478   8.6008602
  70.3308454  78.0009279   8.2370849  71.6836740  77.3306556   8.3487491
  81.0751980  86.5773546  25.3707058  80.1878759  86.2399468  25.4933457
  81.6450531  85.8456577  25.6075823  67.5315850  77.7987834  23.1235133
  67.4474038  77.1913504  22.3885543  66.7098556  78.2896853  23.1244629
  74.6053134  91.2374998  22.3368301  74.5323305  92.0429970  22.8487606
  74.1630527  91.4366964  21.5116323  74.3942913  90.4746769  15.8471123
  73.6110435  91.0168449  15.9409347  75.0935659  90.9920748  16.2465364
  77.7039563  76.2841398  18.4905328  78.2008263  75.5311360  18.1706398
  76.9326545  76.3205715  17.9248537  85.5569321  81.9881764  20.1323620
  85.5459197  82.8706479  19.7617553  84.6886700  81.6353314  19.9378157
  77.0651817  91.1361833  24.4926460  77.7779789  91.7709297  24.4202361
  76.5741846  91.2325699  23.6766462  78.7869344  85.0413085  16.0643751
  77.8525623  85.1614548  15.8948456  78.9646013  84.1385552  15.8003761
  74.2874532  78.4258781  18.2177013  73.9172320  77.8729821  18.9057918
  74.7833625  77.8216914  17.6652013  82.1741895  80.8830404  16.5993786
  82.6402348  81.7158396  16.5254088  82.6249396  80.4175386  17.3039044
  72.1163731  88.8856276  25.3132031  72.8173190  89.5192759  25.4661425
  71.6458846  89.2271008  24.5527670  80.2418127  87.2274226  13.5979938
  80.5177970  87.1130820  14.5073812  79.3722625  86.8291711  13.5592111
  80.1458558  73.2510991  20.6384687  79.2321638  73.4815218  20.8066894
  80.5751660  73.3349436  21.4898719  79.9165017  81.4400883  23.1384581
  79.2636467  81.6876791  22.4837034  80.2945397  80.6265022  22.8047058
  76.8772191  91.4760577  17.2412751  77.0594585  90.6582233  17.7040504
  77.7005177  91.6928269  16.8037641  77.2114356  90.4028762  14.5027800
  77.7402123  89.8921216  13.8897962  77.4742576  90.0871292  15.3673333
  75.9652590  82.1820695  29.6250618  75.2893227  82.0814824  30.2952993
  76.7880224  82.0259908  30.0886615  67.7131449  88.4192631  22.2463133
  68.2984886  87.6736319  22.3791038  67.5156287  88.7296588  23.1299797
  70.5670104  91.4543878  17.2625576  69.8980479  91.9390006  16.7789616
  70.4282974  91.7013099  18.1768954  74.7075373  93.4887622  23.8608234
  75.2593681  93.6519243  24.6257319  75.0481566  94.0792060  23.1888259
  69.6839866  75.8362772  24.4630119  69.7481192  76.6977603  24.0507516
  69.6206986  75.2236773  23.7302477  79.5586247  88.3148879  29.7156888
  80.1026151  88.9278838  29.2211843  78.9773092  88.8728458  30.2323901
  65.9357681  79.7162333  14.0421508  66.2311122  78.8073012  13.9888562
  65.0345717  79.6950073  13.7202510  77.8443760  91.4369597  20.8471916
  77.7194899  90.6359337  20.3382862  78.5022851  91.9315791  20.3585886
  69.4651928  77.7918330  20.0249056  68.7438514  78.4054298  19.8856530
  70.2545184  78.3276095  19.9465702  79.9078668  89.2378618  22.4751466
  78.9609004  89.1183969  22.4029793  80.2561441  88.3501116  22.5577728
  72.2678242  75.1272756  26.2989708  72.7912643  75.3735053  27.0616018
  72.0490575  75.9592791  25.8792846  67.6645523  77.3976431  14.1660833
  67.3358229  76.5173810  13.9835939  68.0184893  77.3424100  15.0537222
  76.9125102  89.0331334  18.6755819  76.7650064  88.1048041  18.8563389
  77.7378595  89.0551424  18.1912894  70.7787346  77.6849401  14.5336311
  71.1183418  78.2135322  13.8114919  71.2259466  78.0229807  15.3094877
  80.5159223  89.8559893  19.7620691  81.4405771  89.6502754  19.6245142
  80.3474527  89.6076294  20.6710033  73.4730787  76.0686452  23.9839379
  73.1327607  75.2694265  24.3860059  72.7669793  76.3688162  23.4116212
  74.1247259  73.1535764  22.4366702  74.9473328  72.6796242  22.3145592
  74.3685322  73.9326248  22.9365388  72.7655493  76.1824022  12.7329603
  73.4863856  76.5605275  12.2293320  72.1420797  76.9012899  12.8364581
  76.9086616  76.8869171  13.6687936  77.1250230  77.7693809  13.3676764
  76.4280683  76.4955385  12.9393578  71.6485837  79.8454885  20.2458680
  71.5030418  80.1595188  21.1382962  71.1711041  80.4639785  19.6929579
  73.5082220  76.8357433  20.2939570  73.4943789  75.9398526  19.9571868
  74.2254648  76.8428096  20.9277856  75.3608351  77.2694773  22.3392697
  75.1026129  78.1911843  22.3377028  74.8293391  76.8725207  23.0293161
  80.3054540  90.3745560  15.1182783  80.4791417  89.8091982  14.3656635
  80.7983431  91.1746455  14.9362273  72.9119116  75.7171813  15.5627140
  73.0335027  74.7888459  15.7618028  72.6221158  75.7310499  14.6505455
  75.7810306  73.4026723  18.6993860  75.8032003  73.4666056  17.7445839
  76.1978365  72.5631232  18.8934366  86.1593931  83.1381983  16.7373082
  86.6025077  82.3889308  16.3392206  85.2820441  83.1292119  16.3546814
  74.8541184  91.0546104  25.8756888  75.1628310  90.8095250  26.7479588
  75.6516666  91.2592742  25.3875759  74.8761796  93.2084013  18.1062265
  74.4366786  92.7160392  18.7995122  75.6269913  92.6656981  17.8654340
  67.3554135  89.3995554  18.1086893  68.1812155  89.0999326  17.7285537
  67.0048187  88.6303176  18.5576682  72.3235668  88.7522022  20.1784567
  71.7015677  88.0892727  19.8786794  72.9940535  88.7783154  19.4958214
  65.5562740  87.3181880  19.0675827  64.7194648  86.8904055  18.8859828
  65.5286385  87.5114324  20.0046618  82.8815041  87.7744934  29.0518210
  82.0910585  87.7569072  28.5122709  82.6448396  88.3133227  29.8067246
  83.0012916  84.6237400  26.3650938  83.0510921  84.4587407  27.3066461
  82.8926840  83.7564659  25.9748819  71.8849175  87.3025946  13.6543027
  72.0337295  87.9861410  13.0009700  72.6915619  87.2831036  14.1692483
  80.2916679  80.6068328  27.6810245  81.1926542  80.4674793  27.3894243
  80.3664653  80.7722783  28.6208422  74.6259484  77.9835183  26.5263431
  73.7562793  78.2768749  26.2546020  74.8618964  78.5675628  27.2470695
  84.5031113  87.0434341  26.6092960  84.2115922  87.4064322  27.4456421
  83.8903244  86.3301350  26.4306292  85.7026796  84.6087221  19.1295530
  86.5373687  85.0477025  19.2933090  85.8385924  84.1325874  18.3103776
  82.7518301  82.1666956  25.0773018  83.2272423  82.3594602  24.2691869
  81.8283867  82.2226142  24.8316401  69.6401808  83.3291123  14.6604096
  69.3947850  82.4253453  14.8584306  69.8097723  83.3308274  13.7183574
  77.3298518  74.2014800  24.0428852  77.8480462  74.9375827  23.7175340
  76.9753651  74.5078793  24.8775611  68.9097456  79.0619481  12.1590258
  68.2166701  79.1363836  11.5030294  68.6649207  78.2979824  12.6811774
  77.5811112  70.6215082  19.5629748  77.8612866  69.9538271  20.1890175
  78.3661719  70.8144178  19.0504412  81.4519970  79.0432716  23.3101323
  82.4037393  79.1430814  23.3313547  81.2823421  78.2510985  23.8199408
  79.4734350  76.1288299  23.4960724  78.8784282  76.4093312  22.8007213
  79.1884047  76.6182200  24.2677465  83.9308048  82.2638836  22.4243623
  83.8984368  81.3254837  22.6103307  84.5408672  82.3422873  21.6909448
  75.7691379  81.1334889   8.4670827  76.7150484  81.0041097   8.5359245
  75.3905624  80.3949551   8.9440255  84.0802537  79.0549879  22.4701906
  83.5641585  78.2708336  22.2831835  84.9642485  78.7268596  22.6348426
  81.7413264  72.7990895  18.4297719  81.5438085  72.4905983  19.3141051
  82.3512969  73.5252534  18.5595649  89.7484598  83.3254843  21.5649660
  90.4787987  83.0640131  22.1257363  89.1391544  82.5883565  21.6051728
  87.8299895  81.4662705  22.1624111  87.1033059  81.3318670  21.5540603
  87.4147182  81.7739534  22.9680829  75.6530072  85.1852635  29.9271484
  76.5733081  85.3631234  30.1211531  75.6179655  84.2408680  29.7751183
  73.9534296  79.0584865   8.4025712  73.0465752  78.7617978   8.4788426
  74.2310277  78.7614683   7.5359999  68.6492144  83.0953670  22.5694265
  68.8678154  84.0270777  22.5882299  69.0617918  82.7361644  23.3549069
  75.5696362  73.6021755  14.5569954  74.7597090  73.2568840  14.9325200
  76.2580779  73.2929299  15.1457565  77.4986910  72.6799802  16.1794250
  78.0517949  73.0995255  16.8384273  77.7356997  71.7535550  16.2217206
  72.7233081  75.9171800   8.5437692  73.5852245  76.2426699   8.8033509
  72.9083425  75.1303296   8.0310757  80.8765717  74.7900327  15.6872915
  80.2964386  75.4485131  15.3050967  80.6101650  73.9677671  15.2760332
  79.3269284  74.1905385  17.8894235  79.8269062  74.3021919  17.0808554
  79.9704892  73.8866437  18.5295043  73.3851280  82.0984014  30.7762076
  72.9018361  82.8984374  30.9825965  73.4712219  82.1091959  29.8229520
  66.6537239  83.9312394  18.6983895  66.6307927  84.0300081  17.7465778
  66.9637876  84.7777545  19.0201061  69.3124617  85.9888549  22.8130510
  70.2667871  85.9572491  22.7460441  69.1137141  85.5279173  23.6280736
  69.9023999  84.5589665  25.3801307  70.7216888  85.0533744  25.4036145
  70.1760807  83.6421633  25.3518875  79.6590595  76.9500417  14.7429263
  78.7716450  77.2350068  14.5249458  80.0744584  76.7894181  13.8956540
  83.0105131  76.9746938  18.4583602  83.7865522  77.4643391  18.7308219
  82.2853266  77.4004992  18.9155472  85.4477690  77.6874557  19.5157543
  86.0422181  77.4470293  18.8050851  85.5204274  76.9681688  20.1431079
  67.6674846  91.5308168  19.8300707  67.5329314  90.7708569  19.2638706
  67.2506908  92.2549068  19.3629496  79.6331619  82.4654953  14.9579553
  79.5766821  82.9223505  14.1187185  80.1859962  81.7045638  14.7802396
  83.4436425  78.2544685  15.7829672  83.1873359  77.8541321  16.6137880
  82.8189293  78.9688479  15.6579812  87.7548763  80.9940758  18.2900964
  87.1948321  81.0633948  19.0632526  87.1492266  80.8181743  17.5700460
  70.8243972  92.4277485  20.0419150  70.7076356  93.3722918  19.9397840
  70.0036418  92.1251047  20.4304949  80.3666398  83.6559734  12.2532082
  80.3115202  83.4904006  11.3120526  79.7412454  84.3635767  12.4094272
  77.6812306  85.9608646  31.5785645  78.5503465  86.1349299  31.2172280
  77.2019057  86.7803063  31.4561374  73.6762524  73.1567843  11.8317401
  73.6641194  74.1009683  11.9885671  74.5685946  72.9737989  11.5376862
  71.8498486  93.0805747  23.2575079  72.7525733  93.1129358  23.5741574
  71.6235856  92.1506198  23.2721414  73.6052088  91.8336734  19.9185157
  72.6547719  91.8338595  19.8049529  73.9084574  91.0869468  19.4021192
  77.4914643  69.7510620  16.0863337  76.7247039  69.1969107  16.2320020
  77.9025348  69.8232489  16.9477489  86.1494488  97.6224700  20.9192444
  85.8112999  97.5065765  20.0312979  87.0184256  97.2215865  20.8993450
  86.6314271  98.7759552  26.8778650  86.6202911  98.3812350  26.0059153
  86.7934910  98.0425625  27.4712421  83.3521532 101.5596664  25.8257834
  83.0611398 102.4642295  25.7104500  83.9878516 101.6013191  26.5401903
  84.2777739  98.9373512  22.4159193  84.8741311  98.7129535  21.7016156
  84.3352710  98.1958258  23.0184641  91.8179897  89.0445533  23.4211715
  91.4863222  89.9140944  23.1972930  91.2225511  88.7281817  24.1005745
  81.7623898  97.6971876  18.8544332  80.8374395  97.5648090  19.0622024
  82.0108312  98.4766095  19.3514274  91.7108561  93.7640620  20.5005065
  90.8025438  93.6956028  20.2063826  91.6596156  94.2412565  21.3286890
  79.1232709  97.3405150  19.6888121  79.2525091  97.5939629  20.6027533
  78.4430161  97.9332858  19.3692776  85.7849426  95.1830265  28.4439962
  85.0082760  95.7424185  28.4342827  86.4239989  95.6687048  28.9654832
  93.5770207  91.9657058  22.2782939  92.9344587  92.2589591  21.6322733
  93.0725136  91.8509978  23.0836135  84.0395799  97.9915719  28.0057929
  84.7810483  98.5300762  27.7292753  83.3332784  98.6182007  28.1629481
  89.5151138 100.1344859  26.6030091  89.9234494  99.6927270  25.8584723
  88.7928400  99.5597487  26.8564283  85.8682208  95.0717466  23.9763647
  86.7143404  95.4956879  24.1198296  85.8080846  94.4151090  24.6702211
  89.0181654  92.7321834  25.6344821  88.7742586  93.4863895  25.0979097
  89.2941584  93.1107182  26.4692068  90.9720116  99.2760446  24.3122087
  91.1837012  99.9192206  23.6356468  90.9249865  98.4422763  23.8444017
  88.5746345  91.8878267  21.2158659  87.7130824  92.1859521  21.5075396
  88.6008780  92.1048666  20.2839691  82.7757162  95.1455367  28.8073239
  82.1455823  95.8271648  29.0408636  82.6693250  95.0338448  27.8626377
  78.0702135  94.8127163  19.7339163  77.2801189  95.0684691  19.2579274
  78.5613382  95.6275501  19.8391204  85.8522548 101.7016445  24.6405155
  85.9166980 102.1636852  25.4763326  85.1433472 101.0713810  24.7687464
  76.3539838  95.0657653  22.1654154  76.6047876  95.9504663  22.4311730
  76.8899386  94.8862255  21.3929246  82.0537905  89.4476133  31.1698490
  81.6604851  88.8942331  31.8446134  82.8704045  89.7586711  31.5605008
  84.9705866  90.8634012  28.7618747  85.7115580  91.4641165  28.6823209
  85.2023789  90.1211649  28.2036789  80.1147204  96.0490379  27.0396976
  80.0000719  95.1475636  27.3404075  79.2591722  96.2954076  26.6881793
  87.1939042 103.9908119  28.6384477  86.7502896 103.2044498  28.3205381
  87.8556255 104.1787270  27.9728368  89.2920280 104.2710919  26.6665878
  89.2738755 105.0919800  26.1746147  90.2140200 104.1464994  26.8916019
  85.7493334 101.7855049  27.5089387  86.2821671 101.0243337  27.2788695
  85.2207415 101.4928700  28.2513541  88.9163029  86.8915115  23.0383028
  88.5727298  87.7816756  22.9622139  89.2841992  86.7016772  22.1752613
  87.9959569  89.2619770  21.0032262  87.4924365  89.2249905  20.1900067
  88.2890176  90.1712512  21.0628918  84.2402455  89.3458499  20.0098443
  85.1055452  89.1501308  19.6504333  84.3079964  89.1168851  20.9367800
  81.8464774  91.5760707  17.3814810  82.4208526  91.3535889  16.6488003
  82.4335757  91.6449402  18.1343411  84.1487442  88.4501956  16.1089880
  83.4951854  88.1350973  15.4846494  84.1067916  87.8277697  16.8349702
  87.3825183  94.9383890  20.4337527  86.4647744  95.1598837  20.2759215
  87.7985326  95.0130200  19.5749235  90.7150695  86.1508674  18.1400766
  91.0209572  85.2906037  17.8526681  91.4403300  86.7426294  17.9399760
  77.0075051  96.5539360  16.5282364  76.8099451  95.9608721  15.8033431
  76.4521715  96.2491571  17.2458303  88.5238346  95.5281351  25.2382230
  88.8787734  95.7552824  26.0976696  89.1710477  95.8599728  24.6159485
  82.4178209  92.6357882  22.0228571  83.0577588  92.4946641  21.3251534
  81.5855740  92.3492395  21.6467173  79.4206826  92.6058207  16.8001558
  79.6813643  93.5203540  16.6910718  80.2423998  92.1382650  16.9498171
  80.8931751  94.0195964  23.9700382  81.5654804  93.8113326  23.3213031
  80.0661537  93.8218050  23.5305615  86.7957323  90.6457905  25.9866043
  86.1485238  91.3447855  25.8930520  87.5658338  91.0794049  26.3542291
  90.2036121 100.9106757  29.0616596  90.0521627 100.6817309  28.1446680
  90.1940800 101.8677359  29.0747941  86.9721457  98.4838670  24.0462863
  87.9013517  98.6349830  23.8731830  86.5512487  98.5722691  23.1911509
  81.2959248  97.2938567  24.7302819  81.1579046  96.5618806  25.3314358
  82.2064172  97.2047467  24.4487007  83.9241549  97.0058527  24.2186499
  84.6341167  96.3651719  24.1773117  83.8810857  97.2571421  25.1412680
  82.6370483  93.9923744  26.0382139  82.1007840  93.5414483  26.6903735
  82.0487191  94.1269653  25.2952603  91.9145735 101.9065464  25.3707058
  91.0272514 101.5691386  25.4933457  92.4844286 101.1748495  25.6075823
  73.5674882  98.2389556  18.6950109  74.2545922  97.9251286  18.1071125
  73.4123011  99.1430920  18.4217361  78.3709604  93.1279752  23.1235133
  78.2867793  92.5205422  22.3885543  77.5492310  93.6188770  23.1244629
  88.5433318  91.6133316  18.4905328  89.0402017  90.8603278  18.1706398
  87.7720299  91.6497632  17.9248537  85.1268287  93.7550699  18.2177013
  84.7566074  93.2021739  18.9057918  85.6227379  93.1508832  17.6652013
  82.9557485 104.2148194  25.3132031  83.6566945 104.8484677  25.4661425
  82.4852600 104.5562925  24.5527670  90.9852313  88.5802909  20.6384687
  90.0715393  88.8107136  20.8066894  91.4145414  88.6641353  21.4898719
  90.7558771  96.7692801  23.1384581  90.1030221  97.0168709  22.4837034
  91.1339151  95.9556939  22.8047058  86.8046344  97.5112612  29.6250618
  86.1286981  97.4106742  30.2952993  87.6273978  97.3551826  30.0886615
  78.5525203 103.7484549  22.2463133  79.1378640 103.0028237  22.3791038
  78.3550042 104.0588505  23.1299797  73.1442858  96.3190149  20.9667576
  73.1826958  95.7853740  21.7604695  72.6383151  95.7925354  20.3478554
  80.5233620  91.1654689  24.4630119  80.5874947  92.0269520  24.0507516
  80.4600741  90.5528691  23.7302477  79.9985893  93.2377822  28.1103153
  80.6257932  92.8554899  28.7240677  79.1413812  93.0192024  28.4758846
  90.3980001 103.6440797  29.7156888  90.9419905 104.2570755  29.2211843
  89.8166846 104.2020376  30.2323901  80.3045683  93.1210248  20.0249056
  79.5832268  93.7346215  19.8856530  81.0938938  93.6568012  19.9465702
  83.1071996  90.4564674  26.2989708  83.6306398  90.7026971  27.0616018
  82.8884329  91.2884709  25.8792846  84.3124541  91.3978369  23.9839379
  83.9721362  90.5986182  24.3860059  83.6063547  91.6980080  23.4116212
  84.9641013  88.4827682  22.4366702  85.7867082  88.0088160  22.3145592
  85.2079077  89.2618165  22.9365388  82.4879592  95.1746802  20.2458680
  82.3424172  95.4887105  21.1382962  82.0104795  95.7931703  19.6929579
  84.3475975  92.1649350  20.2939570  84.3337543  91.2690444  19.9571868
  85.0648403  92.1720014  20.9277856  86.2002105  92.5986691  22.3392697
  85.9419883  93.5203761  22.3377028  85.6687146  92.2017125  23.0293161
  76.9625254  97.7152147  23.1846342  76.4178722  98.4911955  23.3166616
  77.8404604  98.0622951  23.0265463  86.6204061  88.7318641  18.6993860
  86.6425758  88.7957974  17.7445839  87.0372120  87.8923150  18.8934366
  77.7491276  96.8422043  26.0776498  77.0073012  96.9904678  26.6641129
  77.4284020  97.1030309  25.2143248  83.2353950  92.5595728  29.7717073
  83.2842106  93.4357851  29.3894842  83.7776464  92.0173121  29.1988716
  93.7208796 103.1036851  29.0518210  92.9304340 103.0860990  28.5122709
  93.4842150 103.6425145  29.8067246  93.8406671  99.9529318  26.3650938
  93.8904676  99.7879325  27.3066461  93.7320594  99.0856577  25.9748819
  91.1310433  95.9360246  27.6810245  92.0320296  95.7966710  27.3894243
  91.2058408  96.1014700  28.6208422  85.4653239  93.3127100  26.5263431
  84.5956548  93.6060666  26.2546020  85.7012719  93.8967545  27.2470695
  93.5912056  97.4958874  25.0773018  94.0666178  97.6886520  24.2691869
  92.6677621  97.5518060  24.8316401  88.1692272  89.5306717  24.0428852
  88.6874216  90.2667744  23.7175340  87.8147405  89.8370711  24.8775611
  88.4204867  85.9507000  19.5629748  88.7006620  85.2830189  20.1890175
  89.2055474  86.1436095  19.0504412  92.2913725  94.3724634  23.3101323
  93.2431148  94.4722731  23.3313547  92.1217175  93.5802902  23.8199408
  90.3128104  91.4580217  23.4960724  89.7178037  91.7385230  22.8007213
  90.0277801  91.9474118  24.2677465  94.9196291  94.3841797  22.4701906
  94.4035340  93.6000254  22.2831835  95.8036240  94.0560514  22.6348426
  92.5807018  88.1282813  18.4297719  92.3831839  87.8197901  19.3141051
  93.1906724  88.8544451  18.5595649  86.4923826 100.5144553  29.9271484
  87.4126836 100.6923152  30.1211531  86.4573409  99.5700598  29.7751183
  75.7105991  95.7083146  18.8524759  75.3908775  94.8548454  18.5599133
  75.1639419  95.9231724  19.6082726  79.4885899  98.4245587  22.5694265
  79.7071908  99.3562695  22.5882299  79.9011672  98.0653562  23.3549069
  88.3380665  88.0091719  16.1794250  88.8911703  88.4287173  16.8384273
  88.5750751  87.0827468  16.2217206  84.3613764  93.9978793  31.9597014
  84.2610491  94.9473150  31.8909105  84.1435306  93.6697032  31.0873084
  75.5794251  99.3286058  20.8217880  74.8857723  98.9140011  20.3087835
  76.3267242  99.3706594  20.2251299  84.2245034  97.4275932  30.7762076
  83.7412116  98.2276292  30.9825965  84.3105973  97.4383877  29.8229520
  77.4930994  99.2604312  18.6983895  77.4701682  99.3591999  17.7465778
  77.8031630 100.1069462  19.0201061  80.1518372 101.3180467  22.8130510
  81.1061625 101.2864409  22.7460441  79.9530895 100.8571090  23.6280736
  80.7417754  99.8881583  25.3801307  81.5610643 100.3825661  25.4036145
  81.0154561  98.9713551  25.3518875  75.9952668  94.2219716  26.0793504
  76.6411531  93.7118670  26.5680730  75.7869819  94.9588398  26.6536930
  88.5206060 101.2900564  31.5785645  89.3897220 101.4641216  31.2172280
  88.0412812 102.1094981  31.4561374  88.3308398  85.0802538  16.0863337
  87.5640794  84.5261024  16.2320020  88.7419103  85.1524407  16.9477489
  80.3350159  91.3687334  30.1768519  81.1981620  91.0124138  30.3871843
  79.7615570  91.0301228  30.8643923  92.8931660 104.7768050  31.1698490
  92.4998605 104.2234249  31.8446134  93.7097800 105.0878629  31.5605008
  95.2007518 109.3270711  31.9597014  95.1004245 110.2765068  31.8909105
  94.9829061 108.9988950  31.0873084  91.1743913 106.6979251  30.1768519
  92.0375375 106.3416056  30.3871843  90.6009324 106.3593146  30.8643923
  47.0404985  19.3335249  16.4402195  47.5844889  19.9465207  15.9457150
  46.4591830  19.8914827  16.9569208  50.3633779  18.7931303  15.7763516
  49.5729323  18.7755442  15.2368016  50.1267134  19.3319597  16.5312553
  45.1631043  16.9795016  18.3030952  46.0322203  17.1535668  17.9417586
  44.6837795  17.7989433  18.1806681  56.8223519  28.6883642   7.7076226
  57.4601929  28.5690389   7.0039566  56.7044362  29.6364486   7.7664178
  54.1133008  29.7945922  13.6023956  54.1021649  29.3998720  12.7304460
  54.2753648  29.0611994  14.1957728  50.8340270  32.5783033  12.5503140
  50.5430136  33.4828664  12.4349807  51.4697254  32.6199561  13.2647210
  51.7596476  29.9559882   9.1404500  52.3560049  29.7315904   8.4261463
  51.8171448  29.2144627   9.7429948  61.7773215  26.3510329   5.6862413
  62.5098387  25.7809546   5.9200242  61.0212570  25.9631929   6.1268918
  59.2998635  20.0631903  10.1457021  58.9681960  20.9327314   9.9218236
  58.7044248  19.7468187  10.8251052  55.7930155  32.2644449   9.5452934
  55.4930878  33.1669488   9.4368741  55.4481214  31.9976632  10.3974087
  50.7750934  39.0288769   2.5123902  50.6974964  39.9796594   2.5912382
  50.1712578  38.6834642   3.1698828  53.2668164  26.2016635  15.1685269
  52.4901498  26.7610555  15.1588133  53.9058727  26.6873418  15.6900139
  61.0588945  22.9843428   9.0028245  60.4163325  23.2775961   8.3568040
  60.5543873  22.8696348   9.8081442  51.5214536  29.0102088  14.7303236
  52.2629221  29.5487132  14.4538059  50.8151522  29.6368377  14.8874787
  56.9969876  31.1531229  13.3275397  57.4053232  30.7113639  12.5830030
  56.2747138  30.5783856  13.5809590  53.3500946  26.0903835  10.7008954
  54.1962141  26.5143249  10.8443603  53.2899584  25.4337460  11.3947517
  57.3198691  31.7132419   7.0827686  56.6907553  31.8778133   6.3803754
  56.9324353  32.1274029   7.8538650  61.1987923  32.6486857   4.4372050
  60.5138961  33.0285758   3.8869083  61.2831772  33.2582184   5.1703998
  56.5000392  23.7508204  12.3590128  56.2561323  24.5050264  11.8224403
  56.7760322  24.1293551  13.1937375  58.4538854  30.2946816  11.0367393
  58.6655750  30.9378576  10.3601774  58.4068603  29.4609133  10.5689323
  50.2575900  26.1641736  15.5318546  49.6274561  26.8458017  15.7653942
  50.1511988  26.0524818  14.5871684  59.5684682  33.1718771   9.2089751
  60.3902126  32.7698959   8.9272432  59.5647085  33.0687006  10.1605866
  53.3341286  32.7202815  11.3650461  53.3985718  33.1823222  12.2008633
  52.6252210  32.0900180  11.4932771  67.6590675  29.5157520   5.5574722
  66.9054384  28.9464918   5.4018727  67.7938216  29.4820184   6.5045357
  49.5356643  20.4662502  17.8943797  49.1423589  19.9128701  18.5691441
  50.3522783  20.7773081  18.2850314  52.4524604  21.8820381  15.4864053
  53.1934317  22.4827534  15.4068516  52.6842527  21.1398019  14.9282096
  47.5965942  27.0676748  13.7642283  47.4819457  26.1662006  14.0649382
  46.7410460  27.3140445  13.4127100  54.6757780  35.0094489  15.3629784
  54.2321634  34.2230867  15.0450688  55.3374993  35.1973639  14.6973674
  49.4344901  36.5390290   9.8890462  49.9852326  36.4107354   9.1167456
  48.5956377  36.8385179   9.5385355  56.7739018  35.2897289  13.3911185
  56.7557493  36.1106170  12.8991454  57.6958938  35.1651364  13.6161326
  53.2312072  32.8041418  14.2334693  53.7640409  32.0429706  14.0034001
  52.7026153  32.5115070  14.9758848  59.5757631  30.1276431   6.8620552
  58.9181305  30.8175693   6.9500680  60.3798030  30.5172863   7.2054538
  59.1524886  33.4626805   3.0403636  58.6987213  32.6217715   3.0968826
  58.5218852  34.0988204   3.3778416  57.5957825  35.3003302   3.9753454
  57.8880799  35.8608359   3.2565820  58.1056445  35.5931863   4.7306613
  52.5591450  36.0783653   5.0646907  52.5167629  36.3044499   4.1355439
  53.4754149  35.8447028   5.2132708  56.0057084  26.5467721  11.9627536
  56.3606472  26.7739194  12.8222002  56.6529215  26.8786097  11.3404792
  61.7624200  31.7362684   7.6788137  62.1960707  31.6437973   8.5271191
  62.4755781  31.7120184   7.0408153  55.4952095  35.3364778   9.2121238
  55.5489118  35.9055714   9.9798954  54.6266877  35.5066663   8.8475275
  62.6239750  31.7786384  10.2121022  62.8175640  32.6832195  10.4580297
  62.5240368  31.3193803  11.0459607  54.2776061  21.6644275  12.7111350
  53.6303976  22.3634224  12.6175826  55.0477076  22.0980419  13.0787598
  57.6854859  31.9293127  15.7861903  57.5340365  31.7003679  14.8691987
  57.6759538  32.8863728  15.7993248  54.4540195  29.5025040  10.7708169
  55.3832255  29.6536199  10.5977137  54.0331225  29.5909060   9.9156816
  53.2528527  33.5275704   8.5406707  53.1139613  33.1594488   9.4132645
  52.4643123  34.0423343   8.3690665  54.8033742  32.9057307   5.9295545
  54.4683575  32.8658077   6.8253195  54.3037688  32.2402023   5.4565955
  48.7777986  28.3124937  11.4548126  48.6397784  27.5805176  12.0559665
  49.6882909  28.2233837  11.1732314  51.4060287  28.0244896  10.9431806
  52.1159905  27.3838088  10.9018424  51.3629595  28.2757791  11.8657986
  59.3947065  34.9612249  13.8638385  59.3359611  34.2771470  13.1968968
  59.7966584  35.7031239  13.4119011  50.1189221  25.0110114  12.7627445
  49.5826578  24.5600852  13.4149041  49.5305929  25.1456023  12.0197910
  48.4137764  41.7774163   6.6572104  48.6534362  42.4092687   7.3351122
  47.5706961  41.4262203   6.9437463  59.3964473  32.9251833  12.0952365
  58.5091251  32.5877755  12.2178763  59.9663024  32.1934865  12.3321130
  52.9265626  37.5853286   9.0613608  52.8535797  38.3908257   9.5732912
  52.4843019  37.7845252   8.2361629  63.8781813  28.3360051   6.8568926
  63.8671689  29.2184766   6.4862859  63.0099193  27.9831602   6.6623463
  55.3864310  37.4840120  11.2171766  56.0992282  38.1187585  11.1447668
  54.8954338  37.5803986  10.4011768  50.4376223  35.2334563  12.0377337
  51.1385683  35.8671046  12.1906731  49.9671338  35.5749295  11.2772977
  58.2377509  27.7879171   9.8629888  57.5848959  28.0355078   9.2082340
  58.6157889  26.9743309   9.5292365  55.1984683  37.8238864   3.9658058
  55.3807077  37.0060520   4.4285810  56.0217669  38.0406556   3.5282948
  54.2865082  28.5298982  16.3495925  53.6105719  28.4293111  17.0198300
  55.1092716  28.3738195  16.8131922  46.0343941  34.7670918   8.9708440
  46.6197378  34.0214606   9.1036344  45.8368780  35.0774875   9.8545104
  53.0287865  39.8365909  10.5853541  53.5806173  39.9997531  11.3502626
  53.3694058  40.4270347   9.9133566  47.4804631  24.2564192  14.8348460
  48.1076669  23.8741269  15.4485984  46.6232550  24.0378393  15.2004152
  57.8798739  34.6627167  16.4402195  58.4238643  35.2757125  15.9457150
  57.2985584  35.2206745  16.9569208  56.1656252  37.7847885   7.5717223
  56.0407392  36.9837625   7.0628168  56.8235343  38.2794078   7.0831193
  58.2291161  35.5856905   9.1996773  57.2821496  35.4662256   9.1275100
  58.5773934  34.6979403   9.2823034  50.5890734  21.4751044  13.0235015
  51.1125136  21.7213340  13.7861324  50.3703067  22.3071079  12.6038152
  55.2337594  35.3809621   5.4001125  55.0862556  34.4526328   5.5808695
  56.0591087  35.4029712   4.9158200  58.8371716  36.2038180   6.4865998
  59.7618263  35.9981041   6.3490449  58.6687019  35.9554581   7.3955339
  58.6267032  36.7223847   1.8428089  58.8003909  36.1570270   1.0901942
  59.1195923  37.5224742   1.6607579  64.4806423  29.4860270   3.4618389
  64.9237569  28.7367595   3.0637512  63.6032933  29.4770407   3.0792121
  45.2310014  27.8608413  12.8021805  44.4891750  28.0091048  13.3886435
  44.9102758  28.1216678  11.9388554  53.1753676  37.4024391  12.6002195
  53.4840803  37.1573538  13.4724895  53.9729158  37.6071029  12.1121065
  53.1974288  39.5562300   4.8307572  52.7579279  39.0638679   5.5240428
  53.9482405  39.0135268   4.5899647  50.6448160  35.1000310   6.9029873
  50.0228170  34.4371015   6.6032101  51.3153027  35.1261441   6.2203521
  50.7172688  23.5782098  16.4962379  50.7660843  24.4544220  16.1140149
  51.2595202  23.0359491  15.9234023  61.2027534  34.1223221  15.7763516
  60.4123077  34.1047360  15.2368016  60.9660888  34.6611514  16.5312553
  61.3225409  30.9715687  13.0896245  61.3723414  30.8065695  14.0311768
  61.2139332  30.1042946  12.6994126  58.6129171  26.9546615  14.4055552
  59.5139034  26.8153080  14.1139549  58.6877146  27.1201070  15.3453729
  52.9471976  24.3313470  13.2508738  52.0775286  24.6247036  12.9791326
  53.1831457  24.9153915  13.9716002  62.8243605  33.3912629  13.3338266
  62.5328414  33.7542609  14.1701727  62.2115737  32.6779637  13.1551599
  64.0239288  30.9565508   5.8540837  64.8586179  31.3955313   6.0178397
  64.1598417  30.4804162   5.0349082  61.0730794  28.5145243  11.8018324
  61.5484915  28.7072890  10.9937176  60.1496359  28.5704429  11.5561708
  59.7732463  25.3911003  10.0346630  60.7249886  25.4909101  10.0558854
  59.6035913  24.5989272  10.5444714  57.7946842  22.4766587  10.2206031
  57.1996774  22.7571599   9.5252520  57.5096539  22.9660488  10.9922772
  62.2520541  28.6117123   9.1488930  62.2196861  27.6733124   9.3348614
  62.8621164  28.6901160   8.4154755  62.4015029  25.4028167   9.1947213
  61.8854078  24.6186623   9.0077142  63.2854978  25.0746883   9.3593732
  68.0697090  29.6733130   8.2894966  68.8000479  29.4118418   8.8502670
  67.4604036  28.9361852   8.3297034  66.1512387  27.8140993   8.8869418
  65.4245551  27.6796957   8.2785909  65.7359674  28.1217821   9.6926136
  53.9742564  31.5330922  16.6516791  54.8945573  31.7109521  16.8456837
  53.9392147  30.5886968  16.4996490  51.8432502  25.0165163  18.6842321
  51.7429229  25.9659520  18.6154412  51.6254044  24.6883402  17.8118391
  51.7063772  28.4462301  17.5007382  51.2230854  29.2462662  17.7071271
  51.7924711  28.4570246  16.5474826  47.6337109  32.3366836   9.5375816
  48.5880363  32.3050778   9.4705748  47.4349633  31.8757460  10.3526042
  48.2236491  30.9067952  12.1046614  49.0429380  31.4012031  12.1281451
  48.4973299  29.9899920  12.0764181  45.9887338  37.8786456   6.5546014
  45.8541806  37.1186857   5.9884012  45.5719400  38.6027355   6.0874803
  66.0761255  27.3419046   5.0146270  65.5160813  27.4112235   5.7877833
  65.4704759  27.1660030   4.2945767  49.1456464  38.7755773   6.7664457
  49.0288848  39.7201205   6.6643147  48.3248910  38.4729334   7.1550256
  56.0024798  32.3086934  18.3030952  56.8715957  32.4827586  17.9417586
  55.5231549  33.1281350  18.1806681  50.1710978  39.4284035   9.9820385
  51.0738225  39.4607645  10.2986880  49.9448348  38.4984486   9.9966721
  51.9264580  38.1815021   6.6430464  50.9760211  38.1816883   6.5294836
  52.2297066  37.4347756   6.1266498  47.8168897  22.3873703  16.9013825
  48.6800358  22.0310508  17.1117150  47.2434307  22.0487598  17.5889229
  67.6617274  44.0175559   7.7076226  68.2995684  43.8982307   7.0039566
  67.5438116  44.9656403   7.7664178  64.4706980  43.9702988   7.6437751
  64.1325491  43.8544052   6.7558286  65.3396748  43.5694153   7.6238757
  60.3293796  45.8238464   3.6334642  59.7658661  45.7328401   2.8650930
  60.2146191  45.0038368   4.1137134  64.9526763  45.1237839  13.6023956
  64.9415404  44.7290638  12.7304460  65.1147402  44.3903912  14.1957728
  57.8758228  47.3189656   6.4718862  58.6679519  46.9780480   6.0565162
  58.1154878  47.4284631   7.3921016  65.9093354  49.4909432  -1.0550893
  65.2581334  50.0763512  -1.4416879  66.7037717  50.0215627  -0.9955856
  59.8348981  46.5798569  -0.6563759  60.6079857  46.0327556  -0.7950883
  60.1874380  47.4442818  -0.4449298  61.6734024  47.9074951  12.5503140
  61.3823890  48.8120582  12.4349807  62.3091008  47.9491479  13.2647210
  62.5990231  45.2851800   9.1404500  63.1953803  45.0607822   8.4261463
  62.6565202  44.5436545   9.7429948  62.1715259  42.7391235  -3.0245309
  62.4240780  42.2172756  -3.7861846  61.2339818  42.5757380  -2.9218625
  67.2158542  41.7427013   4.7829434  68.0021631  41.3246437   4.4319851
  67.4797246  42.6473106   4.9511083  67.3868619  47.1799864  -0.5181909
  66.7514452  47.2534490   0.1938996  67.0566026  47.7693462  -1.1962830
  72.6166969  41.6802247   5.6862413  73.3492141  41.1101463   5.9200242
  71.8606325  41.2923847   6.1268918  61.8911548  44.6419341  -0.8220934
  61.7747806  43.9664244  -0.1539850  62.0013808  44.1551715  -1.6388781
  64.2343089  44.1029488   2.8825755  63.8701296  43.5760109   3.5938677
  65.0910205  43.7127957   2.7092241  70.1392390  35.3923821  10.1457021
  69.8075714  36.2619232   9.9218236  69.5438003  35.0760105  10.8251052
  66.6323909  47.5936367   9.5452934  66.3324632  48.4961405   9.4368741
  66.2874969  47.3268550  10.3974087  60.0836391  44.0450163   5.5789639
  59.1586887  43.9126378   5.7867330  60.3320804  44.8244383   6.0759581
  70.0321053  40.1118907   7.2250371  69.1237930  40.0434315   6.9309132
  69.9808649  40.5890852   8.0532197  63.8537797  41.5877045  -1.1366229
  63.7337422  42.0334096  -0.2980749  63.1590385  41.9362363  -1.6952691
  57.4445202  43.6883437   6.4133428  57.5737583  43.9417916   7.3272839
  56.7642653  44.2811145   6.0938083  61.6144689  54.3580687   2.5123902
  61.5368719  55.3088512   2.5912382  61.0106332  54.0126559   3.1698828
  64.1061919  41.5308552  15.1685269  63.3295253  42.0902473  15.1588133
  64.7452482  42.0165335  15.6900139  71.8982699  38.3135345   9.0028245
  71.2557080  38.6067878   8.3568040  71.3937628  38.1988266   9.8081442
  69.5522863  42.0598518  -0.3085895  70.4640719  42.2925905  -0.4838198
  69.0432510  42.6435563  -0.8710817  62.3608291  44.3394006  14.7303236
  63.1022975  44.8779050  14.4538059  61.6545276  44.9660295  14.8874787
  67.8363631  46.4823146  13.3275397  68.2446987  46.0405557  12.5830030
  67.1140892  45.9075774  13.5809590  64.1894701  41.4195753  10.7008954
  65.0355896  41.8435167  10.8443603  64.1293338  40.7629377  11.3947517
  68.1592445  47.0424337   7.0827686  67.5301308  47.2070051   6.3803754
  67.7718107  47.4565946   7.8538650  72.0381677  47.9778775   4.4372050
  71.3532715  48.3577676   3.8869083  72.1225526  48.5874101   5.1703998
  67.3394146  39.0800121  12.3590128  67.0955078  39.8342182  11.8224403
  67.6154076  39.4585469  13.1937375  69.2932609  45.6238734  11.0367393
  69.5049504  46.2670494  10.3601774  69.2462357  44.7901050  10.5689323
  66.8958838  38.2356554   7.9403965  66.0343317  38.5337808   8.2320703
  66.9221272  38.4526953   7.0084998  63.7120407  46.7798745   4.3477771
  64.1758753  47.0586448   3.5582394  63.4477205  45.8782190   4.1650862
  60.6044488  46.3270226   7.2857534  61.1745845  46.7557495   6.6475019
  61.1952600  46.0452811   7.9841720  62.6489293  42.9021897   1.1567336
  63.3513337  43.3542941   1.6241263  62.3169922  42.2605716   1.7847229
  61.0969655  41.4933654  15.5318546  60.4668315  42.1749935  15.7653942
  60.9905743  41.3816736  14.5871684  56.3914627  41.1605450   6.4584470
  55.6013681  41.4162979   5.9824580  56.8825875  41.9753788   6.5636510
  70.4078437  48.5010689   9.2089751  71.2295880  48.0990876   8.9272432
  70.4040840  48.3978923  10.1605866  58.3429373  41.5250029   3.4167947
  57.5460536  41.6368723   3.9351442  58.1154965  41.8636681   2.5508837
  64.1735040  48.0494732  11.3650461  64.2379473  48.5115140  12.2008633
  63.4645964  47.4192097  11.4932771  54.6752330  41.4135940   8.8899461
  54.9260369  42.2982950   9.1557037  55.2111879  41.2340542   8.1174552
  78.4984430  44.8449438   5.5574722  77.7448138  44.2756836   5.4018727
  78.6331971  44.8112102   6.5045357  63.8883058  49.7162840   1.2329441
  63.7528733  50.5614376   1.6614289  64.4292870  49.9182118   0.4695375
  60.3750397  35.7954420  17.8943797  59.9817343  35.2420618  18.5691441
  61.1916538  36.1064998  18.2850314  57.3412455  47.2338278   1.8057367
  57.8536976  48.0281528   1.9562931  57.9935168  46.5364568   1.7390968
  59.1507340  50.3504034   3.8880120  59.3273968  51.2721999   3.7001104
  59.9464173  50.0362453   4.3174500  63.2918358  37.2112299  15.4864053
  64.0328072  37.8119452  15.4068516  63.5236281  36.4689937  14.9282096
  58.4359696  42.3968666  13.7642283  58.3213212  41.4953923  14.0649382
  57.5804214  42.6432363  13.4127100  65.5151534  50.3386406  15.3629784
  65.0715388  49.5522785  15.0450688  66.1768748  50.5265557  14.6973674
  60.2738655  51.8682208   9.8890462  60.8246080  51.7399271   9.1167456
  59.4350131  52.1677097   9.5385355  67.6132772  50.6189206  13.3911185
  67.5951248  51.4398087  12.8991454  68.5352692  50.4943282  13.6161326
  64.0705826  48.1333336  14.2334693  64.6034163  47.3721624  14.0034001
  63.5419908  47.8406988  14.9758848  67.2375521  33.2393402   9.7628335
  66.8939791  34.1295044   9.6867446  67.6054484  33.0495059   8.8997920
  55.3061372  45.5626932   2.5816937  56.1436594  45.9723941   2.3650645
  55.4839640  44.6226374   2.5517131  67.2025804  43.2302013  -1.7299230
  66.6872428  44.0006618  -1.4910843  66.9303113  42.5567149  -1.1066168
  64.7872915  38.0751714   3.3286008  63.9314511  37.6858564   3.1491647
  65.1999867  38.1543675   2.4685794  66.3172062  35.6098057   7.7277568
  65.8136857  35.5728192   6.9145374  66.6102669  36.5190800   7.7874225
  62.5614948  35.6936787   6.7343750  63.4267944  35.4979595   6.3749639
  62.6292457  35.4647138   7.6613107  72.1760078  45.9834368   0.2053944
  71.3989521  45.6445527  -0.2390894  72.8551559  45.9886991  -0.4691091
  66.9912107  41.1029105   0.0960551  66.6862243  41.4175254   0.9470694
  67.9442549  41.1810525   0.1387884  65.4358539  47.2619328   1.7453505
  64.9079901  46.5272088   1.4326743  64.9346042  48.0394005   1.4993474
  70.4151385  45.4568349   6.8620552  69.7575060  46.1467610   6.9500680
  71.2191784  45.8464781   7.2054538  60.1677267  37.9238995   4.1060117
  60.7421019  37.7014176   3.3733310  60.7548249  37.9927689   4.8588718
  69.2256844  43.8112722   4.9124493  69.7388726  44.4442713   5.4146203
  69.8758068  43.2113917   4.5467853  62.4699934  34.7980244   2.8335186
  61.8164347  34.4829261   2.2091801  62.4280409  34.1755984   3.5595009
  63.5811139  45.0799539  -5.2511522  62.6738201  44.8488792  -5.0520373
  64.0782171  44.2837158  -5.0637540  66.4879218  53.7897046  -2.3314836
  65.8140917  54.0928743  -1.7229878  66.8745040  54.5926126  -2.6809379
  65.7037675  41.2862177   7.1582834  64.7860236  41.5077124   7.0004522
  66.1197818  41.3608488   6.2994541  66.4872723  42.6853593   2.2885514
  67.2344542  43.1974990   1.9792636  66.7564312  42.3637645   3.1489908
  64.7599373  45.1812133  -0.7287532  63.8510592  44.8971166  -0.6315062
  64.7894457  45.6011212  -1.5884225  69.9918640  48.7918723   3.0403636
  69.5380967  47.9509633   3.0968826  69.3612607  49.4280121   3.3778416
  68.9351560  39.7210709   4.2704303  68.1974317  39.2088095   4.6014546
  69.1878333  39.2811091   3.4587580  68.4351579  50.6295220   3.9753454
  68.7274554  51.1900277   3.2565820  68.9450200  50.9223781   4.7306613
  69.0363187  32.4986961   4.8646073  69.3422064  31.6384324   4.5771988
  69.7615792  33.0904581   4.6645067  55.3287543  42.9017648   3.2527671
  55.1311943  42.3087008   2.5278737  54.7734207  42.5969858   3.9703609
  63.3084267  42.7940754   5.3722264  63.3632877  41.8414590   5.2964740
  62.4975469  42.9500193   5.8563562  64.4575461  46.7220877  -3.3899453
  64.0194890  46.0056736  -3.8493816  65.1985901  46.9496992  -3.9514362
  61.2476627  41.4117814   3.1312643  60.4344492  41.7111984   3.5377835
  61.7435621  41.0173503   3.8487125  63.3985205  51.4075571   5.0646907
  63.3561383  51.6336417   4.1355439  64.3147903  51.1738945   5.2132708
  66.8450838  41.8759638  11.9627536  67.2000226  42.1031111  12.8222002
  67.4922970  42.2078015  11.3404792  72.5748575  44.9978074   2.6676866
  72.4366474  45.1879670   1.7398055  72.2184794  45.7597457   3.1244917
  60.7390701  38.9836169   8.7473878  61.3790081  38.8424928   8.0496841
  59.9068232  38.6970683   8.3712480  72.6017955  47.0654601   7.6788137
  73.0354462  46.9729890   8.5271191  73.3149536  47.0412102   7.0408153
  61.5151005  48.2838600   4.8608870  62.3091604  47.7888920   4.6591445
  60.8042698  47.7556463   4.4976576  66.3345850  50.6656695   9.2121238
  66.3882872  51.2347632   9.9798954  65.4660631  50.8358580   8.8475275
  57.8233769  42.4281681   0.9368623  56.8931357  42.3666137   1.1538585
  57.9191241  41.9057634   0.1405264  57.7419318  38.9536494   3.5246864
  58.0026135  39.8681828   3.4156025  58.5636490  38.4860937   3.6743477
  59.2144243  40.3674252  10.6945689  59.8867297  40.1591614  10.0458338
  58.3874030  40.1696337  10.2550921  73.4633504  47.1078302  10.2121022
  73.6569395  48.0124112  10.4580297  73.3634123  46.6485721  11.0459607
  65.1169815  36.9936192  12.7111350  64.4697730  37.6926142  12.6175826
  65.8870831  37.4272336  13.0787598  68.5248613  47.2585045  15.7861903
  68.3734120  47.0295596  14.8691987  68.5153293  48.2155646  15.7993248
  65.2933950  44.8316957  10.7708169  66.2226010  44.9828117  10.5977137
  64.8724980  44.9200978   9.9156816  64.0922281  48.8567622   8.5406707
  63.9533367  48.4886406   9.4132645  63.3036878  49.3715261   8.3690665
  64.6870433  53.9576718  -0.1167756  64.8622189  53.4864761   0.6977866
  64.0003221  54.5842484   0.1113504  65.6427497  48.2349224   5.9295545
  65.3077329  48.1949994   6.8253195  65.1431442  47.5693940   5.4565955
  59.6171740  43.6416854  11.4548126  59.4791538  42.9097093  12.0559665
  60.5276664  43.5525755  11.1732314  68.5786688  45.5805259  -3.7967395
  67.9615859  44.8552087  -3.8934343  68.1103177  46.3414619  -4.1400321
  62.2454041  43.3536814  10.9431806  62.9553660  42.7130006  10.9018424
  62.2023349  43.6049709  11.8657986  70.2340820  50.2904167  13.8638385
  70.1753366  49.6063387  13.1968968  70.6360338  51.0323157  13.4119011
  60.9582975  40.3402032  12.7627445  60.4220332  39.8892770  13.4149041
  60.3699684  40.4747941  12.0197910  59.2531519  57.1066081   6.6572104
  59.4928117  57.7384605   7.3351122  58.4100715  56.7554121   6.9437463
  70.2358227  48.2543751  12.0952365  69.3485006  47.9169673  12.2178763
  70.8056778  47.5226782  12.3321130  51.8887374  44.5867843   5.4195416
  52.5758414  44.2729573   4.8316431  51.7335503  45.4909207   5.1462667
  56.6922096  39.4758039   9.8480440  56.6080285  38.8683709   9.1130850
  55.8704803  39.9667058   9.8489936  63.7659380  52.9145203   9.0613608
  63.6929552  53.7200175   9.5732912  63.3236774  53.1137169   8.2361629
  63.5549160  52.1516973   2.5716429  62.7716682  52.6938654   2.6654654
  64.2541905  52.6690953   2.9710670  66.8645810  37.9611603   5.2150635
  67.3614510  37.2081565   4.8951705  66.0932792  37.9975920   4.6493844
  74.7175568  43.6651968   6.8568926  74.7065444  44.5476684   6.4862859
  73.8492947  43.3123519   6.6623463  66.2258064  52.8132037  11.2171766
  66.9386036  53.4479502  11.1447668  65.7348093  52.9095903  10.4011768
  67.9475591  46.7183290   2.7889058  67.0131870  46.8384753   2.6193762
  68.1252259  45.8155757   2.5249068  63.4480779  40.1028986   4.9422319
  63.0778566  39.5500026   5.6303225  63.9439871  39.4987119   4.3897319
  71.3348142  42.5600609   3.3239092  71.8008594  43.3928601   3.2499395
  71.7855643  42.0945591   4.0284351  61.2769978  50.5626481  12.0377337
  61.9779437  51.1962964  12.1906731  60.8065093  50.9041212  11.2772977
  69.4024373  48.9044431   0.3225244  69.6784217  48.7901025   1.2319118
  68.5328872  48.5061916   0.2837417  69.3064805  34.9281196   7.3629994
  68.3927885  35.1585423   7.5312201  69.7357906  35.0119640   8.2144026
  69.0771263  43.1171088   9.8629888  68.4242714  43.3646996   9.2082340
  69.4551643  42.3035227   9.5292365  66.0378437  53.1530782   3.9658058
  66.2200832  52.3352437   4.4285810  66.8611423  53.3698474   3.5282948
  66.3720603  52.0798967   1.2273106  66.9008369  51.5691421   0.6143268
  66.6348822  51.7641497   2.0918639  65.1258837  43.8590899  16.3495925
  64.4499474  43.7585029  17.0198300  65.9486470  43.7030113  16.8131922
  56.8737696  50.0962836   8.9708440  57.4591132  49.3506524   9.1036344
  56.6762534  50.4066793   9.8545104  59.7276351  53.1314083   3.9870882
  59.0586726  53.6160211   3.5034922  59.5889221  53.3783304   4.9014261
  51.4655350  42.6668436   7.6912883  51.5039450  42.1332027   8.4850001
  50.9595643  42.1403642   7.0723860  63.8681619  55.1657827  10.5853541
  64.4199927  55.3289448  11.3502626  64.2087813  55.7562265   9.9133566
  58.8446113  37.5132977  11.1875425  58.9087439  38.3747808  10.7752823
  58.7813233  36.9006978  10.4547784  58.3198385  39.5856109  14.8348460
  58.9470424  39.2033187  15.4485984  57.4626304  39.3670311  15.2004152
  68.7192494  49.9919084  16.4402195  69.2632398  50.6049043  15.9457150
  68.1379339  50.5498663  16.9569208  55.0963928  41.3932538   0.7666814
  55.3917369  40.4843217   0.7133868  54.1951964  41.3720278   0.4447817
  67.0050007  53.1139802   7.5717223  66.8801146  52.3129542   7.0628168
  67.6629098  53.6085996   7.0831193  58.6258175  39.4688535   6.7494363
  57.9044761  40.0824503   6.6101836  59.4151431  40.0046300   6.6711009
  69.0684915  50.9148822   9.1996773  68.1215251  50.7954174   9.1275100
  69.4167688  50.0271321   9.2823034  61.4284488  36.8042961  13.0235015
  61.9518890  37.0505258  13.7861324  61.2096822  37.6362996  12.6038152
  56.8251769  39.0746636   0.8906140  56.4964476  38.1944015   0.7081246
  57.1791140  39.0194305   1.7782529  66.0731348  50.7101539   5.4001125
  65.9256311  49.7818246   5.5808695  66.8984842  50.7321629   4.9158200
  59.9393593  39.3619606   1.2581617  60.2789665  39.8905527   0.5360226
  60.3865713  39.7000012   2.0340184  69.6765470  51.5330097   6.4865998
  70.6012018  51.3272959   6.3490449  69.5080774  51.2846499   7.3955339
  62.6337033  37.7456657  10.7084685  62.2933854  36.9464470  11.1105365
  61.9276040  38.0458367  10.1361519  63.2853505  34.8305969   9.1612008
  64.1079575  34.3566447   9.0390899  63.5291569  35.6096453   9.6610695
  61.9261740  37.8594227  -0.5425090  62.6470102  38.2375480  -1.0461373
  61.3027044  38.5783104  -0.4390112  66.0692863  38.5639376   0.3933242
  66.2856477  39.4464014   0.0922071  65.5886930  38.1725590  -0.3361116
  60.8092084  41.5225090   6.9703987  60.6636665  41.8365393   7.8628268
  60.3317288  42.1409990   6.4174886  62.6688467  38.5127638   7.0184877
  62.6550036  37.6168731   6.6817174  63.3860895  38.5198301   7.6523163
  64.5214598  38.9464978   9.0638004  64.2632375  39.8682048   9.0622334
  63.9899638  38.5495412   9.7538468  69.4660786  52.0515765   1.8428089
  69.6397664  51.4862187   1.0901942  69.9589678  52.8516660   1.6607579
  55.2837746  44.0630434   9.9091648  54.7391214  44.8390242  10.0411922
  56.1617096  44.4101238   9.7510770  62.0725363  37.3942018   2.2872447
  62.1941274  36.4658664   2.4863334  61.7827405  37.4080704   1.3750762
  64.9416553  35.0796928   5.4239167  64.9638250  35.1436261   4.4691146
  65.3584612  34.2401437   5.6179673  75.3200178  44.8152188   3.4618389
  75.7631324  44.0659513   3.0637512  74.4426688  44.8062324   3.0792121
  70.4535959  51.3682529  -1.0575012  71.1486864  51.9889222  -0.8387698
  70.7959109  50.5177881  -0.7822634  56.0703768  43.1900330  12.8021805
  55.3285504  43.3382966  13.3886435  55.7496512  43.4508596  11.9388554
  72.3527382  48.8182235   0.4712318  72.8778706  49.1569508  -0.2538362
  72.2649735  47.8829250   0.2875453  64.0147431  52.7316308  12.6002195
  64.3234557  52.4865455  13.4724895  64.8122913  52.9362947  12.1121065
  64.0368043  54.8854218   4.8307572  63.5973033  54.3930597   5.5240428
  64.7876160  54.3427186   4.5899647  56.5160382  51.0765759   4.8332200
  57.3418402  50.7769531   4.4530843  56.1654434  50.3073381   5.2821988
  61.4841915  50.4292227   6.9029873  60.8621924  49.7662932   6.6032101
  62.1546782  50.4553359   6.2203521  54.7168987  48.9952085   5.7921133
  53.8800895  48.5674260   5.6105135  54.6892632  49.1884529   6.7291924
  61.5566442  38.9074015  16.4962379  61.6054598  39.7836138  16.1140149
  62.0988957  38.3651408  15.9234023  72.0421288  49.4515138  15.7763516
  71.2516832  49.4339277  15.2368016  71.8054643  49.9903432  16.5312553
  72.1619163  46.3007605  13.0896245  72.2117168  46.1357612  14.0311768
  72.0533086  45.4334864  12.6994126  61.0455422  48.9796151   0.3788334
  61.1943542  49.6631615  -0.2744993  61.8521865  48.9601241   0.8937790
  69.4522926  42.2838533  14.4055552  70.3532788  42.1444998  14.1139549
  69.5270900  42.4492988  15.3453729  63.7865731  39.6605388  13.2508738
  62.9169040  39.9538954  12.9791326  64.0225211  40.2445833  13.9716002
  73.6637360  48.7204546  13.3338266  73.3722168  49.0834527  14.1701727
  73.0509491  48.0071555  13.1551599  74.8633042  46.2857426   5.8540837
  75.6979934  46.7247230   6.0178397  74.9992171  45.8096079   5.0349082
  71.9124548  43.8437161  11.8018324  72.3878670  44.0364807  10.9937176
  70.9890114  43.8996347  11.5561708  58.8008055  45.0061328   1.3849403
  58.5554097  44.1023658   1.5829613  58.9703969  45.0078479   0.4428881
  66.4904765  35.8785005  10.7674158  67.0086709  36.6146031  10.4420647
  66.1359897  36.1848998  11.6020917  66.7417359  32.2985287   6.2875055
  67.0219113  31.6308476   6.9135481  67.5267966  32.4914383   5.7749719
  64.5450827  51.4744281  -2.1499919  63.9724794  52.0934468  -2.6029447
  65.1183621  52.0243643  -1.6159997  70.6126217  40.7202921  10.0346630
  71.5643640  40.8201019  10.0558854  70.4429668  39.9281190  10.5444714
  68.6340597  37.8058504  10.2206031  68.0390529  38.0863517   9.5252520
  68.3490293  38.2952405  10.9922772  67.7648087  51.7581431  -1.0191336
  68.6978760  51.6926993  -0.8158461  67.6771300  52.5937698  -1.4776804
  70.3936104  51.0747301  -4.0587389  70.3149735  50.7407165  -3.1651631
  71.2145771  51.5669069  -4.0595917  73.0914295  43.9409041   9.1488930
  73.0590615  43.0025041   9.3348614  73.7014919  44.0193077   8.4154755
  64.9297626  42.8105094  -4.8083866  65.8756731  42.6811302  -4.7395448
  64.5511871  42.0719756  -4.3314438  73.2408783  40.7320084   9.1947213
  72.7247832  39.9478541   9.0077142  74.1248732  40.4038801   9.3593732
  70.9019510  34.4761100   5.1543026  70.7044332  34.1676188   6.0386358
  71.5119216  35.2022739   5.2840955  78.9090845  45.0025048   8.2894966
  79.6394233  44.7410336   8.8502670  78.2997790  44.2653770   8.3297034
  76.9906142  43.1432910   8.8869418  76.2639306  43.0088875   8.2785909
  76.5753429  43.4509739   9.6926136  64.8136318  46.8622840  16.6516791
  65.7339328  47.0401439  16.8456837  64.7785901  45.9178885  16.4996490
  54.0318483  42.0561434   5.5770065  53.7121268  41.2026742   5.2844439
  53.4851912  42.2710012   6.3328033  57.8098391  44.7723875   9.2939572
  58.0284401  45.7040982   9.3127606  58.2224165  44.4131849  10.0794376
  64.7302609  35.2791960   1.2815260  63.9203337  34.9339045   1.6570506
  65.4187026  34.9699504   1.8702872  66.6593157  34.3570007   2.9039557
  67.2124196  34.7765460   3.5629580  66.8963243  33.4305755   2.9462513
  62.6826256  40.3457080  18.6842321  62.5822983  41.2951437  18.6154412
  62.4647798  40.0175319  17.8118391  53.9006743  45.6764345   7.5463187
  53.2070215  45.2618298   7.0333141  54.6479734  45.7184882   6.9496606
  70.0371964  36.4670532   2.4118221  69.4570633  37.1255336   2.0296274
  69.7707897  35.6447876   2.0005639  68.4875530  35.8675590   4.6139541
  68.9875309  35.9792124   3.8053860  69.1311138  35.5636642   5.2540350
  62.5457526  43.7754219  17.5007382  62.0624608  44.5754579  17.7071271
  62.6318465  43.7862164  16.5474826  55.8143486  45.6082599   5.4229202
  55.7914174  45.7070286   4.4711085  56.1244122  46.4547750   5.7446368
  58.4730864  47.6658754   9.5375816  59.4274117  47.6342696   9.4705748
  58.2743387  47.2049378  10.3526042  59.0630246  46.2359870  12.1046614
  59.8823135  46.7303949  12.1281451  59.3367054  45.3191838  12.0764181
  68.8196842  38.6270622   1.4674569  67.9322697  38.9120273   1.2494764
  69.2350831  38.4664386   0.6201846  72.1711378  38.6517143   5.1828909
  72.9471768  39.1413596   5.4553525  71.4459512  39.0775197   5.6400778
  74.6083937  39.3644762   6.2402849  75.2028428  39.1240498   5.5296158
  74.6810521  38.6451893   6.8676386  56.8281093  53.2078373   6.5546014
  56.6935561  52.4478774   5.9884012  56.4113155  53.9319273   6.0874803
  67.9640056  48.3915297  -4.4377411  68.6675906  48.5965299  -3.8219755
  67.2402704  48.9592059  -4.1728327  68.7937866  44.1425158   1.6824860
  68.7373067  44.5993710   0.8432492  69.3466208  43.3815843   1.5047702
  72.6042672  39.9314890   2.5074979  72.3479606  39.5311526   3.3383187
  71.9795540  40.6458684   2.3825118  76.9155010  42.6710963   5.0146270
  76.3554568  42.7404153   5.7877833  76.3098513  42.4951948   4.2945767
  59.9850218  54.1047690   6.7664457  59.8682603  55.0493123   6.6643147
  59.1642665  53.8021252   7.1550256  69.8726753  48.8297826  -2.3878951
  70.7072357  48.3979025  -2.5701476  69.7111096  48.6579840  -1.4602056
  69.5272645  45.3329939  -1.0222611  69.4721449  45.1674211  -1.9634167
  68.9018700  46.0405972  -0.8660422  54.3165160  40.5698004  12.8038811
  54.9624024  40.0596958  13.2926036  54.1082311  41.3066685  13.3782236
  66.8418552  47.6378851  18.3030952  67.7109712  47.8119504  17.9417586
  66.3625304  48.4573268  18.1806681  61.0104733  54.7575952   9.9820385
  61.9131979  54.7899562  10.2986880  60.7842103  53.8276403   9.9966721
  62.7658335  53.5106939   6.6430464  61.8153966  53.5108800   6.5294836
  63.0690821  52.7639673   6.1266498  66.6520890  31.4280825   2.8108644
  65.8853286  30.8739312   2.9565326  67.0631595  31.5002694   3.6722796
  58.6562651  37.7165621  16.9013825  59.5194113  37.3602426  17.1117150
  58.0828062  37.3779516  17.5889229  78.5011028  59.3467477   7.7076226
  79.1389438  59.2274225   7.0039566  78.3831871  60.2948321   7.7664178
  75.3100734  59.2994905   7.6437751  74.9719246  59.1835970   6.7558286
  76.1790503  58.8986070   7.6238757  71.1687550  61.1530382   3.6334642
  70.6052415  61.0620319   2.8650930  71.0539945  60.3330286   4.1137134
  75.7920517  60.4529757  13.6023956  75.7809158  60.0582555  12.7304460
  75.9541157  59.7195830  14.1957728  68.7151982  62.6481573   6.4718862
  69.5073274  62.3072398   6.0565162  68.9548632  62.7576548   7.3921016
  76.7487109  64.8201349  -1.0550893  76.0975089  65.4055430  -1.4416879
  77.5431472  65.3507544  -0.9955856  70.6742736  61.9090487  -0.6563759
  71.4473612  61.3619474  -0.7950883  71.0268135  62.7734736  -0.4449298
  72.5127779  63.2366869  12.5503140  72.2217644  64.1412500  12.4349807
  73.1484763  63.2783396  13.2647210  73.4383985  60.6143717   9.1404500
  74.0347558  60.3899740   8.4261463  73.4958957  59.8728463   9.7429948
  73.0109014  58.0683153  -3.0245309  73.2634534  57.5464674  -3.7861846
  72.0733573  57.9049298  -2.9218625  78.0552297  57.0718931   4.7829434
  78.8415386  56.6538354   4.4319851  78.3191001  57.9765023   4.9511083
  78.2262374  62.5091781  -0.5181909  77.5908207  62.5826408   0.1938996
  77.8959780  63.0985380  -1.1962830  83.4560724  57.0094164   5.6862413
  84.1885896  56.4393381   5.9200242  82.7000079  56.6215765   6.1268918
  72.7305302  59.9711259  -0.8220934  72.6141561  59.2956162  -0.1539850
  72.8407562  59.4843633  -1.6388781  75.0736843  59.4321406   2.8825755
  74.7095051  58.9052027   3.5938677  75.9303959  59.0419875   2.7092241
  80.9786144  50.7215738  10.1457021  80.6469469  51.5911149   9.9218236
  80.3831757  50.4052022  10.8251052  74.7142330  54.4611305  -2.1212896
  74.8816733  55.3291542  -1.7542425  74.5239499  54.6238587  -3.0451607
  77.4717664  62.9228284   9.5452934  77.1718387  63.8253323   9.4368741
  77.1268723  62.6560468  10.3974087  70.9230145  59.3742081   5.5789639
  69.9980642  59.2418295   5.7867330  71.1714558  60.1536300   6.0759581
  80.8714807  55.4410825   7.2250371  79.9631685  55.3726233   6.9309132
  80.8202403  55.9182769   8.0532197  74.6931551  56.9168963  -1.1366229
  74.5731176  57.3626014  -0.2980749  73.9984140  57.2654281  -1.6952691
  68.2838956  59.0175355   6.4133428  68.4131337  59.2709834   7.3272839
  67.6036407  59.6103063   6.0938083  72.4538443  69.6872605   2.5123902
  72.3762473  70.6380430   2.5912382  71.8500087  69.3418477   3.1698828
  74.9455673  56.8600470  15.1685269  74.1689007  57.4194390  15.1588133
  75.5846236  57.3457253  15.6900139  82.7376454  53.6427263   9.0028245
  82.0950834  53.9359796   8.3568040  82.2331382  53.5280183   9.8081442
  80.3916617  57.3890436  -0.3085895  81.3034474  57.6217823  -0.4838198
  79.8826265  57.9727480  -0.8710817  73.2002045  59.6685923  14.7303236
  73.9416730  60.2070967  14.4538059  72.4939031  60.2952212  14.8874787
  78.6757385  61.8115064  13.3275397  79.0840741  61.3697474  12.5830030
  77.9534647  61.2367691  13.5809590  75.0288455  56.7487671  10.7008954
  75.8749650  57.1727084  10.8443603  74.9687093  56.0921295  11.3947517
  78.9986200  62.3716255   7.0827686  78.3695062  62.5361969   6.3803754
  78.6111862  62.7857864   7.8538650  82.8775432  63.3070692   4.4372050
  82.1926470  63.6869594   3.8869083  82.9619281  63.9166019   5.1703998
  78.1787900  54.4092039  12.3590128  77.9348832  55.1634100  11.8224403
  78.4547831  54.7877387  13.1937375  80.1326363  60.9530651  11.0367393
  80.3443258  61.5962411  10.3601774  80.0856112  60.1192968  10.5689323
  77.7352592  53.5648472   7.9403965  76.8737071  53.8629726   8.2320703
  77.7615027  53.7818871   7.0084998  74.5514162  62.1090663   4.3477771
  75.0152507  62.3878366   3.5582394  74.2870960  61.2074107   4.1650862
  71.4438243  61.6562144   7.2857534  72.0139600  62.0849413   6.6475019
  72.0346355  61.3744729   7.9841720  73.4883048  58.2313815   1.1567336
  74.1907091  58.6834859   1.6241263  73.1563676  57.5897634   1.7847229
  71.9363409  56.8225572  15.5318546  71.3062070  57.5041852  15.7653942
  71.8299497  56.7108653  14.5871684  67.2308382  56.4897368   6.4584470
  66.4407436  56.7454896   5.9824580  67.7219629  57.3045706   6.5636510
  81.2472191  63.8302607   9.2089751  82.0689635  63.4282794   8.9272432
  81.2434594  63.7270841  10.1605866  69.1823127  56.8541947   3.4167947
  68.3854290  56.9660641   3.9351442  68.9548719  57.1928599   2.5508837
  75.0128795  63.3786650  11.3650461  75.0773227  63.8407057  12.2008633
  74.3039719  62.7484015  11.4932771  65.5146085  56.7427858   8.8899461
  65.7654123  57.6274868   9.1557037  66.0505633  56.5632460   8.1174552
  89.3378184  60.1741355   5.5574722  88.5841893  59.6048753   5.4018727
  89.4725725  60.1404020   6.5045357  74.7276812  65.0454758   1.2329441
  74.5922487  65.8906293   1.6614289  75.2686625  65.2474035   0.4695375
  71.2144152  51.1246337  17.8943797  70.8211098  50.5712536  18.5691441
  72.0310292  51.4356916  18.2850314  68.1806210  62.5630196   1.8057367
  68.6930730  63.3573446   1.9562931  68.8328923  61.8656486   1.7390968
  69.9901094  65.6795952   3.8880120  70.1667723  66.6013917   3.7001104
  70.7857928  65.3654371   4.3174500  74.1312113  52.5404217  15.4864053
  74.8721826  53.1411370  15.4068516  74.3630036  51.7981854  14.9282096
  69.2753451  57.7260584  13.7642283  69.1606966  56.8245841  14.0649382
  68.4197969  57.9724281  13.4127100  76.3545289  65.6678324  15.3629784
  75.9109143  64.8814703  15.0450688  77.0162502  65.8557475  14.6973674
  71.1132410  67.1974126   9.8890462  71.6639835  67.0691189   9.1167456
  70.2743886  67.4969015   9.5385355  78.4526527  65.9481124  13.3911185
  78.4345002  66.7690005  12.8991454  79.3746447  65.8235199  13.6161326
  74.9099581  63.4625254  14.2334693  75.4427918  62.7013542  14.0034001
  74.3813662  63.1698905  14.9758848  78.0769276  48.5685319   9.7628335
  77.7333545  49.4586961   9.6867446  78.4448238  48.3786977   8.8997920
  66.1455126  60.8918850   2.5816937  66.9830348  61.3015858   2.3650645
  66.3233394  59.9518292   2.5517131  78.0419559  58.5593931  -1.7299230
  77.5266182  59.3298535  -1.4910843  77.7696867  57.8859067  -1.1066168
  75.6266670  53.4043631   3.3286008  74.7708266  53.0150482   3.1491647
  76.0393621  53.4835592   2.4685794  77.1565816  50.9389975   7.7277568
  76.6530612  50.9020110   6.9145374  77.4496423  51.8482717   7.7874225
  73.4008702  51.0228704   6.7343750  74.2661699  50.8271513   6.3749639
  73.4686211  50.7939056   7.6613107  83.0153833  61.3126285   0.2053944
  82.2383275  60.9737445  -0.2390894  83.6945314  61.3178908  -0.4691091
  77.8305862  56.4321023   0.0960551  77.5255997  56.7467172   0.9470694
  78.7836304  56.5102443   0.1387884  76.2752294  62.5911246   1.7453505
  75.7473655  61.8564006   1.4326743  75.7739796  63.3685922   1.4993474
  81.2545140  60.7860267   6.8620552  80.5968814  61.4759528   6.9500680
  82.0585539  61.1756698   7.2054538  71.0071021  53.2530912   4.1060117
  71.5814773  53.0306094   3.3733310  71.5942004  53.3219607   4.8588718
  80.0650598  59.1404639   4.9124493  80.5782480  59.7734631   5.4146203
  80.7151822  58.5405835   4.5467853  71.3340608  55.2835373  -1.8743998
  70.4977921  55.6210060  -1.5534723  71.1945378  55.1484353  -2.8116861
  73.3093689  50.1272161   2.8335186  72.6558101  49.8121178   2.2091801
  73.2674163  49.5047902   3.5595009  74.4204894  60.4091456  -5.2511522
  73.5131956  60.1780710  -5.0520373  74.9175926  59.6129076  -5.0637540
  76.5431429  56.6154095   7.1582834  75.6253991  56.8369042   7.0004522
  76.9591573  56.6900405   6.2994541  77.3266477  58.0145510   2.2885514
  78.0738296  58.5266908   1.9792636  77.5958067  57.6929563   3.1489908
  75.5993127  60.5104051  -0.7287532  74.6904346  60.2263084  -0.6315062
  75.6288211  60.9303130  -1.5884225  80.8312395  64.1210641   3.0403636
  80.3774722  63.2801551   3.0968826  80.2006361  64.7572039   3.3778416
  79.7745314  55.0502627   4.2704303  79.0368071  54.5380013   4.6014546
  80.0272088  54.6103008   3.4587580  79.2745334  65.9587137   3.9753454
  79.5668308  66.5192194   3.2565820  79.7843954  66.2515698   4.7306613
  79.8756942  47.8278879   4.8646073  80.1815818  46.9676242   4.5771988
  80.6009546  48.4196499   4.6645067  66.1681298  58.2309565   3.2527671
  65.9705697  57.6378926   2.5278737  65.6127962  57.9261775   3.9703609
  74.1478021  58.1232672   5.3722264  74.2026631  57.1706508   5.2964740
  73.3369223  58.2792111   5.8563562  75.2969215  62.0512795  -3.3899453
  74.8588645  61.3348654  -3.8493816  76.0379656  62.2788910  -3.9514362
  72.0870381  56.7409731   3.1312643  71.2738247  57.0403902   3.5377835
  72.5829375  56.3465420   3.8487125  74.2378959  66.7367488   5.0646907
  74.1955138  66.9628335   4.1355439  75.1541658  66.5030863   5.2132708
  77.6844593  57.2051556  11.9627536  78.0393981  57.4323029  12.8222002
  78.3316724  57.5369933  11.3404792  83.4142330  60.3269992   2.6676866
  83.2760228  60.5171588   1.7398055  83.0578549  61.0889375   3.1244917
  71.5784456  54.3128087   8.7473878  72.2183835  54.1716846   8.0496841
  70.7461986  54.0262600   8.3712480  83.4411709  62.3946519   7.6788137
  83.8748216  62.3021808   8.5271191  84.1543290  62.3704019   7.0408153
  72.3544760  63.6130517   4.8608870  73.1485358  63.1180838   4.6591445
  71.6436452  63.0848381   4.4976576  77.1739604  65.9948613   9.2121238
  77.2276627  66.5639549   9.9798954  76.3054386  66.1650498   8.8475275
  68.6627523  57.7573599   0.9368623  67.7325111  57.6958055   1.1538585
  68.7584995  57.2349552   0.1405264  68.5813072  54.2828412   3.5246864
  68.8419890  55.1973745   3.4156025  69.4030245  53.8152855   3.6743477
  70.0537998  55.6966169  10.6945689  70.7261051  55.4883531  10.0458338
  69.2267784  55.4988255  10.2550921  84.3027259  62.4370220  10.2121022
  84.4963149  63.3416030  10.4580297  84.2027877  61.9777639  11.0459607
  75.9563570  52.3228110  12.7111350  75.3091485  53.0218060  12.6175826
  76.7264585  52.7564254  13.0787598  79.3642368  62.5876962  15.7861903
  79.2127874  62.3587514  14.8691987  79.3547047  63.5447564  15.7993248
  76.1327704  60.1608875  10.7708169  77.0619764  60.3120035  10.5977137
  75.7118734  60.2492896   9.9156816  74.9316036  64.1859539   8.5406707
  74.7927122  63.8178324   9.4132645  74.1430632  64.7007179   8.3690665
  75.5264188  69.2868636  -0.1167756  75.7015944  68.8156679   0.6977866
  74.8396976  69.9134402   0.1113504  76.4821251  63.5641142   5.9295545
  76.1471084  63.5241912   6.8253195  75.9825197  62.8985858   5.4565955
  70.4565495  58.9708772  11.4548126  70.3185293  58.2389011  12.0559665
  71.3670418  58.8817672  11.1732314  73.0847796  58.6828731  10.9431806
  73.7947414  58.0421924  10.9018424  73.0417104  58.9341626  11.8657986
  81.0734574  65.6196085  13.8638385  81.0147120  64.9355305  13.1968968
  81.4754093  66.3615075  13.4119011  71.7976730  55.6693949  12.7627445
  71.2614087  55.2184688  13.4149041  71.2093438  55.8039858  12.0197910
  70.0925273  72.4357999   6.6572104  70.3321871  73.0676523   7.3351122
  69.2494470  72.0846039   6.9437463  71.2078989  55.1282601  -4.6746091
  70.3308455  55.0071402  -5.0383845  71.6836742  54.3368679  -4.9267203
  81.0751982  63.5835669  12.0952365  80.1878760  63.2461591  12.2178763
  81.6450533  62.8518700  12.3321130  62.7281129  59.9159760   5.4195416
  63.4152169  59.6021491   4.8316431  62.5729257  60.8201125   5.1462667
  67.5315851  54.8049957   9.8480440  67.4474040  54.1975627   9.1130850
  66.7098557  55.2958975   9.8489936  74.6053135  68.2437121   9.0613608
  74.5323306  69.0492093   9.5732912  74.1630528  68.4429087   8.2361629
  74.3942915  67.4808891   2.5716429  73.6110436  68.0230571   2.6654654
  75.0935660  67.9982871   2.9710670  77.7039565  53.2903521   5.2150635
  78.2008264  52.5373483   4.8951705  76.9326546  53.3267837   4.6493844
  85.5569322  58.9943886   6.8568926  85.5459198  59.8768602   6.4862859
  84.6886702  58.6415437   6.6623463  77.0651818  68.1423955  11.2171766
  77.7779791  68.7771420  11.1447668  76.5741847  68.2387821  10.4011768
  78.7869345  62.0475208   2.7889058  77.8525624  62.1676670   2.6193762
  78.9646014  61.1447675   2.5249068  74.2874533  55.4320904   4.9422319
  73.9172321  54.8791944   5.6303225  74.7833626  54.8279037   4.3897319
  82.1741897  57.8892527   3.3239092  82.6402349  58.7220519   3.2499395
  82.6249397  57.4237509   4.0284351  72.1163732  65.8918399  12.0377337
  72.8173192  66.5254882  12.1906731  71.6458847  66.2333130  11.2772977
  80.2418128  64.2336348   0.3225244  80.5177972  64.1192943   1.2319118
  79.3722627  63.8353833   0.2837417  80.1458559  50.2573114   7.3629994
  79.2321639  50.4877341   7.5312201  80.5751661  50.3411558   8.2144026
  79.9165018  58.4463006   9.8629888  79.2636468  58.6938913   9.2082340
  80.2945398  57.6327144   9.5292365  76.8772192  68.4822699   3.9658058
  77.0594586  67.6644355   4.4285810  77.7005178  68.6990391   3.5282948
  77.2114357  67.4090884   1.2273106  77.7402124  66.8983339   0.6143268
  77.4742577  67.0933415   2.0918639  75.9652591  59.1882817  16.3495925
  75.2893228  59.0876946  17.0198300  76.7880225  59.0322031  16.8131922
  67.7131450  65.4254754   8.9708440  68.2984887  64.6798442   9.1036344
  67.5156289  65.7358710   9.8545104  70.5670105  68.4606001   3.9870882
  69.8980481  68.9452129   3.5034922  70.4282975  68.7075221   4.9014261
  62.3049105  57.9960354   7.6912883  62.3433204  57.4623945   8.4850001
  61.7989398  57.4695559   7.0723860  74.7075374  70.4949745  10.5853541
  75.2593682  70.6581366  11.3502626  75.0481567  71.0854182   9.9133566
  69.6839867  52.8424894  11.1875425  69.7481194  53.7039725  10.7752823
  69.6206987  52.2298896  10.4547784  69.1592140  54.9148027  14.8348460
  69.7864178  54.5325104  15.4485984  68.3020058  54.6962229  15.2004152
  79.5586248  65.3211002  16.4402195  80.1026152  65.9340960  15.9457150
  78.9773093  65.8790580  16.9569208  65.9357682  56.7224456   0.7666814
  66.2311123  55.8135134   0.7133868  65.0345718  56.7012195   0.4447817
  77.8443761  68.4431720   7.5717223  77.7194901  67.6421460   7.0628168
  78.5022852  68.9377913   7.0831193  69.4651929  54.7980453   6.7494363
  68.7438515  55.4116420   6.6101836  70.2545185  55.3338217   6.6711009
  79.9078670  66.2440740   9.1996773  78.9609005  66.1246091   9.1275100
  80.2561443  65.3563238   9.2823034  72.2678243  52.1334879  13.0235015
  72.7912645  52.3797176  13.7861324  72.0490576  52.9654914  12.6038152
  67.6645524  54.4038554   0.8906140  67.3358230  53.5235933   0.7081246
  68.0184895  54.3486222   1.7782529  76.9125103  66.0393456   5.4001125
  76.7650065  65.1110164   5.5808695  77.7378596  66.0613547   4.9158200
  70.7787347  54.6911523   1.2581617  71.1183420  55.2197445   0.5360226
  71.2259468  55.0291930   2.0340184  80.5159225  66.8622015   6.4865998
  81.4405772  66.6564876   6.3490449  80.3474528  66.6138416   7.3955339
  73.4730788  53.0748574  10.7084685  73.1327608  52.2756387  11.1105365
  72.7669794  53.3750285  10.1361519  74.1247260  50.1597887   9.1612008
  74.9473329  49.6858365   9.0390899  74.3685323  50.9388370   9.6610695
  72.7655494  53.1886145  -0.5425090  73.4863857  53.5667398  -1.0461373
  72.1420798  53.9075022  -0.4390112  76.9086617  53.8931294   0.3933242
  77.1250232  54.7755932   0.0922071  76.4280684  53.5017507  -0.3361116
  71.6485839  56.8517007   6.9703987  71.5030419  57.1657310   7.8628268
  71.1711042  57.4701908   6.4174886  73.5082221  53.8419555   7.0184877
  73.4943790  52.9460649   6.6817174  74.2254650  53.8490219   7.6523163
  75.3608352  54.2756895   9.0638004  75.1026130  55.1973966   9.0622334
  74.8293393  53.8787330   9.7538468  80.3054541  67.3807683   1.8428089
  80.4791418  66.8154105   1.0901942  80.7983432  68.1808577   1.6607579
  66.1231501  59.3922352   9.9091648  65.5784969  60.1682160  10.0411922
  67.0010851  59.7393156   9.7510770  72.9119117  52.7233936   2.2872447
  73.0335029  51.7950582   2.4863334  72.6221160  52.7372621   1.3750762
  75.7810308  50.4088846   5.4239167  75.8032005  50.4728179   4.4691146
  76.1978367  49.5693355   5.6179673  86.1593932  60.1444106   3.4618389
  86.6025078  59.3951431   3.0637512  85.2820442  60.1354242   3.0792121
  66.9097523  58.5192248  12.8021805  66.1679259  58.6674883  13.3886435
  66.5890267  58.7800514  11.9388554  74.8541185  68.0608226  12.6002195
  75.1628312  67.8157373  13.4724895  75.6516667  68.2654865  12.1121065
  74.8761797  70.2146136   4.8307572  74.4366788  69.7222514   5.5240428
  75.6269914  69.6719103   4.5899647  67.3554136  66.4057677   4.8332200
  68.1812156  66.1061449   4.4530843  67.0048188  65.6365299   5.2821988
  72.3235669  65.7584145   6.9029873  71.7015679  65.0954850   6.6032101
  72.9940536  65.7845277   6.2203521  65.5562741  64.3244003   5.7921133
  64.7194650  63.8966177   5.6105135  65.5286387  64.5176446   6.7291924
  72.3960197  54.2365933  16.4962379  72.4448352  55.1128056  16.1140149
  72.9382711  53.6943326  15.9234023  82.8815043  64.7807056  15.7763516
  82.0910586  64.7631195  15.2368016  82.6448397  65.3195350  16.5312553
  83.0012918  61.6299523  13.0896245  83.0510923  61.4649530  14.0311768
  82.8926841  60.7626782  12.6994126  71.8849176  64.3088068   0.3788334
  72.0337297  64.9923533  -0.2744993  72.6915620  64.2893158   0.8937790
  80.2916680  57.6130451  14.4055552  81.1926543  57.4736915  14.1139549
  80.3664655  57.7784905  15.3453729  74.6259485  54.9897305  13.2508738
  73.7562795  55.2830871  12.9791326  74.8618966  55.5737750  13.9716002
  84.5031114  64.0496464  13.3338266  84.2115923  64.4126445  14.1701727
  83.8903246  63.3363472  13.1551599  85.7026797  61.6149344   5.8540837
  86.5373688  62.0539148   6.0178397  85.8385926  61.1387997   5.0349082
  82.7518303  59.1729079  11.8018324  83.2272424  59.3656725  10.9937176
  81.8283868  59.2288264  11.5561708  69.6401809  60.3353246   1.3849403
  69.3947851  59.4315576   1.5829613  69.8097724  60.3370396   0.4428881
  77.3298519  51.2076922  10.7674158  77.8480463  51.9437949  10.4420647
  76.9753652  51.5140916  11.6020917  68.9097457  56.0681603  -1.1164436
  68.2166702  56.1425958  -1.7724400  68.6649209  55.3041947  -0.5942919
  77.5811113  47.6277205   6.2875055  77.8612867  46.9600394   6.9135481
  78.3661720  47.8206300   5.7749719  81.4519972  56.0494839  10.0346630
  82.4037395  56.1492936  10.0558854  81.2823422  55.2573107  10.5444714
  79.4734351  53.1350422  10.2206031  78.8784283  53.4155435   9.5252520
  79.1884048  53.6244323  10.9922772  83.9308049  59.2700958   9.1488930
  83.8984370  58.3316959   9.3348614  84.5408673  59.3484995   8.4154755
  75.7691380  58.1397011  -4.8083866  76.7150485  58.0103220  -4.7395448
  75.3905625  57.4011673  -4.3314438  84.0802538  56.0612002   9.1947213
  83.5641587  55.2770458   9.0077142  84.9642486  55.7330718   9.3593732
  81.7413265  49.8053017   5.1543026  81.5438086  49.4968106   6.0386358
  82.3512970  50.5314656   5.2840955  89.7484599  60.3316965   8.2894966
  90.4787988  60.0702253   8.8502670  89.1391545  59.5945687   8.3297034
  87.8299896  58.4724828   8.8869418  87.1033060  58.3380793   8.2785909
  87.4147183  58.7801656   9.6926136  75.6530073  62.1914758  16.6516791
  76.5733082  62.3693357  16.8456837  75.6179656  61.2470803  16.4996490
  73.9534297  56.0646988  -4.8728981  73.0465753  55.7680101  -4.7966267
  74.2310279  55.7676806  -5.7394695  64.8712238  57.3853351   5.5770065
  64.5515022  56.5318659   5.2844439  64.3245666  57.6001929   6.3328033
  68.6492145  60.1015792   9.2939572  68.8678155  61.0332900   9.3127606
  69.0617919  59.7423767  10.0794376  75.5696363  50.6083878   1.2815260
  74.7597092  50.2630962   1.6570506  76.2580780  50.2991421   1.8702872
  77.4986912  49.6861924   2.9039557  78.0517950  50.1057378   3.5629580
  77.7356998  48.7597672   2.9462513  73.5220011  55.6748998  18.6842321
  73.4216738  56.6243355  18.6154412  73.3041553  55.3467237  17.8118391
  72.7233082  52.9233923  -4.7317002  73.5852246  53.2488821  -4.4721185
  72.9083426  52.1365419  -5.2443936  64.7400498  61.0056263   7.5463187
  64.0463969  60.5910215   7.0333141  65.4873489  61.0476799   6.9496606
  80.8765719  51.7962449   2.4118221  80.2964388  52.4547254   2.0296274
  80.6101651  50.9739794   2.0005639  79.3269285  51.1967507   4.6139541
  79.8269063  51.3084042   3.8053860  79.9704893  50.8928560   5.2540350
  73.3851281  59.1046137  17.5007382  72.9018362  59.9046497  17.7071271
  73.4712220  59.1154082  16.5474826  66.6537240  60.9374516   5.4229202
  66.6307929  61.0362204   4.4711085  66.9637877  61.7839667   5.7446368
  69.3124618  62.9950671   9.5375816  70.2667872  62.9634614   9.4705748
  69.1137142  62.5341295  10.3526042  69.9024000  61.5651788  12.1046614
  70.7216889  62.0595866  12.1281451  70.1760808  60.6483756  12.0764181
  79.6590597  53.9562540   1.4674569  78.7716452  54.2412190   1.2494764
  80.0744586  53.7956303   0.6201846  83.0105133  53.9809061   5.1828909
  83.7865523  54.4705513   5.4553525  82.2853267  54.4067115   5.6400778
  85.4477691  54.6936680   6.2402849  86.0422182  54.4532416   5.5296158
  85.5204275  53.9743811   6.8676386  67.6674847  68.5370291   6.5546014
  67.5329315  67.7770692   5.9884012  67.2506909  69.2611191   6.0874803
  79.6331620  59.4717076   1.6824860  79.5766822  59.9285627   0.8432492
  80.1859963  58.7107760   1.5047702  83.4436426  55.2606808   2.5074979
  83.1873361  54.8603443   3.3383187  82.8189294  55.9750602   2.3825118
  87.7548764  58.0002881   5.0146270  87.1948322  58.0696070   5.7877833
  87.1492267  57.8243866   4.2945767  70.8243973  69.4339608   6.7664457
  70.7076357  70.3785040   6.6643147  70.0036419  69.1313170   7.1550256
  80.3666400  60.6621857  -1.0222611  80.3115203  60.4966128  -1.9634167
  79.7412455  61.3697890  -0.8660422  65.1558915  55.8989921  12.8038811
  65.8017778  55.3888875  13.2926036  64.9476066  56.6358603  13.3782236
  77.6812307  62.9670769  18.3030952  78.5503466  63.1411421  17.9417586
  77.2019058  63.7865186  18.1806681  73.6762525  50.1629966  -1.4437293
  73.6641195  51.1071806  -1.2869022  74.5685947  49.9800111  -1.7377832
  71.8498487  70.0867870   9.9820385  72.7525734  70.1191480  10.2986880
  71.6235857  69.1568321   9.9966721  73.6052089  68.8398856   6.6430464
  72.6547720  68.8400718   6.5294836  73.9084575  68.0931591   6.1266498
  77.4914645  46.7572743   2.8108644  76.7247040  46.2031229   2.9565326
  77.9025350  46.8294611   3.6722796  69.4956406  53.0457538  16.9013825
  70.3587867  52.6894343  17.1117150  68.9221816  52.7071433  17.5889229
  86.1494489  74.6286823   7.6437751  85.8113000  74.5127888   6.7558286
  87.0184257  74.2277988   7.6238757  86.6314272  75.7821675  13.6023956
  86.6202913  75.3874473  12.7304460  86.7934911  75.0487747  14.1957728
  83.3521533  78.5658786  12.5503140  83.0611399  79.4704417  12.4349807
  83.9878517  78.6075314  13.2647210  84.2777740  75.9435635   9.1404500
  84.8741312  75.7191657   8.4261463  84.3352711  75.2020380   9.7429948
  91.8179899  66.0507656  10.1457021  91.4863223  66.9203067   9.9218236
  91.2225512  65.7343940  10.8251052  81.7623900  74.7033999   5.5789639
  80.8374396  74.5710213   5.7867330  82.0108313  75.4828218   6.0759581
  91.7108562  70.7702742   7.2250371  90.8025439  70.7018151   6.9309132
  91.6596158  71.2474687   8.0532197  79.1232711  74.3467272   6.4133428
  79.2525092  74.6001751   7.3272839  78.4430162  74.9394980   6.0938083
  85.7849428  72.1892388  15.1685269  85.0082762  72.7486308  15.1588133
  86.4239991  72.6749171  15.6900139  93.5770208  68.9719181   9.0028245
  92.9344589  69.2651714   8.3568040  93.0725137  68.8572101   9.8081442
  84.0395800  74.9977841  14.7303236  84.7810484  75.5362885  14.4538059
  83.3332785  75.6244130  14.8874787  89.5151140  77.1406982  13.3275397
  89.9234496  76.6989392  12.5830030  88.7928401  76.5659609  13.5809590
  85.8682210  72.0779588  10.7008954  86.7143405  72.5019002  10.8443603
  85.8080847  71.4213213  11.3947517  89.0181655  69.7383957  12.3590128
  88.7742587  70.4926017  11.8224403  89.2941585  70.1169304  13.1937375
  90.9720118  76.2822569  11.0367393  91.1837013  76.9254329  10.3601774
  90.9249866  75.4484886  10.5689323  88.5746347  68.8940390   7.9403965
  87.7130826  69.1921643   8.2320703  88.6008781  69.1110789   7.0084998
  82.7757164  72.1517489  15.5318546  82.1455824  72.8333770  15.7653942
  82.6693252  72.0400571  14.5871684  78.0702136  71.8189285   6.4584470
  77.2801190  72.0746814   5.9824580  78.5613383  72.6337623   6.5636510
  85.8522549  78.7078568  11.3650461  85.9166982  79.1698975  12.2008633
  85.1433473  78.0775933  11.4932771  76.3539839  72.0719776   8.8899461
  76.6047878  72.9566786   9.1557037  76.8899388  71.8924377   8.1174552
  82.0537906  66.4538255  17.8943797  81.6604852  65.9004454  18.5691441
  82.8704047  66.7648834  18.2850314  84.9705867  67.8696134  15.4864053
  85.7115581  68.4703287  15.4068516  85.2023790  67.1273772  14.9282096
  80.1147205  73.0552501  13.7642283  80.0000721  72.1537759  14.0649382
  79.2591723  73.3016198  13.4127100  87.1939043  80.9970242  15.3629784
  86.7502897  80.2106620  15.0450688  87.8556257  81.1849392  14.6973674
  89.2920281  81.2773042  13.3911185  89.2738757  82.0981923  12.8991454
  90.2140201  81.1527117  13.6161326  85.7493335  78.7917171  14.2334693
  86.2821672  78.0305459  14.0034001  85.2207416  78.4990823  14.9758848
  88.9163030  63.8977237   9.7628335  88.5727300  64.7878879   9.6867446
  89.2841993  63.7078895   8.8997920  87.9959571  66.2681892   7.7277568
  87.4924366  66.2312027   6.9145374  88.2890178  67.1774635   7.7874225
  84.2402457  66.3520622   6.7343750  85.1055453  66.1563431   6.3749639
  84.3079966  66.1230974   7.6613107  81.8464776  68.5822830   4.1060117
  82.4208528  68.3598011   3.3733310  82.4335758  68.6511524   4.8588718
  84.1487443  65.4564079   2.8335186  83.4951856  65.1413096   2.2091801
  84.1067918  64.8339819   3.5595009  87.3825184  71.9446012   7.1582834
  86.4647745  72.1660959   7.0004522  87.7985327  72.0192323   6.2994541
  90.7150696  63.1570796   4.8646073  91.0209573  62.2968160   4.5771988
  91.4403301  63.7488417   4.6645067  77.0075052  73.5601483   3.2527671
  76.8099452  72.9670844   2.5278737  76.4521716  73.2553693   3.9703609
  88.5238347  72.5343474  11.9627536  88.8787735  72.7614947  12.8222002
  89.1710479  72.8661850  11.3404792  82.4178210  69.6420005   8.7473878
  83.0577590  69.5008764   8.0496841  81.5855741  69.3554518   8.3712480
  79.4206827  69.6120330   3.5246864  79.6813644  70.5265663   3.4156025
  80.2423999  69.1444772   3.6743477  80.8931752  71.0258087  10.6945689
  81.5654806  70.8175449  10.0458338  80.0661539  70.8280173  10.2550921
  86.7957324  67.6520028  12.7111350  86.1485239  68.3509977  12.6175826
  87.5658340  68.0856172  13.0787598  90.2036122  77.9168880  15.7861903
  90.0521629  77.6879432  14.8691987  90.1940802  78.8739481  15.7993248
  86.9721459  75.4900793  10.7708169  87.9013519  75.6411952  10.5977137
  86.5512489  75.5784813   9.9156816  81.2959249  74.3000690  11.4548126
  81.1579047  73.5680929  12.0559665  82.2064173  74.2109590  11.1732314
  83.9241550  74.0120649  10.9431806  84.6341169  73.3713841  10.9018424
  83.8810858  74.2633544  11.8657986  82.6370484  70.9985867  12.7627445
  82.1007841  70.5476605  13.4149041  82.0487193  71.1331776  12.0197910
  91.9145736  78.9127586  12.0952365  91.0272515  78.5753508  12.2178763
  92.4844287  78.1810618  12.3321130  73.5674883  75.2451678   5.4195416
  74.2545923  74.9313408   4.8316431  73.4123012  76.1493043   5.1462667
  78.3709605  70.1341875   9.8480440  78.2867794  69.5267544   9.1130850
  77.5492312  70.6250893   9.8489936  88.5433319  68.6195438   5.2150635
  89.0402019  67.8665401   4.8951705  87.7720301  68.6559755   4.6493844
  85.1268288  70.7612821   4.9422319  84.7566075  70.2083862   5.6303225
  85.6227380  70.1570955   4.3897319  82.9557487  81.2210316  12.0377337
  83.6566946  81.8546799  12.1906731  82.4852602  81.5625048  11.2772977
  90.9852314  65.5865032   7.3629994  90.0715394  65.8169259   7.5312201
  91.4145415  65.6703476   8.2144026  90.7558772  73.7754924   9.8629888
  90.1030223  74.0230831   9.2082340  91.1339152  72.9619062   9.5292365
  86.8046345  74.5174735  16.3495925  86.1286983  74.4168864  17.0198300
  87.6273979  74.3613949  16.8131922  78.5525205  80.7546671   8.9708440
  79.1378641  80.0090359   9.1036344  78.3550043  81.0650628   9.8545104
  73.1442859  73.3252272   7.6912883  73.1826959  72.7915862   8.4850001
  72.6383152  72.7987477   7.0723860  80.5233622  68.1716812  11.1875425
  80.5874948  69.0331643  10.7752823  80.4600742  67.5590814  10.4547784
  79.9985894  70.2439945  14.8348460  80.6257933  69.8617022  15.4485984
  79.1413813  70.0254147  15.2004152  90.3980003  80.6502920  16.4402195
  90.9419907  81.2632878  15.9457150  89.8166848  81.2082498  16.9569208
  80.3045684  70.1272370   6.7494363  79.5832270  70.7408338   6.6101836
  81.0938940  70.6630135   6.6711009  83.1071997  67.4626797  13.0235015
  83.6306399  67.7089093  13.7861324  82.8884331  68.2946832  12.6038152
  84.3124542  68.4040492  10.7084685  83.9721363  67.6048305  11.1105365
  83.6063549  68.7042203  10.1361519  84.9641014  65.4889804   9.1612008
  85.7867084  65.0150282   9.0390899  85.2079078  66.2680288   9.6610695
  82.4879593  72.1808925   6.9703987  82.3424174  72.4949228   7.8628268
  82.0104797  72.7993825   6.4174886  84.3475976  69.1711473   7.0184877
  84.3337545  68.2752566   6.6817174  85.0648404  69.1782137   7.6523163
  86.2002107  69.6048813   9.0638004  85.9419884  70.5265884   9.0622334
  85.6687147  69.2079248   9.7538468  76.9625255  74.7214269   9.9091648
  76.4178723  75.4974077  10.0411922  77.8404605  75.0685074   9.7510770
  86.6204062  65.7380764   5.4239167  86.6425759  65.8020097   4.4691146
  87.0372121  64.8985272   5.6179673  77.7491277  73.8484166  12.8021805
  77.0073013  73.9966801  13.3886435  77.4284021  74.1092431  11.9388554
  83.2353951  69.5657851  16.4962379  83.2842107  70.4419973  16.1140149
  83.7776466  69.0235244  15.9234023  93.7208797  80.1098974  15.7763516
  92.9304341  80.0923113  15.2368016  93.4842152  80.6487268  16.5312553
  93.8406672  76.9591440  13.0896245  93.8904677  76.7941448  14.0311768
  93.7320595  76.0918699  12.6994126  91.1310435  72.9422368  14.4055552
  92.0320297  72.8028833  14.1139549  91.2058409  73.1076823  15.3453729
  85.4653240  70.3189223  13.2508738  84.5956549  70.6122789  12.9791326
  85.7012720  70.9029668  13.9716002  93.5912057  74.5020996  11.8018324
  94.0666179  74.6948643  10.9937176  92.6677623  74.5580182  11.5561708
  88.1692274  66.5368840  10.7674158  88.6874218  67.2729867  10.4420647
  87.8147406  66.8432833  11.6020917  88.4204868  62.9569122   6.2875055
  88.7006622  62.2892311   6.9135481  89.2055475  63.1498218   5.7749719
  92.2913726  71.3786756  10.0346630  93.2431149  71.4784854  10.0558854
  92.1217177  70.5865025  10.5444714  90.3128106  68.4642340  10.2206031
  89.7178038  68.7447352   9.5252520  90.0277802  68.9536241  10.9922772
  94.9196292  71.3903920   9.1947213  94.4035341  70.6062376   9.0077142
  95.8036241  71.0622636   9.3593732  92.5807019  65.1344935   5.1543026
  92.3831841  64.8260023   6.0386358  93.1906725  65.8606574   5.2840955
  86.4923827  77.5206675  16.6516791  87.4126837  77.6985274  16.8456837
  86.4573410  76.5762721  16.4996490  75.7105992  72.7145269   5.5770065
  75.3908777  71.8610577   5.2844439  75.1639421  72.9293847   6.3328033
  79.4885900  75.4307710   9.2939572  79.7071910  76.3624818   9.3127606
  79.9011674  75.0715684  10.0794376  88.3380666  65.0153842   2.9039557
  88.8911705  65.4349295   3.5629580  88.5750752  64.0889590   2.9462513
  84.3613765  71.0040916  18.6842321  84.2610492  71.9535273  18.6154412
  84.1435307  70.6759155  17.8118391  75.5794252  76.3348180   7.5463187
  74.8857724  75.9202133   7.0333141  76.3267243  76.3768717   6.9496606
  84.2245035  74.4338054  17.5007382  83.7412117  75.2338415  17.7071271
  84.3105974  74.4445999  16.5474826  77.4930995  76.2666434   5.4229202
  77.4701683  76.3654121   4.4711085  77.8031631  77.1131585   5.7446368
  80.1518373  78.3242589   9.5375816  81.1061626  78.2926532   9.4705748
  79.9530896  77.8633213  10.3526042  80.7417755  76.8943705  12.1046614
  81.5610644  77.3887784  12.1281451  81.0154563  75.9775673  12.0764181
  75.9952669  71.2281839  12.8038811  76.6411533  70.7180793  13.2926036
  75.7869820  71.9650521  13.3782236  88.5206061  78.2962687  18.3030952
  89.3897221  78.4703339  17.9417586  88.0412813  79.1157103  18.1806681
  88.3308399  62.0864660   2.8108644  87.5640795  61.5323147   2.9565326
  88.7419104  62.1586529   3.6722796  80.3350160  68.3749456  16.9013825
  81.1981622  68.0186261  17.1117150  79.7615571  68.0363351  17.5889229
  92.8931661  81.7830173  17.8943797  92.4998606  81.2296371  18.5691441
  93.7097801  82.0940751  18.2850314  95.2007520  86.3332833  18.6842321
  95.1004247  87.2827190  18.6154412  94.9829062  86.0051072  17.8118391
  91.1743915  83.7041374  16.9013825  92.0375376  83.3478179  17.1117150
  90.6009325  83.3655269  17.5889229  68.7192495  26.9981207   3.1647502
  69.2632399  27.6111165   2.6702457  68.1379340  27.5560785   3.6814515
  72.0421289  26.4577261   2.5008823  71.2516833  26.4401400   1.9613322
  71.8054644  26.9965555   3.2557860  66.8418554  24.6440974   5.0276258
  67.7109713  24.8181626   4.6662893  66.3625305  25.4635391   4.9051988
  78.5011029  36.3529600  -5.5678467  79.1389439  36.2336347  -6.2715127
  78.3831872  37.3010444  -5.5090515  75.7920519  37.4591880   0.3269263
  75.7809159  37.0644678  -0.5450233  75.9541158  36.7257952   0.9203035
  72.5127780  40.2428991  -0.7251553  72.2217646  41.1474622  -0.8404887
  73.1484764  40.2845519  -0.0107483  73.4383987  37.6205840  -4.1350193
  74.0347559  37.3961862  -4.8493230  73.4958958  36.8790585  -3.5324745
  77.4717665  39.9290407  -3.7301759  77.1718388  40.8315446  -3.8385952
  77.1268724  39.6622590  -2.8780606  72.4538445  46.6934727 -10.7630792
  72.3762474  47.6442552 -10.6842311  71.8500088  46.3480600 -10.1055865
  74.9455674  33.8662593   1.8930575  74.1689008  34.4256513   1.8833440
  75.5846237  34.3519376   2.4145445  73.2002047  36.6748046   1.4548542
  73.9416731  37.2133090   1.1783366  72.4939032  37.3014335   1.6120094
  78.6757386  38.8177187   0.0520704  79.0840742  38.3759597  -0.6924664
  77.9534648  38.2429814   0.3054897  75.0288456  33.7549793  -2.5745739
  75.8749652  34.1789207  -2.4311090  74.9687094  33.0983418  -1.8807176
  78.9986201  39.3778377  -6.1927007  78.3695063  39.5424091  -6.8950939
  78.6111863  39.7919987  -5.4216043  78.1787902  31.4154162  -0.9164566
  77.9348834  32.1696222  -1.4530290  78.4547832  31.7939509  -0.0817319
  80.1326365  37.9592774  -2.2387300  80.3443260  38.6024534  -2.9152919
  80.0856113  37.1255091  -2.7065370  71.9363410  33.8287694   2.2563852
  71.3062071  34.5103975   2.4899249  71.8299498  33.7170776   1.3116991
  81.2472192  40.8364729  -4.0664943  82.0689636  40.4344917  -4.3482261
  81.2434595  40.7332964  -3.1148827  75.0128796  40.3848773  -1.9104232
  75.0773228  40.8469180  -1.0746060  74.3039720  39.7546138  -1.7821922
  71.2144153  28.1308460   4.6189103  70.8211099  27.5774659   5.2936748
  72.0310294  28.4419039   5.0095621  74.1312114  29.5466339   2.2109360
  74.8721828  30.1473492   2.1313822  74.3630037  28.8043977   1.6527403
  69.2753452  34.7322706   0.4887590  69.1606967  33.8307964   0.7894689
  68.4197970  34.9786403   0.1372406  76.3545290  42.6740447   2.0875090
  75.9109144  41.8876825   1.7695995  77.0162504  42.8619597   1.4218981
  71.1132411  44.2036248  -3.3864231  71.6639836  44.0753312  -4.1587237
  70.2743887  44.5031137  -3.7369338  78.4526528  42.9543247   0.1156492
  78.4345003  43.7752128  -0.3763239  79.3746448  42.8297322   0.3406633
  74.9099582  40.4687376   0.9580000  75.4427919  39.7075664   0.7279308
  74.3813663  40.1761028   1.7004154  79.2745335  42.9649260  -9.3001239
  79.5668310  43.5254317 -10.0188874  79.7843956  43.2577821  -8.5448080
  74.2378960  43.7429611  -8.2107786  74.1955139  43.9690457  -9.1399254
  75.1541659  43.5092986  -8.0621985  77.6844594  34.2113679  -1.3127157
  78.0393982  34.4385152  -0.4532691  78.3316725  34.5432055  -1.9349902
  77.1739606  43.0010736  -4.0633456  77.2276628  43.5701672  -3.2955740
  76.3054387  43.1712621  -4.4279419  84.3027260  39.4432342  -3.0633671
  84.4963150  40.3478153  -2.8174396  84.2027878  38.9839761  -2.2295086
  75.9563571  29.3290233  -0.5643344  75.3091486  30.0280182  -0.6578867
  76.7264586  29.7626377  -0.1967095  79.3642369  39.5939085   2.5107210
  79.2127875  39.3649637   1.5937293  79.3547048  40.5509686   2.5238555
  76.1327705  37.1670998  -2.5046524  77.0619765  37.3182157  -2.6777557
  75.7118735  37.2555018  -3.3597877  74.9316037  41.1921662  -4.7347986
  74.7927123  40.8240446  -3.8622048  74.1430633  41.7069301  -4.9064028
  76.4821252  40.5703265  -7.3459148  76.1471085  40.5304035  -6.4501499
  75.9825198  39.9047981  -7.8188738  70.4565496  35.9770895  -1.8206567
  70.3185294  35.2451134  -1.2195028  71.3670420  35.8879795  -2.1022380
  73.0847797  35.6890854  -2.3322888  73.7947415  35.0484046  -2.3736269
  73.0417105  35.9403749  -1.4096707  81.0734576  42.6258207   0.5883692
  81.0147122  41.9417428  -0.0785725  81.4754094  43.3677197   0.1364318
  71.7976731  32.6756072  -0.5127248  71.2614088  32.2246810   0.1394348
  71.2093439  32.8101981  -1.2556784  70.0925274  49.4420121  -6.6182590
  70.3321873  50.0738645  -5.9403571  69.2494471  49.0908161  -6.3317230
  81.0751983  40.5897791  -1.1802329  80.1878762  40.2523713  -1.0575930
  81.6450534  39.8580823  -0.9433563  74.6053136  45.2499244  -4.2141086
  74.5323308  46.0554215  -3.7021781  74.1630529  45.4491210  -5.0393064
  77.0651820  45.1486078  -2.0582927  77.7779792  45.7833543  -2.1307025
  76.5741848  45.2449944  -2.8742925  72.1163733  42.8980521  -1.2377356
  72.8173193  43.5317004  -1.0847962  71.6458848  43.2395253  -1.9981717
  79.9165019  35.4525129  -3.4124806  79.2636469  35.7001036  -4.0672353
  80.2945399  34.6389267  -3.7462328  76.8772193  45.4884822  -9.3096635
  77.0594588  44.6706478  -8.8468883  77.7005179  45.7052514  -9.7471745
  75.9652592  36.1944940   3.0741231  75.2893229  36.0939069   3.7443607
  76.7880226  36.0384153   3.5377229  67.7131451  42.4316876  -4.3046253
  68.2984888  41.6860564  -4.1718349  67.5156290  42.7420833  -3.4209590
  74.7075375  47.5011867  -2.6901153  75.2593683  47.6643489  -1.9252067
  75.0481569  48.0916305  -3.3621128  69.1592141  31.9210149   1.5593766
  69.7864180  31.5387227   2.1731291  68.3020060  31.7024351   1.9249459
  79.5586249  42.3273125   3.1647502  80.1026153  42.9403083   2.6702457
  78.9773094  42.8852703   3.6814515  77.8443762  45.4493843  -5.7037470
  77.7194902  44.6483583  -6.2126525  78.5022854  45.9440036  -6.1923501
  79.9078671  43.2502863  -4.0757920  78.9609006  43.1308214  -4.1479594
  80.2561444  42.3625361  -3.9931659  72.2678244  29.1397002  -0.2519679
  72.7912646  29.3859298   0.5106631  72.0490577  29.9717036  -0.6716541
  76.9125104  43.0455579  -7.8753568  76.7650067  42.1172286  -7.6945998
  77.7378598  43.0675670  -8.3596493  80.5159226  43.8684138  -6.7888695
  81.4405773  43.6626999  -6.9264244  80.3474529  43.6200539  -5.8799354
  66.9097524  35.5254371  -0.4732888  66.1679260  35.6737006   0.1131742
  66.5890268  35.7862636  -1.3366139  74.8541186  45.0670349  -0.6752498
  75.1628313  44.8219496   0.1970201  75.6516668  45.2716987  -1.1633628
  74.8761799  47.2208258  -8.4447122  74.4366789  46.7284637  -7.7514265
  75.6269915  46.6781226  -8.6855047  72.3235671  42.7646267  -6.3724820
  71.7015680  42.1016972  -6.6722592  72.9940538  42.7907399  -7.0551172
  72.3960198  31.2428055   3.2207686  72.4448354  32.1190178   2.8385456
  72.9382712  30.7005449   2.6479329  82.8815044  41.7869179   2.5008823
  82.0910588  41.7693318   1.9613322  82.6448398  42.3257472   3.2557860
  83.0012919  38.6361645  -0.1858448  83.0510924  38.4711653   0.7557074
  82.8926842  37.7688904  -0.5760568  80.2916681  34.6192573   1.1300858
  81.1926544  34.4799038   0.8384856  80.3664656  34.7847028   2.0699036
  74.6259487  31.9959428  -0.0245955  73.7562796  32.2892994  -0.2963367
  74.8618967  32.5799873   0.6961308  84.5031116  41.0558587   0.0583573
  84.2115924  41.4188567   0.8947034  83.8903247  40.3425595  -0.1203095
  82.7518304  36.1791201  -1.4736369  83.2272426  36.3718848  -2.2817518
  81.8283869  36.2350387  -1.7192985  79.4734352  30.1412545  -3.0548662
  78.8784285  30.4217557  -3.7502174  79.1884049  30.6306445  -2.2831921
  75.6530074  39.1976880   3.3762097  76.5733084  39.3755479   3.5702144
  75.6179657  38.2532925   3.2241797  73.5220012  32.6811121   5.4087627
  73.4216739  33.6305478   5.3399719  73.3041554  32.3529359   4.5363698
  73.3851282  36.1108259   4.2252689  72.9018364  36.9108620   4.4316578
  73.4712221  36.1216204   3.2720133  69.3124620  40.0012794  -3.7378877
  70.2667873  39.9696736  -3.8048946  69.1137143  39.5403418  -2.9228651
  69.9024002  38.5713910  -1.1708079  70.7216891  39.0657989  -1.1473242
  70.1760809  37.6545878  -1.1990512  67.6674848  45.5432414  -6.7208679
  67.5329316  44.7832814  -7.2870681  67.2506911  46.2673313  -7.1879890
  70.8243974  46.4401731  -6.5090237  70.7076358  47.3847163  -6.6111546
  70.0036420  46.1375292  -6.1204437  77.6812308  39.9732891   5.0276258
  78.5503468  40.1473544   4.6662893  77.2019060  40.7927308   4.9051988
  71.8498488  47.0929992  -3.2934308  72.7525735  47.1253603  -2.9767813
  71.6235858  46.1630443  -3.2787972  73.6052090  45.8460979  -6.6324230
  72.6547721  45.8462841  -6.7459857  73.9084576  45.0993714  -7.1488195
  69.4956407  30.0519661   3.6259132  70.3587868  29.6956466   3.8362456
  68.9221818  29.7133556   4.3134536  86.1494490  51.6348946  -5.6316942
  85.8113002  51.5190010  -6.5196408  87.0184258  51.2340111  -5.6515936
  86.6314273  52.7883797   0.3269263  86.6202914  52.3936596  -0.5450233
  86.7934913  52.0549870   0.9203035  83.3521534  55.5720909  -0.7251553
  83.0611400  56.4766540  -0.8404887  83.9878519  55.6137437  -0.0107483
  84.2777741  52.9497758  -4.1350193  84.8741313  52.7253780  -4.8493230
  84.3352713  52.2082503  -3.5324745  81.7623901  51.7096121  -7.6965055
  80.8374397  51.5772336  -7.4887363  82.0108314  52.4890341  -7.1995112
  79.1232712  51.3529395  -6.8621266  79.2525093  51.6063874  -5.9481854
  78.4430163  51.9457103  -7.1816611  85.7849429  49.1954510   1.8930575
  85.0082763  49.7548430   1.8833440  86.4239992  49.6811293   2.4145445
  84.0395801  52.0039964   1.4548542  84.7810486  52.5425008   1.1783366
  83.3332787  52.6306252   1.6120094  89.5151141  54.1469104   0.0520704
  89.9234497  53.7051515  -0.6924664  88.7928402  53.5721732   0.3054897
  85.8682211  49.0841711  -2.5745739  86.7143406  49.5081125  -2.4311090
  85.8080849  48.4275335  -1.8807176  89.0181656  46.7446079  -0.9164566
  88.7742588  47.4988140  -1.4530290  89.2941587  47.1231427  -0.0817319
  90.9720119  53.2884692  -2.2387300  91.1837014  53.9316452  -2.9152919
  90.9249867  52.4547008  -2.7065370  82.7757165  49.1579612   2.2563852
  82.1455826  49.8395893   2.4899249  82.6693253  49.0462693   1.3116991
  78.0702137  48.8251408  -6.8170224  77.2801191  49.0808936  -7.2930113
  78.5613385  49.6399746  -6.7118183  85.8522550  55.7140690  -1.9104232
  85.9166983  56.1761098  -1.0746060  85.1433474  55.0838055  -1.7821922
  76.3539840  49.0781898  -4.3855233  76.6047879  49.9628908  -4.1197657
  76.8899389  48.8986500  -5.1580141  82.0537908  43.4600378   4.6189103
  81.6604853  42.9066576   5.2936748  82.8704048  43.7710956   5.0095621
  84.9705869  44.8758257   2.2109360  85.7115582  45.4765410   2.1313822
  85.2023791  44.1335895   1.6527403  80.1147207  50.0614624   0.4887590
  80.0000722  49.1599881   0.7894689  79.2591724  50.3078321   0.1372406
  87.1939044  58.0032364   2.0875090  86.7502899  57.2168743   1.7695995
  87.8556258  58.1911515   1.4218981  89.2920282  58.2835164   0.1156492
  89.2738758  59.1044045  -0.3763239  90.2140203  58.1589240   0.3406633
  85.7493337  55.7979294   0.9580000  86.2821673  55.0367582   0.7279308
  85.2207418  55.5052946   1.7004154  87.3825185  48.9508135  -6.1171860
  86.4647746  49.1723082  -6.2750171  87.7985329  49.0254445  -6.9760152
  77.0075053  50.5663606 -10.0227023  76.8099453  49.9732966 -10.7475956
  76.4521717  50.2615816  -9.3051084  88.5238349  49.5405596  -1.3127157
  88.8787736  49.7677069  -0.4532691  89.1710480  49.8723973  -1.9349902
  82.4178212  46.6482127  -4.5280816  83.0577591  46.5070886  -5.2257852
  81.5855742  46.3616641  -4.9042214  79.4206828  46.6182452  -9.7507829
  79.6813645  47.5327786  -9.8598669  80.2424000  46.1506895  -9.6011216
  80.8931753  48.0320209  -2.5809004  81.5654807  47.8237572  -3.2296356
  80.0661540  47.8342295  -3.0203772  86.7957325  44.6582150  -0.5643344
  86.1485240  45.3572100  -0.6578867  87.5658341  45.0918294  -0.1967095
  90.2036123  54.9231003   2.5107210  90.0521630  54.6941554   1.5937293
  90.1940803  55.8801604   2.5238555  86.9721460  52.4962915  -2.5046524
  87.9013520  52.6474075  -2.6777557  86.5512490  52.5846936  -3.3597877
  81.2959251  51.3062812  -1.8206567  81.1579049  50.5743051  -1.2195028
  82.2064174  51.2171713  -2.1022380  83.9241551  51.0182772  -2.3322888
  84.6341170  50.3775964  -2.3736269  83.8810860  51.2695667  -1.4096707
  82.6370485  48.0047990  -0.5127248  82.1007842  47.5538728   0.1394348
  82.0487194  48.1393898  -1.2556784  91.9145737  55.9189709  -1.1802329
  91.0272516  55.5815631  -1.0575930  92.4844288  55.1872740  -0.9433563
  73.5674884  52.2513801  -7.8559277  74.2545924  51.9375531  -8.4438262
  73.4123013  53.1555165  -8.1292026  78.3709607  47.1403997  -3.4274254
  78.2867795  46.5329667  -4.1623844  77.5492313  47.6313016  -3.4264757
  82.9557488  58.2272439  -1.2377356  83.6566947  58.8608922  -1.0847962
  82.4852603  58.5687170  -1.9981717  90.7558774  50.7817046  -3.4124806
  90.1030224  51.0292954  -4.0672353  91.1339154  49.9681185  -3.7462328
  86.8046347  51.5236857   3.0741231  86.1286984  51.4230987   3.7443607
  87.6273981  51.3676071   3.5377229  78.5525206  57.7608794  -4.3046253
  79.1378643  57.0152482  -4.1718349  78.3550044  58.0712751  -3.4209590
  73.1442861  50.3314394  -5.5841810  73.1826960  49.7977985  -4.7904692
  72.6383153  49.8049600  -6.2030833  80.5233623  45.1778935  -2.0879268
  80.5874949  46.0393766  -2.5001870  80.4600743  44.5652936  -2.8206909
  79.9985895  47.2502067   1.5593766  80.6257934  46.8679144   2.1731291
  79.1413814  47.0316269   1.9249459  90.3980004  57.6565042   3.1647502
  90.9419908  58.2695001   2.6702457  89.8166849  58.2144621   3.6814515
  80.3045685  47.1334493  -6.5260330  79.5832271  47.7470461  -6.6652857
  81.0938941  47.6692258  -6.6043684  83.1071999  44.4688919  -0.2519679
  83.6306400  44.7151216   0.5106631  82.8884332  45.3008954  -0.6716541
  84.3124544  45.4102614  -2.5670008  83.9721364  44.6110428  -2.1649328
  83.6063550  45.7104325  -3.1393175  84.9641016  42.4951927  -4.1142685
  85.7867085  42.0212405  -4.2363795  85.2079079  43.2742411  -3.6143999
  82.4879594  49.1871048  -6.3050706  82.3424175  49.5011351  -5.4126425
  82.0104798  49.8055948  -6.8579808  84.3475977  46.1773596  -6.2569817
  84.3337546  45.2814689  -6.5937519  85.0648405  46.1844259  -5.6231531
  86.2002108  46.6110936  -4.2116689  85.9419886  47.5328006  -4.2132359
  85.6687148  46.2141370  -3.5216225  76.9625256  51.7276392  -3.3663045
  76.4178725  52.5036200  -3.2342771  77.8404606  52.0747196  -3.5243924
  77.7491278  50.8546288  -0.4732888  77.0073014  51.0028924   0.1131742
  77.4284023  51.1154554  -1.3366139  83.2353953  46.5719973   3.2207686
  83.2842108  47.4482096   2.8385456  83.7776467  46.0297366   2.6479329
  93.7208798  57.1161096   2.5008823  92.9304342  57.0985235   1.9613322
  93.4842153  57.6549390   3.2557860  93.8406673  53.9653563  -0.1858448
  93.8904678  53.8003570   0.7557074  93.7320597  53.0980822  -0.5760568
  91.1310436  49.9484491   1.1300858  92.0320299  49.8090956   0.8384856
  91.2058410  50.1138946   2.0699036  85.4653241  47.3251346  -0.0245955
  84.5956550  47.6184912  -0.2963367  85.7012721  47.9091791   0.6961308
  93.5912058  51.5083119  -1.4736369  94.0666180  51.7010765  -2.2817518
  92.6677624  51.5642305  -1.7192985  88.1692275  43.5430962  -2.5080535
  88.6874219  44.2791989  -2.8334046  87.8147408  43.8494956  -1.6733776
  90.3128107  45.4704462  -3.0548662  89.7178039  45.7509475  -3.7502174
  90.0277804  45.9598363  -2.2831921  86.4923829  54.5268798   3.3762097
  87.4126838  54.7047397   3.5702144  86.4573412  53.5824843   3.2241797
  75.7105994  49.7207391  -7.6984628  75.3908778  48.8672700  -7.9910254
  75.1639422  49.9355970  -6.9426661  79.4885901  52.4369832  -3.9815121
  79.7071911  53.3686940  -3.9627088  79.9011675  52.0777807  -3.1960318
  84.3613766  48.0103038   5.4087627  84.2610493  48.9597395   5.3399719
  84.1435309  47.6821277   4.5363698  75.5794254  53.3410303  -5.7291506
  74.8857725  52.9264256  -6.2421552  76.3267245  53.3830839  -6.3258088
  84.2245037  51.4400177   4.2252689  83.7412118  52.2400537   4.4316578
  84.3105976  51.4508122   3.2720133  77.4930996  53.2728557  -7.8525492
  77.4701684  53.3716244  -8.8043608  77.8031633  54.1193708  -7.5308325
  80.1518374  55.3304712  -3.7378877  81.1061628  55.2988654  -3.8048946
  79.9530898  54.8695336  -2.9228651  80.7417756  53.9005828  -1.1708079
  81.5610645  54.3949906  -1.1473242  81.0154564  52.9837796  -1.1990512
  75.9952670  48.2343962  -0.4715882  76.6411534  47.7242916   0.0171343
  75.7869822  48.9712643   0.1027543  88.5206063  55.3024809   5.0276258
  89.3897222  55.4765461   4.6662893  88.0412814  56.1219226   4.9051988
  80.3350161  45.3811579   3.6259132  81.1981623  45.0248384   3.8362456
  79.7615572  45.0425474   4.3134536  92.8931662  58.7892295   4.6189103
  92.4998608  58.2358494   5.2936748  93.7097802  59.1002874   5.0095621
  95.2007521  63.3394956   5.4087627  95.1004248  64.2889313   5.3399719
  94.9829063  63.0113195   4.5363698  91.1743916  60.7103496   3.6259132
  92.0375377  60.3540301   3.8362456  90.6009327  60.3717391   4.3134536
   2.6228142  98.4971154  71.9348186   1.8691850  97.9278552  71.7792190
   2.7575683  98.4633818  72.8818821   3.0334557  98.6546764  74.6668430
   3.7637946  98.3932052  75.2276134   2.4241503  97.9175486  74.7070498
   1.1149854  96.7954626  75.2642881   0.3883018  96.6610591  74.6559373
   0.6997141  97.1031455  76.0699599   1.0398722  96.3232680  71.3919734
   0.4798280  96.3925869  72.1651296   0.4342225  96.1473664  70.6719230
   4.0000654 101.4800595  71.2419536   4.3059531 100.6197958  70.9545451
   4.7253259 102.0718215  71.0418530   1.7054826 101.2798921  72.6648519
   1.9856579 100.6122110  73.2908945   2.4905433 101.4728017  72.1523182
   1.6158357 100.4094459  69.1882108   0.8490753  99.8552946  69.3338790
   2.0269062 100.4816328  70.0496259   2.6228143  75.5033277  58.6593493
   1.8691852  74.9340675  58.5037497   2.7575685  75.4695941  59.6064127
   3.0334558  75.6608887  61.3913737   3.7637947  75.3994175  61.9521440
   2.4241504  74.9237608  61.4315805   1.1149856  73.8016749  61.9888188
   0.3883019  73.6672714  61.3804680   0.6997142  74.1093578  62.7944906
   1.0398723  73.3294802  58.1165041   0.4798281  73.3987991  58.8896603
   0.4342227  73.1535787  57.3964537   2.6254742  90.0051316  60.8094997
   3.2633152  89.8858063  60.1058337   2.5075585  90.9532160  60.8682949
   2.1796010  87.7302770  57.8848205   2.9659099  87.3122193  57.5338622
   2.4434714  88.6348862  58.0529853   2.3506087  93.1675620  52.5836861
   1.7151920  93.2410247  53.2957766   2.0203494  93.7569219  51.9055941
   7.5804437  87.6678003  58.7881183   8.3129609  87.0977220  59.0219013
   6.8243793  87.2799604  59.2287689   5.1029858  81.3799577  63.2475792
   4.7713182  82.2494988  63.0237007   4.5075471  81.0635861  63.9269822
   1.5961377  93.5812123  62.6471704   1.2962100  94.4837162  62.5387512
   1.2512437  93.3144306  63.4992857   4.9958521  86.0994663  60.3269142
   4.0875398  86.0310072  60.0327903   4.9446117  86.5766608  61.1550967
   6.8620167  84.3011102  62.1047016   6.2194548  84.5943635  61.4586810
   6.3575096  84.1864022  62.9100212   4.5160331  88.0474275  52.7932875
   5.4278187  88.2801662  52.6180573   4.0069978  88.6311319  52.2307954
   2.8001099  92.4698903  66.4294168   3.2084455  92.0281313  65.6848800
   2.0778360  91.8951530  66.6828360   3.1229913  93.0300093  60.1846456
   2.4938776  93.1945808  59.4822524   2.7355575  93.4441703  60.9557420
   7.0019145  93.9654531  57.5390820   6.3170183  94.3453433  56.9887853
   7.0862994  94.5749858  58.2722768   2.3031614  85.0675878  65.4608898
   2.0592546  85.8217938  64.9243174   2.5791545  85.4461226  66.2956145
   4.2570077  91.6114490  64.1386164   4.4686972  92.2546250  63.4620545
   4.2099825  90.7776807  63.6708094   1.8596306  84.2232311  61.0422736
   0.9980785  84.5213565  61.3339473   1.8858740  84.4402710  60.1103768
   5.3715905  94.4886446  62.3108521   6.1933348  94.0866633  62.0291203
   5.3678308  94.3854680  63.2624637  13.4621898  90.8325194  58.6593493
  12.7085606  90.2632592  58.5037497  13.5969439  90.7987859  59.6064127
   2.5770240  96.6064963  66.4929955   2.5588716  97.4273844  66.0010224
   3.4990160  96.4819038  66.7180096   2.2012989  79.2269158  62.8647105
   1.8577259  80.1170800  62.7886216   2.5691952  79.0370816  62.0016690
   2.1663272  89.2177770  51.3719540   1.6509896  89.9882374  51.6107928
   1.8940581  88.5442906  51.9952602   1.2809530  81.5973814  60.8296339
   0.7774325  81.5603949  60.0164144   1.5740137  82.5066556  60.8892995
   7.1397546  91.9710124  53.3072714   6.3626989  91.6321284  52.8627876
   7.8189027  91.9762747  52.6327679   1.9549575  87.0904862  53.1979322
   1.6499711  87.4051011  54.0489465   2.9080017  87.1686282  53.2406655
   5.3788853  91.4444105  59.9639322   4.7212528  92.1343367  60.0519451
   6.1829252  91.8340537  60.3073308   4.1894312  89.7988478  58.0143264
   4.7026194  90.4318470  58.5164973   4.8395536  89.1989674  57.6486624
   1.4516686  99.7772802  50.7703935   0.7778385 100.0804499  51.3788893
   1.8382508 100.5801883  50.4209392   1.4510191  88.6729349  55.3904284
   2.1982010  89.1850747  55.0811406   1.7201780  88.3513402  56.2508678
   4.9556108  94.7794480  56.1422406   4.5018435  93.9385389  56.1987597
   4.3250075  95.4155878  56.4797186   3.8989028  85.7086466  57.3723074
   3.1611785  85.1963852  57.7033316   4.1515801  85.2686847  56.5606351
   3.3989047  96.6170976  57.0772224   3.6912022  97.1776033  56.3584590
   3.9087668  96.9099537  57.8325384   4.0000655  78.4862718  57.9664843
   4.3059532  77.6260081  57.6790758   4.7253260  79.0780338  57.7663837
   1.8088306  87.8635395  65.0646307   2.1637694  88.0906868  65.9240773
   2.4560438  88.1953772  64.4423562   7.5386043  90.9853831  55.7695636
   7.4003942  91.1755427  54.8416825   7.1822262  91.7473214  56.2263687
   7.5655423  93.0530358  60.7806907   7.9991930  92.9605647  61.6289961
   8.2787004  93.0287858  60.1426923   1.2983318  96.6532452  62.3140008
   1.3520340  97.2223388  63.0817724   0.4298099  96.8234337  61.9494045
   8.4270973  93.0954058  63.3139793   8.6206863  93.9999869  63.5599068
   8.3271591  92.6361478  64.1478378   3.4886081  93.2460801  68.8880673
   3.3371588  93.0171353  67.9710757   3.4790761  94.2031403  68.9012018
   3.5424156  91.5681015  49.3051375   2.9253327  90.8427844  49.2084428
   3.0740645  92.3290376  48.9618449   5.1978288  96.2779924  66.9657155
   5.1390834  95.5939144  66.2987738   5.5997806  97.0198914  66.5137781
   5.1995695  94.2419508  65.1971135   4.3122474  93.9045429  65.3197534
   5.7694246  93.5102539  65.4339900   1.8283278  83.9487360  58.3169405
   2.3251978  83.1957322  57.9970475   1.0570260  83.9851676  57.7512614
   9.6813036  89.6527725  59.9587697   9.6702912  90.5352440  59.5881630
   8.8130415  89.2999276  59.7642234   1.1895532  98.8007794  64.3190537
   1.9023504  99.4355259  64.2466438   0.6985561  98.8971660  63.5030539
   2.9113059  92.7059047  55.8907828   1.9769338  92.8260509  55.7212533
   3.0889727  91.8031513  55.6267838   6.2985610  88.5476366  56.4257863
   6.7646062  89.3804358  56.3518165   6.7493111  88.0821348  57.1303121
   4.3661841  94.8920187  53.4244015   4.6421685  94.7776782  54.3337889
   3.4966340  94.4937672  53.3856188   4.2702273  80.9156953  60.4648764
   3.3565353  81.1461180  60.6330971   4.6995374  80.9995397  61.3162796
   4.0408732  89.1046845  62.9648658   3.3880182  89.3522752  62.3101111
   4.4189111  88.2910983  62.6311135   1.0015905  99.1406538  57.0676828
   1.1838300  98.3228194  57.5304581   1.8248891  99.3574230  56.6301718
   1.3358071  98.0674723  54.3291877   1.8645837  97.5567178  53.7162039
   1.5986290  97.7517253  55.1937410   3.6829962  95.9794841  69.5420965
   4.2269866  96.5924799  69.0475920   3.1016807  96.5374419  70.0587978
   1.9687475  99.1015559  60.6735993   1.8438614  98.3005299  60.1646939
   2.6266566  99.5961752  60.1849963   4.0322383  96.9024579  62.3015543
   3.0852719  96.7829930  62.2293870   4.3805156  96.0147077  62.3841805
   1.0368816  96.6977295  58.5019896   0.8893779  95.7694003  58.6827466
   1.8622310  96.7197386  58.0176971   4.6402938  97.5205854  59.5884768
   5.5649486  97.3148715  59.4509219   4.4718242  97.2722255  60.4974110
   1.0330331  84.5515133  53.4952013   1.2493945  85.4339771  53.1940841
   0.5524398  84.1601346  52.7657655   4.4298254  98.0391521  54.9446860
   4.6035132  97.4737944  54.1920712   4.9227146  98.8392416  54.7626350
  10.2837646  90.8027944  56.5637159  10.7268792  90.0535270  56.1656283
   9.4064156  90.7938081  56.1810891   5.4173427  97.3558286  52.0443758
   6.1124332  97.9764979  52.2631073   5.7596577  96.5053637  52.3196136
   7.3164850  94.8057991  53.5731089   7.8416174  95.1445264  52.8480409
   7.2287203  93.8705007  53.3894223   7.0058756  95.4390895  68.8782287
   6.2154300  95.4215034  68.3386786   6.7692111  95.9779189  69.6331323
   7.1256631  92.2883361  66.1915015   7.1754636  92.1233369  67.1330538
   7.0170555  91.4210620  65.8012896   4.4160394  88.2714289  67.5074322
   5.3170256  88.1320754  67.2158320   4.4908368  88.4368744  68.4472499
   8.6274828  94.7080303  66.4357037   8.3359636  95.0710283  67.2720498
   8.0146959  93.9947311  66.2570369   9.8270510  92.2733183  58.9559607
  10.6617402  92.7122987  59.1197167   9.9629639  91.7971836  58.1367853
   6.8762016  89.8312918  64.9037095   7.3516138  90.0240564  64.0955946
   5.9527582  89.8872103  64.6580478   1.4542233  81.8660761  63.8692929
   1.9724177  82.6021788  63.5439417   1.0997365  82.1724754  64.7039688
   1.7054827  78.2861044  59.3893825   1.9856581  77.6184233  60.0154252
   2.4905434  78.4790139  58.8768489   5.5763685  86.7078678  63.1365400
   6.5281108  86.8076775  63.1577624   5.4067136  85.9156946  63.6463485
   3.5978065  83.7934261  63.3224801   3.0027997  84.0739274  62.6271290
   3.3127761  84.2828162  64.0941542   2.7285555  97.7457188  52.0827434
   3.6616228  97.6802749  52.2860309   2.6408768  98.5813455  51.6241967
   5.3573572  97.0623058  49.0431381   5.2787203  96.7282922  49.9367139
   6.1783239  97.5544826  49.0422854   8.0551763  89.9284797  62.2507700
   8.0228083  88.9900798  62.4367384   8.6652387  90.0068834  61.5173525
   8.2046252  86.7195841  62.2965983   7.6885300  85.9354297  62.1095912
   9.0886200  86.3914557  62.4612503   5.8656978  80.4636856  58.2561796
   5.6681800  80.1551945  59.1405128   6.4756684  81.1898495  58.3859726
  13.8728313  90.9900804  61.3913737  14.6031701  90.7286092  61.9521440
  13.2635258  90.2529526  61.4315805  11.9543610  89.1308667  61.9888188
  11.2276774  88.9964632  61.3804680  11.5390897  89.4385495  62.7944906
   1.6230625  80.3445763  56.0058327   2.1761664  80.7641217  56.6648350
   1.8600711  79.4181511  56.0481283   5.0009432  82.4546288  55.5136992
   4.4208101  83.1131092  55.1315044   4.7345365  81.6323633  55.1024409
   3.4512999  81.8551346  57.7158312   3.9512777  81.9667881  56.9072631
   4.0948606  81.5512399  58.3559120   3.7834310  84.6146379  54.5693340
   2.8960165  84.8996029  54.3513535   4.1988299  84.4540142  53.7220617
   7.1348846  84.6392900  58.2847679   7.9109236  85.1289352  58.5572296
   6.4096980  85.0650954  58.7419549   9.5721405  85.3520519  59.3421620
  10.1665896  85.1116255  58.6314928   9.6447989  84.6327650  59.9695156
   2.9277524  94.3791053  48.6641360   3.6313374  94.5841056  49.2799015
   2.2040172  94.9467815  48.9290443   3.7575334  90.1300915  54.7843630
   3.7010535  90.5869466  53.9451262   4.3103676  89.3691599  54.6066473
   7.5680140  85.9190647  55.6093749   7.3117074  85.5187282  56.4401957
   6.9433008  86.6334441  55.4843889  11.8792478  88.6586720  58.1165041
  11.3192036  88.7279909  58.8896603  11.2735981  88.4827704  57.3964537
   4.8364221  94.8173583  50.7139820   5.6709825  94.3854781  50.5317295
   4.6748564  94.6455596  51.6416714   4.4910113  91.3205696  52.0796159
   4.4358917  91.1549967  51.1384603   3.8656168  92.0281729  52.2358349
   1.8056020  93.6254608  71.4049722   2.6747180  93.7995260  71.0436357
   1.3262772  94.4449025  71.2825451   1.6158358  77.4156582  55.9127414
   0.8490754  76.8615068  56.0584097   2.0269063  77.4878450  56.7741566
  13.0189765 103.0594688  57.8848205  13.8052854 102.6414111  57.5338622
  13.2828469 103.9640780  58.0529853  18.4198192 102.9969921  58.7881183
  19.1523364 102.4269138  59.0219013  17.6637547 102.6091521  59.2287689
  15.9423612  96.7091495  63.2475792  15.6106937  97.5786906  63.0237007
  15.3469225  96.3927779  63.9269822   9.6779798 100.4487062  50.9805874
   9.8454201 101.3167298  51.3476345   9.4876968 100.6114344  50.0567163
  15.8352275 101.4286581  60.3269142  14.9269153 101.3601990  60.0327903
  15.7839871 101.9058526  61.1550967   9.6569019 102.9044719  51.9652541
   9.5368645 103.3501770  52.8038021   8.9621608 103.2530037  51.4066079
   9.9093141 102.8476227  68.2704039   9.1326475 103.4070147  68.2606904
  10.5483704 103.3333010  68.7918909  17.7013922  99.6303019  62.1047016
  17.0588302  99.9235553  61.4586810  17.1968850  99.5155940  62.9100212
  15.3554085 103.3766193  52.7932875  16.2671942 103.6093579  52.6180573
  14.8463733 103.9603237  52.2307954   9.9925923 102.7363427  63.8027724
  10.8387118 103.1602841  63.9462373   9.9324561 102.0797052  64.4966288
  13.1425369 100.3967796  65.4608898  12.8986300 101.1509856  64.9243174
  13.4185299 100.7753143  66.2956145  12.6990060  99.5524229  61.0422736
  11.8374539  99.8505482  61.3339473  12.7252495  99.7694628  60.1103768
  24.3015652 106.1617112  58.6593493  23.5479361 105.5924510  58.5037497
  24.4363193 106.1279776  59.6064127   6.1781620  97.1122094  70.9962567
   5.7848566  96.5588293  71.6710211   6.9947760  97.4232673  71.3869085
   9.0949581  98.5279973  68.5882824   9.8359294  99.1287126  68.5087286
   9.3267504  97.7857611  68.0300866  13.0406744  94.5561076  62.8647105
  12.6971013  95.4462718  62.7886216  13.4085707  94.3662734  62.0016690
  13.0057027 104.5469687  51.3719540  12.4903650 105.3174292  51.6107928
  12.7334335 103.8734823  51.9952602  10.5904138  99.3919388  56.4304779
   9.7345734  99.0026238  56.2510418  11.0031089  99.4711349  55.5704564
  12.1203284  96.9265731  60.8296339  11.6168080  96.8895866  60.0164144
  12.4133891  97.8358474  60.8892995   8.3646170  97.0104461  59.8362520
   9.2299167  96.8147270  59.4768410   8.4323679  96.7814813  60.7631877
  17.9791301 107.3002042  53.3072714  17.2020744 106.9613201  52.8627876
  18.6582782 107.3054665  52.6327679  12.7943330 102.4196779  53.1979322
  12.4893465 102.7342928  54.0489465  13.7473772 102.4978199  53.2406655
   5.9708489  99.2406669  57.2078887   6.5452241  99.0181850  56.4752080
   6.5579472  99.3095363  57.9607488  15.0288066 105.1280396  58.0143264
  15.5419948 105.7610388  58.5164973  15.6789290 104.5281591  57.6486624
   6.2978076 101.2711130  51.2274772   5.4615389 101.6085816  51.5484047
   6.1582846 101.1360110  50.2901909   8.2731157  96.1147918  55.9353957
   7.6195569  95.7996935  55.3110571   8.2311631  95.4923658  56.6613779
  11.5068897 102.6029851  60.2601604  10.5891459 102.8244798  60.1023292
  11.9229041 102.6776162  59.4013312  12.2903945 104.0021267  55.3904284
  13.0375764 104.5142664  55.0811406  12.5595535 103.6805320  56.2508678
  14.7382782 101.0378383  57.3723074  14.0005539 100.5255769  57.7033316
  14.9909556 100.5978765  56.5606351  14.8394410  93.8154635  57.9664843
  15.1453286  92.9551999  57.6790758  15.5647014  94.4072255  57.7663837
   7.0507849 102.7285488  56.2331413   6.2375715 103.0279659  56.6396605
   7.5466843 102.3341177  56.9505895  12.6482061 103.1927313  65.0646307
  13.0031449 103.4198786  65.9240773  13.2954192 103.5245689  64.4423562
  18.3779798 106.3145748  55.7695636  18.2397696 106.5047344  54.8416825
  18.0216017 107.0765131  56.2263687   6.5421924 100.3003844  61.8492648
   7.1821303 100.1592603  61.1515611   5.7099455 100.0138357  61.4731250
   3.5450540 100.2704169  56.6265635   3.8057358 101.1849502  56.5174795
   4.3667713  99.8028611  56.7762248   5.0175466 101.6841926  63.7964459
   5.6898519 101.4759288  63.1477108   4.1905252 101.4864012  63.3569692
  10.9201038  98.3103867  65.8130120  10.2728953  99.0093816  65.7194597
  11.6902053  98.7440011  66.1806368   6.7614198 101.6569706  65.8646216
   6.2251555 101.2060444  66.5167812   6.1730906 101.7915615  65.1216680
   6.1716457 101.1158357  48.4272679   5.2945923 100.9947158  48.0634926
   6.6474210 100.3244436  48.1751568   2.4953319 100.7925714  62.9499210
   2.4111508 100.1851383  62.2149620   1.6736025 101.2834732  62.9508706
  12.6677033  99.2779277  58.3169405  13.1645732  98.5249240  57.9970475
  11.8964014  99.3143594  57.7512614  20.5206790 104.9819643  59.9587697
  20.5096666 105.8644358  59.5881630  19.6524170 104.6291194  59.7642234
   9.2512001 101.4196660  58.0441090   8.8809789 100.8667701  58.7321995
   9.7471094 100.8154794  57.4916090  17.1379365 103.8768284  56.4257863
  17.6039817 104.7096275  56.3518165  17.5886865 103.4113265  57.1303121
  15.1096028  96.2448871  60.4648764  14.1959107  96.4753098  60.6330971
  15.5389129  96.3287315  61.3162796  14.8802486 104.4338763  62.9648658
  14.2273936 104.6814670  62.3101111  15.2582866 103.6202901  62.6311135
   4.6477335  98.8300651  64.2894196   4.7118662  99.6915482  63.8771593
   4.5844455  98.2174653  63.5566554   4.1229608 100.9023783  67.9367230
   4.7501646 100.5200861  68.5504754   3.2657527 100.6837985  68.3022923
   4.4289397 100.7856209  59.8513133   3.7075983 101.3992177  59.7120607
   5.2182653 101.3213974  59.7729779   7.2315711  98.1210636  66.1253785
   7.7550113  98.3672932  66.8880095   7.0128044  98.9530670  65.7056923
   2.6282992 100.3914310  53.9924910   2.2995698  99.5111689  53.8100016
   2.9822363 100.3361979  54.8801299   5.7424815 100.6787280  54.3600388
   6.0820888 101.2073201  53.6378996   6.1896936 101.0167686  55.1358954
   8.4368256  99.0624331  63.8103456   8.0965076  98.2632144  64.2124136
   7.7307262  99.3626042  63.2380289   9.0884728  96.1473643  62.2630779
   9.9110797  95.6734121  62.1409669   9.3322791  96.9264127  62.7629465
   7.7292962  99.1761902  52.5593680   8.4501325  99.5543154  52.0557397
   7.1058266  99.8950778  52.6628658  11.8724085  99.8807051  53.4952013
  12.0887700 100.7631688  53.1940841  11.3918152  99.4893264  52.7657655
   8.4719689  99.8295312  60.1203647   8.4581258  98.9336405  59.7835945
   9.1892118  99.8365976  60.7541933  10.3245820 100.2632652  62.1656774
  10.0663598 101.1849723  62.1641105   9.7930861  99.8663087  62.8557238
   7.8756585  98.7109692  55.3891217   7.9972497  97.7826338  55.5882105
   7.5858628  98.7248378  54.4769532  10.7447776  96.3964603  58.5257937
  10.7669473  96.4603936  57.5709916  11.1615835  95.5569111  58.7198443
  21.1231400 106.1319862  56.5637159  21.5662546 105.3827187  56.1656283
  20.2457910 106.1229998  56.1810891   7.3597665 100.2241689  69.5981150
   7.4085820 101.1003812  69.2158919   7.9020179  99.6819083  69.0252793
  15.2554148 103.6006207  67.5074322  16.1564011 103.4612672  67.2158320
  15.3302123 103.7660662  68.4472499   9.5896953 100.9773062  66.3527508
   8.7200263 101.2706628  66.0810097   9.8256434 101.5613507  67.0734772
  20.6664265 107.6025100  58.9559607  21.5011156 108.0414904  59.1197167
  20.8023394 107.1263754  58.1367853  17.7155771 105.1604835  64.9037095
  18.1909892 105.3532482  64.0955946  16.7921336 105.2164021  64.6580478
  12.2935987  97.1952679  63.8692929  12.8117931  97.9313706  63.5439417
  11.9391120  97.5016672  64.7039688   3.8734925 102.0557360  51.9854335
   3.1804170 102.1301715  51.3294371   3.6286677 101.2917704  52.5075851
  12.5448581  93.6152961  59.3893825  12.8250335  92.9476150  60.0154252
  13.3299188  93.8082057  58.8768489  16.4157440 102.0370595  63.1365400
  17.3674863 102.1368693  63.1577624  16.2460890 101.2448864  63.6463485
  14.4371819  99.1226179  63.3224801  13.8421751  99.4031191  62.6271290
  14.1521516  99.6120079  64.0941542  18.8945518 105.2576715  62.2507700
  18.8621838 104.3192716  62.4367384  19.5046141 105.3360752  61.5173525
  10.7328848 104.1272768  48.2934904  11.6787953 103.9978976  48.3623322
  10.3543093 103.3887430  48.7704332  19.0440006 102.0487758  62.2965983
  18.5279055 101.2646215  62.1095912  19.9279955 101.7206475  62.4612503
  16.7050733  95.7928774  58.2561796  16.5075554  95.4843862  59.1405128
  17.3150438  96.5190413  58.3859726  24.7122067 106.3192722  61.3913737
  25.4425456 106.0578010  61.9521440  24.1029013 105.5821444  61.4315805
  22.7937364 104.4600584  61.9888188  22.0670528 104.3256549  61.3804680
  22.3784651 104.7677413  62.7944906   8.9171766 102.0522744  48.2289789
   8.0103221 101.7555857  48.3052503   9.1947747 101.7552562  47.3624076
  10.5333831  96.5959634  54.3834031   9.7234560  96.2506719  54.7589277
  11.2218248  96.2867178  54.9721642  12.4624380  95.6737681  56.0058327
  13.0155418  96.0933134  56.6648350  12.6994466  94.7473429  56.0481283
   8.4857479 101.6624755  71.7861091   8.3854206 102.6119112  71.7173182
   8.2679021 101.3342993  70.9137161   7.6870550  98.9109680  48.3701769
   8.5489714  99.2364578  48.6297586   7.8720894  98.1241175  47.8574834
  15.8403187  97.7838206  55.5136992  15.2601856  98.4423010  55.1315044
  15.5739119  96.9615551  55.1024409  14.2906753  97.1843264  57.7158312
  14.7906531  97.2959798  56.9072631  14.9342361  96.8804317  58.3559120
  14.6228065  99.9438296  54.5693340  13.7353920 100.2287947  54.3513535
  15.0382054  99.7832060  53.7220617  17.9742601  99.9684817  58.2847679
  18.7502991 100.4581270  58.5572296  17.2490735 100.3942872  58.7419549
  20.4115159 100.6812437  59.3421620  21.0059650 100.4408173  58.6314928
  20.4841743  99.9619567  59.9695156  14.5969088 105.4592832  54.7843630
  14.5404290 105.9161384  53.9451262  15.1497431 104.6983517  54.6066473
  18.4073894 101.2482564  55.6093749  18.1510829 100.8479200  56.4401957
  17.7826762 101.9626358  55.4843889  22.7186232 103.9878637  58.1165041
  22.1585790 104.0571827  58.8896603  22.1129736 103.8119622  57.3964537
   8.6399993  96.1505723  51.6581478   8.6278663  97.0947563  51.8149748
   9.5323415  95.9675868  51.3640939  12.4552113  92.7448499  55.9127414
  11.6884508  92.1906986  56.0584097  12.8662818  92.8170368  56.7741566
   4.4593874  99.0333295  70.0032596   5.3225335  98.6770100  70.2135920
   3.8859284  98.6947190  70.6908000  25.6788164 109.1446553  57.9664843
  25.9847041 108.2843916  57.6790758  26.4040769 109.7364173  57.7663837
  23.3842336 108.9444879  59.3893825  23.6644090 108.2768068  60.0154252
  24.1692943 109.1373975  58.8768489  23.2945867 108.0740417  55.9127414
  22.5278263 107.5198904  56.0584097  23.7056572 108.1462286  56.7741566
   2.6228145  52.5095399  45.3838799   1.8691853  51.9402797  45.2282804
   2.7575686  52.4758064  46.3309434   3.0334560  52.6671009  48.1159043
   3.7637948  52.4056297  48.6766747   2.4241505  51.9299731  48.1561111
   1.1149857  50.8078872  48.7133495   0.3883020  50.6734837  48.1049986
   0.6997144  51.1155700  49.5190213   1.0398724  50.3356925  44.8410347
   0.4798282  50.4050114  45.6141910   0.4342228  50.1597909  44.1209844
   2.6254743  67.0113439  47.5340303   3.2633153  66.8920186  46.8303643
   2.5075586  67.9594283  47.5928255   2.1796011  64.7364893  44.6093511
   2.9659101  64.3184316  44.2583928   2.4434716  65.6410985  44.7775160
   2.3506089  70.1737743  39.3082168   1.7151922  70.2472369  40.0203073
   2.0203495  70.7631342  38.6301247   7.5804439  64.6740126  45.5126490
   8.3129610  64.1039343  45.7464319   6.8243794  64.2861726  45.9532995
   5.1029859  58.3861700  49.9721098   4.7713184  59.2557111  49.7482313
   4.5075472  58.0697984  50.6515129   1.5961378  70.5874246  49.3717011
   1.2962101  71.4899285  49.2632818   1.2512438  70.3206429  50.2238164
   4.9958522  63.1056786  47.0514448   4.0875400  63.0372194  46.7573209
   4.9446118  63.5828731  47.8796274   6.8620169  61.3073224  48.8292322
   6.2194549  61.6005758  48.1832117   6.3575097  61.1926145  49.6345519
   4.5160332  65.0536398  39.5178182   5.4278188  65.2863784  39.3425879
   4.0069979  65.6373442  38.9553260   2.8001100  69.4761025  53.1539474
   3.2084456  69.0343436  52.4094107   2.0778361  68.9013653  53.4073667
   3.1229915  70.0362216  46.9091763   2.4938777  70.2007930  46.2067831
   2.7355577  70.4503826  47.6802727   7.0019146  70.9716654  44.2636127
   6.3170185  71.3515555  43.7133160   7.0862996  71.5811981  44.9968075
   2.3031615  62.0738001  52.1854205   2.0592547  62.8280061  51.6488480
   2.5791546  62.4523348  53.0201452   4.2570078  68.6176613  50.8631470
   4.4686973  69.2608373  50.1865851   4.2099826  67.7838929  50.3953400
   1.8596307  61.2294434  47.7668042   0.9980786  61.5275687  48.0584780
   1.8858742  61.4464832  46.8349075   5.3715906  71.4948568  49.0353828
   6.1933350  71.0928756  48.7536509   5.3678309  71.3916803  49.9869943
  13.4621899  67.8387317  45.3838799  12.7085607  67.2694715  45.2282804
  13.5969440  67.8049981  46.3309434   2.5770242  73.6127086  53.2175262
   2.5588717  74.4335967  52.7255531   3.4990162  73.4881161  53.4425403
   2.2012991  56.2331281  49.5892412   1.8577260  57.1232923  49.5131523
   2.5691953  56.0432939  48.7261997   2.1663273  66.2239892  38.0964847
   1.6509897  66.9944497  38.3353234   1.8940582  65.5505028  38.7197909
   1.2809531  58.6035936  47.5541645   0.7774327  58.5666071  46.7409451
   1.5740138  59.5128679  47.6138302   7.1397548  68.9772247  40.0318021
   6.3626990  68.6383406  39.5873183   7.8189028  68.9824870  39.3572986
   1.9549577  64.0966984  39.9224628   1.6499712  64.4113133  40.7734771
   2.9080019  64.1748404  39.9651961   5.3788854  68.4506228  46.6884629
   4.7212529  69.1405489  46.7764757   6.1829254  68.8402660  47.0318615
   4.1894313  66.8050601  44.7388570   4.7026195  67.4380593  45.2410280
   4.8395537  66.2051796  44.3731930   1.4516687  76.7834925  37.4949241
   0.7778386  77.0866622  38.1034199   1.8382509  77.5864005  37.1454699
   1.4510192  65.6791472  42.1149591   2.1982011  66.1912869  41.8056713
   1.7201781  65.3575525  42.9753985   4.9556109  71.7856602  42.8667713
   4.5018437  70.9447512  42.9232903   4.3250076  72.4218001  43.2042493
   3.8989029  62.7148588  44.0968380   3.1611786  62.2025974  44.4278623
   4.1515803  62.2748970  43.2851657   3.3989049  73.6233099  43.8017531
   3.6912023  74.1838156  43.0829897   3.9087669  73.9161660  44.5570690
   4.0000656  55.4924840  44.6910150   4.3059533  54.6322204  44.4036065
   4.7253261  56.0842460  44.4909144   1.8088308  64.8697517  51.7891613
   2.1637695  65.0968991  52.6486079   2.4560439  65.2015894  51.1668869
   7.5386045  67.9915953  42.4940943   7.4003943  68.1817549  41.5662132
   7.1822263  68.7535336  42.9508994   7.5655424  70.0592480  47.5052214
   7.9991931  69.9667769  48.3535268   8.2787005  70.0349981  46.8672230
   1.2983319  73.6594574  49.0385315   1.3520341  74.2285511  49.8063031
   0.4298100  73.8296460  48.6739352   8.4270974  70.1016181  50.0385099
   8.6206864  71.0061992  50.2844374   8.3271592  69.6423600  50.8723684
   3.4886082  70.2522924  55.6125980   3.3371589  70.0233475  54.6956064
   3.4790762  71.2093525  55.6257325   3.5424157  68.5743138  36.0296682
   2.9253328  67.8489966  35.9329734   3.0740646  69.3352498  35.6863756
   5.1978289  73.2842046  53.6902462   5.1390835  72.6001266  53.0233045
   5.5997807  74.0261036  53.2383088   5.1995696  71.2481630  51.9216442
   4.3122475  70.9107552  52.0442840   5.7694247  70.5164661  52.1585207
   1.8283279  60.9549482  45.0414712   2.3251979  60.2019444  44.7215782
   1.0570261  60.9913799  44.4757921   9.6813037  66.6589848  46.6833003
   9.6702913  67.5414563  46.3126936   8.8130416  66.3061398  46.4887540
   1.1895533  75.8069917  51.0435843   1.9023505  76.4417381  50.9711745
   0.6985562  75.9033783  50.2275845   2.9113060  69.7121169  42.6153135
   1.9769339  69.8322632  42.4457839   3.0889729  68.8093636  42.3513145
   6.2985612  65.5538489  43.1503169   6.7646064  66.3866480  43.0763472
   6.7493112  65.0883470  43.8548428   4.3661843  71.8982310  40.1489321
   4.6421687  71.7838904  41.0583195   3.4966341  71.4999795  40.1101494
   4.2702274  57.9219076  47.1894071   3.3565354  58.1523302  47.3576278
   4.6995376  58.0057520  48.0408103   4.0408733  66.1108968  49.6893965
   3.3880183  66.3584875  49.0346417   4.4189113  65.2973106  49.3556442
   1.0015907  76.1468661  43.7922135   1.1838301  75.3290317  44.2549887
   1.8248893  76.3636353  43.3547025   1.3358072  75.0736846  41.0537183
   1.8645839  74.5629300  40.4407345   1.5986292  74.7579376  41.9182716
   3.6829963  72.9856964  56.2666272   4.2269867  73.5986922  55.7721227
   3.1016808  73.5436542  56.7833285   1.9687476  76.1077682  47.3981300
   1.8438615  75.3067421  46.8892245   2.6266567  76.6023875  46.9095270
   4.0322384  73.9086702  49.0260850   3.0852720  73.7892053  48.9539177
   4.3805157  73.0209200  49.1087111   1.0368818  73.7039418  45.2265202
   0.8893780  72.7756125  45.4072772   1.8622311  73.7259509  44.7422277
   4.6402939  74.5267977  46.3130075   5.5649487  74.3210838  46.1754526
   4.4718243  74.2784378  47.2219416   1.0330332  61.5577256  40.2197319
   1.2493946  62.4401893  39.9186148   0.5524399  61.1663469  39.4902961
   4.4298256  75.0453644  41.6692166   4.6035133  74.4800067  40.9166019
   4.9227147  75.8454539  41.4871656  10.2837647  67.8090067  43.2882466
  10.7268793  67.0597392  42.8901589   9.4064157  67.8000203  42.9056198
   5.4173428  74.3620408  38.7689065   6.1124333  74.9827101  38.9876379
   5.7596578  73.5115760  39.0441443   7.3164851  71.8120114  40.2976395
   7.8416175  72.1507387  39.5725715   7.2287204  70.8767129  40.1139530
   7.0058757  72.4453018  55.6027593   6.2154301  72.4277156  55.0632093
   6.7692112  72.9841311  56.3576630   7.1256632  69.2945484  52.9160322
   7.1754637  69.1295491  53.8575845   7.0170556  68.4272743  52.5258203
   4.4160395  65.2776412  54.2319629   5.3170258  65.1382877  53.9403626
   4.4908369  65.4430867  55.1717806   8.6274829  71.7142426  53.1602343
   8.3359638  72.0772406  53.9965804   8.0146961  71.0009434  52.9815676
   9.8270512  69.2795305  45.6804914  10.6617403  69.7185109  45.8442474
   9.9629640  68.8033959  44.8613159   6.8762017  66.8375040  51.6282401
   7.3516139  67.0302686  50.8201253   5.9527583  66.8934226  51.3825785
   1.4542234  58.8722884  50.5938235   1.9724178  59.6083911  50.2684724
   1.0997367  59.1786877  51.4284994   1.7054828  55.2923166  46.1139132
   1.9856582  54.6246355  46.7399558   2.4905435  55.4852262  45.6013796
   5.5763686  63.7140800  49.8610707   6.5281109  63.8138898  49.8822931
   5.4067137  62.9219069  50.3708791   3.5978066  60.7996383  50.0470108
   3.0027998  61.0801396  49.3516597   3.3127763  61.2890284  50.8186849
   2.7285556  74.7519310  38.8072741   3.6616230  74.6864872  39.0105616
   2.6408769  75.5875577  38.3487273   5.3573573  74.0685181  35.7676688
   5.2787205  73.7345044  36.6612446   6.1783240  74.5606949  35.7668160
   8.0551764  66.9346920  48.9753007   8.0228084  65.9962921  49.1612691
   8.6652388  67.0130957  48.2418832   8.2046253  63.7257963  49.0211290
   7.6885301  62.9416420  48.8341219   9.0886201  63.3976680  49.1857809
   5.8656980  57.4698979  44.9807103   5.6681801  57.1614067  45.8650435
   6.4756685  58.1960618  45.1105032  13.8728314  67.9962927  48.1159043
  14.6031703  67.7348215  48.6766747  13.2635260  67.2591649  48.1561111
  11.9543611  66.1370789  48.7133495  11.2276775  66.0026754  48.1049986
  11.5390898  66.4447618  49.5190213   1.6230626  57.3507886  42.7303634
   2.1761665  57.7703339  43.3893657   1.8600713  56.4243634  42.7726590
   5.0009433  59.4608411  42.2382298   4.4208102  60.1193215  41.8560351
   4.7345366  58.6385756  41.8269716   3.4513000  58.8613469  44.4403618
   3.9512778  58.9730003  43.6317937   4.0948608  58.5574522  45.0804427
   3.7834311  61.6208501  41.2938646   2.8960166  61.9058152  41.0758841
   4.1988300  61.4602265  40.4465923   7.1348848  61.6455022  45.0092986
   7.9109238  62.1351475  45.2817602   6.4096982  62.0713077  45.4664855
   9.5721406  62.3582642  46.0666926  10.1665897  62.1178378  45.3560235
   9.6447990  61.6389772  46.6940463   2.9277525  71.3853176  35.3886666
   3.6313375  71.5903179  36.0044322   2.2040174  71.9529938  35.6535750
   3.7575335  67.1363037  41.5088937   3.7010537  67.5931589  40.6696569
   4.3103678  66.3753722  41.3311779   7.5680141  62.9252769  42.3339056
   7.3117075  62.5249405  43.1647264   6.9433009  63.6396563  42.2089195
  11.8792479  65.6648842  44.8410347  11.3192037  65.7342032  45.6141910
  11.2735982  65.4889827  44.1209844   4.8364222  71.8235705  37.4385126
   5.6709826  71.3916904  37.2562601   4.6748565  71.6517719  38.3662021
   4.4910114  68.3267819  38.8041466   4.4358918  68.1612090  37.8629910
   3.8656170  69.0343851  38.9603655   1.8056022  70.6316730  58.1295029
   2.6747181  70.8057383  57.7681663   1.3262773  71.4511147  58.0070758
   1.6158359  54.4218704  42.6372721   0.8490755  53.8677191  42.7829403
   2.0269064  54.4940573  43.4986873  13.4648497  82.3405356  47.5340303
  14.1026907  82.2212104  46.8303643  13.3469340  83.2886200  47.5928255
  10.2738204  82.2932784  47.4701828   9.9356715  82.1773849  46.5822363
  11.1427972  81.8923950  47.4502834   6.1325019  84.1468261  43.4598719
   5.5689884  84.0558198  42.6915007   6.0177414  83.3268165  43.9401211
  10.7557987  83.4467636  53.4288033  10.7446627  83.0520434  52.5568537
  10.9178626  82.7133709  54.0221805   3.6789451  85.6419452  46.2982939
   4.4710743  85.3010277  45.8829239   3.9186101  85.7514428  47.2185093
  11.7124578  87.8139229  38.7713184  11.0612558  88.3993309  38.3847198
  12.5068941  88.3445423  38.8308221   5.6380205  84.9028366  39.1700318
   6.4111081  84.3557353  39.0313194   5.9905604  85.7672615  39.3814779
   7.4765248  86.2304748  52.3767217   7.1855114  87.1350379  52.2613884
   8.1122232  86.2721276  53.0911287   8.4021455  83.6081597  48.9668577
   8.9985027  83.3837619  48.2525540   8.4596426  82.8666342  49.5694025
   7.9746483  81.0621032  36.8018768   8.2272004  80.5402553  36.0402231
   7.0371042  80.8987177  36.9045452  13.0189766  80.0656810  44.6093511
  13.8052855  79.6476233  44.2583928  13.2828470  80.9702902  44.7775160
  13.1899843  85.5029661  39.3082168  12.5545676  85.5764287  40.0203073
  12.8597250  86.0923259  38.6301247  18.4198193  80.0032043  45.5126490
  19.1523365  79.4331260  45.7464319  17.6637549  79.6153644  45.9532995
   7.6942772  82.9649138  39.0043143   7.5779030  82.2894041  39.6724227
   7.8045032  82.4781512  38.1875296  10.0374313  82.4259285  42.7089832
   9.6732520  81.8989906  43.4202754  10.8941429  82.0357754  42.5356318
  15.9423613  73.7153618  49.9721098  15.6106938  74.5849028  49.7482313
  15.3469227  73.3989902  50.6515129   9.6779800  77.4549185  37.7051181
   9.8454202  78.3229421  38.0721652   9.4876969  77.6176466  36.7812470
  12.4355133  85.9166163  49.3717011  12.1355856  86.8191202  49.2632818
  12.0906192  85.6498347  50.2238164   5.8867614  82.3679960  45.4053716
   4.9618111  82.2356174  45.6131407   6.1352028  83.1474180  45.9023658
  15.8352277  78.4348704  47.0514448  14.9269154  78.3664112  46.7573209
  15.7839872  78.9120649  47.8796274   9.6569021  79.9106842  38.6897848
   9.5368646  80.3563893  39.5283328   8.9621609  80.2592160  38.1311386
   3.2476425  82.0113234  46.2397505   3.3768807  82.2647713  47.1536916
   2.5673877  82.6040942  45.9202160   7.4175913  92.6810484  42.3387979
   7.3399942  93.6318309  42.4176459   6.8137556  92.3356356  42.9962905
   9.9093142  79.8538349  54.9949346   9.1326477  80.4132269  54.9852210
  10.5483705  80.3395132  55.5164216  17.7013923  76.6365142  48.8292322
  17.0588303  76.9297675  48.1832117  17.1968852  76.5218062  49.6345519
  15.3554087  80.3828315  39.5178182  16.2671943  80.6155702  39.3425879
  14.8463734  80.9665359  38.9553260   8.1639515  82.6623803  54.5567313
   8.9054199  83.2008847  54.2802136   7.4576500  83.2890091  54.7138864
  13.6394854  84.8052943  53.1539474  14.0478210  84.3635354  52.4094107
  12.9172116  84.2305571  53.4073667   9.9925924  79.7425550  50.5273031
  10.8387120  80.1664963  50.6707680   9.9324562  79.0859174  51.2211594
  13.9623669  85.3654134  46.9091763  13.3332531  85.5299848  46.2067831
  13.5749331  85.7795743  47.6802727  17.8412901  86.3008572  44.2636127
  17.1563939  86.6807473  43.7133160  17.9256750  86.9103898  44.9968075
  13.1425370  77.4029918  52.1854205  12.8986302  78.1571979  51.6488480
  13.4185300  77.7815266  53.0201452  15.0963833  83.9468531  50.8631470
  15.3080728  84.5900290  50.1865851  15.0493581  83.1130847  50.3953400
  12.6990061  76.5586351  47.7668042  11.8374541  76.8567605  48.0584780
  12.7252496  76.7756750  46.8349075   9.5151631  85.1028542  44.1741848
   9.9789976  85.3816245  43.3846471   9.2508429  84.2011986  43.9914939
   6.4075712  84.6500023  47.1121611   6.9777069  85.0787292  46.4739096
   6.9983824  84.3682608  47.8105797   8.4520517  81.2251694  40.9831413
   9.1544560  81.6772738  41.4505340   8.1201145  80.5835513  41.6111306
   6.9000878  79.8163451  55.3582623   6.2699539  80.4979732  55.5918020
   6.7936966  79.7046532  54.4135761   2.1945851  79.4835247  46.2848547
   1.4044905  79.7392775  45.8088657   2.6857098  80.2983585  46.3900587
  16.2109660  86.8240486  49.0353828  17.0327104  86.4220673  48.7536509
  16.2072063  86.7208720  49.9869943   4.1460596  79.8479826  43.2432024
   3.3491760  79.9598520  43.7615519   3.9186189  80.1866478  42.3772914
   9.9766264  86.3724529  51.1914538  10.0410696  86.8344937  52.0272710
   9.2677188  85.7421894  51.3196848   0.4783554  79.7365737  48.7163538
   0.7291592  80.6212747  48.9821114   1.0143102  79.5570339  47.9438629
  24.3015654  83.1679234  45.3838799  23.5479362  82.5986633  45.2282804
  24.4363195  83.1341899  46.3309434   9.6914282  88.0392637  41.0593519
   9.5559956  88.8844173  41.4878366  10.2324094  88.2411914  40.2959452
   6.1781621  74.1184217  57.7207874   5.7848567  73.5650415  58.3955518
   6.9947762  74.4294795  58.1114391   3.1443679  85.5568075  41.6321444
   3.6568200  86.3511325  41.7827008   3.7966392  84.8594365  41.5655045
   4.9538564  88.6733831  43.7144197   5.1305192  89.5951796  43.5265181
   5.7495397  88.3592250  44.1438577   9.0949582  75.5342096  55.3128130
   9.8359296  76.1349249  55.2332593   9.3267505  74.7919734  54.7546173
   4.2390920  80.7198463  53.5906360   4.1244435  79.8183720  53.8913459
   3.3835438  80.9662160  53.2391177  11.3182758  88.6616203  55.1893861
  10.8746612  87.8752582  54.8714765  11.9799972  88.8495354  54.5237751
   6.0769879  90.1912005  49.7154539   6.6277304  90.0629068  48.9431533
   5.2381355  90.4906894  49.3649432  13.4163996  88.9419003  53.2175262
  13.3982471  89.7627884  52.7255531  14.3383916  88.8173078  53.4425403
   9.8737050  86.4563133  54.0598770  10.4065387  85.6951421  53.8298078
   9.3451131  86.1636785  54.8022925  13.0406745  71.5623199  49.5892412
  12.6971015  72.4524840  49.5131523  13.4085708  71.3724856  48.7261997
   1.1092596  83.8856729  42.4081014   1.9467818  84.2953738  42.1914722
   1.2870863  82.9456171  42.3781208  13.0057028  81.5531810  38.0964847
  12.4903651  82.3236414  38.3353234  12.7334336  80.8796946  38.7197909
  10.5904139  76.3981511  43.1550085   9.7345735  76.0088361  42.9755724
  11.0031091  76.4773471  42.2949871  12.1203286  73.9327854  47.5541645
  11.6168081  73.8957989  46.7409451  12.4133892  74.8420597  47.6138302
   8.3646171  74.0166584  46.5607827   9.2299168  73.8209392  46.2013716
   8.4323680  73.7876935  47.4877184  17.9791302  84.3064164  40.0318021
  17.2020745  83.9675324  39.5873183  18.6582783  84.3116788  39.3572986
  12.7943331  79.4258902  39.9224628  12.4893467  79.7405051  40.7734771
  13.7473773  79.5040322  39.9651961  11.2389763  85.5849125  41.5717582
  10.7111124  84.8501885  41.2590820  10.7377266  86.3623802  41.3257551
  16.2182609  83.7798146  46.6884629  15.5606283  84.4697407  46.7764757
  17.0223008  84.1694578  47.0318615   5.9708491  76.2468791  43.9324194
   6.5452242  76.0243973  43.1997387   6.5579473  76.3157486  44.6852795
  15.0288068  82.1342518  44.7388570  15.5419949  82.7672510  45.2410280
  15.6789292  81.5343714  44.3731930   6.2978078  78.2773253  37.9520079
   5.4615390  78.6147939  38.2729354   6.1582847  78.1422232  37.0147216
   8.2731158  73.1210040  42.6599263   7.6195571  72.8059058  42.0355878
   8.2311632  72.4985781  43.3859086   9.3842363  83.4029335  34.5752555
   8.4769425  83.1718589  34.7743704   9.8813395  82.6066955  34.7626537
  12.2910442  92.1126843  37.4949241  11.6172141  92.4158539  38.1034199
  12.6776264  92.9155923  37.1454699  11.5068899  79.6091974  46.9846911
  10.5891460  79.8306921  46.8268599  11.9229042  79.6838284  46.1258618
  12.2903946  81.0083390  42.1149591  13.0375765  81.5204787  41.8056713
  12.5595536  80.6867442  42.9753985  10.5630597  83.5041930  39.0976545
   9.6541816  83.2200963  39.1949015  10.5925680  83.9241009  38.2379852
  15.7949864  87.1148520  42.8667713  15.3412191  86.2739430  42.9232903
  15.1643831  87.7509918  43.2042493  14.7382783  78.0440506  44.0968380
  14.0005540  77.5317892  44.4278623  14.9909557  77.6040887  43.2851657
  14.2382803  88.9525017  43.8017531  14.5305778  89.5130074  43.0829897
  14.7481424  89.2453578  44.5570690  14.8394411  70.8216758  44.6910150
  15.1453288  69.9614121  44.4036065  15.5647016  71.4134378  44.4909144
   1.1318767  81.2247444  43.0791748   0.9343167  80.6316805  42.3542814
   0.5765431  80.9199655  43.7967686   9.1115491  81.1170551  45.1986341
   9.1664100  80.1644387  45.1228817   8.3006693  81.2729990  45.6827639
  10.2606684  85.0450674  36.4364624   9.8226114  84.3286533  35.9770261
  11.0017125  85.2726789  35.8749715   7.0507850  79.7347611  42.9576720
   6.2375716  80.0341781  43.3641912   7.5466845  79.3403299  43.6751202
   9.2016428  89.7305368  44.8910984   9.1592607  89.9566214  43.9619516
  10.1179127  89.4968742  45.0396785  12.6482062  80.1989435  51.7891613
  13.0031450  80.4260908  52.6486079  13.2954193  80.5307812  51.1668869
  18.3779799  83.3207871  42.4940943  18.2397698  83.5109467  41.5662132
  18.0216018  84.0827254  42.9508994   6.5421925  77.3065966  48.5737955
   7.1821305  77.1654725  47.8760918   5.7099456  77.0200480  48.1976557
  18.4049179  85.3884398  47.5052214  18.8385685  85.2959687  48.3535268
  19.1180759  85.3641899  46.8672230   7.3182229  86.6068397  44.6872947
   8.1122828  86.1118717  44.4855522   6.6073922  86.0786260  44.3240653
  12.1377074  88.9886492  49.0385315  12.1914096  89.5577428  49.8063031
  11.2691855  89.1588377  48.6739352   3.6264993  80.7511478  40.7632700
   2.6962581  80.6895934  40.9802662   3.7222465  80.2287431  39.9669341
   3.5450542  77.2766291  43.3510941   3.8057359  78.1911624  43.2420102
   4.3667714  76.8090734  43.5007554   5.0175467  78.6904048  50.5209766
   5.6898520  78.4821410  49.8722415   4.1905254  78.4926134  50.0814998
  19.2664728  85.4308099  50.0385099  19.4600618  86.3353909  50.2844374
  19.1665346  84.9715518  50.8723684  10.9201039  75.3165989  52.5375427
  10.2728954  76.0155939  52.4439903  11.6902054  75.7502133  52.9051675
  14.3279837  85.5814841  55.6125980  14.1765343  85.3525393  54.6956064
  14.3184516  86.5385443  55.6257325  11.0965173  83.1546754  50.5972246
  12.0257233  83.3057914  50.4241214  10.6756203  83.2430775  49.7420893
   9.8953505  87.1797419  48.3670784   9.7564591  86.8116203  49.2396722
   9.1068101  87.6945058  48.1954742  10.4901657  92.2806515  39.7096321
  10.6653413  91.8094558  40.5241943   9.8034445  92.9072281  39.9377581
  11.4458720  86.5579021  45.7559622  11.1108553  86.5179791  46.6517272
  10.9462666  85.8923737  45.2830032   5.4202964  81.9646651  51.2812203
   5.2822762  81.2326890  51.8823742   6.3307888  81.8755551  50.9996391
  14.3817912  83.9035056  36.0296682  13.7647083  83.1781884  35.9329734
  13.9134400  84.6644416  35.6863756   8.0485265  81.6766611  50.7695883
   8.7584883  81.0359803  50.7282501   8.0054573  81.9279506  51.6922063
  16.0372044  88.6133964  53.6902462  15.9784590  87.9293184  53.0233045
  16.4391562  89.3552954  53.2383088   6.7614199  78.6631829  52.5891522
   6.2251556  78.2122567  53.2413118   6.1730907  78.7977737  51.8461987
   5.0562742  95.4295878  46.4836181   5.2959341  96.0614402  47.1615199
   4.2131939  95.0783918  46.7701540   6.1716458  78.1220480  35.1517986
   5.2945924  78.0009281  34.7880232   6.6474211  77.3306558  34.8996874
  16.0389451  86.5773548  51.9216442  15.1516230  86.2399470  52.0442840
  16.6088002  85.8456579  52.1585207   2.4953320  77.7987836  49.6744517
   2.4111509  77.1913506  48.9394927   1.6736027  78.2896855  49.6754013
   9.5690604  91.2375000  48.8877685   9.4960776  92.0429972  49.3996989
   9.1267997  91.4366966  48.0625706   9.3580384  90.4746770  42.3980506
   8.5747906  91.0168450  42.4918731  10.0573129  90.9920750  42.7974747
  12.6677034  76.2841400  45.0414712  13.1645734  75.5311362  44.7215782
  11.8964015  76.3205716  44.4757921  20.5206791  81.9881765  46.6833003
  20.5096668  82.8706481  46.3126936  19.6524171  81.6353316  46.4887540
  12.0289288  91.1361834  51.0435843  12.7417260  91.7709299  50.9711745
  11.5379316  91.2325700  50.2275845  13.7506815  85.0413087  42.6153135
  12.8163093  85.1614549  42.4457839  13.9283483  84.1385554  42.3513145
   9.2512003  78.4258783  44.7686396   8.8809790  77.8729823  45.4567302
   9.7471095  77.8216916  44.2161396  17.1379366  80.8830406  43.1503169
  17.6039818  81.7158398  43.0763472  17.5886867  80.4175388  43.8548428
   7.0801201  88.8856278  51.8641414   7.7810661  89.5192761  52.0170808
   6.6096316  89.2271009  51.1037054  15.2055597  87.2274228  40.1489321
  15.4815441  87.1130822  41.0583195  14.3360096  86.8291712  40.1101494
  15.1096029  73.2510993  47.1894071  14.1959109  73.4815220  47.3576278
  15.5389130  73.3349437  48.0408103  14.8802487  81.4400885  49.6893965
  14.2273938  81.6876793  49.0346417  15.2582867  80.6265023  49.3556442
  11.8409661  91.4760578  43.7922135  12.0232056  90.6582234  44.2549887
  12.6642647  91.6928271  43.3547025  12.1751827  90.4028764  41.0537183
  12.7039593  89.8921218  40.4407345  12.4380046  90.0871294  41.9182716
  10.9290060  82.1820696  56.1760002  10.2530697  82.0814826  56.8462377
  11.7517694  82.0259910  56.6395999   2.6768919  88.4192633  48.7972517
   3.2622356  87.6736321  48.9300421   2.4793758  88.7296590  49.6809181
   5.5307575  91.4543880  43.8134959   4.8617950  91.9390008  43.3298999
   5.3920444  91.7013101  44.7278338   9.6712843  93.4887624  50.4117618
  10.2231151  93.6519245  51.1766703  10.0119037  94.0792062  49.7397643
   4.6477336  75.8362774  51.0139502   4.7118663  76.6977604  50.6016900
   4.5844457  75.2236775  50.2811861   4.1229609  77.9085906  54.6612537
   4.7501648  77.5262983  55.2750061   3.2657528  77.6900108  55.0268229
  14.5223717  88.3148881  56.2666272  15.0663621  88.9278840  55.7721227
  13.9410562  88.8728460  56.7833285  12.8081230  91.4369599  47.3981300
  12.6832370  90.6359339  46.8892245  13.4660322  91.9315793  46.9095270
   4.4289399  77.7918332  46.5758440   3.7075984  78.4054299  46.4365913
   5.2182654  78.3276097  46.4975086  14.8716139  89.2378619  49.0260850
  13.9246474  89.1183971  48.9539177  15.2198912  88.3501117  49.1087111
   7.2315712  75.1272758  52.8499092   7.7550114  75.3735055  53.6125401
   7.0128045  75.9592793  52.4302229   2.6282993  77.3976433  40.7170217
   2.2995699  76.5173812  40.5345323   2.9822364  77.3424102  41.6046606
  11.8762572  89.0331336  45.2265202  11.7287535  88.1048043  45.4072772
  12.7016066  89.0551426  44.7422277   5.7424816  77.6849403  41.0845694
   6.0820889  78.2135324  40.3624303   6.1896937  78.0229809  41.8604261
  15.4796694  89.8559894  46.3130075  16.4043241  89.6502756  46.1754526
  15.3111997  89.6076295  47.2219416   8.4368257  76.0686453  50.5348762
   8.0965078  75.2694266  50.9369442   7.7307264  76.3688164  49.9625596
   9.0884729  73.1535766  48.9876085   9.9110798  72.6796244  48.8654976
   9.3322793  73.9326250  49.4874772   7.7292964  76.1824024  39.2838987
   8.4501326  76.5605277  38.7802704   7.1058268  76.9012901  39.3873965
  11.8724086  76.8869173  40.2197319  12.0887701  77.7693811  39.9186148
  11.3918154  76.4955387  39.4902961   6.6123308  79.8454886  46.7968064
   6.4667889  80.1595190  47.6892346   6.1348511  80.4639787  46.2438963
   8.4719691  76.8357434  46.8448954   8.4581259  75.9398528  46.5081251
   9.1892119  76.8428098  47.4787240  10.3245821  77.2694775  48.8902081
  10.0663599  78.1911845  48.8886411   9.7930862  76.8725209  49.5802545
  15.2692010  90.3745562  41.6692166  15.4428888  89.8091984  40.9166019
  15.7620901  91.1746457  41.4871656   1.0868970  82.3860231  49.7355725
   0.5422438  83.1620039  49.8676000   1.9648320  82.7331035  49.5774847
   7.8756587  75.7171815  42.1136524   7.9972498  74.7888461  42.3127411
   7.5858629  75.7310501  41.2014839  10.7447777  73.4026725  45.2503244
  10.7669474  73.4666058  44.2955223  11.1615836  72.5631234  45.4443750
  21.1231401  83.1381985  43.2882466  21.5662547  82.3889310  42.8901589
  20.2457912  83.1292121  42.9056198  16.2567183  89.6912326  38.7689065
  16.9518087  90.3119019  38.9876379  16.5990333  88.8407677  39.0441443
   1.8734992  81.5130127  52.6285882   1.1316728  81.6612762  53.2150512
   1.5527736  81.7738393  51.7652631  18.1558606  87.1412032  40.2976395
  18.6809930  87.4799304  39.5725715  18.0680958  86.2059047  40.1139530
   9.8178654  91.0546105  52.4266272  10.1265781  90.8095252  53.2988972
  10.6154137  91.2592744  51.9385142   9.8399267  93.2084015  44.6571649
   9.4004257  92.7160394  45.3504505  10.5907383  92.6656983  44.4163724
   2.3191606  89.3995556  44.6596277   3.1449625  89.0999328  44.2794920
   1.9685658  88.6303178  45.1086065   7.2873139  88.7522024  46.7293950
   6.6653148  88.0892729  46.4296178   7.9578006  88.7783156  46.0467598
   7.3597666  77.2303812  56.3226456   7.4085822  78.1065935  55.9404226
   7.9020180  76.6881205  55.7498100  17.8452512  87.7744935  55.6027593
  17.0548056  87.7569074  55.0632093  17.6085866  88.3133229  56.3576630
  17.9650387  84.6237402  52.9160322  18.0148392  84.4587409  53.8575845
  17.8564310  83.7564661  52.5258203   6.8486646  87.3025947  40.2052411
   6.9974766  87.9861412  39.5519084   7.6553089  87.2831037  40.7201867
  15.2554149  80.6068330  54.2319629  16.1564012  80.4674795  53.9403626
  15.3302124  80.7722785  55.1717806   9.5896955  77.9835184  53.0772815
   8.7200264  78.2768751  52.8055403   9.8256435  78.5675629  53.7980079
  19.4668584  87.0434343  53.1602343  19.1753392  87.4064324  53.9965804
  18.8540715  86.3301351  52.9815676  20.6664266  84.6087223  45.6804914
  21.5011157  85.0477027  45.8442474  20.8023395  84.1325876  44.8613159
  17.7155772  82.1666958  51.6282401  18.1909894  82.3594604  50.8201253
  16.7921337  82.2226144  51.3825785   4.6039279  83.3291125  41.2113480
   4.3585321  82.4253455  41.4093690   4.7735193  83.3308275  40.2692958
  12.2935988  74.2014801  50.5938235  12.8117932  74.9375828  50.2684724
  11.9391121  74.5078795  51.4284994   3.8734926  79.0619483  38.7099641
   3.1804171  79.1363838  38.0539677   3.6286678  78.2979826  39.2321158
  12.5448583  70.6215084  46.1139132  12.8250336  69.9538273  46.7399558
  13.3299190  70.8144180  45.6013796  10.3482051  89.7974078  37.6764158
   9.7756018  90.4164265  37.2234630  10.9214845  90.3473440  38.2104080
  16.4157441  79.0432718  49.8610707  17.3674864  79.1430816  49.8822931
  16.2460891  78.2510986  50.3708791  14.4371820  76.1288301  50.0470108
  13.8421753  76.4093314  49.3516597  14.1521517  76.6182202  50.8186849
  13.5679311  90.0811228  38.8072741  14.5009984  90.0156790  39.0105616
  13.4802524  90.9167495  38.3487273  16.1967328  89.3977098  35.7676688
  16.1180959  89.0636962  36.6612446  17.0176994  89.8898866  35.7668160
  18.8945519  82.2638838  48.9753007  18.8621839  81.3254838  49.1612691
  19.5046142  82.3422874  48.2418832  10.7328850  81.1334891  35.0180211
  11.6787954  81.0041099  35.0868629  10.3543095  80.3949552  35.4949639
  19.0440007  79.0549881  49.0211290  18.5279056  78.2708338  48.8341219
  19.9279956  78.7268598  49.1857809  16.7050734  72.7990897  44.9807103
  16.5075555  72.4905985  45.8650435  17.3150440  73.5252536  45.1105032
  24.7122069  83.3254844  48.1159043  25.4425457  83.0640133  48.6766747
  24.1029014  82.5883566  48.1561111  22.7937366  81.4662707  48.7133495
  22.0670529  81.3318672  48.1049986  22.3784653  81.7739536  49.5190213
  10.6167542  85.1852637  56.4780868  11.5370552  85.3631236  56.6720914
  10.5817125  84.2408682  56.3260567   8.9171767  79.0584867  34.9535096
   8.0103222  78.7617980  35.0297810   9.1947748  78.7614685  34.0869382
   3.6129615  83.0953671  49.1203649   3.8315624  84.0270779  49.1391683
   4.0255389  82.7361646  49.9058453  10.5333833  73.6021757  41.1079337
   9.7234561  73.2568842  41.4834583  11.2218249  73.2929300  41.6966949
  12.4624381  72.6799804  42.7303634  13.0155419  73.0995257  43.3893657
  12.6994467  71.7535552  42.7726590   8.4857480  78.6686877  58.5106398
   8.3854207  79.6181234  58.4418489   8.2679022  78.3405116  57.6382468
   7.6870551  75.9171802  35.0947075   8.5489715  76.2426701  35.3542893
   7.8720896  75.1303298  34.5820141  15.8403188  74.7900329  42.2382298
  15.2601857  75.4485133  41.8560351  15.5739121  73.9677673  41.8269716
  14.2906754  74.1905386  44.4403618  14.7906533  74.3021921  43.6317937
  14.9342362  73.8866439  45.0804427   8.3488750  82.0984016  57.3271459
   7.8655832  82.8984376  57.5335348   8.4349689  82.1091961  56.3738903
   1.6174710  83.9312396  45.2493279   1.5945398  84.0300083  44.2975162
   1.9275346  84.7777546  45.5710445   4.2762088  85.9888551  49.3639893
   5.2305341  85.9572493  49.2969825   4.0774611  85.5279174  50.1790119
   4.8661470  84.5589667  51.9310691   5.6854359  85.0533745  51.9545528
   5.1398277  83.6421635  51.9028258  14.6228066  76.9500419  41.2938646
  13.7353921  77.2350070  41.0758841  15.0382055  76.7894182  40.4465923
  17.9742602  76.9746940  45.0092986  18.7502992  77.4643392  45.2817602
  17.2490736  77.4004994  45.4664855  20.4115161  77.6874559  46.0666926
  21.0059651  77.4470295  45.3560235  20.4841744  76.9681690  46.6940463
   2.6312316  91.5308170  46.3810091   2.4966784  90.7708571  45.8148089
   2.2144379  92.2549070  45.9138880  13.7671279  86.7145094  35.3886666
  14.4707129  86.9195096  36.0044322  13.0433928  87.2821856  35.6535750
  14.5969090  82.4654955  41.5088937  14.5404291  82.9223506  40.6696569
  15.1497432  81.7045640  41.3311779  18.4073896  78.2544687  42.3339056
  18.1510830  77.8541323  43.1647264  17.7826764  78.9688481  42.2089195
  22.7186233  80.9940760  44.8410347  22.1585791  81.0633949  45.6141910
  22.1129737  80.8181745  44.1209844   5.7881442  92.4277487  46.5928534
   5.6713826  93.3722920  46.4907224   4.9673889  92.1251049  46.9814333
  15.6757977  87.1527623  37.4385126  16.5103581  86.7208821  37.2562601
  15.5142320  86.9809637  38.3662021  15.3303869  83.6559736  38.8041466
  15.2752673  83.4904008  37.8629910  14.7049924  84.3635769  38.9603655
  12.6449776  85.9608648  58.1295029  13.5140936  86.1349300  57.7681663
  12.1656528  86.7803065  58.0070758   8.6399994  73.1567845  38.3826784
   8.6278664  74.1009685  38.5395055   9.5323416  72.9737991  38.0886245
   6.8135956  93.0805749  49.8084462   7.7163203  93.1129359  50.1250957
   6.5873326  92.1506200  49.8230798   8.5689558  91.8336736  46.4694541
   7.6185189  91.8338597  46.3558913   8.8722045  91.0869470  45.9530575
  12.4552114  69.7510622  42.6372721  11.6884510  69.1969109  42.7829403
  12.8662819  69.8232491  43.4986873   4.4593875  76.0395418  56.7277902
   5.3225336  75.6832223  56.9381227   3.8859286  75.7009312  57.4153306
  24.3042252  97.6697274  47.5340303  24.9420662  97.5504021  46.8303643
  24.1863095  98.6178118  47.5928255  21.1131958  97.6224702  47.4701828
  20.7750470  97.5065767  46.5822363  21.9821726  97.2215867  47.4502834
  16.9718774  99.4760179  43.4598719  16.4083639  99.3850115  42.6915007
  16.8571169  98.6560083  43.9401211  21.5951741  98.7759554  53.4288033
  21.5840382  98.3812352  52.5568537  21.7572381  98.0425626  54.0221805
  14.5183206 100.9711370  46.2982939  15.3104498 100.6302195  45.8829239
  14.7579856 101.0806345  47.2185093  22.5518333 103.1431146  38.7713184
  21.9006312 103.7285227  38.3847198  23.3462695 103.6737341  38.8308221
  16.4773960 100.2320283  39.1700318  17.2504836  99.6849270  39.0313194
  16.8299359 101.0964533  39.3814779  18.3159002 101.5596666  52.3767217
  18.0248868 102.4642297  52.2613884  18.9515987 101.6013193  53.0911287
  19.2415209  98.9373514  48.9668577  19.8378781  98.7129537  48.2525540
  19.2990181  98.1958260  49.5694025  18.8140238  96.3912950  36.8018768
  19.0665758  95.8694471  36.0402231  17.8764797  96.2279095  36.9045452
  23.8583520  95.3948728  44.6093511  24.6446610  94.9768151  44.2583928
  24.1222225  96.2994820  44.7775160  24.0293598 100.8321578  39.3082168
  23.3939431 100.9056205  40.0203073  23.6991004 101.4215177  38.6301247
  29.2591947  95.3323961  45.5126490  29.9917119  94.7623178  45.7464319
  28.5031303  94.9445562  45.9532995  18.5336526  98.2941055  39.0043143
  18.4172784  97.6185959  39.6724227  18.6438786  97.8073429  38.1875296
  20.8768067  97.7551203  42.7089832  20.5126274  97.2281824  43.4202754
  21.7335183  97.3649672  42.5356318  26.7817368  89.0445535  49.9721098
  26.4500693  89.9140946  49.7482313  26.1862981  88.7281819  50.6515129
  20.5173554  92.7841102  37.7051181  20.6847957  93.6521339  38.0721652
  20.3270723  92.9468384  36.7812470  23.2748887 101.2458081  49.3717011
  22.9749610 102.1483120  49.2632818  22.9299947 100.9790264  50.2238164
  16.7261369  97.6971878  45.4053716  15.8011865  97.5648092  45.6131407
  16.9745782  98.4766097  45.9023658  26.6746031  93.7640621  47.0514448
  25.7662908  93.6956030  46.7573209  26.6233627  94.2412566  47.8796274
  20.4962775  95.2398760  38.6897848  20.3762400  95.6855811  39.5283328
  19.8015363  95.5884077  38.1311386  14.0870180  97.3405152  46.2397505
  14.2162561  97.5939630  47.1536916  13.4067631  97.9332860  45.9202160
  20.7486897  95.1830267  54.9949346  19.9720231  95.7424187  54.9852210
  21.3877460  95.6687050  55.5164216  28.5407678  91.9657060  48.8292322
  27.8982058  92.2589593  48.1832117  28.0362606  91.8509980  49.6345519
  26.1947841  95.7120233  39.5178182  27.1065697  95.9447620  39.3425879
  25.6857488  96.2957277  38.9553260  19.0033269  97.9915720  54.5567313
  19.7447954  98.5300764  54.2802136  18.2970255  98.6182009  54.7138864
  24.4788609 100.1344861  53.1539474  24.8871965  99.6927271  52.4094107
  23.7565870  99.5597488  53.4073667  20.8319679  95.0717468  50.5273031
  21.6780874  95.4956881  50.6707680  20.7718317  94.4151092  51.2211594
  24.8017424 100.6946051  46.9091763  24.1726286 100.8591766  46.2067831
  24.4143086 101.1087661  47.6802727  28.6806655 101.6300489  44.2636127
  27.9957694 102.0099391  43.7133160  28.7650505 102.2395816  44.9968075
  23.9819124  92.7321836  52.1854205  23.7380056  93.4863896  51.6488480
  24.2579055  93.1107184  53.0201452  25.9357587  99.2760448  50.8631470
  26.1474482  99.9192208  50.1865851  25.8887335  98.4422765  50.3953400
  23.5383816  91.8878269  47.7668042  22.6768295  92.1859522  48.0584780
  23.5646251  92.1048668  46.8349075  20.3545385 100.4320459  44.1741848
  20.8183731 100.7108162  43.3846471  20.0902184  99.5303904  43.9914939
  17.2469466  99.9791941  47.1121611  17.8170824 100.4079209  46.4739096
  17.8377578  99.6974526  47.8105797  19.2914271  96.5543612  40.9831413
  19.9938315  97.0064656  41.4505340  18.9594900  95.9127431  41.6111306
  17.7394633  95.1455368  55.3582623  17.1093294  95.8271649  55.5918020
  17.6330721  95.0338450  54.4135761  13.0339605  94.8127165  46.2848547
  12.2438659  95.0684693  45.8088657  13.5250853  95.6275502  46.3900587
  27.0503415 102.1532404  49.0353828  27.8720859 101.7512591  48.7536509
  27.0465818 102.0500638  49.9869943  14.9854351  95.1771744  43.2432024
  14.1885514  95.2890438  43.7615519  14.7579943  95.5158396  42.3772914
  20.8160018 101.7016447  51.1914538  20.8804451 102.1636854  52.0272710
  20.1070942 101.0713812  51.3196848  11.3177308  95.0657655  48.7163538
  11.5685347  95.9504665  48.9821114  11.8536857  94.8862256  47.9438629
  35.1409408  98.4971152  45.3838799  34.3873116  97.9278550  45.2282804
  35.2756949  98.4633817  46.3309434  20.5308036 103.3684554  41.0593519
  20.3953711 104.2136090  41.4878366  21.0717849 103.5703832  40.2959452
  17.0175376  89.4476134  57.7207874  16.6242321  88.8942333  58.3955518
  17.8341516  89.7586713  58.1114391  13.9837433 100.8859993  41.6321444
  14.4961954 101.6803243  41.7827008  14.6360146 100.1886283  41.5655045
  15.7932318 104.0025749  43.7144197  15.9698947 104.9243713  43.5265181
  16.5889152 103.6884168  44.1438577  19.9343337  90.8634013  55.3128130
  20.6753050  91.4641167  55.2332593  20.1661260  90.1211651  54.7546173
  15.0784675  96.0490381  53.5906360  14.9638190  95.1475638  53.8913459
  14.2229192  96.2954077  53.2391177  22.1576512 103.9908121  55.1893861
  21.7140367 103.2044500  54.8714765  22.8193726 104.1787271  54.5237751
  16.9163634 105.5203923  49.7154539  17.4671059 105.3920986  48.9431533
  16.0775110 105.8198812  49.3649432  24.2557751 104.2710921  53.2175262
  24.2376226 105.0919802  52.7255531  25.1777671 104.1464996  53.4425403
  20.7130805 101.7855050  54.0598770  21.2459141 101.0243339  53.8298078
  20.1844886 101.4928702  54.8022925  23.8800500  86.8915116  49.5892412
  23.5364769  87.7816758  49.5131523  24.2479462  86.7016774  48.7261997
  11.9486350  99.2148647  42.4081014  12.7861572  99.6245655  42.1914722
  12.1264618  98.2748089  42.3781208  23.8450782  96.8823727  38.0964847
  23.3297406  97.6528332  38.3353234  23.5728091  96.2088864  38.7197909
  21.4297893  91.7273428  43.1550085  20.5739490  91.3380279  42.9755724
  21.8424845  91.8065389  42.2949871  22.9597040  89.2619772  47.5541645
  22.4561836  89.2249907  46.7409451  23.2527647  90.1712514  47.6138302
  19.2039926  89.3458501  46.5607827  20.0692923  89.1501310  46.2013716
  19.2717435  89.1168853  47.4877184  28.8185056  99.6356082  40.0318021
  28.0414499  99.2967242  39.5873183  29.4976537  99.6408705  39.3572986
  23.6337086  94.7550820  39.9224628  23.3287221  95.0696969  40.7734771
  24.5867528  94.8332239  39.9651961  22.0783517 100.9141043  41.5717582
  21.5504879 100.1793802  41.2590820  21.5771020 101.6915719  41.3257551
  27.0576363  99.1090063  46.6884629  26.4000038  99.7989325  46.7764757
  27.8616763  99.4986495  47.0318615  16.8102245  91.5760709  43.9324194
  17.3845997  91.3535891  43.1997387  17.3973227  91.6449404  44.6852795
  25.8681822  97.4634436  44.7388570  26.3813704  98.0964428  45.2410280
  26.5183046  96.8635632  44.3731930  17.1371832  93.6065170  37.9520079
  16.3009144  93.9439857  38.2729354  16.9976602  93.4714150  37.0147216
  19.1124913  88.4501958  42.6599263  18.4589325  88.1350975  42.0355878
  19.0705387  87.8277699  43.3859086  20.2236118  98.7321253  34.5752555
  19.3163179  98.5010507  34.7743704  20.7207150  97.9358872  34.7626537
  23.1304196 107.4418760  37.4949241  22.4565895 107.7450457  38.1034199
  23.5170018 108.2447841  37.1454699  22.3462653  94.9383892  46.9846911
  21.4285214  95.1598839  46.8268599  22.7622797  95.0130202  46.1258618
  23.1297701  96.3375307  42.1149591  23.8769520  96.8496704  41.8056713
  23.3989290  96.0159360  42.9753985  21.4024351  98.8333848  39.0976545
  20.4935570  98.5492881  39.1949015  21.4319435  99.2532927  38.2379852
  26.6343618 102.4440438  42.8667713  26.1805946 101.6031347  42.9232903
  26.0037585 103.0801836  43.2042493  25.5776538  93.3732424  44.0968380
  24.8399295  92.8609810  44.4278623  25.8303312  92.9332805  43.2851657
  25.0776558 104.2816934  43.8017531  25.3699532 104.8421991  43.0829897
  25.5875178 104.5745495  44.5570690  25.6788165  86.1508676  44.6910150
  25.9847042  85.2906039  44.4036065  26.4040770  86.7426296  44.4909144
  11.9712521  96.5539362  43.0791748  11.7736921  95.9608723  42.3542814
  11.4159185  96.2491572  43.7967686  19.9509245  96.4462469  45.1986341
  20.0057855  95.4936305  45.1228817  19.1400447  96.6021908  45.6827639
  21.1000439 100.3742592  36.4364624  20.6619869  99.6578451  35.9770261
  21.8410880 100.6018706  35.8749715  17.8901605  95.0639528  42.9576720
  17.0769471  95.3633699  43.3641912  18.3860599  94.6695217  43.6751202
  20.0410183 105.0597285  44.8910984  19.9986362 105.2858132  43.9619516
  20.9572882 104.8260660  45.0396785  23.4875817  95.5281353  51.7891613
  23.8425204  95.7552826  52.6486079  24.1347948  95.8599730  51.1668869
  29.2173554  98.6499789  42.4940943  29.0791452  98.8401385  41.5662132
  28.8609772  99.4119172  42.9508994  17.3815680  92.6357884  48.5737955
  18.0215059  92.4946643  47.8760918  16.5493210  92.3492397  48.1976557
  29.2442933 100.7176316  47.5052214  29.6779440 100.6251605  48.3535268
  29.9574514 100.6933816  46.8672230  18.1575984 101.9360314  44.6872947
  18.9516582 101.4410634  44.4855522  17.4467676 101.4078177  44.3240653
  22.9770828 104.3178410  49.0385315  23.0307850 104.8869346  49.8063031
  22.1085609 104.4880295  48.6739352  14.4658747  96.0803396  40.7632700
  13.5356335  96.0187852  40.9802662  14.5616219  95.5579349  39.9669341
  14.3844296  92.6058209  43.3510941  14.6451113  93.5203542  43.2420102
  15.2061468  92.1382651  43.5007554  15.8569221  94.0195966  50.5209766
  16.5292275  93.8113328  49.8722415  15.0299008  93.8218052  50.0814998
  30.1058483 100.7600016  50.0385099  30.2994373 101.6645827  50.2844374
  30.0059101 100.3007435  50.8723684  21.7594793  90.6457907  52.5375427
  21.1122709  91.3447857  52.4439903  22.5295809  91.0794051  52.9051675
  25.1673591 100.9106759  55.6125980  25.0159098 100.6817311  54.6956064
  25.1578271 101.8677361  55.6257325  21.9358928  98.4838672  50.5972246
  22.8650988  98.6349831  50.4241214  21.5149958  98.5722693  49.7420893
  20.7347260 102.5089336  48.3670784  20.5958345 102.1408121  49.2396722
  19.9461856 103.0236976  48.1954742  21.3295412 107.6098433  39.7096321
  21.5047167 107.1386476  40.5241943  20.6428200 108.2364199  39.9377581
  22.2852475 101.8870939  45.7559622  21.9502307 101.8471709  46.6517272
  21.7856420 101.2215655  45.2830032  16.2596719  97.2938569  51.2812203
  16.1216517  96.5618808  51.8823742  17.1701642  97.2047469  50.9996391
  25.2211666  99.2326973  36.0296682  24.6040837  98.5073801  35.9329734
  24.7528155  99.9936334  35.6863756  18.8879019  97.0058528  50.7695883
  19.5978638  96.3651721  50.7282501  18.8448328  97.2571423  51.6922063
  26.8765798 103.9425882  53.6902462  26.8178344 103.2585102  53.0233045
  27.2785316 104.6844872  53.2383088  17.6007953  93.9923746  52.5891522
  17.0645310  93.5414485  53.2413118  17.0124662  94.1269655  51.8461987
  17.0110212  93.4512398  35.1517986  16.1339679  93.3301198  34.7880232
  17.4867965  92.6598476  34.8996874  26.8783205 101.9065466  51.9216442
  25.9909984 101.5691387  52.0442840  27.4481756 101.1748497  52.1585207
   8.5312352  98.2389557  45.2459493   9.2183392  97.9251287  44.6580508
   8.3760481  99.1430922  44.9726744  13.3347075  93.1279754  49.6744517
  13.2505263  92.5205423  48.9394927  12.5129781  93.6188772  49.6754013
  20.4084359 106.5666918  48.8877685  20.3354530 107.3721889  49.3996989
  19.9661752 106.7658884  48.0625706  20.1974138 105.8038688  42.3980506
  19.4141660 106.3460368  42.4918731  20.8966884 106.3212668  42.7974747
  23.5070788  91.6133317  45.0414712  24.0039488  90.8603280  44.7215782
  22.7357770  91.6497634  44.4757921  31.3600546  97.3173683  46.6833003
  31.3490422  98.1998398  46.3126936  30.4917925  96.9645234  46.4887540
  22.8683042 106.4653752  51.0435843  23.5811014 107.1001217  50.9711745
  22.3773071 106.5617618  50.2275845  24.5900569 100.3705005  42.6153135
  23.6556848 100.4906467  42.4457839  24.7677238  99.4677471  42.3513145
  20.0905757  93.7550700  44.7686396  19.7203545  93.2021741  45.4567302
  20.5864850  93.1508834  44.2161396  27.9773121  96.2122324  43.1503169
  28.4433573  97.0450316  43.0763472  28.4280621  95.7467306  43.8548428
  17.9194956 104.2148195  51.8641414  18.6204415 104.8484678  52.0170808
  17.4490071 104.5562927  51.1037054  26.0449352 102.5566145  40.1489321
  26.3209196 102.4422740  41.0583195  25.1753850 102.1583630  40.1101494
  25.9489783  88.5802911  47.1894071  25.0352863  88.8107138  47.3576278
  26.3782885  88.6641355  48.0408103  25.7196242  96.7692803  49.6893965
  25.0667692  97.0168710  49.0346417  26.0976622  95.9556941  49.3556442
  22.6803416 106.8052496  43.7922135  22.8625810 105.9874152  44.2549887
  23.5036402 107.0220188  43.3547025  23.0145581 105.7320681  41.0537183
  23.5433348 105.2213136  40.4407345  23.2773801 105.4163211  41.9182716
  21.7683815  97.5112614  56.1760002  21.0924452  97.4106743  56.8462377
  22.5911449  97.3551828  56.6395999  13.5162674 103.7484550  48.7972517
  14.1016111 103.0028238  48.9300421  13.3187512 104.0588507  49.6809181
   8.1080329  96.3190151  47.5176960   8.1464428  95.7853741  48.3114078
   7.6020621  95.7925356  46.8987937  15.4871091  91.1654691  51.0139502
  15.5512417  92.0269522  50.6016900  15.4238211  90.5528693  50.2811861
  14.9623363  93.2377824  54.6612537  15.5895402  92.8554901  55.2750061
  14.1051282  93.0192026  55.0268229  25.3617472 103.6440799  56.2666272
  25.9057376 104.2570757  55.7721227  24.7804317 104.2020377  56.7833285
  11.7388906  95.0454253  40.5930891  12.0342347  94.1364931  40.5397945
  10.8376942  95.0241992  40.2711894  23.6474985 106.7661517  47.3981300
  23.5226124 105.9651257  46.8892245  24.3054076 107.2607710  46.9095270
  15.2683153  93.1210249  46.5758440  14.5469739  93.7346217  46.4365913
  16.0576409  93.6568014  46.4975086  25.7109893 104.5670537  49.0260850
  24.7640229 104.4475888  48.9539177  26.0592666 103.6793035  49.1087111
  18.0709467  90.4564676  52.8499092  18.5943869  90.7026972  53.6125401
  17.8521800  91.2884711  52.4302229  13.4676748  92.7268351  40.7170217
  13.1389454  91.8465729  40.5345323  13.8216118  92.6716019  41.6046606
  22.7156327 104.3623253  45.2265202  22.5681289 103.4339961  45.4072772
  23.5409820 104.3843344  44.7422277  16.5818571  93.0141320  41.0845694
  16.9214643  93.5427242  40.3624303  17.0290691  93.3521726  41.8604261
  26.3190448 105.1851812  46.3130075  27.2436996 104.9794673  46.1754526
  26.1505752 104.9368213  47.2219416  19.2762012  91.3978371  50.5348762
  18.9358832  90.5986184  50.9369442  18.5701018  91.6980082  49.9625596
  19.9278484  88.4827683  48.9876085  20.7504553  88.0088162  48.8654976
  20.1716547  89.2618167  49.4874772  18.5686718  91.5115942  39.2838987
  19.2895081  91.8897195  38.7802704  17.9452022  92.2304819  39.3873965
  22.7117841  92.2161091  40.2197319  22.9281455  93.0985729  39.9186148
  22.2311908  91.8247304  39.4902961  17.4517062  95.1746804  46.7968064
  17.3061643  95.4887107  47.6892346  16.9742266  95.7931704  46.2438963
  19.3113445  92.1649352  46.8448954  19.2975014  91.2690445  46.5081251
  20.0285873  92.1720016  47.4787240  21.1639576  92.5986692  48.8902081
  20.9057354  93.5203763  48.8886411  20.6324616  92.2017127  49.5802545
  26.1085765 105.7037479  41.6692166  26.2822642 105.1383902  40.9166019
  26.6014656 106.5038374  41.4871656  11.9262724  97.7152148  49.7355725
  11.3816193  98.4911956  49.8676000  12.8042074  98.0622953  49.5774847
  18.7150341  91.0463732  42.1136524  18.8366252  90.1180379  42.3127411
  18.4252384  91.0602418  41.2014839  21.5841532  88.7318643  45.2503244
  21.6063228  88.7957976  44.2955223  22.0009591  87.8923151  45.4443750
  31.9625156  98.4673902  43.2882466  32.4056302  97.7181228  42.8901589
  31.0851666  98.4584039  42.9056198  27.0960937 105.0204244  38.7689065
  27.7911842 105.6410937  38.9876379  27.4384087 104.1699595  39.0441443
  12.7128746  96.8422045  52.6285882  11.9710482  96.9904680  53.2150512
  12.3921491  97.1030310  51.7652631  28.9952360 102.4703949  40.2976395
  29.5203684 102.8091222  39.5725715  28.9074713 101.5350965  40.1139530
  20.6572409 106.3838023  52.4266272  20.9659535 106.1387170  53.2988972
  21.4547891 106.5884661  51.9385142  13.1585360 104.7287473  44.6596277
  13.9843380 104.4291245  44.2794920  12.8079412 103.9595096  45.1086065
  18.1266893 104.0813942  46.7293950  17.5046902 103.4184647  46.4296178
  18.7971760 104.1075074  46.0467598  11.3593965 102.6473800  45.6185210
  10.5225873 102.2195974  45.4369212  11.3317610 102.8406243  46.5556001
  18.1991421  92.5595730  56.3226456  18.2479576  93.4357853  55.9404226
  18.7413935  92.0173123  55.7498100  28.6846266 103.1036853  55.6027593
  27.8941810 103.0860992  55.0632093  28.4479621 103.6425147  56.3576630
  28.8044141  99.9529319  52.9160322  28.8542146  99.7879327  53.8575845
  28.6958065  99.0856578  52.5258203  17.6880400 102.6317865  40.2052411
  17.8368520 103.3153329  39.5519084  18.4946844 102.6122955  40.7201867
  26.0947904  95.9360247  54.2319629  26.9957767  95.7966712  53.9403626
  26.1695878  96.1014702  55.1717806  20.4290709  93.3127102  53.0772815
  19.5594019  93.6060668  52.8055403  20.6650189  93.8967547  53.7980079
  30.3062338 102.3726261  53.1602343  30.0147147 102.7356241  53.9965804
  29.6934470 101.6593269  52.9815676  31.5058021  99.9379141  45.6804914
  32.3404912 100.3768945  45.8442474  31.6417149  99.4617794  44.8613159
  28.5549526  97.4958876  51.6282401  29.0303648  97.6886522  50.8201253
  27.6315092  97.5518061  51.3825785  15.4433033  98.6583043  41.2113480
  15.1979075  97.7545373  41.4093690  15.6128948  98.6600193  40.2692958
  23.1329743  89.5306719  50.5938235  23.6511687  90.2667746  50.2684724
  22.7784876  89.8370712  51.4284994  14.7128681  94.3911400  38.7099641
  14.0197926  94.4655755  38.0539677  14.4680433  93.6271744  39.2321158
  23.3842337  85.9507002  46.1139132  23.6644091  85.2830191  46.7399558
  24.1692944  86.1436097  45.6013796  21.1875806 105.1265995  37.6764158
  20.6149773 105.7456183  37.2234630  21.7608599 105.6765357  38.2104080
  27.2551195  94.3724636  49.8610707  28.2068618  94.4722733  49.8822931
  27.0854646  93.5802904  50.3708791  25.2765575  91.4580219  50.0470108
  24.6815507  91.7385232  49.3516597  24.9915272  91.9474120  50.8186849
  24.4073065 105.4103146  38.8072741  25.3403739 105.3448707  39.0105616
  24.3196278 106.2459412  38.3487273  27.0361082 104.7269016  35.7676688
  26.9574714 104.3928880  36.6612446  27.8570749 105.2190784  35.7668160
  29.7339273  97.5930755  48.9753007  29.7015593  96.6546756  49.1612691
  30.3439897  97.6714792  48.2418832  21.5722604  96.4626808  35.0180211
  22.5181709  96.3333016  35.0868629  21.1936849  95.7241470  35.4949639
  29.8833762  94.3841799  49.0211290  29.3672810  93.6000255  48.8341219
  30.7673710  94.0560515  49.1857809  27.5444489  88.1282814  44.9807103
  27.3469310  87.8197902  45.8650435  28.1544194  88.8544453  45.1105032
  35.5515823  98.6546762  48.1159043  36.2819212  98.3932050  48.6766747
  34.9422769  97.9175484  48.1561111  33.6331120  96.7954625  48.7133495
  32.9064284  96.6610590  48.1049986  33.2178407  97.1031453  49.5190213
  21.4561297 100.5144554  56.4780868  22.3764306 100.6923153  56.6720914
  21.4210880  99.5700600  56.3260567  19.7565521  94.3876785  34.9535096
  18.8496977  94.0909897  35.0297810  20.0341502  94.0906603  34.0869382
  10.6743462  95.7083148  45.4034142  10.3546246  94.8548456  45.1108516
  10.1276890  95.9231726  46.1592110  14.4523369  98.4245589  49.1203649
  14.6709379  99.3562697  49.1391683  14.8649143  98.0653563  49.9058453
  21.3727587  88.9313674  41.1079337  20.5628315  88.5860759  41.4834583
  22.0612004  88.6221218  41.6966949  23.3018135  88.0091721  42.7303634
  23.8549174  88.4287175  43.3893657  23.5388222  87.0827469  42.7726590
  19.3251235  93.9978795  58.5106398  19.2247961  94.9473152  58.4418489
  19.1072777  93.6697034  57.6382468  18.5264306  91.2463720  35.0947075
  19.3883470  91.5718618  35.3542893  18.7114650  90.4595216  34.5820141
  10.5431722  99.3286060  47.3727264   9.8495193  98.9140012  46.8597218
  11.2904713  99.3706596  46.7760683  26.6796942  90.1192246  42.2382298
  26.0995611  90.7777050  41.8560351  26.4132875  89.2969591  41.8269716
  25.1300509  89.5197304  44.4403618  25.6300287  89.6313839  43.6317937
  25.7736117  89.2158357  45.0804427  19.1882505  97.4275934  57.3271459
  18.7049586  98.2276294  57.5335348  19.2743444  97.4383879  56.3738903
  12.4568464  99.2604313  45.2493279  12.4339152  99.3592001  44.2975162
  12.7669101 100.1069464  45.5710445  15.1155842 101.3180468  49.3639893
  16.0699096 101.2864411  49.2969825  14.9168366 100.8571092  50.1790119
  15.7055224  99.8881584  51.9310691  16.5248113 100.3825663  51.9545528
  15.9792032  98.9713553  51.9028258  25.4621820  92.2792337  41.2938646
  24.5747675  92.5641987  41.0758841  25.8775809  92.1186100  40.4465923
  28.8136357  92.3038858  45.0092986  29.5896747  92.7935310  45.2817602
  28.0884491  92.7296912  45.4664855  31.2508915  93.0166477  46.0666926
  31.8453406  92.7762213  45.3560235  31.3235499  92.2973607  46.6940463
  24.6065034 102.0437011  35.3886666  25.3100884 102.2487014  36.0044322
  23.8827683 102.6113773  35.6535750  25.4362844  97.7946873  41.5088937
  25.3798046  98.2515424  40.6696569  25.9891187  97.0337557  41.3311779
  29.2467650  93.5836605  42.3339056  28.9904584  93.1833240  43.1647264
  28.6220518  94.2980398  42.2089195  33.5579988  96.3232678  44.8410347
  32.9979546  96.3925867  45.6141910  32.9523491  96.1473662  44.1209844
  26.5151731 102.4819541  37.4385126  27.3497335 102.0500739  37.2562601
  26.3536074 102.3101554  38.3662021  26.1697623  98.9851654  38.8041466
  26.1146427  98.8195925  37.8629910  25.5443679  99.6927687  38.9603655
  10.9590138  94.2219718  52.6302888  11.6049002  93.7118672  53.1190113
  10.7507290  94.9588400  53.2046313  23.4843531 101.2900566  58.1295029
  24.3534690 101.4641218  57.7681663  23.0050282 102.1094983  58.0070758
  19.4793749  88.4859763  38.3826784  19.4672419  89.4301603  38.5395055
  20.3717171  88.3029908  38.0886245  19.4083313 107.1628653  46.4694541
  18.4578944 107.1630515  46.3558913  19.7115799 106.4161388  45.9530575
  23.2945868  85.0802540  42.6372721  22.5278264  84.5261026  42.7829403
  23.7056573  85.1524408  43.4986873  15.2987629  91.3687335  56.7277902
  16.1619091  91.0124140  56.9381227  14.7253040  91.0301230  57.4153306
  34.6977275 110.7240646  44.6093511  35.4840364 110.3060069  44.2583928
  34.9615979 111.6286738  44.7775160  40.0985702 110.6615879  45.5126490
  40.8310874 110.0915096  45.7464319  39.3425058 110.2737479  45.9532995
  37.6211122 104.3737453  49.9721098  37.2894447 105.2432864  49.7482313
  37.0256736 104.0573737  50.6515129  31.3567309 108.1133020  37.7051181
  31.5241711 108.9813256  38.0721652  31.1664478 108.2760302  36.7812470
  37.5139786 109.0932539  47.0514448  36.6056663 109.0247947  46.7573209
  37.4627381 109.5704484  47.8796274  31.3356530 110.5690677  38.6897848
  31.2156155 111.0147728  39.5283328  30.6409118 110.9175995  38.1311386
  31.5880651 110.5122185  54.9949346  30.8113985 111.0716105  54.9852210
  32.2271214 110.9978968  55.5164216  39.3801432 107.2948977  48.8292322
  38.7375812 107.5881511  48.1832117  38.8756361 107.1801898  49.6345519
  37.0341596 111.0412151  39.5178182  37.9459452 111.2739537  39.3425879
  36.5251243 111.6249195  38.9553260  31.6713433 110.4009385  50.5273031
  32.5174629 110.8248799  50.6707680  31.6112071 109.7443010  51.2211594
  34.8212879 108.0613754  52.1854205  34.5773811 108.8155814  51.6488480
  35.0972809 108.4399101  53.0201452  34.3777570 107.2170187  47.7668042
  33.5162050 107.5151440  48.0584780  34.4040005 107.4340585  46.8349075
  45.9803163 113.8263070  45.3838799  45.2266871 113.2570468  45.2282804
  46.1150704 113.7925734  46.3309434  27.8569130 104.7768052  57.7207874
  27.4636076 104.2234251  58.3955518  28.6735271 105.0878630  58.1114391
  30.7737091 106.1925931  55.3128130  31.5146805 106.7933084  55.2332593
  31.0055014 105.4503569  54.7546173  34.7194254 102.2207034  49.5892412
  34.3758524 103.1108676  49.5131523  35.0873217 102.0308692  48.7261997
  34.6844537 112.2115645  38.0964847  34.1691160 112.9820250  38.3353234
  34.4121845 111.5380781  38.7197909  32.2691648 107.0565346  43.1550085
  31.4133244 106.6672196  42.9755724  32.6818600 107.1357307  42.2949871
  33.7990795 104.5911689  47.5541645  33.2955590 104.5541824  46.7409451
  34.0921401 105.5004432  47.6138302  30.0433680 104.6750419  46.5607827
  30.9086677 104.4793228  46.2013716  30.1111189 104.4460771  47.4877184
  39.6578811 114.9648000  40.0318021  38.8808254 114.6259159  39.5873183
  40.3370292 114.9700623  39.3572986  34.4730840 110.0842737  39.9224628
  34.1680976 110.3988886  40.7734771  35.4261282 110.1624157  39.9651961
  27.6495999 106.9052627  43.9324194  28.2239751 106.6827808  43.1997387
  28.2366982 106.9741321  44.6852795  36.7075577 112.7926354  44.7388570
  37.2207458 113.4256346  45.2410280  37.3576801 112.1927549  44.3731930
  27.9765587 108.9357088  37.9520079  27.1402899 109.2731774  38.2729354
  27.8370356 108.8006068  37.0147216  29.9518667 103.7793876  42.6599263
  29.2983080 103.4642893  42.0355878  29.9099141 103.1569616  43.3859086
  33.1856408 110.2675809  46.9846911  32.2678969 110.4890756  46.8268599
  33.6016551 110.3422120  46.1258618  33.9691455 111.6667225  42.1149591
  34.7163274 112.1788622  41.8056713  34.2383045 111.3451278  42.9753985
  36.4170292 108.7024341  44.0968380  35.6793049 108.1901727  44.4278623
  36.6697066 108.2624723  43.2851657  36.5181920 101.4800593  44.6910150
  36.8240797 100.6197957  44.4036065  37.2434525 102.0718213  44.4909144
  28.7295359 110.3931446  42.9576720  27.9163225 110.6925617  43.3641912
  29.2254354 109.9987135  43.6751202  34.3269571 110.8573271  51.7891613
  34.6818959 111.0844744  52.6486079  34.9741702 111.1891647  51.1668869
  40.0567308 113.9791706  42.4940943  39.9185207 114.1693302  41.5662132
  39.7003527 114.7411089  42.9508994  28.2209434 107.9649802  48.5737955
  28.8608814 107.8238561  47.8760918  27.3886965 107.6784315  48.1976557
  25.2238051 107.9350127  43.3510941  25.4844868 108.8495460  43.2420102
  26.0455223 107.4674569  43.5007554  26.6962976 109.3487884  50.5209766
  27.3686029 109.1405246  49.8722415  25.8692762 109.1509970  50.0814998
  32.5988548 105.9749825  52.5375427  31.9516463 106.6739774  52.4439903
  33.3689563 106.4085969  52.9051675  28.4401708 109.3215664  52.5891522
  27.9039065 108.8706402  53.2413118  27.8518416 109.4561573  51.8461987
  27.8503967 108.7804315  35.1517986  26.9733433 108.6593116  34.7880232
  28.3261720 107.9890394  34.8996874  24.1740829 108.4571672  49.6744517
  24.0899018 107.8497341  48.9394927  23.3523536 108.9480690  49.6754013
  34.3464543 106.9425235  45.0414712  34.8433243 106.1895197  44.7215782
  33.5751524 106.9789552  44.4757921  42.1994300 112.6465601  46.6833003
  42.1884177 113.5290316  46.3126936  41.3311680 112.2937151  46.4887540
  30.9299512 109.0842618  44.7686396  30.5597299 108.5313658  45.4567302
  31.4258604 108.4800752  44.2161396  38.8166875 111.5414242  43.1503169
  39.2827327 112.3742233  43.0763472  39.2674376 111.0759223  43.8548428
  36.7883538 103.9094829  47.1894071  35.8746618 104.1399055  47.3576278
  37.2176639 103.9933273  48.0408103  36.5589996 112.0984721  49.6893965
  35.9061446 112.3460628  49.0346417  36.9370376 111.2848859  49.3556442
  26.3264845 106.4946609  51.0139502  26.3906172 107.3561440  50.6016900
  26.2631966 105.8820611  50.2811861  25.8017118 108.5669741  54.6612537
  26.4289157 108.1846819  55.2750061  24.9445037 108.3483943  55.0268229
  26.1076908 108.4502167  46.5758440  25.3863493 109.0638135  46.4365913
  26.8970163 108.9859932  46.4975086  28.9103221 105.7856594  52.8499092
  29.4337623 106.0318890  53.6125401  28.6915554 106.6176628  52.4302229
  24.3070502 108.0560268  40.7170217  23.9783208 107.1757647  40.5345323
  24.6609873 108.0007937  41.6046606  27.4212325 108.3433238  41.0845694
  27.7608398 108.8719159  40.3624303  27.8684446 108.6813644  41.8604261
  30.1155766 106.7270289  50.5348762  29.7752587 105.9278102  50.9369442
  29.4094772 107.0272000  49.9625596  30.7672238 103.8119601  48.9876085
  31.5898307 103.3380079  48.8654976  31.0110302 104.5910085  49.4874772
  29.4080473 106.8407860  39.2838987  30.1288835 107.2189112  38.7802704
  28.7845777 107.5596736  39.3873965  33.5511595 107.5453009  40.2197319
  33.7675210 108.4277646  39.9186148  33.0705663 107.1539222  39.4902961
  30.1507200 107.4941270  46.8448954  30.1368768 106.5982363  46.5081251
  30.8679628 107.5011934  47.4787240  32.0033330 107.9278610  48.8902081
  31.7451108 108.8495681  48.8886411  31.4718371 107.5309045  49.5802545
  29.5544096 106.3755650  42.1136524  29.6760007 105.4472296  42.3127411
  29.2646138 106.3894336  41.2014839  32.4235286 104.0610560  45.2503244
  32.4456983 104.1249894  44.2955223  32.8403345 103.2215069  45.4443750
  42.8018910 113.7965820  43.2882466  43.2450056 113.0473145  42.8901589
  41.9245421 113.7875956  42.9056198  29.0385175 107.8887647  56.3226456
  29.0873331 108.7649770  55.9404226  29.5807689 107.3465040  55.7498100
  36.9341658 111.2652165  54.2319629  37.8351521 111.1258630  53.9403626
  37.0089633 111.4306620  55.1717806  31.2684464 108.6419020  53.0772815
  30.3987773 108.9352586  52.8055403  31.5043944 109.2259465  53.7980079
  42.3451775 115.2671058  45.6804914  43.1798666 115.7060862  45.8442474
  42.4810904 114.7909712  44.8613159  39.3943281 112.8250793  51.6282401
  39.8697403 113.0178439  50.8201253  38.4708846 112.8809979  51.3825785
  33.9723497 104.8598637  50.5938235  34.4905441 105.5959664  50.2684724
  33.6178630 105.1662630  51.4284994  25.5522435 109.7203318  38.7099641
  24.8591680 109.7947673  38.0539677  25.3074187 108.9563662  39.2321158
  34.2236092 101.2798919  46.1139132  34.5037845 100.6122108  46.7399558
  35.0086699 101.4728015  45.6013796  38.0944950 109.7016553  49.8610707
  39.0462373 109.8014651  49.8822931  37.9248400 108.9094822  50.3708791
  36.1159329 106.7872136  50.0470108  35.5209262 107.0677149  49.3516597
  35.8309026 107.2766037  50.8186849  40.5733028 112.9222673  48.9753007
  40.5409348 111.9838674  49.1612691  41.1833651 113.0006710  48.2418832
  32.4116359 111.7918726  35.0180211  33.3575463 111.6624934  35.0868629
  32.0330604 111.0533388  35.4949639  40.7227516 109.7133716  49.0211290
  40.2066565 108.9292173  48.8341219  41.6067465 109.3852433  49.1857809
  38.3838243 103.4574732  44.9807103  38.1863064 103.1489820  45.8650435
  38.9937949 104.1836371  45.1105032  46.3909578 113.9838680  48.1159043
  47.1212966 113.7223968  48.6766747  45.7816523 113.2467402  48.1561111
  44.4724875 112.1246542  48.7133495  43.7458038 111.9902507  48.1049986
  44.0572162 112.4323371  49.5190213  30.5959276 109.7168702  34.9535096
  29.6890731 109.4201815  35.0297810  30.8735257 109.4198520  34.0869382
  32.2121341 104.2605592  41.1079337  31.4022070 103.9152677  41.4834583
  32.9005758 103.9513136  41.6966949  34.1411890 103.3383639  42.7303634
  34.6942928 103.7579092  43.3893657  34.3781976 102.4119387  42.7726590
  30.1644989 109.3270712  58.5106398  30.0641716 110.2765069  58.4418489
  29.9466531 108.9988951  57.6382468  29.3658060 106.5755638  35.0947075
  30.2277224 106.9010536  35.3542893  29.5508405 105.7887133  34.5820141
  37.5190697 105.4484164  42.2382298  36.9389366 106.1068968  41.8560351
  37.2526630 104.6261509  41.8269716  35.9694263 104.8489222  44.4403618
  36.4694042 104.9605756  43.6317937  36.6129871 104.5450275  45.0804427
  36.3015575 107.6084254  41.2938646  35.4141430 107.8933905  41.0758841
  36.7169564 107.4478018  40.4465923  39.6530111 107.6330775  45.0092986
  40.4290501 108.1227228  45.2817602  38.9278245 108.0588830  45.4664855
  42.0902670 108.3458395  46.0666926  42.6847160 108.1054131  45.3560235
  42.1629253 107.6265525  46.6940463  36.2756599 113.1238790  41.5088937
  36.2191800 113.5807342  40.6696569  36.8284941 112.3629475  41.3311779
  40.0861405 108.9128522  42.3339056  39.8298339 108.5125158  43.1647264
  39.4614273 109.6272316  42.2089195  44.3973742 111.6524595  44.8410347
  43.8373300 111.7217785  45.6141910  43.7917246 111.4765580  44.1209844
  30.3187503 103.8151681  38.3826784  30.3066173 104.7593520  38.5395055
  31.2110925 103.6321826  38.0886245  34.1339623 100.4094457  42.6372721
  33.3672019  99.8552944  42.7829403  34.5450328 100.4816326  43.4986873
  26.1381384 106.6979253  56.7277902  27.0012845 106.3416058  56.9381227
  25.5646795 106.3593148  57.4153306  47.3575674 116.8092511  44.6910150
  47.6634551 115.9489874  44.4036065  48.0828279 117.4010131  44.4909144
  45.0629846 116.6090837  46.1139132  45.3431600 115.9414026  46.7399558
  45.8480453 116.8019933  45.6013796  44.9733377 115.7386375  42.6372721
  44.2065773 115.1844862  42.7829403  45.3844082 115.8108244  43.4986873
   2.6228146  29.5157522  32.1084106   1.8691854  28.9464920  31.9528110
   2.7575687  29.4820186  33.0554740   3.0334561  29.6733132  34.8404350
   3.7637949  29.4118420  35.4012053   2.4241506  28.9361854  34.8806418
   1.1149858  27.8140994  35.4378801   0.3883022  27.6796959  34.8295293
   0.6997145  28.1217823  36.2435519   1.0398726  27.3419047  31.5655654
   0.4798284  27.4112237  32.3387216   0.4342229  27.1660032  30.8455150
   2.6254744  44.0175561  34.2585610   3.2633154  43.8982309  33.5548950
   2.5075587  44.9656405  34.3173562   2.1796013  41.7427015  31.3338818
   2.9659102  41.3246438  30.9829235   2.4434717  42.6473107  31.5020466
   2.3506090  47.1799865  26.0327475   1.7151923  47.2534492  26.7448379
   2.0203496  47.7693464  25.3546554   7.5804440  41.6802248  32.2371796
   8.3129612  41.1101465  32.4709626   6.8243795  41.2923849  32.6778302
   5.1029860  35.3923822  36.6966405   4.7713185  36.2619233  36.4727620
   4.5075473  35.0760106  37.3760435   1.5961380  47.5936368  36.0962318
   1.2962103  48.4961407  35.9878125   1.2512439  47.3268552  36.9483471
   4.9958523  40.1118909  33.7759755   4.0875401  40.0434317  33.4818516
   4.9446119  40.5890854  34.6041581   6.8620170  38.3135347  35.5537629
   6.2194550  38.6067880  34.9077424   6.3575098  38.1988267  36.3590826
   4.5160333  42.0598520  26.2423488   5.4278190  42.2925907  26.0671186
   4.0069981  42.6435564  25.6798567   2.8001101  46.4823148  39.8784781
   3.2084457  46.0405559  39.1339413   2.0778363  45.9075776  40.1318974
   3.1229916  47.0424339  33.6337070   2.4938778  47.2070053  32.9313138
   2.7355578  47.4565948  34.4048034   7.0019148  47.9778776  30.9881433
   6.3170186  48.3577678  30.4378467   7.0862997  48.5874103  31.7213381
   2.3031617  39.0800123  38.9099511   2.0592548  39.8342184  38.3733787
   2.5791547  39.4585471  39.7446758   4.2570079  45.6238736  37.5876777
   4.4686975  46.2670495  36.9111158   4.2099828  44.7901052  37.1198707
   1.8596308  38.2356556  34.4913349   0.9980787  38.5337810  34.7830087
   1.8858743  38.4526955  33.5594382   5.3715907  48.5010691  35.7599134
   6.1933351  48.0990878  35.4781816   5.3678310  48.3978925  36.7115250
  13.4621900  44.8449439  32.1084106  12.7085609  44.2756837  31.9528110
  13.5969442  44.8112104  33.0554740   2.5770243  50.6189208  39.9420569
   2.5588718  51.4398089  39.4500838   3.4990163  50.4943283  40.1670710
   2.2012992  33.2393404  36.3137719   1.8577261  34.1295045  36.2376829
   2.5691955  33.0495061  35.4507304   2.1663275  43.2302015  24.8210154
   1.6509898  44.0006619  25.0598541   1.8940583  42.5567151  25.4443215
   1.2809532  35.6098059  34.2786952   0.7774328  35.5728194  33.4654757
   1.5740139  36.5190801  34.3383609   7.1397549  45.9834369  26.7563327
   6.3626992  45.6445529  26.3118489   7.8189030  45.9886993  26.0818292
   1.9549578  41.1029107  26.6469935   1.6499713  41.4175256  27.4980078
   2.9080020  41.1810527  26.6897268   5.3788856  45.4568351  33.4129935
   4.7212530  46.1467612  33.5010064   6.1829255  45.8464783  33.7563922
   4.1894314  43.8112723  31.4633877   4.7026196  44.4442715  31.9655587
   4.8395538  43.2113919  31.0977237   1.4516689  53.7897048  24.2194548
   0.7778387  54.0928744  24.8279506   1.8382511  54.5926128  23.8700005
   1.4510193  42.6853595  28.8394898   2.1982012  43.1974992  28.5302020
   1.7201783  42.3637647  29.6999291   4.9556111  48.7918725  29.5913020
   4.5018438  47.9509635  29.6478210   4.3250077  49.4280123  29.9287800
   3.8989030  39.7210711  30.8213687   3.1611787  39.2088097  31.1523930
   4.1515804  39.2811092  30.0096964   3.3989050  50.6295221  30.5262838
   3.6912024  51.1900279  29.8075203   3.9087671  50.9223782  31.2815997
   4.0000658  32.4986963  31.4155456   4.3059534  31.6384326  31.1281371
   4.7253262  33.0904583  31.2154450   1.8088309  41.8759640  38.5136920
   2.1637697  42.1031113  39.3731386   2.4560440  42.2078017  37.8914175
   7.5386046  44.9978076  29.2186249   7.4003944  45.1879672  28.2907438
   7.1822265  45.7597459  29.6754300   7.5655425  47.0654603  34.2297521
   7.9991932  46.9729892  35.0780575   8.2787006  47.0412103  33.5917537
   1.2983320  50.6656697  35.7630621   1.3520343  51.2347633  36.5308337
   0.4298102  50.8358582  35.3984658   8.4270975  47.1078304  36.7630406
   8.6206865  48.0124114  37.0089681   8.3271593  46.6485723  37.5968991
   3.4886084  47.2585046  42.3371287   3.3371590  47.0295598  41.4201370
   3.4790763  48.2155648  42.3502632   3.5424159  45.5805261  22.7541988
   2.9253329  44.8552089  22.6575041   3.0740647  46.3414621  22.4109062
   5.1978290  50.2904169  40.4147769   5.1390837  49.6063389  39.7478352
   5.5997809  51.0323159  39.9628395   5.1995698  48.2543753  38.6461748
   4.3122476  47.9169675  38.7688147   5.7694249  47.5226784  38.8830514
   1.8283281  37.9611605  31.7660018   2.3251980  37.2081567  31.4461089
   1.0570262  37.9975921  31.2003228   9.6813038  43.6651970  33.4078310
   9.6702914  44.5476686  33.0372243   8.8130418  43.3123521  33.2132847
   1.1895535  52.8132039  37.7681150   1.9023507  53.4479504  37.6957052
   0.6985563  52.9095905  36.9521152   2.9113061  46.7183292  29.3398442
   1.9769340  46.8384754  29.1703146   3.0889730  45.8155759  29.0758452
   6.2985613  42.5600611  29.8748476   6.7646065  43.3928603  29.8008779
   6.7493113  42.0945593  30.5793734   4.3661844  48.9044432  26.8734628
   4.6421688  48.7901027  27.7828502   3.4966343  48.5061917  26.8346801
   4.2702276  34.9281198  33.9139377   3.3565355  35.1585425  34.0821584
   4.6995377  35.0119642  34.7653410   4.0408734  43.1171090  36.4139271
   3.3880184  43.3646998  35.7591724   4.4189114  42.3035228  36.0801749
   1.0015908  53.1530783  30.5167442   1.1838302  52.3352439  30.9795194
   1.8248894  53.3698476  30.0792332   1.3358073  52.0798968  27.7782490
   1.8645840  51.5691423  27.1652652   1.5986293  51.7641499  28.6428023
   3.6829964  49.9919086  42.9911579   4.2269868  50.6049044  42.4966534
   3.1016809  50.5498665  43.5078592   1.9687477  53.1139804  34.1226607
   1.8438617  52.3129544  33.6137552   2.6266568  53.6085998  33.6340576
   4.0322386  50.9148824  35.7506157   3.0852721  50.7954175  35.6784483
   4.3805159  50.0271322  35.8332418   1.0368819  50.7101540  31.9510509
   0.8893781  49.7818248  32.1318079   1.8622312  50.7321631  31.4667584
   4.6402941  51.5330099  33.0375382   5.5649488  51.3272961  32.8999833
   4.4718244  51.2846500  33.9464723   1.0330333  38.5639378  26.9442626
   1.2493948  39.4464016  26.6431454   0.5524400  38.1725592  26.2148268
   4.4298257  52.0515767  28.3937473   4.6035134  51.4862189  27.6411325
   4.9227148  52.8516662  28.2116963  10.2837648  44.8152190  30.0127773
  10.7268794  44.0659515  29.6146896   9.4064158  44.8062326  29.6301505
   5.4173429  51.3682531  25.4934371   6.1124334  51.9889224  25.7121686
   5.7596580  50.5177882  25.7686749   7.3164853  48.8182237  27.0221702
   7.8416177  49.1569509  26.2971022   7.2287205  47.8829252  26.8384837
   7.0058759  49.4515140  42.3272900   6.2154302  49.4339279  41.7877399
   6.7692113  49.9903434  43.0821937   7.1256634  46.3007607  39.6405629
   7.1754639  46.1357614  40.5821151   7.0170557  45.4334866  39.2503509
   4.4160396  42.2838535  40.9564935   5.3170259  42.1444999  40.6648933
   4.4908371  42.4492989  41.8963113   8.6274831  48.7204548  39.8847650
   8.3359639  49.0834529  40.7211111   8.0146962  48.0071556  39.7060982
   9.8270513  46.2857428  32.4050220  10.6617404  46.7247232  32.5687781
   9.9629642  45.8096081  31.5858466   6.8762019  43.8437163  38.3527708
   7.3516140  44.0364809  37.5446559   5.9527584  43.8996349  38.1071092
   1.4542235  35.8785006  37.3183542   1.9724179  36.6146033  36.9930031
   1.0997368  36.1849000  38.1530301   1.7054829  32.2985289  32.8384439
   1.9856583  31.6308478  33.4644865   2.4905436  32.4914384  32.3259102
   5.5763688  40.7202923  36.5856014   6.5281111  40.8201021  36.6068238
   5.4067138  39.9281191  37.0954098   3.5978067  37.8058506  36.7715415
   3.0027999  38.0863519  36.0761903   3.3127764  38.2952407  37.5432156
   2.7285558  51.7581433  25.5318047   3.6616231  51.6926995  25.7350923
   2.6408771  52.5937700  25.0732580   5.3573574  51.0747303  22.4921995
   5.2787206  50.7407167  23.3857753   6.1783241  51.5669071  22.4913467
   8.0551766  43.9409043  35.6998313   8.0228086  43.0025043  35.8857997
   8.6652389  44.0193079  34.9664138   8.2046254  40.7320086  35.7456597
   7.6885303  39.9478543  35.5586525   9.0886203  40.4038803  35.9103116
   5.8656981  34.4761102  31.7052409   5.6681802  34.1676190  32.5895741
   6.4756687  35.2022740  31.8350339  13.8728315  45.0025049  34.8404350
  14.6031704  44.7410338  35.4012053  13.2635261  44.2653771  34.8806418
  11.9543613  43.1432912  35.4378801  11.2276776  43.0088877  34.8295293
  11.5390899  43.4509741  36.2435519   1.6230628  34.3570008  29.4548941
   2.1761666  34.7765462  30.1138964   1.8600714  33.4305757  29.4971897
   5.0009435  36.4670534  28.9627605   4.4208104  37.1255338  28.5805657
   4.7345367  35.6447878  28.5515022   3.4513001  35.8675591  31.1648925
   3.9512779  35.9792126  30.3563244   4.0948609  35.5636644  31.8049734
   3.7834313  38.6270624  28.0183953   2.8960168  38.9120275  27.8004148
   4.1988302  38.4664387  27.1711230   7.1348849  38.6517145  31.7338292
   7.9109239  39.1413597  32.0062909   6.4096983  39.0775199  32.1910162
   9.5721407  39.3644764  32.7912233  10.1665898  39.1240500  32.0805541
   9.6447991  38.6451895  33.4185769   2.9277526  48.3915299  22.1131973
   3.6313376  48.5965301  22.7289629   2.2040175  48.9592061  22.3781057
   3.7575336  44.1425160  28.2334243   3.7010538  44.5993711  27.3941876
   4.3103679  43.3815844  28.0557086   7.5680142  39.9314892  29.0584363
   7.3117077  39.5311527  29.8892570   6.9433010  40.6458686  28.9334502
  11.8792480  42.6710965  31.5655654  11.3192038  42.7404154  32.3387216
  11.2735984  42.4951950  30.8455150   4.8364224  48.8297828  24.1630433
   5.6709827  48.3979026  23.9807908   4.6748566  48.6579842  25.0907328
   4.4910116  45.3329941  25.5286772   4.4358920  45.1674213  24.5875217
   3.8656171  46.0405974  25.6848962   1.8056023  47.6378853  44.8540335
   2.6747183  47.8119505  44.4926970   1.3262774  48.4573270  44.7316065
   1.6158361  31.4280827  29.3618028   0.8490756  30.8739313  29.5074710
   2.0269066  31.5002696  30.2232179  13.4648499  59.3467479  34.2585610
  14.1026909  59.2274226  33.5548950  13.3469342  60.2948323  34.3173562
  10.2738205  59.2994907  34.1947135   9.9356716  59.1835972  33.3067669
  11.1427973  58.8986072  34.1748141   6.1325021  61.1530383  30.1844025
   5.5689886  61.0620320  29.4160313   6.0177416  60.3330288  30.6646518
  10.7557988  60.4529759  40.1533340  10.7446629  60.0582557  39.2813844
  10.9178627  59.7195831  40.7467112   3.6789453  62.6481575  33.0228246
   4.4710744  62.3072400  32.6074545   3.9186103  62.7576550  33.9430399
  11.7124579  64.8201351  25.4958490  11.0612559  65.4055432  25.1092504
  12.5068942  65.3507546  25.5553528   5.6380206  61.9090488  25.8945625
   6.4111082  61.3619475  25.7558501   5.9905605  62.7734738  26.1060086
   7.4765249  63.2366871  39.1012524   7.1855115  64.1412501  38.9859190
   8.1122233  63.2783398  39.8156594   8.4021456  60.6143719  35.6913884
   8.9985028  60.3899741  34.9770847   8.4596427  59.8728465  36.2939332
   7.9746484  58.0683154  23.5264075   8.2272005  57.5464676  22.7647538
   7.0371043  57.9049300  23.6290758  13.0189767  57.0718933  31.3338818
  13.8052856  56.6538356  30.9829235  13.2828471  57.9765025  31.5020466
  13.1899844  62.5091783  26.0327475  12.5545677  62.5826410  26.7448379
  12.8597251  63.0985382  25.3546554  18.4198194  57.0094166  32.2371796
  19.1523366  56.4393383  32.4709626  17.6637550  56.6215766  32.6778302
   7.6942773  59.9711260  25.7288450   7.5779031  59.2956164  26.3969534
   7.8045033  59.4843634  24.9120603  10.0374314  59.4321407  29.4335139
   9.6732521  58.9052028  30.1448060  10.8941430  59.0419877  29.2601624
  15.9423615  50.7215740  36.6966405  15.6106939  51.5911151  36.4727620
  15.3469228  50.4052024  37.3760435   9.6779801  54.4611307  24.4296487
   9.8454203  55.3291544  24.7966958   9.4876970  54.6238589  23.5057777
  12.4355134  62.9228286  36.0962318  12.1355857  63.8253325  35.9878125
  12.0906194  62.6560469  36.9483471   5.8867616  59.3742083  32.1299022
   4.9618112  59.2418297  32.3376714   6.1352029  60.1536302  32.6268965
  15.8352278  55.4410826  33.7759755  14.9269155  55.3726235  33.4818516
  15.7839874  55.9182771  34.6041581   9.6569022  56.9168965  25.4143154
   9.5368647  57.3626015  26.2528634   8.9621610  57.2654282  24.8556692
   3.2476427  59.0175356  32.9642811   3.3768808  59.2709835  33.8782223
   2.5673878  59.6103064  32.6447466   7.4175914  69.6872606  29.0633285
   7.3399944  70.6380432  29.1421766   6.8137558  69.3418479  29.7208212
   9.9093144  56.8600472  41.7194652   9.1326478  57.4194392  41.7097517
  10.5483707  57.3457255  42.2409522  17.7013924  53.6427265  35.5537629
  17.0588305  53.9359798  34.9077424  17.1968853  53.5280185  36.3590826
  15.3554088  57.3890438  26.2423488  16.2671944  57.6217825  26.0671186
  14.8463735  57.9727482  25.6798567   8.1639516  59.6685925  41.2812619
   8.9054200  60.2070969  41.0047443   7.4576501  60.2952214  41.4384171
  13.6394856  61.8115066  39.8784781  14.0478212  61.3697476  39.1339413
  12.9172117  61.2367693  40.1318974   9.9925926  56.7487672  37.2518338
  10.8387121  57.1727086  37.3952987   9.9324563  56.0921297  37.9456901
  13.9623670  62.3716256  33.6337070  13.3332533  62.5361970  32.9313138
  13.5749332  62.7857866  34.4048034  17.8412902  63.3070694  30.9881433
  17.1563940  63.6869596  30.4378467  17.9256752  63.9166021  31.7213381
  13.1425371  54.4092041  38.9099511  12.8986303  55.1634101  38.3733787
  13.4185302  54.7877388  39.7446758  15.0963834  60.9530653  37.5876777
  15.3080729  61.5962413  36.9111158  15.0493582  60.1192970  37.1198707
  12.6990063  53.5648474  34.4913349  11.8374542  53.8629727  34.7830087
  12.7252497  53.7818873  33.5594382   9.5151632  62.1090664  30.8987155
   9.9789978  62.3878367  30.1091777   9.2508430  61.2074109  30.7160245
   6.4075713  61.6562146  33.8366918   6.9777070  62.0849414  33.1984403
   6.9983825  61.3744731  34.5351104   8.4520518  58.2313817  27.7076720
   9.1544562  58.6834860  28.1750646   8.1201147  57.5897636  28.3356613
   6.9000880  56.8225573  42.0827929   6.2699540  57.5041854  42.3163326
   6.7936968  56.7108655  41.1381068   2.1945852  56.4897369  33.0093854
   1.4044906  56.7454898  32.5333964   2.6857100  57.3045707  33.1145894
  16.2109662  63.8302609  35.7599134  17.0327105  63.4282796  35.4781816
  16.2072065  63.7270843  36.7115250   4.1460598  56.8541949  29.9677330
   3.3491761  56.9660643  30.4860826   3.9186190  57.1928601  29.1018221
   9.9766265  63.3786652  37.9159845  10.0410698  63.8407059  38.7518017
   9.2677189  62.7484017  38.0442155   0.4783555  56.7427860  35.4408844
   0.7291594  57.6274870  35.7066420   1.0143104  56.5632461  34.6683936
  24.3015655  60.1741357  32.1084106  23.5479363  59.6048755  31.9528110
  24.4363196  60.1404022  33.0554740   9.6914283  65.0454759  27.7838825
   9.5559958  65.8906295  28.2123673  10.2324095  65.2474037  27.0204759
   6.1781622  51.1246339  44.4453180   5.7848568  50.5712538  45.1200825
   6.9947763  51.4356918  44.8359698   3.1443680  62.5630197  28.3566750
   3.6568201  63.3573448  28.5072315   3.7966393  61.8656488  28.2900352
   4.9538565  65.6795954  30.4389503   5.1305193  66.6013918  30.2510487
   5.7495398  65.3654373  30.8683883   9.0949583  52.5404218  42.0373437
   9.8359297  53.1411371  41.9577899   9.3267506  51.7981856  41.4791480
   4.2390921  57.7260586  40.3151667   4.1244437  56.8245843  40.6158766
   3.3835439  57.9724282  39.9636483  11.3182759  65.6678326  41.9139167
  10.8746613  64.8814704  41.5960072  11.9799973  65.8557476  41.2483058
   6.0769880  67.1974127  36.4399846   6.6277306  67.0691191  35.6676840
   5.2381356  67.4969017  36.0894739  13.4163997  65.9481126  39.9420569
  13.3982473  66.7690007  39.4500838  14.3383917  65.8235201  40.1670710
   9.8737051  63.4625255  40.7844077  10.4065388  62.7013543  40.5543385
   9.3451133  63.1698907  41.5268231  13.0406746  48.5685321  36.3137719
  12.6971016  49.4586963  36.2376829  13.4085709  48.3786979  35.4507304
   1.1092597  60.8918852  29.1326321   1.9467819  61.3015860  28.9160028
   1.2870865  59.9518294  29.1026515  13.0057029  58.5593932  24.8210154
  12.4903653  59.3298537  25.0598541  12.7334338  57.8859069  25.4443215
  10.5904140  53.4043633  29.8795392   9.7345737  53.0150484  29.7001031
  11.0031092  53.4835594  29.0195178  12.1203287  50.9389976  34.2786952
  11.6168082  50.9020112  33.4654757  12.4133894  51.8482719  34.3383609
   8.3646173  51.0228706  33.2853134   9.2299169  50.8271515  32.9259023
   8.4323682  50.7939058  34.2122490  17.9791303  61.3126287  26.7563327
  17.2020746  60.9737447  26.3118489  18.6582784  61.3178910  26.0818292
  12.7943332  56.4321024  26.6469935  12.4893468  56.7467174  27.4980078
  13.7473774  56.5102444  26.6897268  11.2389764  62.5911248  28.2962889
  10.7111126  61.8564007  27.9836126  10.7377267  63.3685924  28.0502857
  16.2182610  60.7860268  33.4129935  15.5606285  61.4759530  33.5010064
  17.0223009  61.1756700  33.7563922   5.9708492  53.2530914  30.6569500
   6.5452244  53.0306096  29.9242693   6.5579474  53.3219609  31.4098102
  15.0288069  59.1404641  31.4633877  15.5419951  59.7734633  31.9655587
  15.6789293  58.5405836  31.0977237   6.2978079  55.2835375  24.6765386
   5.4615391  55.6210062  24.9974660   6.1582849  55.1484355  23.7392523
   8.2731159  50.1272163  29.3844570   7.6195572  49.8121180  28.7601185
   8.2311634  49.5047903  30.1104393   9.3842364  60.4091458  21.2997862
   8.4769426  60.1780712  21.4989011   9.8813396  59.6129077  21.4871843
  12.2910443  69.1188965  24.2194548  11.6172142  69.4220662  24.8279506
  12.6776265  69.9218046  23.8700005  11.5068900  56.6154097  33.7092217
  10.5891461  56.8369044  33.5513906  11.9229043  56.6900407  32.8503925
  12.2903948  58.0145512  28.8394898  13.0375767  58.5266909  28.5302020
  12.5595537  57.6929565  29.6999291  10.5630598  60.5104053  25.8221852
   9.6541817  60.2263086  25.9194322  10.5925682  60.9303131  24.9625159
  15.7949865  64.1210642  29.5913020  15.3412192  63.2801552  29.6478210
  15.1643832  64.7572041  29.9287800  14.7382785  55.0502628  30.8213687
  14.0005542  54.5380015  31.1523930  14.9909558  54.6103010  30.0096964
  14.2382804  65.9587139  30.5262838  14.5305779  66.5192196  29.8075203
  14.7481425  66.2515700  31.2815997  14.8394412  47.8278880  31.4155456
  15.1453289  46.9676244  31.1281371  15.5647017  48.4196501  31.2154450
   1.1318768  58.2309567  29.8037054   0.9343168  57.6378928  29.0788121
   0.5765432  57.9261777  30.5212993   9.1115492  58.1232674  31.9231647
   9.1664102  57.1706510  31.8474124   8.3006694  58.2792113  32.4072946
  10.2606686  62.0512797  23.1609931   9.8226116  61.3348656  22.7015568
  11.0017126  62.2788911  22.5995022   7.0507852  56.7409733  29.6822026
   6.2375717  57.0403904  30.0887218   7.5466846  56.3465422  30.3996508
   9.2016430  66.7367490  31.6156291   9.1592608  66.9628337  30.6864823
  10.1179128  66.5030865  31.7642092  12.6482063  57.2051558  38.5136920
  13.0031451  57.4323031  39.3731386  13.2954195  57.5369935  37.8914175
  18.3779800  60.3269994  29.2186249  18.2397699  60.5171590  28.2907438
  18.0216019  61.0889376  29.6754300   6.5421926  54.3128089  35.2983261
   7.1821306  54.1716848  34.6006225   5.7099457  54.0262602  34.9221863
  18.4049180  62.3946521  34.2297521  18.8385687  62.3021810  35.0780575
  19.1180761  62.3704021  33.5917537   7.3182230  63.6130519  31.4118254
   8.1122829  63.1180839  31.2100829   6.6073923  63.0848382  31.0485959
  12.1377075  65.9948615  35.7630621  12.1914097  66.5639551  36.5308337
  11.2691856  66.1650500  35.3984658   3.6264994  57.7573601  27.4878006
   2.6962582  57.6958056  27.7047968   3.7222466  57.2349554  26.6914648
   3.5450543  54.2828414  30.0756248   3.8057360  55.1973747  29.9665408
   4.3667715  53.8152856  30.2252861   5.0175468  55.6966171  37.2455073
   5.6898522  55.4883533  36.5967721   4.1905255  55.4988257  36.8060305
  19.2664730  62.4370221  36.7630406  19.4600620  63.3416032  37.0089681
  19.1665348  61.9777640  37.5968991  10.9201040  52.3228112  39.2620733
  10.2728955  53.0218062  39.1685210  11.6902056  52.7564256  39.6296982
  14.3279838  62.5876964  42.3371287  14.1765345  62.3587516  41.4201370
  14.3184518  63.5447565  42.3502632  11.0965175  60.1608877  37.3217553
  12.0257235  60.3120036  37.1486520  10.6756205  60.2492898  36.4666200
   9.8953506  64.1859541  35.0916091   9.7564592  63.8178326  35.9642029
   9.1068103  64.7007181  34.9200049  10.4901658  69.2868638  26.4341627
  10.6653414  68.8156681  27.2487250   9.8034446  69.9134404  26.6622888
  11.4458722  63.5641144  32.4804929  11.1108554  63.5241914  33.3762578
  10.9462667  62.8985860  32.0075339   5.4202966  58.9708774  38.0057510
   5.2822763  58.2389013  38.6069049   6.3307889  58.8817674  37.7241697
  14.3817913  60.9097178  22.7541988  13.7647084  60.1844006  22.6575041
  13.9134402  61.6706539  22.4109062   8.0485266  58.6828733  37.4941189
   8.7584885  58.0421925  37.4527808   8.0054574  58.9341628  38.4167370
  16.0372045  65.6196087  40.4147769  15.9784591  64.9355307  39.7478352
  16.4391563  66.3615077  39.9628395   6.7614200  55.6693951  39.3136829
   6.2251557  55.2184690  39.9658425   6.1730909  55.8039860  38.5707293
   5.0562744  72.4358000  33.2081487   5.2959342  73.0676525  33.8860506
   4.2131940  72.0846040  33.4946847   6.1716459  55.1282603  21.8763292
   5.2945925  55.0071403  21.5125539   6.6474212  54.3368681  21.6242181
  16.0389452  63.5835671  38.6461748  15.1516231  63.2461592  38.7688147
  16.6088003  62.8518702  38.8830514   2.4953321  54.8049959  36.3989823
   2.4111510  54.1975628  35.6640233   1.6736028  55.2958977  36.3999320
   9.5690606  68.2437123  35.6122991   9.4960777  69.0492094  36.1242296
   9.1267999  68.4429089  34.7871013   9.3580385  67.4808893  29.1225813
   8.5747907  68.0230573  29.2164037  10.0573130  67.9982873  29.5220054
  12.6677035  53.2903522  31.7660018  13.1645735  52.5373485  31.4461089
  11.8964017  53.3267839  31.2003228  20.5206793  58.9943888  33.4078310
  20.5096669  59.8768603  33.0372243  19.6524172  58.6415439  33.2132847
  12.0289289  68.1423957  37.7681150  12.7417261  68.7771422  37.6957052
  11.5379318  68.2387823  36.9521152  13.7506816  62.0475210  29.3398442
  12.8163095  62.1676672  29.1703146  13.9283484  61.1447676  29.0758452
   9.2512004  55.4320905  31.4931703   8.8809792  54.8791946  32.1812609
   9.7471096  54.8279039  30.9406703  17.1379367  57.8892529  29.8748476
  17.6039819  58.7220520  29.8008779  17.5886868  57.4237510  30.5793734
   7.0801203  65.8918400  38.5886721   7.7810662  66.5254883  38.7416115
   6.6096318  66.2333132  37.8282360  15.2055598  64.2336350  26.8734628
  15.4815442  64.1192945  27.7828502  14.3360097  63.8353835  26.8346801
  15.1096030  50.2573116  33.9139377  14.1959110  50.4877343  34.0821584
  15.5389131  50.3411560  34.7653410  14.8802489  58.4463008  36.4139271
  14.2273939  58.6938915  35.7591724  15.2582868  57.6327146  36.0801749
  11.8409662  68.4822701  30.5167442  12.0232057  67.6644357  30.9795194
  12.6642648  68.6990393  30.0792332  12.1751828  67.4090886  27.7782490
  12.7039594  66.8983341  27.1652652  12.4380047  67.0933416  28.6428023
  10.9290062  59.1882819  42.9005308  10.2530699  59.0876948  43.5707684
  11.7517695  59.0322033  43.3641306   2.6768921  65.4254755  35.5217824
   3.2622357  64.6798443  35.6545728   2.4793759  65.7358712  36.4054487
   5.5307576  68.4606003  30.5380266   4.8617951  68.9452130  30.0544306
   5.3920446  68.7075223  31.4523645   9.6712844  70.4949746  37.1362924
  10.2231152  70.6581368  37.9012010  10.0119038  71.0854184  36.4642949
   4.6477338  52.8424896  37.7384809   4.7118664  53.7039727  37.3262207
   4.5844458  52.2298898  37.0057168   4.1229610  54.9148029  41.3857843
   4.7501649  54.5325106  41.9995368   3.2657529  54.6962231  41.7513536
  14.5223719  65.3211004  42.9911579  15.0663623  65.9340962  42.4966534
  13.9410564  65.8790582  43.5078592  12.8081232  68.4431722  34.1226607
  12.6832371  67.6421462  33.6137552  13.4660323  68.9377915  33.6340576
   4.4289400  54.7980454  33.3003747   3.7075986  55.4116422  33.1611220
   5.2182656  55.3338219  33.2220393  14.8716140  66.2440742  35.7506157
  13.9246476  66.1246093  35.6784483  15.2198913  65.3563240  35.8332418
   7.2315713  52.1334881  39.5744398   7.7550115  52.3797177  40.3370708
   7.0128047  52.9654916  39.1547536   2.6282995  54.4038555  27.4415523
   2.2995701  53.5235934  27.2590629   2.9822365  54.3486224  28.3291913
  11.8762573  66.0393458  31.9510509  11.7287536  65.1110166  32.1318079
  12.7016067  66.0613549  31.4667584   5.7424818  54.6911525  27.8091001
   6.0820890  55.2197446  27.0869609   6.1896938  55.0291931  28.5849567
  15.4796695  66.8622017  33.0375382  16.4043243  66.6564878  32.8999833
  15.3111999  66.6138418  33.9464723   8.4368259  53.0748576  37.2594069
   8.0965079  52.2756389  37.6614749   7.7307265  53.3750287  36.6870902
   9.0884730  50.1597888  35.7121392   9.9110800  49.6858367  35.5900282
   9.3322794  50.9388372  36.2120078   7.7292965  53.1886147  26.0084294
   8.4501327  53.5667400  25.5048011   7.1058269  53.9075024  26.1119272
  11.8724088  53.8931296  26.9442626  12.0887702  54.7755934  26.6431454
  11.3918155  53.5017509  26.2148268   6.6123309  56.8517009  33.5213371
   6.4667890  57.1657312  34.4137652   6.1348513  57.4701909  32.9684269
   8.4719692  53.8419557  33.5694260   8.4581261  52.9460650  33.2326558
   9.1892120  53.8490221  34.2032546  10.3245823  54.2756897  35.6147388
  10.0663601  55.1973968  35.6131718   9.7930863  53.8787332  36.3047852
  15.2692011  67.3807684  28.3937473  15.4428889  66.8154107  27.6411325
  15.7620903  68.1808579  28.2116963   1.0868971  59.3922353  36.4601032
   0.5422439  60.1682161  36.5921306   1.9648321  59.7393158  36.3020153
   7.8756588  52.7233937  28.8381830   7.9972499  51.7950583  29.0372718
   7.5858630  52.7372623  27.9260146  10.7447778  50.4088848  31.9748550
  10.7669475  50.4728181  31.0200530  11.1615837  49.5693356  32.1689056
  21.1231403  60.1444107  30.0127773  21.5662549  59.3951432  29.6146896
  20.2457913  60.1354244  29.6301505  16.2567184  66.6974449  25.4934371
  16.9518089  67.3181141  25.7121686  16.5990334  65.8469800  25.7686749
   1.8734993  58.5192250  39.3531189   1.1316729  58.6674885  39.9395819
   1.5527737  58.7800515  38.4897938  18.1558607  64.1474154  27.0221702
  18.6809931  64.4861427  26.2971022  18.0680960  63.2121170  26.8384837
   9.8178656  68.0608228  39.1511579  10.1265782  67.8157375  40.0234278
  10.6154138  68.2654866  38.6630449   9.8399268  70.2146138  31.3816955
   9.4004258  69.7222516  32.0749812  10.5907385  69.6719105  31.1409030
   2.3191607  66.4057678  31.3841583   3.1449627  66.1061450  31.0040227
   1.9685659  65.6365301  31.8331372   7.2873140  65.7584147  33.4539257
   6.6653149  65.0954852  33.1541485   7.9578007  65.7845279  32.7712905
   7.3597667  54.2365935  43.0471763   7.4085823  55.1128057  42.6649533
   7.9020182  53.6943328  42.4743406  17.8452513  64.7807058  42.3272900
  17.0548057  64.7631197  41.7877399  17.6085868  65.3195352  43.0821937
  17.9650388  61.6299524  39.6405629  18.0148393  61.4649532  40.5821151
  17.8564312  60.7626783  39.2503509   6.8486647  64.3088070  26.9297717
   6.9974767  64.9923534  26.2764390   7.6553090  64.2893160  27.4447173
  15.2554151  57.6130452  40.9564935  16.1564013  57.4736917  40.6648933
  15.3302125  57.7784907  41.8963113   9.5896956  54.9897307  39.8018122
   8.7200265  55.2830873  39.5300710   9.8256436  55.5737752  40.5225385
  19.4668585  64.0496466  39.8847650  19.1753393  64.4126446  40.7211111
  18.8540716  63.3363474  39.7060982  20.6664267  61.6149346  32.4050220
  21.5011159  62.0539150  32.5687781  20.8023396  61.1387999  31.5858466
  17.7155773  59.1729080  38.3527708  18.1909895  59.3656727  37.5446559
  16.7921339  59.2288266  38.1071092   4.6039280  60.3353248  27.9358786
   4.3585322  59.4315578  28.1338997   4.7735194  60.3370398  26.9938264
  12.2935990  51.2076924  37.3183542  12.8117934  51.9437951  36.9930031
  11.9391123  51.5140917  38.1530301   3.8734927  56.0681605  25.4344948
   3.1804172  56.1425960  24.7784984   3.6286679  55.3041949  25.9566465
  12.5448584  47.6277207  32.8384439  12.8250338  46.9600396  33.4644865
  13.3299191  47.8206302  32.3259102  10.3482052  66.8036200  24.4009465
   9.7756019  67.4226388  23.9479937  10.9214846  67.3535562  24.9349387
  16.4157442  56.0494841  36.5856014  17.3674865  56.1492938  36.6068238
  16.2460893  55.2573109  37.0954098  14.4371822  53.1350424  36.7715415
  13.8421754  53.4155436  36.0761903  14.1521518  53.6244325  37.5432156
  13.5679312  67.0873351  25.5318047  14.5009985  67.0218912  25.7350923
  13.4802525  67.9229617  25.0732580  16.1967329  66.4039221  22.4921995
  16.1180960  66.0699085  23.3857753  17.0176996  66.8960989  22.4913467
  18.8945520  59.2700960  35.6998313  18.8621840  58.3316961  35.8857997
  19.5046144  59.3484997  34.9664138  10.7328851  58.1397013  21.7425517
  11.6787956  58.0103221  21.8113935  10.3543096  57.4011675  22.2194946
  19.0440009  56.0612004  35.7456597  18.5279057  55.2770460  35.5586525
  19.9279957  55.7330720  35.9103116  16.7050735  49.8053019  31.7052409
  16.5075557  49.4968107  32.5895741  17.3150441  50.5314658  31.8350339
  24.7122070  60.3316967  34.8404350  25.4425458  60.0702255  35.4012053
  24.1029015  59.5945689  34.8806418  22.7937367  58.4724830  35.4378801
  22.0670531  58.3380795  34.8295293  22.3784654  58.7801658  36.2435519
  10.6167543  62.1914759  43.2026174  11.5370553  62.3693358  43.3966221
  10.5817126  61.2470805  43.0505874   8.9171768  56.0646990  21.6780403
   8.0103223  55.7680102  21.7543116   9.1947749  55.7676808  20.8114689
   3.6129616  60.1015794  35.8448956   3.8315626  61.0332902  35.8636989
   4.0255390  59.7423768  36.6303759  10.5333834  50.6083879  27.8324644
   9.7234562  50.2630964  28.2079890  11.2218251  50.2991423  28.4212255
  12.4624382  49.6861926  29.4548941  13.0155421  50.1057380  30.1138964
  12.6994468  48.7597674  29.4971897   8.4857481  55.6749000  45.2351704
   8.3854208  56.6243357  45.1663796   8.2679023  55.3467239  44.3627775
   7.6870553  52.9233925  21.8192382   8.5489717  53.2488823  22.0788199
   7.8720897  52.1365421  21.3065448  15.8403189  51.7962451  28.9627605
  15.2601858  52.4547255  28.5805657  15.5739122  50.9739796  28.5515022
  14.2906756  51.1967509  31.1648925  14.7906534  51.3084043  30.3563244
  14.9342363  50.8928562  31.8049734   8.3488751  59.1046139  44.0516766
   7.8655833  59.9046499  44.2580655   8.4349690  59.1154083  43.0984210
   1.6174711  60.9374518  31.9738585   1.5945399  61.0362206  31.0220469
   1.9275347  61.7839669  32.2955752   4.2762089  62.9950673  36.0885200
   5.2305342  62.9634616  36.0215131   4.0774612  62.5341297  36.9035426
   4.8661471  61.5651789  38.6555998   5.6854360  62.0595868  38.6790835
   5.1398279  60.6483757  38.6273565  14.6228067  53.9562542  28.0183953
  13.7353922  54.2412192  27.8004148  15.0382056  53.7956305  27.1711230
  17.9742603  53.9809063  31.7338292  18.7502993  54.4705515  32.0062909
  17.2490737  54.4067117  32.1910162  20.4115162  54.6936682  32.7912233
  21.0059653  54.4532418  32.0805541  20.4841746  53.9743812  33.4185769
   2.6312318  68.5370293  33.1055398   2.4966786  67.7770694  32.5393396
   2.2144380  69.2611193  32.6384187  13.7671281  63.7207216  22.1131973
  14.4707131  63.9257219  22.7289629  13.0433929  64.2883978  22.3781057
  14.5969091  59.4717078  28.2334243  14.5404292  59.9285629  27.3941876
  15.1497433  58.7107762  28.0557086  18.4073897  55.2606809  29.0584363
  18.1510831  54.8603445  29.8892570  17.7826765  55.9750603  28.9334502
  22.7186235  58.0002883  31.5655654  22.1585793  58.0696072  32.3387216
  22.1129738  57.8243867  30.8455150   5.7881443  69.4339610  33.3173840
   5.6713828  70.3785042  33.2152531   4.9673890  69.1313171  33.7059640
  15.6757978  64.1589746  24.1630433  16.5103582  63.7270944  23.9807908
  15.5142321  63.9871759  25.0907328  15.3303870  60.6621859  25.5286772
  15.2752674  60.4966130  24.5875217  14.7049925  61.3697892  25.6848962
  12.6449777  62.9670771  44.8540335  13.5140937  63.1411423  44.4926970
  12.1656529  63.7865188  44.7316065   8.6399996  50.1629968  25.1072091
   8.6278666  51.1071808  25.2640362   9.5323418  49.9800113  24.8131552
   6.8135958  70.0867872  36.5329769   7.7163204  70.1191482  36.8496264
   6.5873328  69.1568323  36.5476105   8.5689560  68.8398858  33.1939847
   7.6185191  68.8400720  33.0804220   8.8722046  68.0931593  32.6775882
  12.4552115  46.7572744  29.3618028  11.6884511  46.2031231  29.5074710
  12.8662820  46.8294613  30.2232179   4.4593876  53.0457540  43.4523209
   5.3225338  52.6894345  43.6626533   3.8859287  52.7071435  44.1398613
  24.3042253  74.6759397  34.2585610  24.9420663  74.5566144  33.5548950
  24.1863096  75.6240241  34.3173562  21.1131959  74.6286825  34.1947135
  20.7750471  74.5127889  33.3067669  21.9821728  74.2277990  34.1748141
  16.9718775  76.4822301  30.1844025  16.4083640  76.3912238  29.4160313
  16.8571170  75.6622206  30.6646518  21.5951742  75.7821676  40.1533340
  21.5840383  75.3874475  39.2813844  21.7572382  75.0487749  40.7467112
  14.5183207  77.9773493  33.0228246  15.3104499  77.6364317  32.6074545
  14.7579857  78.0868468  33.9430399  22.5518334  80.1493269  25.4958490
  21.9006314  80.7347349  25.1092504  23.3462697  80.6799464  25.5553528
  16.4773961  77.2382406  25.8945625  17.2504837  76.6911393  25.7558501
  16.8299360  78.1026655  26.1060086  18.3159004  78.5658788  39.1012524
  18.0248870  79.4704419  38.9859190  18.9515988  78.6075316  39.8156594
  19.2415210  75.9435637  35.6913884  19.8378783  75.7191659  34.9770847
  19.2990182  75.2020382  36.2939332  18.8140239  73.3975072  23.5264075
  19.0665759  72.8756593  22.7647538  17.8764798  73.2341218  23.6290758
  23.8583522  72.4010850  31.3338818  24.6446611  71.9830274  30.9829235
  24.1222226  73.3056943  31.5020466  24.0293599  77.8383701  26.0327475
  23.3939432  77.9118327  26.7448379  23.6991005  78.4277300  25.3546554
  29.2591949  72.3386084  32.2371796  29.9917121  71.7685300  32.4709626
  28.5031304  71.9507684  32.6778302  18.5336528  75.3003178  25.7288450
  18.4172786  74.6248081  26.3969534  18.6438787  74.8135552  24.9120603
  20.8768068  74.7613325  29.4335139  20.5126276  74.2343946  30.1448060
  21.7335184  74.3711794  29.2601624  26.7817369  66.0507658  36.6966405
  26.4500694  66.9203069  36.4727620  26.1862982  65.7343942  37.3760435
  20.5173555  69.7903225  24.4296487  20.6847958  70.6583461  24.7966958
  20.3270725  69.9530507  23.5057777  23.2748889  78.2520204  36.0962318
  22.9749612  79.1545243  35.9878125  22.9299948  77.9852387  36.9483471
  16.7261370  74.7034001  32.1299022  15.8011867  74.5710215  32.3376714
  16.9745783  75.4828220  32.6268965  26.6746032  70.7702744  33.7759755
  25.7662910  70.7018152  33.4818516  26.6233628  71.2474689  34.6041581
  20.4962776  72.2460882  25.4143154  20.3762402  72.6917933  26.2528634
  19.8015365  72.5946200  24.8556692  14.0870181  74.3467274  32.9642811
  14.2162562  74.6001753  33.8782223  13.4067632  74.9394982  32.6447466
  18.2569668  85.0164524  29.0633285  18.1793698  85.9672349  29.1421766
  17.6531312  84.6710397  29.7208212  20.7486898  72.1892390  41.7194652
  19.9720232  72.7486310  41.7097517  21.3877461  72.6749173  42.2409522
  28.5407679  68.9719182  35.5537629  27.8982059  69.2651716  34.9077424
  28.0362607  68.8572103  36.3590826  26.1947842  72.7182356  26.2423488
  27.1065699  72.9509742  26.0671186  25.6857490  73.3019400  25.6798567
  19.0033270  74.9977843  41.2812619  19.7447955  75.5362887  41.0047443
  18.2970256  75.6244132  41.4384171  24.4788610  77.1406983  39.8784781
  24.8871966  76.6989394  39.1339413  23.7565872  76.5659611  40.1318974
  20.8319680  72.0779590  37.2518338  21.6780875  72.5019004  37.3952987
  20.7718318  71.4213214  37.9456901  24.8017425  77.7008174  33.6337070
  24.1726287  77.8653888  32.9313138  24.4143087  78.1149784  34.4048034
  23.9819126  69.7383958  38.9099511  23.7380057  70.4926019  38.3733787
  24.2579056  70.1169306  39.7446758  23.5383817  68.8940392  34.4913349
  22.6768296  69.1921645  34.7830087  23.5646252  69.1110790  33.5594382
  20.3545387  77.4382582  30.8987155  20.8183732  77.7170285  30.1091777
  20.0902185  76.5366027  30.7160245  17.2469468  76.9854064  33.8366918
  17.8170825  77.4141332  33.1984403  17.8377580  76.7036648  34.5351104
  19.2914273  73.5605734  27.7076720  19.9938316  74.0126778  28.1750646
  18.9594901  72.9189553  28.3356613  17.7394634  72.1517491  42.0827929
  17.1093295  72.8333772  42.3163326  17.6330722  72.0400573  41.1381068
  13.0339607  71.8189287  33.0093854  12.2438661  72.0746816  32.5333964
  13.5250854  72.6337625  33.1145894  27.0503416  79.1594526  35.7599134
  27.8720860  78.7574714  35.4781816  27.0465819  79.0562760  36.7115250
  14.9854352  72.1833866  29.9677330  14.1885515  72.2952561  30.4860826
  14.7579944  72.5220519  29.1018221  20.8160020  78.7078570  37.9159845
  20.8804452  79.1698977  38.7518017  20.1070944  78.0775935  38.0442155
  11.3177310  72.0719778  35.4408844  11.5685348  72.9566787  35.7066420
  11.8536858  71.8924379  34.6683936  20.5308037  80.3746677  27.7838825
  20.3953712  81.2198213  28.2123673  21.0717850  80.5765955  27.0204759
  17.0175377  66.4538257  44.4453180  16.6242323  65.9004455  45.1200825
  17.8341517  66.7648835  44.8359698  13.9837435  77.8922115  28.3566750
  14.4961955  78.6865365  28.5072315  14.6360148  77.1948406  28.2900352
  15.7932319  81.0087871  30.4389503  15.9698948  81.9305836  30.2510487
  16.5889153  80.6946291  30.8683883  19.9343338  67.8696136  42.0373437
  20.6753051  68.4703289  41.9577899  20.1661261  67.1273774  41.4791480
  15.0784676  73.0552503  40.3151667  14.9638191  72.1537761  40.6158766
  14.2229194  73.3016200  39.9636483  22.1576514  80.9970244  41.9139167
  21.7140368  80.2106622  41.5960072  22.8193727  81.1849394  41.2483058
  16.9163635  82.5266045  36.4399846  17.4671060  82.3983109  35.6676840
  16.0775111  82.8260934  36.0894739  24.2557752  81.2773044  39.9420569
  24.2376227  82.0981925  39.4500838  25.1777672  81.1527119  40.1670710
  20.7130806  78.7917173  40.7844077  21.2459143  78.0305461  40.5543385
  20.1844887  78.4990825  41.5268231  23.8800501  63.8977239  36.3137719
  23.5364770  64.7878881  36.2376829  24.2479464  63.7078897  35.4507304
  11.9486352  76.2210769  29.1326321  12.7861574  76.6307778  28.9160028
  12.1264619  75.2810212  29.1026515  23.8450784  73.8885850  24.8210154
  23.3297407  74.6590455  25.0598541  23.5728092  73.2150986  25.4443215
  21.4297895  68.7335551  29.8795392  20.5739491  68.3442401  29.7001031
  21.8424846  68.8127512  29.0195178  22.9597041  66.2681894  34.2786952
  22.4561837  66.2312029  33.4654757  23.2527648  67.1774637  34.3383609
  19.2039927  66.3520624  33.2853134  20.0692924  66.1563433  32.9259023
  19.2717436  66.1230976  34.2122490  23.6337087  71.7612942  26.6469935
  23.3287222  72.0759091  27.4980078  24.5867529  71.8394362  26.6897268
  22.0783519  77.9203165  28.2962889  21.5504880  77.1855925  27.9836126
  21.5771021  78.6977842  28.0502857  16.8102246  68.5822832  30.6569500
  17.3845998  68.3598013  29.9242693  17.3973229  68.6511526  31.4098102
  25.8681823  74.4696559  31.4633877  26.3813705  75.1026550  31.9655587
  26.5183047  73.8697754  31.0977237  17.1371833  70.6127293  24.6765386
  16.3009146  70.9501979  24.9974660  16.9976603  70.4776273  23.7392523
  19.1124914  65.4564081  29.3844570  18.4589326  65.1413098  28.7601185
  19.0705388  64.8339821  30.1104393  20.2236119  75.7383376  21.2997862
  19.3163181  75.5072629  21.4989011  20.7207151  74.9420995  21.4871843
  23.1304198  84.4480883  24.2194548  22.4565896  84.7512580  24.8279506
  23.5170020  85.2509963  23.8700005  22.3462654  71.9446014  33.7092217
  21.4285216  72.1660961  33.5513906  22.7622798  72.0192325  32.8503925
  23.1297702  73.3437430  28.8394898  23.8769521  73.8558827  28.5302020
  23.3989292  73.0221483  29.6999291  21.4024352  75.8395971  25.8221852
  20.4935572  75.5555003  25.9194322  21.4319436  76.2595049  24.9625159
  25.5776539  70.3794546  30.8213687  24.8399296  69.8671932  31.1523930
  25.8303313  69.9394928  30.0096964  25.0776559  81.2879057  30.5262838
  25.3699533  81.8484114  29.8075203  25.5875179  81.5807618  31.2815997
  25.6788167  63.1570798  31.4155456  25.9847043  62.2968162  31.1281371
  26.4040771  63.7488418  31.2154450  11.9712523  73.5601485  29.8037054
  11.7736922  72.9670845  29.0788121  11.4159187  73.2553695  30.5212993
  19.9509246  73.4524591  31.9231647  20.0057856  72.4998428  31.8474124
  19.1400448  73.6084030  32.4072946  21.1000440  77.3804714  23.1609931
  20.6619870  76.6640573  22.7015568  21.8410881  77.6080829  22.5995022
  17.8901606  72.0701651  29.6822026  17.0769472  72.3695822  30.0887218
  18.3860600  71.6757340  30.3996508  20.0410184  82.0659408  31.6156291
  19.9986363  82.2920254  30.6864823  20.9572883  81.8322782  31.7642092
  23.4875818  72.5343475  38.5136920  23.8425206  72.7614949  39.3731386
  24.1347949  72.8661852  37.8914175  17.3815681  69.6420006  35.2983261
  18.0215060  69.5008766  34.6006225  16.5493212  69.3554520  34.9221863
  18.1575985  78.9422437  31.4118254  18.9516583  78.4472757  31.2100829
  17.4467677  78.4140300  31.0485959  22.9770829  81.3240532  35.7630621
  23.0307852  81.8931469  36.5308337  22.1085611  81.4942417  35.3984658
  14.4658748  73.0865519  27.4878006  13.5356336  73.0249974  27.7047968
  14.5616220  72.5641471  26.6914648  14.3844297  69.6120331  30.0756248
  14.6451115  70.5265665  29.9665408  15.2061470  69.1444774  30.2252861
  15.8569223  71.0258089  37.2455073  16.5292276  70.8175451  36.5967721
  15.0299009  70.8280175  36.8060305  21.7594795  67.6520030  39.2620733
  21.1122710  68.3509979  39.1685210  22.5295810  68.0856173  39.6296982
  25.1673593  77.9168882  42.3371287  25.0159099  77.6879433  41.4201370
  25.1578272  78.8739483  42.3502632  21.9358929  75.4900794  37.3217553
  22.8650989  75.6411954  37.1486520  21.5149959  75.5784815  36.4666200
  20.7347261  79.5151459  35.0916091  20.5958347  79.1470243  35.9642029
  19.9461857  80.0299098  34.9200049  21.3295413  84.6160555  26.4341627
  21.5047169  84.1448599  27.2487250  20.6428201  85.2426322  26.6622888
  22.2852476  78.8933062  32.4804929  21.9502309  78.8533832  33.3762578
  21.7856422  78.2277777  32.0075339  16.2596720  74.3000692  38.0057510
  16.1216518  73.5680930  38.6069049  17.1701643  74.2109592  37.7241697
  25.2211668  76.2389096  22.7541988  24.6040838  75.5135924  22.6575041
  24.7528156  76.9998456  22.4109062  18.8879021  74.0120651  37.4941189
  19.5978639  73.3713843  37.4527808  18.8448329  74.2633546  38.4167370
  26.8765799  80.9488004  40.4147769  26.8178345  80.2647224  39.7478352
  27.2785318  81.6906994  39.9628395  17.6007955  70.9985869  39.3136829
  17.0645312  70.5476607  39.9658425  17.0124663  71.1331778  38.5707293
  15.8956498  87.7649918  33.2081487  16.1353096  88.3968442  33.8860506
  15.0525695  87.4137958  33.4946847  17.0110214  70.4574520  21.8763292
  16.1339680  70.3363321  21.5125539  17.4867967  69.6660599  21.6242181
   8.5312354  75.2451680  31.9704800   9.2183394  74.9313410  31.3825815
   8.3760482  76.1493045  31.6972051  13.3347076  70.1341877  36.3989823
  13.2505265  69.5267546  35.6640233  12.5129782  70.6250895  36.3999320
  20.4084360  83.5729041  35.6122991  20.3354531  84.3784012  36.1242296
  19.9661753  83.7721006  34.7871013  20.1974140  82.8100811  29.1225813
  19.4141662  83.3522491  29.2164037  20.8966885  83.3274790  29.5220054
  23.5070790  68.6195440  31.7660018  24.0039489  67.8665402  31.4461089
  22.7357771  68.6559757  31.2003228  22.8683044  83.4715875  37.7681150
  23.5811016  84.1063339  37.6957052  22.3773072  83.5679741  36.9521152
  24.5900570  77.3767127  29.3398442  23.6556849  77.4968590  29.1703146
  24.7677239  76.4739594  29.0758452  20.0905758  70.7612823  31.4931703
  19.7203546  70.2083863  32.1812609  20.5864851  70.1570957  30.9406703
  17.9194957  81.2210318  38.5886721  18.6204417  81.8546801  38.7416115
  17.4490072  81.5625050  37.8282360  25.9489785  65.5865034  33.9139377
  25.0352864  65.8169260  34.0821584  26.3782886  65.6703478  34.7653410
  25.7196243  73.7754926  36.4139271  25.0667693  74.0230833  35.7591724
  26.0976623  72.9619064  36.0801749  22.6803417  83.8114619  30.5167442
  22.8625811  82.9936275  30.9795194  23.5036403  84.0282311  30.0792332
  23.0145582  82.7382804  27.7782490  23.5433349  82.2275258  27.1652652
  23.2773802  82.4225334  28.6428023  21.7683816  74.5174737  42.9005308
  21.0924453  74.4168866  43.5707684  22.5911450  74.3613950  43.3641306
  13.5162675  80.7546673  35.5217824  14.1016112  80.0090361  35.6545728
  13.3187514  81.0650630  36.4054487  16.3701330  83.7897920  30.5380266
  15.7011706  84.2744048  30.0544306  16.2314200  84.0367141  31.4523645
   8.1080330  73.3252273  34.2422267   8.1464429  72.7915864  35.0359385
   7.6020623  72.7987479  33.6233244  20.5106599  85.8241664  37.1362924
  21.0624907  85.9873286  37.9012010  20.8512792  86.4146102  36.4642949
  15.4871092  68.1716814  37.7384809  15.5512419  69.0331645  37.3262207
  15.4238212  67.5590815  37.0057168  14.9623365  70.2439946  41.3857843
  15.5895403  69.8617024  41.9995368  14.1051284  70.0254148  41.7513536
  25.3617473  80.6502922  42.9911579  25.9057377  81.2632880  42.4966534
  24.7804318  81.2082500  43.5078592  11.7388907  72.0516375  27.3176198
  12.0342349  71.1427054  27.2643252  10.8376943  72.0304115  26.9957200
  23.6474986  83.7723640  34.1226607  23.5226126  82.9713379  33.6137552
  24.3054077  84.2669833  33.6340576  15.2683154  70.1272372  33.3003747
  14.5469740  70.7408340  33.1611220  16.0576410  70.6630137  33.2220393
  25.7109895  81.5732660  35.7506157  24.7640230  81.4538011  35.6784483
  26.0592668  80.6855158  35.8332418  18.0709468  67.4626799  39.5744398
  18.5943870  67.7089095  40.3370708  17.8521801  68.2946833  39.1547536
  13.4676749  69.7330473  27.4415523  13.1389455  68.8527852  27.2590629
  13.8216120  69.6778142  28.3291913  22.7156328  81.3685376  31.9510509
  22.5681290  80.4402083  32.1318079  23.5409821  81.3905467  31.4667584
  16.5818572  70.0203443  27.8091001  16.9214645  70.5489364  27.0869609
  17.0290693  70.3583849  28.5849567  26.3190450  82.1913935  33.0375382
  27.2436997  81.9856796  32.8999833  26.1505753  81.9430336  33.9464723
  19.2762013  68.4040494  37.2594069  18.9358833  67.6048307  37.6614749
  18.5701019  68.7042204  36.6870902  19.9278485  65.4889806  35.7121392
  20.7504554  65.0150284  35.5900282  20.1716548  66.2680290  36.2120078
  18.5686719  68.5178065  26.0084294  19.2895082  68.8959317  25.5048011
  17.9452023  69.2366941  26.1119272  22.7117842  69.2223213  26.9442626
  22.9281457  70.1047851  26.6431454  22.2311909  68.8309427  26.2148268
  17.4517064  72.1808927  33.5213371  17.3061644  72.4949230  34.4137652
  16.9742267  72.7993827  32.9684269  19.3113446  69.1711475  33.5694260
  19.2975015  68.2752568  33.2326558  20.0285875  69.1782138  34.2032546
  21.1639577  69.6048815  35.6147388  20.9057355  70.5265886  35.6131718
  20.6324618  69.2079249  36.3047852  26.1085766  82.7099602  28.3937473
  26.2822643  82.1446025  27.6411325  26.6014657  83.5100497  28.2116963
  11.9262726  74.7214271  36.4601032  11.3816194  75.4974079  36.5921306
  12.8042076  75.0685076  36.3020153  18.7150342  68.0525855  28.8381830
  18.8366254  67.1242501  29.0372718  18.4252385  68.0664541  27.9260146
  21.5841533  65.7380765  31.9748550  21.6063230  65.8020098  31.0200530
  22.0009592  64.8985274  32.1689056  27.0960938  82.0266366  25.4934371
  27.7911843  82.6473059  25.7121686  27.4384089  81.1761718  25.7686749
  12.7128748  73.8484167  39.3531189  11.9710484  73.9966803  39.9395819
  12.3921492  74.1092433  38.4897938  20.6572410  83.3900146  39.1511579
  20.9659537  83.1449292  40.0234278  21.4547892  83.5946784  38.6630449
  20.6793022  85.5438055  31.3816955  20.2398013  85.0514434  32.0749812
  21.4301139  85.0011023  31.1409030  13.1585361  81.7349596  31.3841583
  13.9843381  81.4353368  31.0040227  12.8079413  80.9657219  31.8331372
  18.1266894  81.0876064  33.4539257  17.5046904  80.4246769  33.1541485
  18.7971761  81.1137196  32.7712905  11.3593966  79.6535923  32.3430517
  10.5225875  79.2258097  32.1614518  11.3317612  79.8468366  33.2801308
  18.1991422  69.5657852  43.0471763  18.2479577  70.4419975  42.6649533
  18.7413936  69.0235245  42.4743406  17.6880401  79.6379988  26.9297717
  17.8368522  80.3215452  26.2764390  18.4946845  79.6185078  27.4447173
  20.4290710  70.3189225  39.8018122  19.5594020  70.6122791  39.5300710
  20.6650191  70.9029670  40.5225385  15.4433034  75.6645165  27.9358786
  15.1979076  74.7607495  28.1338997  15.6128949  75.6662316  26.9938264
  23.1329744  66.5368842  37.3183542  23.6511688  67.2729869  36.9930031
  22.7784877  66.8432835  38.1530301  14.7128682  71.3973523  25.4344948
  14.0197927  71.4717878  24.7784984  14.4680434  70.6333867  25.9566465
  23.3842338  62.9569124  32.8384439  23.6644092  62.2892313  33.4644865
  24.1692945  63.1498220  32.3259102  21.1875807  82.1328118  24.4009465
  20.6149774  82.7518305  23.9479937  21.7608601  82.6827480  24.9349387
  25.2765576  68.4642341  36.7715415  24.6815508  68.7447354  36.0761903
  24.9915273  68.9536242  37.5432156  24.4073067  82.4165268  25.5318047
  25.3403740  82.3510830  25.7350923  24.3196279  83.2521535  25.0732580
  27.0361083  81.7331139  22.4921995  26.9574715  81.3991002  23.3857753
  27.8570750  82.2252906  22.4913467  21.5722605  73.4688931  21.7425517
  22.5181710  73.3395139  21.8113935  21.1936850  72.7303593  22.2194946
  27.5444490  65.1344937  31.7052409  27.3469311  64.8260025  32.5895741
  28.1544195  65.8606576  31.8350339  21.4561298  77.5206677  43.2026174
  22.3764307  77.6985276  43.3966221  21.4210881  76.5762722  43.0505874
  19.7565523  71.3938907  21.6780403  18.8496978  71.0972020  21.7543116
  20.0341504  71.0968725  20.8114689  10.6743463  72.7145271  32.1279449
  10.3546247  71.8610579  31.8353823  10.1276891  72.9293849  32.8837416
  14.4523370  75.4307712  35.8448956  14.6709380  76.3624819  35.8636989
  14.8649144  75.0715686  36.6303759  21.3727588  65.9375797  27.8324644
  20.5628317  65.5922882  28.2079890  22.0612005  65.6283341  28.4212255
  23.3018137  65.0153844  29.4548941  23.8549175  65.4349297  30.1138964
  23.5388223  64.0889592  29.4971897  19.3251236  71.0040917  45.2351704
  19.2247963  71.9535274  45.1663796  19.1072778  70.6759156  44.3627775
  18.5264307  68.2525842  21.8192382  19.3883471  68.5780741  22.0788199
  18.7114651  67.4657338  21.3065448  10.5431723  76.3348182  34.0972571
   9.8495194  75.9202135  33.5842525  11.2904714  76.3768719  33.5005989
  26.6796944  67.1254369  28.9627605  26.0995613  67.7839173  28.5805657
  26.4132876  66.3031714  28.5515022  25.1300510  66.5259427  31.1648925
  25.6300288  66.6375961  30.3563244  25.7736118  66.2220479  31.8049734
  19.1882506  74.4338056  44.0516766  18.7049588  75.2338416  44.2580655
  19.2743445  74.4446001  43.0984210  12.4568465  76.2666436  31.9738585
  12.4339154  76.3654123  31.0220469  12.7669102  77.1131587  32.2955752
  15.1155843  78.3242591  36.0885200  16.0699097  78.2926533  36.0215131
  14.9168367  77.8633215  36.9035426  15.7055225  76.8943707  38.6555998
  16.5248114  77.3887786  38.6790835  15.9792033  75.9775675  38.6273565
  25.4621822  69.2854459  28.0183953  24.5747677  69.5704110  27.8004148
  25.8775811  69.1248223  27.1711230  28.8136358  69.3100980  31.7338292
  29.5896748  69.7997433  32.0062909  28.0884492  69.7359034  32.1910162
  13.4706072  83.8662210  33.1055398  13.3360540  83.1062611  32.5393396
  13.0538134  84.5903110  32.6384187  24.6065035  79.0499134  22.1131973
  25.3100885  79.2549136  22.7289629  23.8827684  79.6175896  22.3781057
  25.4362845  74.8008995  28.2334243  25.3798047  75.2577547  27.3941876
  25.9891188  74.0399680  28.0557086  29.2467651  70.5898727  29.0584363
  28.9904586  70.1895363  29.8892570  28.6220519  71.3042521  28.9334502
  16.6275198  84.7631527  33.3173840  16.5107582  85.7076960  33.2152531
  15.8067644  84.4605089  33.7059640  26.5151733  79.4881663  24.1630433
  27.3497336  79.0562862  23.9807908  26.3536075  79.3163677  25.0907328
  26.1697625  75.9913776  25.5286772  26.1146428  75.8258048  24.5875217
  25.5443680  76.6989809  25.6848962  10.9590140  71.2281841  39.3548195
  11.6049003  70.7180795  39.8435420  10.7507291  71.9650523  39.9291620
  23.4843532  78.2962688  44.8540335  24.3534692  78.4703341  44.4926970
  23.0050283  79.1157105  44.7316065  19.4793750  65.4921885  25.1072091
  19.4672420  66.4363725  25.2640362  20.3717172  65.3092031  24.8131552
  17.6529712  85.4159789  36.5329769  18.5556959  85.4483400  36.8496264
  17.4267082  84.4860240  36.5476105  19.4083314  84.1690776  33.1939847
  18.4578945  84.1692638  33.0804220  19.7115800  83.4223510  32.6775882
  23.2945870  62.0864662  29.3618028  22.5278265  61.5323149  29.5074710
  23.7056575  62.1586531  30.2232179  15.2987631  68.3749458  43.4523209
  16.1619092  68.0186263  43.6626533  14.7253041  68.0363353  44.1398613
  27.8112530  91.8114219  30.1844025  27.2477395  91.7204156  29.4160313
  27.6964925  90.9914123  30.6646518  25.3576962  93.3065410  33.0228246
  26.1498253  92.9656235  32.6074545  25.5973612  93.4160385  33.9430399
  33.3912088  95.4785187  25.4958490  32.7400068  96.0639267  25.1092504
  34.1856451  96.0091381  25.5553528  27.3167715  92.5674324  25.8945625
  28.0898591  92.0203311  25.7558501  27.6693114  93.4318573  26.1060086
  29.1552758  93.8950706  39.1012524  28.8642624  94.7996337  38.9859190
  29.7909742  93.9367234  39.8156594  30.0808965  91.2727554  35.6913884
  30.6772537  91.0483577  34.9770847  30.1383936  90.5312300  36.2939332
  29.6533993  88.7266990  23.5264075  29.9059514  88.2048511  22.7647538
  28.7158552  88.5633135  23.6290758  34.8687353  93.1675618  26.0327475
  34.2333186  93.2410245  26.7448379  34.5384760  93.7569217  25.3546554
  29.3730282  90.6295096  25.7288450  29.2566540  89.9539999  26.3969534
  29.4832542  90.1427470  24.9120603  31.7161823  90.0905243  29.4335139
  31.3520030  89.5635864  30.1448060  32.5728939  89.7003712  29.2601624
  31.3567310  85.1195143  24.4296487  31.5241712  85.9875379  24.7966958
  31.1664479  85.2822424  23.5057777  27.5655125  90.0325918  32.1299022
  26.6405621  89.9002132  32.3376714  27.8139538  90.8120138  32.6268965
  31.3356531  87.5752800  25.4143154  31.2156156  88.0209851  26.2528634
  30.6409119  87.9238118  24.8556692  24.9263936  89.6759192  32.9642811
  25.0556317  89.9293671  33.8782223  24.2461387  90.2686900  32.6447466
  29.0963423 100.3456442  29.0633285  29.0187453 101.2964267  29.1421766
  28.4925066 100.0002314  29.7208212  29.8427025  90.3269761  41.2812619
  30.5841709  90.8654805  41.0047443  29.1364010  90.9536049  41.4384171
  31.1939141  92.7674500  30.8987155  31.6577487  93.0462203  30.1091777
  30.9295939  91.8657944  30.7160245  28.0863222  92.3145981  33.8366918
  28.6564579  92.7433250  33.1984403  28.6771334  92.0328566  34.5351104
  30.1308027  88.8897652  27.7076720  30.8332071  89.3418696  28.1750646
  29.7988656  88.2481471  28.3356613  28.5788389  87.4809409  42.0827929
  27.9487049  88.1625690  42.3163326  28.4724477  87.3692490  41.1381068
  23.8733361  87.1481205  33.0093854  23.0832415  87.4038733  32.5333964
  24.3644609  87.9629543  33.1145894  25.8248107  87.5125784  29.9677330
  25.0279270  87.6244478  30.4860826  25.5973699  87.8512436  29.1018221
  31.6553774  94.0370487  37.9159845  31.7198207  94.4990894  38.7518017
  30.9464698  93.4067852  38.0442155  22.1571064  87.4011695  35.4408844
  22.4079103  88.2858705  35.7066420  22.6930613  87.2216297  34.6683936
  31.3701792  95.7038595  27.7838825  31.2347467  96.5490130  28.2123673
  31.9111604  95.9057872  27.0204759  27.8569131  81.7830175  44.4453180
  27.4636077  81.2296373  45.1200825  28.6735272  82.0940753  44.8359698
  24.8231189  93.2214033  28.3566750  25.3355710  94.0157283  28.5072315
  25.4753902  92.5240323  28.2900352  26.6326074  96.3379789  30.4389503
  26.8092702  97.2597754  30.2510487  27.4282907  96.0238208  30.8683883
  30.7737092  83.1988054  42.0373437  31.5146806  83.7995207  41.9577899
  31.0055015  82.4565691  41.4791480  25.9178430  88.3844421  40.3151667
  25.8031946  87.4829678  40.6158766  25.0622948  88.6308118  39.9636483
  32.9970268  96.3262161  41.9139167  32.5534122  95.5398540  41.5960072
  33.6587482  96.5141312  41.2483058  27.7557389  97.8557963  36.4399846
  28.3064815  97.7275026  35.6676840  26.9168865  98.1552852  36.0894739
  35.0951506  96.6064961  39.9420569  35.0769982  97.4273842  39.4500838
  36.0171426  96.4819036  40.1670710  31.5524560  94.1209091  40.7844077
  32.0852897  93.3597379  40.5543385  31.0238642  93.8282742  41.5268231
  22.7880106  91.5502687  29.1326321  23.6255328  91.9599695  28.9160028
  22.9658374  90.6102129  29.1026515  32.9177273  93.2495083  28.2962889
  32.3898635  92.5147843  27.9836126  32.4164776  94.0269759  28.0502857
  27.6496001  83.9114749  30.6569500  28.2239753  83.6889931  29.9242693
  28.2366983  83.9803444  31.4098102  27.9765588  85.9419210  24.6765386
  27.1402900  86.2793897  24.9974660  27.8370357  85.8068190  23.7392523
  31.0629873  91.0675293  21.2997862  30.1556935  90.8364547  21.4989011
  31.5600905  90.2712913  21.4871843  33.9697952  99.7772801  24.2194548
  33.2959651 100.0804497  24.8279506  34.3563774 100.5801881  23.8700005
  32.2418107  91.1687888  25.8221852  31.3329326  90.8846921  25.9194322
  32.2713191  91.5886967  24.9625159  35.9170313  96.6170974  30.5262838
  36.2093288  97.1776032  29.8075203  36.4268934  96.9099535  31.2815997
  22.8106277  88.8893402  29.8037054  22.6130677  88.2962763  29.0788121
  22.2552941  88.5845613  30.5212993  30.7903001  88.7816509  31.9231647
  30.8451611  87.8290345  31.8474124  29.9794203  88.9375948  32.4072946
  31.9394195  92.7096632  23.1609931  31.5013624  91.9932491  22.7015568
  32.6804635  92.9372747  22.5995022  28.7295361  87.3993569  29.6822026
  27.9163226  87.6987739  30.0887218  29.2254355  87.0049257  30.3996508
  30.8803939  97.3951326  31.6156291  30.8380117  97.6212172  30.6864823
  31.7966637  97.1614700  31.7642092  28.2209435  84.9711924  35.2983261
  28.8608815  84.8300683  34.6006225  27.3886966  84.6846438  34.9221863
  28.9969739  94.2714355  31.4118254  29.7910338  93.7764675  31.2100829
  28.2861432  93.7432218  31.0485959  33.8164584  96.6532450  35.7630621
  33.8701606  97.2223386  36.5308337  32.9479365  96.8234335  35.3984658
  25.3052503  88.4157436  27.4878006  24.3750091  88.3541892  27.7047968
  25.4009975  87.8933389  26.6914648  25.2238052  84.9412249  30.0756248
  25.4844869  85.8557582  29.9665408  26.0455224  84.4736692  30.2252861
  26.6962977  86.3550006  37.2455073  27.3686031  86.1467368  36.5967721
  25.8692764  86.1572092  36.8060305  31.5741015  94.8443377  35.0916091
  31.4352101  94.4762161  35.9642029  30.7855612  95.3591016  34.9200049
  32.1689167  99.9452473  26.4341627  32.3440923  99.4740516  27.2487250
  31.4821955 100.5718239  26.6622888  33.1246231  94.2224979  32.4804929
  32.7896063  94.1825749  33.3762578  32.6250176  93.5569695  32.0075339
  27.0990474  89.6292609  38.0057510  26.9610272  88.8972848  38.6069049
  28.0095398  89.5401509  37.7241697  28.4401709  86.3277786  39.3136829
  27.9039066  85.8768525  39.9658425  27.8518418  86.4623695  38.5707293
  26.7350253 103.0941836  33.2081487  26.9746851 103.7260360  33.8860506
  25.8919449 102.7429876  33.4946847  27.8503968  85.7866438  21.8763292
  26.9733434  85.6655239  21.5125539  28.3261721  84.9952516  21.6242181
  19.3706108  90.5743598  31.9704800  20.0577148  90.2605328  31.3825815
  19.2154237  91.4784962  31.6972051  24.1740830  85.4633794  36.3989823
  24.0899019  84.8559464  35.6640233  23.3523537  85.9542812  36.3999320
  31.2478114  98.9020958  35.6122991  31.1748286  99.7075930  36.1242296
  30.8055508  99.1012924  34.7871013  31.0367894  98.1392728  29.1225813
  30.2535416  98.6814408  29.2164037  31.7360639  98.6566708  29.5220054
  33.7076798  98.8007792  37.7681150  34.4204770  99.4355257  37.6957052
  33.2166827  98.8971658  36.9521152  35.4294325  92.7059045  29.3398442
  34.4950604  92.8260507  29.1703146  35.6070993  91.8031512  29.0758452
  30.9299513  86.0904741  31.4931703  30.5597301  85.5375781  32.1812609
  31.4258605  85.4862874  30.9406703  28.7588712  96.5502236  38.5886721
  29.4598171  97.1838719  38.7416115  28.2883827  96.8916967  37.8282360
  36.8843107  94.8920186  26.8734628  37.1602951  94.7776780  27.7828502
  36.0147606  94.4937670  26.8346801  33.5197171  99.1406536  30.5167442
  33.7019566  98.3228192  30.9795194  34.3430157  99.3574229  30.0792332
  33.8539337  98.0674721  27.7782490  34.3827103  97.5567176  27.1652652
  34.1167556  97.7517252  28.6428023  24.3556430  96.0838591  35.5217824
  24.9409866  95.3382279  35.6545728  24.1581268  96.3942547  36.4054487
  27.2095085  99.1189838  30.5380266  26.5405460  99.6035966  30.0544306
  27.0707955  99.3659059  31.4523645  18.9474084  88.6544191  34.2422267
  18.9858184  88.1207782  35.0359385  18.4414377  88.1279396  33.6233244
  31.3500353 101.1533582  37.1362924  31.9018661 101.3165203  37.9012010
  31.6906547 101.7438020  36.4642949  26.3264847  83.5008731  37.7384809
  26.3906173  84.3623562  37.3262207  26.2631967  82.8882733  37.0057168
  25.8017119  85.5731864  41.3857843  26.4289158  85.1908941  41.9995368
  24.9445038  85.3546066  41.7513536  36.2011228  95.9794839  42.9911579
  36.7451132  96.5924797  42.4966534  35.6198073  96.5374418  43.5078592
  22.5782662  87.3808293  27.3176198  22.8736103  86.4718972  27.2643252
  21.6770698  87.3596033  26.9957200  34.4868741  99.1015557  34.1226607
  34.3619880  98.3005297  33.6137552  35.1447832  99.5961751  33.6340576
  26.1076909  85.4564290  33.3003747  25.3863495  86.0700257  33.1611220
  26.8970165  85.9922055  33.2220393  28.9103222  82.7918716  39.5744398
  29.4337624  83.0381013  40.3370708  28.6915556  83.6238751  39.1547536
  24.3070504  85.0622391  27.4415523  23.9783210  84.1819770  27.2590629
  24.6609874  85.0070059  28.3291913  33.5550082  96.6977294  31.9510509
  33.4075045  95.7694001  32.1318079  34.3803576  96.7197384  31.4667584
  27.4212327  85.3495361  27.8091001  27.7608399  85.8781282  27.0869609
  27.8684447  85.6875767  28.5849567  37.1584204  97.5205852  33.0375382
  38.0830752  97.3148714  32.8999833  36.9899508  97.2722253  33.9464723
  29.4080474  83.8469982  26.0084294  30.1288836  84.2251235  25.5048011
  28.7845778  84.5658859  26.1119272  28.2910818  87.5100844  33.5213371
  28.1455399  87.8241147  34.4137652  27.8136022  88.1285745  32.9684269
  30.1507201  84.5003392  33.5694260  30.1368770  83.6044486  33.2326558
  30.8679629  84.5074056  34.2032546  36.9479520  98.0391520  28.3937473
  37.1216398  97.4737942  27.6411325  37.4408412  98.8392415  28.2116963
  22.7656480  90.0506189  36.4601032  22.2209948  90.8265997  36.5921306
  23.6435830  90.3976993  36.3020153  37.9354693  97.3558284  25.4934371
  38.6305598  97.9764977  25.7121686  38.2777843  96.5053635  25.7686749
  23.5522502  89.1776085  39.3531189  22.8104238  89.3258720  39.9395819
  23.2315246  89.4384351  38.4897938  31.4966165  98.7192063  39.1511579
  31.8053291  98.4741210  40.0234278  32.2941647  98.9238702  38.6630449
  31.5186777 100.8729973  31.3816955  31.0791767 100.3806352  32.0749812
  32.2694894 100.3302941  31.1409030  23.9979116  97.0641514  31.3841583
  24.8237136  96.7645286  31.0040227  23.6473168  96.2949136  31.8331372
  28.9660649  96.4167982  33.4539257  28.3440658  95.7538687  33.1541485
  29.6365516  96.4429114  32.7712905  22.1987721  94.9827840  32.3430517
  21.3619629  94.5550015  32.1614518  22.1711366  95.1760284  33.2801308
  29.0385176  84.8949770  43.0471763  29.0873332  85.7711893  42.6649533
  29.5807691  84.3527163  42.4743406  28.5274156  94.9671905  26.9297717
  28.6762276  95.6507370  26.2764390  29.3340599  94.9476995  27.4447173
  26.2826789  90.9937083  27.9358786  26.0372831  90.0899413  28.1338997
  26.4522703  90.9954233  26.9938264  25.5522436  86.7265441  25.4344948
  24.8591681  86.8009796  24.7784984  25.3074188  85.9625784  25.9566465
  32.0269561  97.4620036  24.4009465  31.4543528  98.0810223  23.9479937
  32.6002355  98.0119397  24.9349387  35.2466821  97.7457186  25.5318047
  36.1797494  97.6802748  25.7350923  35.1590034  98.5813453  25.0732580
  37.8754838  97.0623056  22.4921995  37.7968469  96.7282920  23.3857753
  38.6964505  97.5544824  22.4913467  32.4116360  88.7980849  21.7425517
  33.3575465  88.6687057  21.8113935  32.0330605  88.0595510  22.2194946
  32.2955052  92.8498595  43.2026174  33.2158062  93.0277194  43.3966221
  32.2604635  91.9054640  43.0505874  30.5959277  86.7230825  21.6780403
  29.6890732  86.4263938  21.7543116  30.8735258  86.4260643  20.8114689
  21.5137217  88.0437188  32.1279449  21.1940002  87.1902497  31.8353823
  20.9670646  88.2585766  32.8837416  25.2917125  90.7599629  35.8448956
  25.5103135  91.6916737  35.8636989  25.7042899  90.4007604  36.6303759
  30.1644990  86.3332835  45.2351704  30.0641717  87.2827192  45.1663796
  29.9466532  86.0051074  44.3627775  29.3658062  83.5817760  21.8192382
  30.2277226  83.9072658  22.0788199  29.5508406  82.7949256  21.3065448
  21.3825477  91.6640100  34.0972571  20.6888949  91.2494053  33.5842525
  22.1298468  91.7060636  33.5005989  30.0276260  89.7629974  44.0516766
  29.5443342  90.5630334  44.2580655  30.1137199  89.7737919  43.0984210
  23.2962220  91.5958354  31.9738585  23.2732908  91.6946041  31.0220469
  23.6062856  92.4423504  32.2955752  25.9549598  93.6534509  36.0885200
  26.9092851  93.6218451  36.0215131  25.7562121  93.1925132  36.9035426
  26.5448980  92.2235625  38.6555998  27.3641869  92.7179703  38.6790835
  26.8185788  91.3067593  38.6273565  24.3099827  99.1954128  33.1055398
  24.1754295  98.4354529  32.5393396  23.8931889  99.9195028  32.6384187
  35.4458790  94.3791052  22.1131973  36.1494640  94.5841054  22.7289629
  34.7221438  94.9467814  22.3781057  27.4668952 100.0923445  33.3173840
  27.3501337 101.0368878  33.2152531  26.6461399  99.7897007  33.7059640
  37.3545487  94.8173581  24.1630433  38.1891091  94.3854779  23.9807908
  37.1929830  94.6455595  25.0907328  21.7983894  86.5573759  39.3548195
  22.4442758  86.0472713  39.8435420  21.5901045  87.2942440  39.9291620
  34.3237286  93.6254606  44.8540335  35.1928446  93.7995258  44.4926970
  33.8444038  94.4449023  44.7316065  30.3187505  80.8213803  25.1072091
  30.3066174  81.7655643  25.2640362  31.2110927  80.6383949  24.8131552
  28.4923467 100.7451707  36.5329769  29.3950713 100.7775317  36.8496264
  28.2660837  99.8152158  36.5476105  30.2477069  99.4982694  33.1939847
  29.2972700  99.4984555  33.0804220  30.5509555  98.7515428  32.6775882
  26.1381385  83.7041376  43.4523209  27.0012847  83.3478180  43.6626533
  25.5646796  83.3655270  44.1398613  45.9829762 105.3343232  34.2585610
  46.6208172 105.2149979  33.5548950  45.8650605 106.2824076  34.3173562
  42.7919468 105.2870660  34.1947135  42.4537980 105.1711725  33.3067669
  43.6609237 104.8861825  34.1748141  38.6506284 107.1406136  30.1844025
  38.0871149 107.0496073  29.4160313  38.5358679 106.3206041  30.6646518
  43.2739251 106.4405512  40.1533340  43.2627892 106.0458310  39.2813844
  43.4359891 105.7071584  40.7467112  36.1970716 108.6357328  33.0228246
  36.9892008 108.2948153  32.6074545  36.4367366 108.7452303  33.9430399
  44.2305843 110.8077104  25.4958490  43.5793823 111.3931185  25.1092504
  45.0250206 111.3383299  25.5553528  38.1561470 107.8966241  25.8945625
  38.9292346 107.3495228  25.7558501  38.5086869 108.7610491  26.1060086
  39.9946513 109.2242624  39.1012524  39.7036378 110.1288254  38.9859190
  40.6303497 109.2659151  39.8156594  40.9202719 106.6019472  35.6913884
  41.5166292 106.3775495  34.9770847  40.9777691 105.8604218  36.2939332
  40.4927748 104.0558907  23.5264075  40.7453268 103.5340429  22.7647538
  39.5552307 103.8925053  23.6290758  45.5371031 103.0594686  31.3338818
  46.3234120 102.6414109  30.9829235  45.8009735 103.9640778  31.5020466
  45.7081108 108.4967536  26.0327475  45.0726941 108.5702163  26.7448379
  45.3778514 109.0861135  25.3546554  50.9379458 102.9969919  32.2371796
  51.6704630 102.4269136  32.4709626  50.1818813 102.6091519  32.6778302
  40.2124037 105.9587013  25.7288450  40.0960295 105.2831917  26.3969534
  40.3226296 105.4719387  24.9120603  42.5555577 105.4197161  29.4335139
  42.1913785 104.8927781  30.1448060  43.4122693 105.0295630  29.2601624
  42.1961064 100.4487060  24.4296487  42.3635467 101.3167297  24.7966958
  42.0058233 100.6114342  23.5057777  44.9536398 108.9104039  36.0962318
  44.6537121 109.8129078  35.9878125  44.6087457 108.6436222  36.9483471
  38.4048879 105.3617836  32.1299022  37.4799376 105.2294050  32.3376714
  38.6533292 106.1412055  32.6268965  48.3533541 101.4286579  33.7759755
  47.4450419 101.3601988  33.4818516  48.3021137 101.9058524  34.6041581
  42.1750285 102.9044718  25.4143154  42.0549910 103.3501768  26.2528634
  41.4802874 103.2530035  24.8556692  35.7657690 105.0051110  32.9642811
  35.8950071 105.2585588  33.8782223  35.0855141 105.5978818  32.6447466
  42.4274407 102.8476225  41.7194652  41.6507741 103.4070145  41.7097517
  43.0664970 103.3333008  42.2409522  50.2195188  99.6303018  35.5537629
  49.5769568  99.9235551  34.9077424  49.7150116  99.5155938  36.3590826
  47.8735351 103.3766191  26.2423488  48.7853208 103.6093578  26.0671186
  47.3644999 103.9603235  25.6798567  40.6820779 105.6561678  41.2812619
  41.4235464 106.1946722  41.0047443  39.9757765 106.2827967  41.4384171
  46.1576119 107.7990819  39.8784781  46.5659475 107.3573229  39.1339413
  45.4353381 107.2243446  40.1318974  42.5107189 102.7363425  37.2518338
  43.3568384 103.1602839  37.3952987  42.4505827 102.0797050  37.9456901
  46.4804934 108.3592009  33.6337070  45.8513796 108.5237723  32.9313138
  46.0930596 108.7733619  34.4048034  50.3594166 109.2946447  30.9881433
  49.6745204 109.6745349  30.4378467  50.4438015 109.9041774  31.7213381
  47.6145097 106.9406406  37.5876777  47.8261993 107.5838166  36.9111158
  47.5674846 106.1068723  37.1198707  45.2171326  99.5524227  34.4913349
  44.3555805  99.8505480  34.7830087  45.2433761  99.7694626  33.5594382
  42.0332896 108.0966417  30.8987155  42.4971241 108.3754120  30.1091777
  41.7689694 107.1949862  30.7160245  38.9256977 107.6437899  33.8366918
  39.4958334 108.0725167  33.1984403  39.5165089 107.3620484  34.5351104
  40.9701782 104.2189570  27.7076720  41.6725825 104.6710613  28.1750646
  40.6382410 103.5773389  28.3356613  39.4182143 102.8101326  42.0827929
  38.7880804 103.4917607  42.3163326  39.3118231 102.6984408  41.1381068
  34.7127116 102.4773122  33.0093854  33.9226170 102.7330651  32.5333964
  35.2038363 103.2921460  33.1145894  48.7290925 109.8178362  35.7599134
  49.5508369 109.4158549  35.4781816  48.7253328 109.7146596  36.7115250
  36.6641861 102.8417702  29.9677330  35.8673024 102.9536396  30.4860826
  36.4367453 103.1804354  29.1018221  42.4947529 109.3662405  37.9159845
  42.5591961 109.8282812  38.7518017  41.7858453 108.7359770  38.0442155
  32.9964819 102.7303613  35.4408844  33.2472857 103.6150623  35.7066420
  33.5324367 102.5508214  34.6683936  56.8196918 106.1617110  32.1084106
  56.0660627 105.5924508  31.9528110  56.9544459 106.1279775  33.0554740
  42.2095546 111.0330512  27.7838825  42.0741221 111.8782048  28.2123673
  42.7505359 111.2349790  27.0204759  35.6624944 108.5505950  28.3566750
  36.1749464 109.3449201  28.5072315  36.3147657 107.8532241  28.2900352
  37.4719828 111.6671707  30.4389503  37.6486457 112.5889671  30.2510487
  38.2676662 111.3530126  30.8683883  36.7572185 103.7136339  40.3151667
  36.6425700 102.8121596  40.6158766  35.9016703 103.9600035  39.9636483
  43.8364023 111.6554079  41.9139167  43.3927877 110.8690457  41.5960072
  44.4981236 111.8433229  41.2483058  38.5951144 113.1849881  36.4399846
  39.1458569 113.0566944  35.6676840  37.7562620 113.4844770  36.0894739
  45.9345261 111.9356879  39.9420569  45.9163736 112.7565760  39.4500838
  46.8565181 111.8110954  40.1670710  42.3918315 109.4501008  40.7844077
  42.9246652 108.6889297  40.5543385  41.8632396 109.1574660  41.5268231
  33.6273860 106.8794605  29.1326321  34.4649082 107.2891613  28.9160028
  33.8052128 105.9394047  29.1026515  45.5238293 104.5469685  24.8210154
  45.0084916 105.3174290  25.0598541  45.2515601 103.8734822  25.4443215
  43.1085404  99.3919386  29.8795392  42.2527000  99.0026237  29.7001031
  43.5212355  99.4711347  29.0195178  50.4972567 107.3002040  26.7563327
  49.7202010 106.9613200  26.3118489  51.1764048 107.3054663  26.0818292
  45.3124596 102.4196778  26.6469935  45.0074731 102.7342927  27.4980078
  46.2655038 102.4978197  26.6897268  43.7571028 108.5787001  28.2962889
  43.2292389 107.8439760  27.9836126  43.2558530 109.3561677  28.0502857
  48.7363874 106.7736021  33.4129935  48.0787548 107.4635283  33.5010064
  49.5404273 107.1632453  33.7563922  38.4889755  99.2406667  30.6569500
  39.0633507  99.0181849  29.9242693  39.0760738  99.3095362  31.4098102
  47.5469332 105.1280394  31.4633877  48.0601214 105.7610386  31.9655587
  48.1970556 104.5281590  31.0977237  38.8159342 101.2711128  24.6765386
  37.9796655 101.6085815  24.9974660  38.6764112 101.1360108  23.7392523
  41.9023628 106.3967211  21.2997862  40.9950690 106.1656465  21.4989011
  42.3994660 105.6004830  21.4871843  44.8091707 115.1064718  24.2194548
  44.1353405 115.4096415  24.8279506  45.1957529 115.9093799  23.8700005
  44.0250163 102.6029850  33.7092217  43.1072725 102.8244797  33.5513906
  44.4410307 102.6776160  32.8503925  44.8085211 104.0021265  28.8394898
  45.5557030 104.5142662  28.5302020  45.0776801 103.6805318  29.6999291
  43.0811861 106.4979806  25.8221852  42.1723081 106.2138839  25.9194322
  43.1106945 106.9178885  24.9625159  48.3131129 110.1086395  29.5913020
  47.8593456 109.2677305  29.6478210  47.6825095 110.7447794  29.9287800
  47.2564048 101.0378381  30.8213687  46.5186805 100.5255768  31.1523930
  47.5090822 100.5978763  30.0096964  46.7564068 111.9462892  30.5262838
  47.0487042 112.5067949  29.8075203  47.2662688 112.2391453  31.2815997
  33.6500032 104.2185320  29.8037054  33.4524431 103.6254681  29.0788121
  33.0946696 103.9137530  30.5212993  41.6296755 104.1108427  31.9231647
  41.6845365 103.1582263  31.8474124  40.8187957 104.2667866  32.4072946
  42.7787949 108.0388550  23.1609931  42.3407379 107.3224409  22.7015568
  43.5198390 108.2664664  22.5995022  39.5689115 102.7285486  29.6822026
  38.7556981 103.0279657  30.0887218  40.0648109 102.3341175  30.3996508
  41.7197693 112.7243243  31.6156291  41.6773872 112.9504090  30.6864823
  42.6360392 112.4906618  31.7642092  45.1663327 103.1927311  38.5136920
  45.5212715 103.4198784  39.3731386  45.8135458 103.5245688  37.8914175
  50.8961064 106.3145747  29.2186249  50.7578962 106.5047343  28.2907438
  50.5397283 107.0765129  29.6754300  39.0603190 100.3003842  35.2983261
  39.7002569 100.1592601  34.6006225  38.2280721 100.0138355  34.9221863
  50.9230443 108.3822274  34.2297521  51.3566950 108.2897563  35.0780575
  51.6362024 108.3579774  33.5917537  39.8363494 109.6006272  31.4118254
  40.6304092 109.1056592  31.2100829  39.1255186 109.0724135  31.0485959
  44.6558338 111.9824368  35.7630621  44.7095361 112.5515304  36.5308337
  43.7873120 112.1526253  35.3984658  36.1446257 103.7449354  27.4878006
  35.2143845 103.6833809  27.7047968  36.2403729 103.2225307  26.6914648
  36.0631806 100.2704167  30.0756248  36.3238624 101.1849500  29.9665408
  36.8848979  99.8028609  30.2252861  37.5356732 101.6841924  37.2455073
  38.2079785 101.4759286  36.5967721  36.7086518 101.4864010  36.8060305
  51.7845993 108.4245974  36.7630406  51.9781883 109.3291785  37.0089681
  51.6846611 107.9653393  37.5968991  46.8461102 108.5752717  42.3371287
  46.6946608 108.3463269  41.4201370  46.8365781 109.5323318  42.3502632
  43.6146438 106.1484630  37.3217553  44.5438498 106.2995789  37.1486520
  43.1937468 106.2368651  36.4666200  42.4134770 110.1735294  35.0916091
  42.2745856 109.8054079  35.9642029  41.6249366 110.6882934  34.9200049
  43.0082922 115.2744391  26.4341627  43.1834678 114.8032434  27.2487250
  42.3215710 115.9010157  26.6622888  43.9639985 109.5516897  32.4804929
  43.6289818 109.5117667  33.3762578  43.4643931 108.8861613  32.0075339
  37.9384229 104.9584527  38.0057510  37.8004027 104.2264766  38.6069049
  38.8489152 104.8693427  37.7241697  46.8999177 106.8972931  22.7541988
  46.2828347 106.1719759  22.6575041  46.4315665 107.6582292  22.4109062
  40.5666530 104.6704486  37.4941189  41.2766148 104.0297678  37.4527808
  40.5235838 104.9217381  38.4167370  48.5553308 111.6071840  40.4147769
  48.4965854 110.9231060  39.7478352  48.9572827 112.3490830  39.9628395
  39.2795464 101.6569704  39.3136829  38.7432821 101.2060443  39.9658425
  38.6912172 101.7915613  38.5707293  38.6897723 101.1158356  21.8763292
  37.8127189 100.9947156  21.5125539  39.1655476 100.3244434  21.6242181
  48.5570716 109.5711424  38.6461748  47.6697494 109.2337345  38.7688147
  49.1269267 108.8394455  38.8830514  30.2099863 105.9035515  31.9704800
  30.8970903 105.5897245  31.3825815  30.0547991 106.8076880  31.6972051
  35.0134585 100.7925712  36.3989823  34.9292774 100.1851381  35.6640233
  34.1917291 101.2834730  36.3999320  42.0871869 114.2312876  35.6122991
  42.0142040 115.0367847  36.1242296  41.6449262 114.4304842  34.7871013
  41.8761649 113.4684646  29.1225813  41.0929170 114.0106326  29.2164037
  42.5754394 113.9858626  29.5220054  45.1858299  99.2779275  31.7660018
  45.6826998  98.5249238  31.4461089  44.4145280  99.3143592  31.2003228
  53.0388056 104.9819641  33.4078310  53.0277932 105.8644356  33.0372243
  52.1705436 104.6291192  33.2132847  44.5470553 114.1299710  37.7681150
  45.2598525 114.7647175  37.6957052  44.0560581 114.2263576  36.9521152
  46.2688079 108.0350963  29.3398442  45.3344358 108.1552425  29.1703146
  46.4464748 107.1323429  29.0758452  41.7693267 101.4196658  31.4931703
  41.3991055 100.8667699  32.1812609  42.2652360 100.8154792  30.9406703
  49.6560631 103.8768282  29.8748476  50.1221083 104.7096273  29.8008779
  50.1068131 103.4113263  30.5793734  39.5982466 111.8794153  38.5886721
  40.2991926 112.5130636  38.7416115  39.1277581 112.2208885  37.8282360
  47.7236862 110.2212103  26.8734628  47.9996706 110.1068698  27.7828502
  46.8541361 109.8229588  26.8346801  47.3983752 104.4338761  36.4139271
  46.7455202 104.6814668  35.7591724  47.7764132 103.6202899  36.0801749
  44.3590926 114.4698454  30.5167442  44.5413320 113.6520110  30.9795194
  45.1823912 114.6866146  30.0792332  44.6933091 113.3966639  27.7782490
  45.2220858 112.8859094  27.1652652  44.9561311 113.0809169  28.6428023
  43.4471325 105.1758572  42.9005308  42.7711962 105.0752701  43.5707684
  44.2698959 105.0197786  43.3641306  35.1950184 111.4130508  35.5217824
  35.7803621 110.6674196  35.6545728  34.9975023 111.7234465  36.4054487
  29.7867839 103.9836109  34.2422267  29.8251938 103.4499699  35.0359385
  29.2808132 103.4571314  33.6233244  37.1658601  98.8300649  37.7384809
  37.2299928  99.6915480  37.3262207  37.1025721  98.2174651  37.0057168
  36.6410874 100.9023782  41.3857843  37.2682912 100.5200859  41.9995368
  35.7838793 100.6837984  41.7513536  47.0404982 111.3086757  42.9911579
  47.5844886 111.9216715  42.4966534  46.4591827 111.8666335  43.5078592
  33.4176416 102.7100211  27.3176198  33.7129857 101.8010889  27.2643252
  32.5164452 102.6887950  26.9957200  45.3262495 114.4307475  34.1226607
  45.2013635 113.6297215  33.6137552  45.9841586 114.9253668  33.6340576
  36.9470663 100.7856207  33.3003747  36.2257249 101.3992175  33.1611220
  37.7363919 101.3213972  33.2220393  47.3897404 112.2316495  35.7506157
  46.4427739 112.1121846  35.6784483  47.7380177 111.3438993  35.8332418
  35.1464258 100.3914308  27.4415523  34.8176964  99.5111687  27.2590629
  35.5003629 100.3361977  28.3291913  44.3943837 112.0269211  31.9510509
  44.2468799 111.0985919  32.1318079  45.2197330 112.0489302  31.4667584
  38.2606081 100.6787278  27.8091001  38.6002154 101.2073200  27.0869609
  38.7078202 101.0167684  28.5849567  47.9977959 112.8497770  33.0375382
  48.9224506 112.6440631  32.8999833  47.8293262 112.6014171  33.9464723
  40.2474228  99.1761900  26.0084294  40.9682591  99.5543153  25.5048011
  39.6239532  99.8950777  26.1119272  44.3905351  99.8807049  26.9442626
  44.6068966 100.7631687  26.6431454  43.9099418  99.4893262  26.2148268
  39.1304573 102.8392762  33.5213371  38.9849153 103.1533065  34.4137652
  38.6529776 103.4577662  32.9684269  40.9900955  99.8295310  33.5694260
  40.9762524  98.9336403  33.2326558  41.7073384  99.8365974  34.2032546
  42.8427086 100.2632650  35.6147388  42.5844864 101.1849721  35.6131718
  42.3112127  99.8663085  36.3047852  47.7873275 113.3683437  28.3937473
  47.9610152 112.8029860  27.6411325  48.2802166 114.1684332  28.2116963
  33.6050235 105.3798106  36.4601032  33.0603703 106.1557914  36.5921306
  34.4829585 105.7268911  36.3020153  40.3937851  98.7109690  28.8381830
  40.5153763  97.7826337  29.0372718  40.1039894  98.7248376  27.9260146
  53.6412666 106.1319860  30.0127773  54.0843812 105.3827186  29.6146896
  52.7639176 106.1229997  29.6301505  48.7748447 112.6850202  25.4934371
  49.4699352 113.3056894  25.7121686  49.1171598 111.8345553  25.7686749
  34.3916257 104.5068003  39.3531189  33.6497993 104.6550638  39.9395819
  34.0709001 104.7676268  38.4897938  50.6739871 110.1349907  27.0221702
  51.1991195 110.4737180  26.2971022  50.5862223 109.1996923  26.8384837
  42.3359919 114.0483981  39.1511579  42.6447046 113.8033128  40.0234278
  43.1335401 114.2530619  38.6630449  34.8372870 112.3933431  31.3841583
  35.6630890 112.0937203  31.0040227  34.4866922 111.6241054  31.8331372
  39.8054403 111.7459900  33.4539257  39.1834413 111.0830605  33.1541485
  40.4759270 111.7721032  32.7712905  33.0381475 110.3119758  32.3430517
  32.2013384 109.8841932  32.1614518  33.0105121 110.5052201  33.2801308
  39.8778931 100.2241688  43.0471763  39.9267086 101.1003810  42.6649533
  40.4201445  99.6819081  42.4743406  50.3633777 110.7682811  42.3272900
  49.5729320 110.7506950  41.7877399  50.1267131 111.3071105  43.0821937
  50.4831652 107.6175277  39.6405629  50.5329657 107.4525285  40.5821151
  50.3745575 106.7502536  39.2503509  39.3667910 110.2963823  26.9297717
  39.5156031 110.9799287  26.2764390  40.1734354 110.2768913  27.4447173
  47.7735414 103.6006205  40.9564935  48.6745277 103.4612670  40.6648933
  47.8483389 103.7660660  41.8963113  51.9849848 110.0372219  39.8847650
  51.6934657 110.4002199  40.7211111  51.3721980 109.3239227  39.7060982
  53.1845531 107.6025099  32.4050220  54.0192422 108.0414903  32.5687781
  53.3204660 107.1263752  31.5858466  50.2337037 105.1604833  38.3527708
  50.7091158 105.3532480  37.5446559  49.3102602 105.2164019  38.1071092
  37.1220543 106.3229001  27.9358786  36.8766585 105.4191331  28.1338997
  37.2916458 106.3246151  26.9938264  36.3916191 102.0557358  25.4344948
  35.6985436 102.1301713  24.7784984  36.1467943 101.2917702  25.9566465
  42.8663316 112.7911953  24.4009465  42.2937283 113.4102141  23.9479937
  43.4396110 113.3411315  24.9349387  48.9338706 102.0370594  36.5856014
  49.8856129 102.1368691  36.6068238  48.7642156 101.2448862  37.0954098
  46.0860576 113.0749104  25.5318047  47.0191249 113.0094665  25.7350923
  45.9983788 113.9105370  25.0732580  48.7148592 112.3914974  22.4921995
  48.6362224 112.0574838  23.3857753  49.5358259 112.8836742  22.4913467
  51.4126783 105.2576713  35.6998313  51.3803104 104.3192714  35.8857997
  52.0227407 105.3360750  34.9664138  43.2510114 104.1272766  21.7425517
  44.1969219 103.9978974  21.8113935  42.8724359 103.3887428  22.2194946
  51.5621272 102.0487757  35.7456597  51.0460321 101.2646213  35.5586525
  52.4461221 101.7206473  35.9103116  49.2231999  95.7928772  31.7052409
  49.0256820  95.4843860  32.5895741  49.8331704  96.5190411  31.8350339
  57.2303333 106.3192720  34.8404350  57.9606722 106.0578008  35.4012053
  56.6210279 105.5821442  34.8806418  55.3118630 104.4600583  35.4378801
  54.5851794 104.3256548  34.8295293  54.8965917 104.7677411  36.2435519
  43.1348807 108.1790512  43.2026174  44.0551816 108.3569111  43.3966221
  43.0998390 107.2346558  43.0505874  41.4353032 102.0522743  21.6780403
  40.5284487 101.7555855  21.7543116  41.7129013 101.7552561  20.8114689
  32.3530972 103.3729106  32.1279449  32.0333756 102.5194414  31.8353823
  31.8064400 103.5877684  32.8837416  36.1310879 106.0891547  35.8448956
  36.3496889 107.0208655  35.8636989  36.5436653 105.7299521  36.6303759
  43.0515097  96.5959632  27.8324644  42.2415826  96.2506717  28.2079890
  43.7399514  96.2867176  28.4212255  41.0038745 101.6624753  45.2351704
  40.9035472 102.6119110  45.1663796  40.7860287 101.3342992  44.3627775
  40.2051816  98.9109678  21.8192382  41.0670980  99.2364576  22.0788199
  40.3902160  98.1241174  21.3065448  32.2219232 106.9932017  34.0972571
  31.5282703 106.5785970  33.5842525  32.9692223 107.0352554  33.5005989
  48.3584453  97.7838204  28.9627605  47.7783122  98.4423008  28.5805657
  48.0920385  96.9615549  28.5515022  46.8088019  97.1843262  31.1648925
  47.3087797  97.2959797  30.3563244  47.4523627  96.8804315  31.8049734
  40.8670015 105.0921892  44.0516766  40.3837097 105.8922252  44.2580655
  40.9530954 105.1029836  43.0984210  34.1355974 106.9250271  31.9738585
  34.1126663 107.0237959  31.0220469  34.4456611 107.7715422  32.2955752
  36.7943352 108.9826426  36.0885200  37.7486606 108.9510369  36.0215131
  36.5955876 108.5217050  36.9035426  37.3842734 107.5527542  38.6555998
  38.2035623 108.0471621  38.6790835  37.6579542 106.6359510  38.6273565
  47.1409331  99.9438295  28.0183953  46.2535186 100.2287945  27.8004148
  47.5563320  99.7832058  27.1711230  50.4923867  99.9684816  31.7338292
  51.2684257 100.4581268  32.0062909  49.7672001 100.3942870  32.1910162
  52.9296425 100.6812435  32.7912233  53.5240916 100.4408171  32.0805541
  53.0023009  99.9619565  33.4185769  46.2852544 109.7082969  22.1131973
  46.9888394 109.9132972  22.7289629  45.5615193 110.2759731  22.3781057
  47.1150354 105.4592831  28.2334243  47.0585556 105.9161382  27.3941876
  47.6678697 104.6983515  28.0557086  50.9255160 101.2482562  29.0584363
  50.6692095 100.8479198  29.8892570  50.3008028 101.9626356  28.9334502
  55.2367498 103.9878636  31.5655654  54.6767056 104.0571825  32.3387216
  54.6311002 103.8119620  30.8455150  48.1939242 110.1465499  24.1630433
  49.0284845 109.7146697  23.9807908  48.0323584 109.9747512  25.0907328
  47.8485134 106.6497612  25.5286772  47.7933937 106.4841883  24.5875217
  47.2231189 107.3573645  25.6848962  32.6377649 101.8865676  39.3548195
  33.2836512 101.3764630  39.8435420  32.4294800 102.6234358  39.9291620
  45.1631041 108.9546524  44.8540335  46.0322200 109.1287176  44.4926970
  44.6837792 109.7740941  44.7316065  41.1581259  96.1505721  25.1072091
  41.1459929  97.0947561  25.2640362  42.0504681  95.9675866  24.8131552
  41.0870823 114.8274611  33.1939847  40.1366454 114.8276473  33.0804220
  41.3903309 114.0807346  32.6775882  36.9775140  99.0333293  43.4523209
  37.8406601  98.6770098  43.6626533  36.4040550  98.6947188  44.1398613
  56.3764785 118.3886603  31.3338818  57.1627874 117.9706027  30.9829235
  56.6403489 119.2932696  31.5020466  61.7773212 118.3261837  32.2371796
  62.5098384 117.7561054  32.4709626  61.0212568 117.9383437  32.6778302
  59.2998633 112.0383411  36.6966405  58.9681957 112.9078822  36.4727620
  58.7044246 111.7219695  37.3760435  53.0354819 115.7778978  24.4296487
  53.2029221 116.6459214  24.7966958  52.8451988 115.9406260  23.5057777
  59.1927296 116.7578497  33.7759755  58.2844173 116.6893905  33.4818516
  59.1414892 117.2350442  34.6041581  53.0144040 118.2336635  25.4143154
  52.8943665 118.6793686  26.2528634  52.3196628 118.5821953  24.8556692
  53.2668162 118.1768143  41.7194652  52.4901496 118.7362063  41.7097517
  53.9058725 118.6624926  42.2409522  61.0588942 114.9594935  35.5537629
  60.4163323 115.2527469  34.9077424  60.5543871 114.8447856  36.3590826
  58.7129106 118.7058109  26.2423488  59.6246962 118.9385495  26.0671186
  58.2038753 119.2895153  25.6798567  53.3500944 118.0655343  37.2518338
  54.1962139 118.4894757  37.3952987  53.2899581 117.4088967  37.9456901
  56.5000389 115.7259712  38.9099511  56.2561321 116.4801772  38.3733787
  56.7760319 116.1045059  39.7446758  56.0565081 114.8816145  34.4913349
  55.1949560 115.1797398  34.7830087  56.0827515 115.0986543  33.5594382
  67.6590673 121.4909028  32.1084106  66.9054381 120.9216426  31.9528110
  67.7938214 121.4571692  33.0554740  49.5356640 112.4414010  44.4453180
  49.1423586 111.8880209  45.1200825  50.3522781 112.7524588  44.8359698
  52.4524601 113.8571889  42.0373437  53.1934315 114.4579042  41.9577899
  52.6842524 113.1149527  41.4791480  56.3981764 109.8852992  36.3137719
  56.0546034 110.7754634  36.2376829  56.7660727 109.6954650  35.4507304
  56.3632047 119.8761603  24.8210154  55.8478671 120.6466208  25.0598541
  56.0909356 119.2026739  25.4443215  53.9479158 114.7211304  29.8795392
  53.0920754 114.3318154  29.7001031  54.3606110 114.8003265  29.0195178
  55.4778305 112.2557647  34.2786952  54.9743100 112.2187782  33.4654757
  55.7708912 113.1650390  34.3383609  51.7221191 112.3396377  33.2853134
  52.5874187 112.1439186  32.9259023  51.7898700 112.1106729  34.2122490
  61.3366321 122.6293958  26.7563327  60.5595764 122.2905117  26.3118489
  62.0157802 122.6346581  26.0818292  56.1518350 117.7488695  26.6469935
  55.8468486 118.0634844  27.4980078  57.1048792 117.8270115  26.6897268
  49.3283510 114.5698585  30.6569500  49.9027262 114.3473766  29.9242693
  49.9154492 114.6387279  31.4098102  58.3863087 120.4572312  31.4633877
  58.8994969 121.0902304  31.9655587  59.0364311 119.8573507  31.0977237
  49.6553097 116.6003046  24.6765386  48.8190409 116.9377732  24.9974660
  49.5157866 116.4652026  23.7392523  51.6306177 111.4439834  29.3844570
  50.9770590 111.1288851  28.7601185  51.5886652 110.8215574  30.1104393
  54.8643918 117.9321767  33.7092217  53.9466479 118.1536714  33.5513906
  55.2804061 118.0068078  32.8503925  55.6478966 119.3313183  28.8394898
  56.3950785 119.8434580  28.5302020  55.9170555 119.0097236  29.6999291
  58.0957803 116.3670299  30.8213687  57.3580560 115.8547685  31.1523930
  58.3484576 115.9270681  30.0096964  58.1969430 109.1446551  31.4155456
  58.5028307 108.2843915  31.1281371  58.9222035 109.7364171  31.2154450
  50.4082870 118.0577404  29.6822026  49.5950735 118.3571575  30.0887218
  50.9041864 117.6633093  30.3996508  56.0057081 118.5219228  38.5136920
  56.3606469 118.7490702  39.3731386  56.6529213 118.8537605  37.8914175
  61.7354818 121.6437664  29.2186249  61.5972717 121.8339260  28.2907438
  61.3791037 122.4057047  29.6754300  49.8996944 115.6295760  35.2983261
  50.5396324 115.4884519  34.6006225  49.0674475 115.3430273  34.9221863
  46.9025561 115.5996084  30.0756248  47.1632378 116.5141418  29.9665408
  47.7242733 115.1320527  30.2252861  48.3750486 117.0133842  37.2455073
  49.0473540 116.8051204  36.5967721  47.5480273 116.8155928  36.8060305
  54.2776058 113.6395783  39.2620733  53.6303973 114.3385732  39.1685210
  55.0477074 114.0731927  39.6296982  50.1189218 116.9861622  39.3136829
  49.5826575 116.5352360  39.9658425  49.5305927 117.1207531  38.5707293
  49.5291477 116.4450273  21.8763292  48.6520943 116.3239074  21.5125539
  50.0049230 115.6536352  21.6242181  45.8528339 116.1217630  36.3989823
  45.7686528 115.5143299  35.6640233  45.0311046 116.6126648  36.3999320
  56.0252053 114.6071193  31.7660018  56.5220753 113.8541155  31.4461089
  55.2539035 114.6435510  31.2003228  63.8781811 120.3111559  33.4078310
  63.8671687 121.1936274  33.0372243  63.0099190 119.9583109  33.2132847
  52.6087022 116.7488576  31.4931703  52.2384809 116.1959616  32.1812609
  53.1046114 116.1446710  30.9406703  60.4954385 119.2060200  29.8748476
  60.9614837 120.0388191  29.8008779  60.9461886 118.7405181  30.5793734
  58.4671048 111.5740787  33.9139377  57.5534128 111.8045013  34.0821584
  58.8964149 111.6579231  34.7653410  58.2377506 119.7630679  36.4139271
  57.5848957 120.0106586  35.7591724  58.6157886 118.9494817  36.0801749
  48.0052356 114.1592567  37.7384809  48.0693682 115.0207398  37.3262207
  47.9419476 113.5466568  37.0057168  47.4804628 116.2315699  41.3857843
  48.1076667 115.8492777  41.9995368  46.6232547 116.0129901  41.7513536
  47.7864418 116.1148125  33.3003747  47.0651004 116.7284093  33.1611220
  48.5757674 116.6505890  33.2220393  50.5890731 113.4502552  39.5744398
  51.1125133 113.6964848  40.3370708  50.3703065 114.2822586  39.1547536
  45.9858012 115.7206226  27.4415523  45.6570719 114.8403605  27.2590629
  46.3397383 115.6653895  28.3291913  49.0999836 116.0079196  27.8091001
  49.4395908 116.5365117  27.0869609  49.5471956 116.3459602  28.5849567
  51.7943276 114.3916247  37.2594069  51.4540097 113.5924060  37.6614749
  51.0882283 114.6917958  36.6870902  52.4459748 111.4765559  35.7121392
  53.2685818 111.0026037  35.5900282  52.6897812 112.2556043  36.2120078
  51.0867983 114.5053818  26.0084294  51.8076345 114.8835070  25.5048011
  50.4633287 115.2242694  26.1119272  55.2299106 115.2098967  26.9442626
  55.4462720 116.0923604  26.6431454  54.7493173 114.8185180  26.2148268
  51.8294710 115.1587228  33.5694260  51.8156279 114.2628321  33.2326558
  52.5467138 115.1657891  34.2032546  53.6820841 115.5924568  35.6147388
  53.4238618 116.5141639  35.6131718  53.1505881 115.1955002  36.3047852
  51.2331606 114.0401608  28.8381830  51.3547517 113.1118254  29.0372718
  50.9433648 114.0540294  27.9260146  54.1022796 111.7256518  31.9748550
  54.1244493 111.7895852  31.0200530  54.5190855 110.8861027  32.1689056
  64.4806421 121.4611778  30.0127773  64.9237567 120.7119103  29.6146896
  63.6032931 121.4521914  29.6301505  50.7172685 115.5533605  43.0471763
  50.7660841 116.4295728  42.6649533  51.2595200 115.0110998  42.4743406
  58.6129169 118.9298123  40.9564935  59.5139031 118.7904588  40.6648933
  58.6877143 119.0952578  41.8963113  52.9471974 116.3064978  39.8018122
  52.0775283 116.5998544  39.5300710  53.1831454 116.8905423  40.5225385
  64.0239285 122.9317016  32.4050220  64.8586177 123.3706820  32.5687781
  64.1598414 122.4555670  31.5858466  61.0730791 120.4896751  38.3527708
  61.5484913 120.6824397  37.5446559  60.1496357 120.5455937  38.1071092
  55.6511008 112.5244595  37.3183542  56.1692952 113.2605622  36.9930031
  55.2966140 112.8308588  38.1530301  47.2309945 117.3849276  25.4344948
  46.5379190 117.4593631  24.7784984  46.9861697 116.6209620  25.9566465
  55.9023602 108.9444877  32.8384439  56.1825356 108.2768066  33.4644865
  56.6874209 109.1373973  32.3259102  59.7732460 117.3662511  36.5856014
  60.7249883 117.4660609  36.6068238  59.6035911 116.5740780  37.0954098
  57.7946840 114.4518094  36.7715415  57.1996772 114.7323107  36.0761903
  57.5096536 114.9411995  37.5432156  62.2520538 120.5868631  35.6998313
  62.2196858 119.6484632  35.8857997  62.8621162 120.6652668  34.9664138
  54.0903869 119.4564684  21.7425517  55.0362974 119.3270892  21.8113935
  53.7118114 118.7179346  22.2194946  62.4015026 117.3779674  35.7456597
  61.8854075 116.5938131  35.5586525  63.2854975 117.0498391  35.9103116
  60.0625753 111.1220690  31.7052409  59.8650575 110.8135778  32.5895741
  60.6725459 111.8482329  31.8350339  68.0697088 121.6484638  34.8404350
  68.8000476 121.3869926  35.4012053  67.4604033 120.9113360  34.8806418
  66.1512385 119.7892500  35.4378801  65.4245549 119.6548465  34.8295293
  65.7359672 120.0969329  36.2435519  52.2746786 117.3814660  21.6780403
  51.3678241 117.0847773  21.7543116  52.5522767 117.0844478  20.8114689
  53.8908852 111.9251550  27.8324644  53.0809580 111.5798635  28.2079890
  54.5793269 111.6159094  28.4212255  55.8199400 111.0029597  29.4548941
  56.3730439 111.4225050  30.1138964  56.0569486 110.0765345  29.4971897
  51.8432499 116.9916670  45.2351704  51.7429226 117.9411027  45.1663796
  51.6254041 116.6634909  44.3627775  51.0445571 114.2401595  21.8192382
  51.9064735 114.5656494  22.0788199  51.2295915 113.4533091  21.3065448
  59.1978207 113.1130122  28.9627605  58.6176876 113.7714926  28.5805657
  58.9314140 112.2907467  28.5515022  57.6481773 112.5135180  31.1648925
  58.1481552 112.6251714  30.3563244  58.2917381 112.2096233  31.8049734
  57.9803085 115.2730212  28.0183953  57.0928940 115.5579863  27.8004148
  58.3957074 115.1123976  27.1711230  61.3317621 115.2976733  31.7338292
  62.1078011 115.7873186  32.0062909  60.6065755 115.7234788  32.1910162
  63.7690180 116.0104353  32.7912233  64.3634671 115.7700088  32.0805541
  63.8416764 115.2911483  33.4185769  57.9544109 120.7884748  28.2334243
  57.8979310 121.2453300  27.3941876  58.5072451 120.0275433  28.0557086
  61.7648915 116.5774480  29.0584363  61.5085849 116.1771116  29.8892570
  61.1401783 117.2918274  28.9334502  66.0761253 119.3170553  31.5655654
  65.5160811 119.3863743  32.3387216  65.4704756 119.1411538  30.8455150
  51.9975014 111.4797639  25.1072091  51.9853683 112.4239478  25.2640362
  52.8898436 111.2967784  24.8131552  55.8127133 108.0740415  29.3618028
  55.0459529 107.5198902  29.5074710  56.2237838 108.1462284  30.2232179
  47.8168894 114.3625211  43.4523209  48.6800356 114.0062016  43.6626533
  47.2434305 114.0239106  44.1398613  69.0363185 124.4738469  31.4155456
  69.3422061 123.6135832  31.1281371  69.7615789 125.0656089  31.2154450
  66.7417356 124.2736795  32.8384439  67.0219110 123.6059984  33.4644865
  67.5267963 124.4665891  32.3259102  66.6520888 123.4032333  29.3618028
  65.8853283 122.8490820  29.5074710  67.0631593 123.4754202  30.2232179
   3.6829966  26.9981209  29.7156885   4.2269870  27.6111167  29.2211840
   3.1016810  27.5560787  30.2323898   7.0058760  26.4577263  29.0518207
   6.2154304  26.4401402  28.5122706   6.7692114  26.9965557  29.8067243
   1.8056024  24.6440976  31.5785642   2.6747184  24.8181628  31.2172277
   1.3262776  25.4635392  31.4561371  13.4648500  36.3529602  20.9830916
  14.1026910  36.2336349  20.2794257  13.3469343  37.3010445  21.0418869
  10.7557989  37.4591881  26.8778647  10.7446630  37.0644680  26.0059150
  10.9178629  36.7257954  27.4712418   7.4765250  40.2428993  25.8257831
   7.1855116  41.1474624  25.7104497   8.1122235  40.2845521  26.5401900
   8.4021457  37.6205842  22.4159190   8.9985029  37.3961864  21.7016153
   8.4596429  36.8790587  23.0184638  18.4198196  34.0156289  18.9617103
  19.1523367  33.4455505  19.1954933  17.6637551  33.6277889  19.4023609
  15.9423616  27.7277863  23.4211712  15.6106941  28.5973274  23.1972927
  15.3469229  27.4114147  24.1005742  12.4355135  39.9290409  22.8207624
  12.1355858  40.8315447  22.7123432  12.0906195  39.6622592  23.6728777
   7.4175915  46.6934729  15.7878592   7.3399945  47.6442554  15.8667073
   6.8137559  46.3480602  16.4453518   9.9093145  33.8662594  28.4439959
   9.1326479  34.4256515  28.4342824  10.5483708  34.3519377  28.9654829
  17.7013926  30.6489387  22.2782936  17.0588306  30.9421920  21.6322730
  17.1968854  30.5342308  23.0836132   8.1639517  36.6748048  28.0057926
   8.9054202  37.2133092  27.7292750   7.4576503  37.3014337  28.1629478
  13.6394857  38.8177188  26.6030087  14.0478213  38.3759599  25.8584720
  12.9172118  38.2429816  26.8564280   9.9925927  33.7549795  23.9763644
  10.8387122  34.1789209  24.1198293   9.9324565  33.0983419  24.6702208
  13.9623672  39.3778379  20.3582376  13.3332534  39.5424093  19.6558444
  13.5749334  39.7919988  21.1293340  17.8412903  40.3132817  17.7126740
  17.1563942  40.6931718  17.1623773  17.9256753  40.9228143  18.4458688
  13.1425372  31.4154163  25.6344818  12.8986304  32.1696224  25.0979094
  13.4185303  31.7939511  26.4692065  15.0963835  37.9592776  24.3122084
  15.3080730  38.6024536  23.6356465  15.0493583  37.1255092  23.8444014
   6.9000881  33.8287696  28.8073236   6.2699542  34.5103977  29.0408633
   6.7936969  33.7170778  27.8626374  16.2109663  40.8364731  22.4844441
  17.0327107  40.4344918  22.2027123  16.2072066  40.7332965  23.4360557
   9.9766266  40.3848774  24.6405151  10.0410699  40.8469182  25.4763323
   9.2677190  39.7546139  24.7687461  24.3015656  37.1803480  18.8329412
  23.5479364  36.6110878  18.6773417  24.4363197  37.1466144  19.7800047
   6.1781624  28.1308462  31.1698487   5.7848569  27.5774660  31.8446131
   6.9947764  28.4419040  31.5605005   9.0949585  29.5466341  28.7618744
   9.8359298  30.1473494  28.6823206   9.3267508  28.8043979  28.2036786
   4.2390923  34.7322708  27.0396973   4.1244438  33.8307965  27.3404072
   3.3835440  34.9786405  26.6881790  11.3182760  42.6740448  28.6384474
  10.8746615  41.8876827  28.3205378  11.9799974  42.8619599  27.9728365
   6.0769882  44.2036250  23.1645152   6.6277307  44.0753313  22.3922146
   5.2381358  44.5031139  22.8140045  13.4163999  42.9543248  26.6665875
  13.3982474  43.7752129  26.1746144  14.3383919  42.8297324  26.8916016
   9.8737053  40.4687378  27.5089384  10.4065390  39.7075666  27.2788691
   9.3451134  40.1761030  28.2513538  16.2182611  37.7922391  20.1375242
  15.5606286  38.4821652  20.2255370  17.0223011  38.1818823  20.4809228
  15.7949866  41.1272765  16.3158326  15.3412194  40.2863675  16.3723517
  15.1643833  41.7634163  16.6533106  14.2382806  42.9649262  17.2508144
  14.5305780  43.5254319  16.5320510  14.7481426  43.2577823  18.0061303
   9.2016431  43.7429613  18.3401598   9.1592610  43.9690459  17.4110130
  10.1179130  43.5092987  18.4887399  12.6482065  34.2113680  25.2382227
  13.0031452  34.4385153  26.0976693  13.2954196  34.5432057  24.6159482
  18.4049181  39.4008643  20.9542827  18.8385688  39.3083932  21.8025881
  19.1180762  39.3766144  20.3162843  12.1377076  43.0010737  22.4875928
  12.1914098  43.5701674  23.2553644  11.2691857  43.1712622  22.1229965
  19.2664731  39.4432344  23.4875713  19.4600621  40.3478154  23.7334988
  19.1665349  38.9839763  24.3214298  10.9201042  29.3290234  25.9866040
  10.2728957  30.0280184  25.8930516  11.6902057  29.7626378  26.3542288
  14.3279839  39.5939087  29.0616593  14.1765346  39.3649638  28.1446677
  14.3184519  40.5509688  29.0747938  11.0965176  37.1670999  24.0462860
  12.0257236  37.3182159  23.8731827  10.6756206  37.2555020  23.1911506
   9.8953508  41.1921664  21.8161397   9.7564593  40.8240448  22.6887335
   9.1068104  41.7069303  21.6445355  11.4458723  40.5703266  19.2050235
  11.1108555  40.5304036  20.1007885  10.9462668  39.9047982  18.7320645
   5.4202967  35.9770897  24.7302816   5.2822765  35.2451135  25.3314355
   6.3307890  35.8879797  24.4487004   8.0485267  35.6890856  24.2186496
   8.7584886  35.0484048  24.1773114   8.0054576  35.9403751  25.1412677
  16.0372046  42.6258209  27.1393075  15.9784592  41.9417429  26.4723658
  16.4391564  43.3677199  26.6873701   6.7614201  32.6756074  26.0382135
   6.2251558  32.2246812  26.6903732   6.1730910  32.8101983  25.2952600
   5.0562745  49.4420123  19.9326794   5.2959343  50.0738647  20.6105813
   4.2131941  49.0908163  20.2192153  16.0389453  40.5897793  25.3707055
  15.1516232  40.2523715  25.4933454  16.6088004  39.8580824  25.6075820
   9.5690607  45.2499245  22.3368298   9.4960778  46.0554217  22.8487603
   9.1268000  45.4491211  21.5116319  20.5206794  36.0006010  20.1323616
  20.5096670  36.8830726  19.7617550  19.6524173  35.6477561  19.9378154
  12.0289290  45.1486080  24.4926457  12.7417262  45.7833544  24.4202358
  11.5379319  45.2449945  23.6766459   7.0801204  42.8980523  25.3132028
   7.7810663  43.5317006  25.4661422   6.6096319  43.2395255  24.5527667
  14.8802490  35.4525130  23.1384578  14.2273940  35.7001038  22.4837031
  15.2582870  34.6389269  22.8047055  11.8409664  45.4884824  17.2412748
  12.0232058  44.6706480  17.7040501  12.6642650  45.7052516  16.8037638
  10.9290063  36.1944941  29.6250615  10.2530700  36.0939071  30.2952990
  11.7517697  36.0384155  30.0886612   2.6768922  42.4316878  22.2463130
   3.2622359  41.6860566  22.3791034   2.4793760  42.7420835  23.1299794
   9.6712846  47.5011869  23.8608231  10.2231154  47.6643490  24.6257316
  10.0119039  48.0916307  23.1888256   4.1229611  31.9210151  28.1103150
   4.7501650  31.5387229  28.7240674   3.2657530  31.7024353  28.4758842
  14.5223720  42.3273126  29.7156885  15.0663624  42.9403085  29.2211840
  13.9410565  42.8852705  30.2323898  12.8081233  45.4493844  20.8471913
  12.6832372  44.6483584  20.3382859  13.4660324  45.9440038  20.3585883
  14.8716141  43.2502865  22.4751463  13.9246477  43.1308216  22.4029790
  15.2198914  42.3625363  22.5577725   7.2315715  29.1397003  26.2989705
   7.7550117  29.3859300  27.0616014   7.0128048  29.9717038  25.8792842
  11.8762575  43.0455581  18.6755815  11.7287537  42.1172288  18.8563385
  12.7016068  43.0675671  18.1912891  15.4796696  43.8684139  19.7620688
  16.4043244  43.6627001  19.6245139  15.3112000  43.6200541  20.6710030
  15.2692013  44.3869807  15.1182780  15.4428890  43.8216229  14.3656632
  15.7620904  45.1870702  14.9362270  21.1231404  37.1506230  16.7373079
  21.5662550  36.4013555  16.3392203  20.2457914  37.1416366  16.3546811
   1.8734994  35.5254372  26.0776495   1.1316730  35.6737008  26.6641126
   1.5527739  35.7862638  25.2143245   9.8178657  45.0670351  25.8756885
  10.1265783  44.8219497  26.7479585  10.6154139  45.2716989  25.3875756
   9.8399269  47.2208260  18.1062262   9.4004259  46.7284639  18.7995119
  10.5907386  46.6781228  17.8654337   7.2873141  42.7646269  20.1784564
   6.6653150  42.1016974  19.8786791   7.9578008  42.7907401  19.4958211
   7.3597669  31.2428057  29.7717070   7.4085824  32.1190180  29.3894839
   7.9020183  30.7005450  29.1988713  17.8452514  41.7869181  29.0518207
  17.0548058  41.7693319  28.5122706  17.6085869  42.3257474  29.8067243
  17.9650389  38.6361647  26.3650935  18.0148394  38.4711654  27.3066458
  17.8564313  37.7688906  25.9748816  15.2554152  34.6192575  27.6810242
  16.1564015  34.4799040  27.3894240  15.3302126  34.7847030  28.6208419
   9.5896957  31.9959430  26.5263428   8.7200267  32.2892996  26.2546017
   9.8256438  32.5799875  27.2470692  19.4668586  41.0558588  26.6092957
  19.1753395  41.4188569  27.4456418  18.8540718  40.3425597  26.4306289
  20.6664269  38.6211468  19.1295527  21.5011160  39.0601272  19.2933087
  20.8023397  38.1450121  18.3103773  17.7155775  36.1791203  25.0773015
  18.1909896  36.3718849  24.2691866  16.7921340  36.2350389  24.8316398
  16.4157443  33.0556963  23.3101320  17.3674866  33.1555061  23.3313544
  16.2460894  32.2635232  23.8199405  14.4371823  30.1412546  23.4960721
  13.8421755  30.4217559  22.8007210  14.1521520  30.6306447  24.2677462
  18.8945521  36.2763083  22.4243620  18.8621841  35.3379084  22.6103304
  19.5046145  36.3547120  21.6909445  19.0440010  33.0674126  22.4701903
  18.5279058  32.2832583  22.2831832  19.9279958  32.7392843  22.6348423
  24.7122071  37.3379090  21.5649657  25.4425460  37.0764378  22.1257360
  24.1029017  36.6007812  21.6051725  22.7937368  35.4786952  22.1624108
  22.0670532  35.3442917  21.5540600  22.3784655  35.7863781  22.9680826
  10.6167545  39.1976882  29.9271481  11.5370554  39.3755481  30.1211528
  10.5817128  38.2532927  29.7751180   8.4857483  32.6811122  31.9597011
   8.3854209  33.6305479  31.8909102   8.2679025  32.3529361  31.0873081
   8.3488753  36.1108261  30.7762073   7.8655834  36.9108621  30.9825962
   8.4349692  36.1216206  29.8229517   4.2762090  40.0012796  22.8130507
   5.2305344  39.9696738  22.7460438   4.0774614  39.5403420  23.6280732
   4.8661472  38.5713912  25.3801304   5.6854361  39.0657991  25.4036141
   5.1398280  37.6545880  25.3518872   2.6312319  45.5432415  19.8300704
   2.4966787  44.7832816  19.2638702   2.2144381  46.2673315  19.3629493
  22.7186236  35.0065005  18.2900961  22.1585794  35.0758195  19.0632523
  22.1129739  34.8305990  17.5700457   5.7881445  46.4401732  20.0419147
   5.6713829  47.3847165  19.9397837   4.9673891  46.1375294  20.4304946
  12.6449779  39.9732893  31.5785642  13.5140938  40.1473546  31.2172277
  12.1656530  40.7927310  31.4561371   6.8135959  47.0929994  23.2575075
   7.7163206  47.1253605  23.5741570   6.5873329  46.1630445  23.2721411
   8.5689561  45.8460981  19.9185154   7.6185192  45.8462842  19.8049526
   8.8722047  45.0993715  19.4021189   4.4593877  30.0519663  30.1768515
   5.3225339  29.6956468  30.3871840   3.8859288  29.7133558  30.8643920
  24.3042254  51.6821519  20.9830916  24.9420664  51.5628267  20.2794257
  24.1863097  52.6302363  21.0418869  21.1131961  51.6348947  20.9192441
  20.7750472  51.5190012  20.0312976  21.9821729  51.2340112  20.8993447
  16.9718776  53.4884424  16.9089332  16.4083641  53.3974361  16.1405620
  16.8571171  52.6684328  17.3891825  21.5951744  52.7883799  26.8778647
  21.5840384  52.3936597  26.0059150  21.7572383  52.0549872  27.4712418
  14.5183208  54.9835615  19.7473553  15.3104500  54.6426440  19.3319852
  14.7579858  55.0930590  20.6675706  22.5518335  57.1555391  12.2203797
  21.9006315  57.7409472  11.8337811  23.3462698  57.6861586  12.2798835
  16.4773962  54.2444529  12.6190931  17.2504838  53.6973516  12.4803807
  16.8299361  55.1088778  12.8305393  18.3159005  55.5720911  25.8257831
  18.0248871  56.4766542  25.7104497  18.9515989  55.6137438  26.5401900
  19.2415212  52.9497759  22.4159190  19.8378784  52.7253782  21.7016153
  19.2990183  52.2082505  23.0184638  18.8140240  50.4037195  10.2509381
  19.0665761  49.8818716   9.4892844  17.8764799  50.2403340  10.3536065
  23.8583523  49.4072973  18.0584125  24.6446612  48.9892396  17.7074542
  24.1222227  50.3119065  18.2265773  24.0293600  54.8445823  12.7572781
  23.3939433  54.9180450  13.4693686  23.6991007  55.4339422  12.0791861
  29.2591950  49.3448206  18.9617103  29.9917122  48.7747423  19.1954933
  28.5031306  48.9569807  19.4023609  18.5336529  52.3065301  12.4533756
  18.4172787  51.6310204  13.1214841  18.6438789  51.8197675  11.6365909
  20.8768070  51.7675448  16.1580445  20.5126277  51.2406069  16.8693367
  21.7335186  51.3773917  15.9846931  26.7817370  43.0569780  23.4211712
  26.4500695  43.9265191  23.1972927  26.1862984  42.7406064  24.1005742
  23.2748890  55.2582326  22.8207624  22.9749613  56.1607365  22.7123432
  22.9299949  54.9914510  23.6728777  16.7261371  51.7096123  18.8544329
  15.8011868  51.5772337  19.0622021  16.9745785  52.4890342  19.3514271
  26.6746034  47.7764867  20.5005062  25.7662911  47.7080275  20.2063823
  26.6233629  48.2536811  21.3286887  20.4962778  49.2523005  12.1388461
  20.3762403  49.6980056  12.9773941  19.8015366  49.6008323  11.5801999
  14.0870182  51.3529397  19.6888118  14.2162564  51.6063876  20.6027530
  13.4067634  51.9457105  19.3692773  18.2569670  62.0226647  15.7878592
  18.1793699  62.9734472  15.8667073  17.6531313  61.6772519  16.4453518
  20.7486899  49.1954512  28.4439959  19.9720234  49.7548432  28.4342824
  21.3877463  49.6811295  28.9654829  28.5407680  45.9781305  22.2782936
  27.8982060  46.2713838  21.6322730  28.0362609  45.8634225  23.0836132
  26.1947844  49.7244478  12.9668795  27.1065700  49.9571865  12.7916492
  25.6857491  50.3081522  12.4043873  19.0033272  52.0039965  28.0057926
  19.7447956  52.5425009  27.7292750  18.2970257  52.6306254  28.1629478
  24.4788611  54.1469106  26.6030087  24.8871967  53.7051516  25.8584720
  23.7565873  53.5721733  26.8564280  20.8319681  49.0841713  23.9763644
  21.6780877  49.5081126  24.1198293  20.7718319  48.4275337  24.6702208
  24.8017426  54.7070297  20.3582376  24.1726288  54.8716011  19.6558444
  24.4143088  55.1211906  21.1293340  28.6806658  55.6424734  17.7126740
  27.9957696  56.0223636  17.1623773  28.7650507  56.2520061  18.4458688
  23.9819127  46.7446081  25.6344818  23.7380059  47.4988142  25.0979094
  24.2579057  47.1231429  26.4692065  25.9357590  53.2884693  24.3122084
  26.1474485  53.9316453  23.6356465  25.8887338  52.4547010  23.8444014
  23.5383819  45.9002514  21.2158656  22.6768298  46.1983768  21.5075393
  23.5646253  46.1172913  20.2839688  20.3545388  54.4444705  17.6232461
  20.8183733  54.7232408  16.8337084  20.0902186  53.5428149  17.4405552
  17.2469469  53.9916186  20.5612225  17.8170826  54.4203455  19.9229709
  17.8377581  53.7098771  21.2596410  19.2914274  50.5667857  14.4322027
  19.9938317  51.0188901  14.8995953  18.9594902  49.9251676  15.0601920
  17.7394636  49.1579614  28.8073236  17.1093296  49.8395895  29.0408633
  17.6330723  49.0462695  27.8626374  13.0339608  48.8251410  19.7339160
  12.2438662  49.0808938  19.2579271  13.5250855  49.6399748  19.8391201
  27.0503417  56.1656649  22.4844441  27.8720861  55.7636836  22.2027123
  27.0465820  56.0624883  23.4360557  14.9854353  49.1895989  16.6922637
  14.1885517  49.3014683  17.2106133  14.7579946  49.5282641  15.8263527
  20.8160021  55.7140692  24.6405151  20.8804453  56.1761099  25.4763323
  20.1070945  55.0838057  24.7687461  11.3177311  49.0781900  22.1654151
  11.5685349  49.9628910  22.4311727  11.8536859  48.8986502  21.3929243
  35.1409411  52.5095397  18.8329412  34.3873119  51.9402795  18.6773417
  35.2756952  52.4758062  19.7800047  20.5308039  57.3808800  14.5084132
  20.3953713  58.2260335  14.9368980  21.0717851  57.5828077  13.7450066
  17.0175378  43.4600380  31.1698487  16.6242324  42.9066578  31.8446131
  17.8341519  43.7710958  31.5605005  13.9837436  54.8984238  15.0812057
  14.4961957  55.6927488  15.2317622  14.6360149  54.2010528  15.0145658
  15.7932321  58.0149994  17.1634810  15.9698949  58.9367959  16.9755794
  16.5889154  57.7008413  17.5929190  19.9343339  44.8758259  28.7618744
  20.6753053  45.4765412  28.6823206  20.1661262  44.1335896  28.2036786
  15.0784677  50.0614626  27.0396973  14.9638192  49.1599883  27.3404072
  14.2229195  50.3078323  26.6881790  22.1576515  58.0032366  28.6384474
  21.7140369  57.2168745  28.3205378  22.8193729  58.1911517  27.9728365
  16.9163636  59.5328168  23.1645152  17.4671061  59.4045231  22.3922146
  16.0775112  59.8323057  22.8140045  24.2557753  58.2835166  26.6665875
  24.2376228  59.1044047  26.1746144  25.1777673  58.1589241  26.8916016
  20.7130807  55.7979296  27.5089384  21.2459144  55.0367584  27.2788691
  20.1844888  55.5052947  28.2513538  23.8800502  40.9039362  23.0383025
  23.5364772  41.7941003  22.9622136  24.2479465  40.7141019  22.1752610
  11.9486353  53.2272892  15.8571627  12.7861575  53.6369900  15.6405335
  12.1264620  52.2872334  15.8271821  23.8450785  50.8947973  11.5455460
  23.3297408  51.6652577  11.7843848  23.5728093  50.2213109  12.1688522
  21.4297896  45.7397673  16.6040699  20.5739492  45.3504524  16.4246337
  21.8424848  45.8189634  15.7440484  22.9597043  43.2744017  21.0032259
  22.4561838  43.2374152  20.1900064  23.2527649  44.1836759  21.0628915
  19.2039928  43.3582746  20.0098440  20.0692925  43.1625555  19.6504330
  19.2717437  43.1293098  20.9367797  28.8185059  53.6480327  13.4808634
  28.0414502  53.3091487  13.0363796  29.4976540  53.6532950  12.8063599
  23.6337088  48.7675065  13.3715242  23.3287224  49.0821214  14.2225385
  24.5867530  48.8456485  13.4142575  22.0783520  54.9265288  15.0208196
  21.5504881  54.1918048  14.7081433  21.5771023  55.7039964  14.7748164
  27.0576366  53.1214309  20.1375242  26.4000040  53.8113570  20.2255370
  27.8616765  53.5110740  20.4809228  16.8102248  45.5884954  17.3814807
  17.3845999  45.3660136  16.6488000  17.3973230  45.6573649  18.1343408
  25.8681825  51.4758681  18.1879184  26.3813706  52.1088673  18.6900893
  26.5183049  50.8759877  17.8222544  19.1124915  42.4626203  16.1089876
  18.4589328  42.1475220  15.4846491  19.0705389  41.8401944  16.8349699
  20.2236120  52.7445498   8.0243169  19.3163182  52.5134752   8.2234318
  20.7207152  51.9483118   8.2117150  23.1304199  61.4543006  10.9439855
  22.4565898  61.7574702  11.5524813  23.5170021  62.2572086  10.5945312
  22.3462656  48.9508137  20.4337524  21.4285217  49.1723084  20.2759212
  22.7622799  49.0254447  19.5749231  23.1297703  50.3499552  15.5640204
  23.8769522  50.8620950  15.2547326  23.3989293  50.0283605  16.4244598
  21.4024354  52.8458093  12.5467159  20.4935573  52.5617126  12.6439628
  21.4319437  53.2657172  11.6870466  26.6343621  56.4564683  16.3158326
  26.1805948  55.6155593  16.3723517  26.0037588  57.0926081  16.6533106
  25.5776540  47.3856669  17.5458994  24.8399297  46.8734055  17.8769236
  25.8303314  46.9457050  16.7342271  25.0776560  58.2941179  17.2508144
  25.3699535  58.8546236  16.5320510  25.5875181  58.5869740  18.0061303
  25.6788168  40.1632921  18.1400763  25.9847045  39.3030284  17.8526678
  26.4040773  40.7550541  17.9399757  11.9712524  50.5663607  16.5282361
  11.7736924  49.9732968  15.8033427  11.4159188  50.2615818  17.2458300
  19.9509248  50.4586714  18.6476954  20.0057857  49.5060550  18.5719431
  19.1400450  50.6146153  19.1318252  21.1000441  54.3866837   9.8855237
  20.6619871  53.6702696   9.4260875  21.8410882  54.6142952   9.3240329
  17.8901607  49.0763774  16.4067333  17.0769473  49.3757944  16.8132525
  18.3860602  48.6819462  17.1241815  20.0410185  59.0721530  18.3401598
  19.9986364  59.2982377  17.4110130  20.9572884  58.8384905  18.4887399
  23.4875819  49.5405598  25.2382227  23.8425207  49.7677071  26.0976693
  24.1347950  49.8723975  24.6159482  29.2173556  52.6624034  15.9431556
  29.0791455  52.8525630  15.0152745  28.8609775  53.4243417  16.3999607
  17.3815682  46.6482129  22.0228568  18.0215062  46.5070888  21.3251531
  16.5493213  46.3616642  21.6467170  29.2442936  54.7300561  20.9542827
  29.6779442  54.6375850  21.8025881  29.9574516  54.7058061  20.3162843
  18.1575986  55.9484559  18.1363560  18.9516585  55.4534880  17.9346135
  17.4467679  55.4202423  17.7731266  22.9770831  58.3302655  22.4875928
  23.0307853  58.8993591  23.2553644  22.1085612  58.5004540  22.1229965
  14.4658750  50.0927641  14.2123313  13.5356338  50.0312097  14.4293275
  14.5616222  49.5703594  13.4159954  14.3844299  46.6182454  16.8001555
  14.6451116  47.5327787  16.6910715  15.2061471  46.1506897  16.9498167
  15.8569224  48.0320211  23.9700379  16.5292277  47.8237573  23.3213028
  15.0299011  47.8342297  23.5305611  30.1058485  54.7724262  23.4875713
  30.2994375  55.6770072  23.7334988  30.0059103  54.3131681  24.3214298
  21.7594796  44.6582152  25.9866040  21.1122711  45.3572102  25.8930516
  22.5295811  45.0918296  26.3542288  25.1673594  54.9231004  29.0616593
  25.0159100  54.6941556  28.1446677  25.1578273  55.8801606  29.0747938
  21.9358930  52.4962917  24.0462860  22.8650990  52.6474077  23.8731827
  21.5149960  52.5846938  23.1911506  20.7347262  56.5213581  21.8161397
  20.5958348  56.1532366  22.6887335  19.9461858  57.0361221  21.6445355
  21.3295414  61.6222678  13.1586934  21.5047170  61.1510721  13.9732557
  20.6428202  62.2488444  13.3868195  22.2852477  55.8995184  19.2050235
  21.9502310  55.8595954  20.1007885  21.7856423  55.2339900  18.7320645
  16.2596721  51.3062814  24.7302816  16.1216519  50.5743053  25.3314355
  17.1701645  51.2171714  24.4487004  25.2211669  53.2451219   9.4787295
  24.6040840  52.5198047   9.3820347  24.7528157  54.0060579   9.1354369
  18.8879022  51.0182774  24.2186496  19.5978640  50.3775966  24.1773114
  18.8448330  51.2695668  25.1412677  26.8765801  57.9550127  27.1393075
  26.8178347  57.2709347  26.4723658  27.2785319  58.6969117  26.6873701
  17.6007956  48.0047991  26.0382135  17.0645313  47.5538730  26.6903732
  17.0124664  48.1393900  25.2952600  15.8956499  64.7712041  19.9326794
  16.1353098  65.4030565  20.6105813  15.0525696  64.4200081  20.2192153
  26.8783208  55.9189711  25.3707055  25.9909987  55.5815633  25.4933454
  27.4481759  55.1872742  25.6075820   8.5312355  52.2513803  18.6950106
   9.2183395  51.9375533  18.1071122   8.3760484  53.1555167  18.4217358
  13.3347077  47.1403999  23.1235130  13.2505266  46.5329669  22.3885540
  12.5129784  47.6313017  23.1244626  20.4084361  60.5791163  22.3368298
  20.3354533  61.3846135  22.8487603  19.9661754  60.7783129  21.5116319
  20.1974141  59.8162933  15.8471120  19.4141663  60.3584613  15.9409344
  20.8966886  60.3336913  16.2465361  23.5070791  45.6257563  18.4905325
  24.0039491  44.8727525  18.1706395  22.7357772  45.6621879  17.9248534
  31.3600548  51.3297928  20.1323616  31.3490425  52.2122644  19.7617550
  30.4917928  50.9769479  19.9378154  22.8683045  60.4777997  24.4926457
  23.5811017  61.1125462  24.4202358  22.3773073  60.5741863  23.6766459
  24.5900572  54.3829250  16.0643748  23.6556850  54.5030712  15.8948453
  24.7677240  53.4801717  15.8003758  20.0905760  47.7674946  18.2177010
  19.7203547  47.2145986  18.9057915  20.5864852  47.1633079  17.6652010
  27.9773123  50.2246569  16.5993783  28.4433575  51.0574561  16.5254085
  28.4280624  49.7591551  17.3039041  17.9194958  58.2272441  25.3132028
  18.6204418  58.8608924  25.4661422  17.4490073  58.5687172  24.5527667
  26.0449354  56.5690390  13.5979935  26.3209198  56.4546985  14.5073809
  25.1753853  56.1707875  13.5592108  25.9489786  42.5927156  20.6384684
  25.0352866  42.8231383  20.8066891  26.3782887  42.6765600  21.4898716
  25.7196244  50.7817048  23.1384578  25.0667695  51.0292956  22.4837031
  26.0976624  49.9681186  22.8047055  22.6803418  60.8176741  17.2412748
  22.8625813  59.9998397  17.7040501  23.5036404  61.0344434  16.8037638
  23.0145584  59.7444926  14.5027797  23.5433350  59.2337381  13.8897959
  23.2773803  59.4287457  15.3673330  21.7683817  51.5236859  29.6250615
  21.0924454  51.4230988  30.2952990  22.5911451  51.3676073  30.0886612
  13.5162676  57.7608796  22.2463130  14.1016113  57.0152484  22.3791034
  13.3187515  58.0712752  23.1299794  16.3701332  60.7960043  17.2625573
  15.7011707  61.2806171  16.7789613  16.2314201  61.0429264  18.1768951
   8.1080331  50.3314396  20.9667573   8.1464431  49.7977987  21.7604691
   7.6020624  49.8049601  20.3478551  20.5106600  62.8303787  23.8608231
  21.0624908  62.9935408  24.6257316  20.8512794  63.4208224  23.1888256
  15.4871093  45.1778936  24.4630116  15.5512420  46.0393767  24.0507513
  15.4238214  44.5652938  23.7302474  14.9623366  47.2502069  28.1103150
  15.5895405  46.8679146  28.7240674  14.1051285  47.0316271  28.4758842
  25.3617475  57.6565044  29.7156885  25.9057378  58.2695002  29.2211840
  24.7804319  58.2144623  30.2323898  11.7388909  49.0578498  14.0421505
  12.0342350  48.1489176  13.9888558  10.8376944  49.0366238  13.7202507
  23.6474987  60.7785762  20.8471913  23.5226127  59.9775502  20.3382859
  24.3054079  61.2731955  20.3585883  15.2683156  47.1334495  20.0249053
  14.5469741  47.7470462  19.8856527  16.0576411  47.6692259  19.9465699
  25.7109896  58.5794782  22.4751463  24.7640231  58.4600133  22.4029790
  26.0592669  57.6917280  22.5577725  18.0709469  44.4688921  26.2989705
  18.5943871  44.7151218  27.0616014  17.8521802  45.3008956  25.8792842
  13.4676750  46.7392596  14.1660830  13.1389456  45.8589975  13.9835936
  13.8216121  46.6840264  15.0537219  22.7156329  58.3747498  18.6755815
  22.5681292  57.4464206  18.8563385  23.5409823  58.3967589  18.1912891
  16.5818573  47.0265566  14.5336308  16.9214646  47.5551487  13.8114916
  17.0290694  47.3645972  15.3094874  26.3190451  59.1976057  19.7620688
  27.2436998  58.9918919  19.6245139  26.1505754  58.9492458  20.6710030
  19.2762014  45.4102616  23.9839376  18.9358835  44.6110429  24.3860056
  18.5701021  45.7104327  23.4116209  19.9278486  42.4951929  22.4366699
  20.7504555  42.0212407  22.3145589  20.1716550  43.2742412  22.9365385
  18.5686721  45.5240187  12.7329600  19.2895083  45.9021440  12.2293317
  17.9452025  46.2429064  12.8364578  22.7117843  46.2285336  13.6687933
  22.9281458  47.1109974  13.3676761  22.2311911  45.8371549  12.9393575
  17.4517065  49.1871049  20.2458677  17.3061646  49.5011352  21.1382959
  16.9742268  49.8055950  19.6929576  19.3113448  46.1773597  20.2939567
  19.2975016  45.2814691  19.9571865  20.0285876  46.1844261  20.9277853
  21.1639578  46.6110937  22.3392694  20.9057356  47.5328008  22.3377025
  20.6324619  46.2141372  23.0293158  26.1085767  59.7161725  15.1182780
  26.2822645  59.1508147  14.3656632  26.6014658  60.5162619  14.9362270
  11.9262727  51.7276394  23.1846338  11.3816195  52.5036202  23.3166613
  12.8042077  52.0747198  23.0265460  18.7150344  45.0587978  15.5627137
  18.8366255  44.1304624  15.7618024  18.4252386  45.0726664  14.6505452
  21.5841534  42.7442888  18.6993857  21.6063231  42.8082221  17.7445836
  22.0009593  41.9047397  18.8934363  31.9625158  52.4798148  16.7373079
  32.4056304  51.7305473  16.3392203  31.0851669  52.4708284  16.3546811
  27.0960940  59.0328489  12.2179678  27.7911844  59.6535182  12.4366993
  27.4384090  58.1823840  12.4932056  12.7128749  50.8546290  26.0776495
  11.9710485  51.0028925  26.6641126  12.3921493  51.1154556  25.2143245
  28.9952363  56.4828195  13.7467009  29.5203687  56.8215467  13.0216329
  28.9074715  55.5475210  13.5630143  20.6572411  60.3962268  25.8756885
  20.9659538  60.1511415  26.7479585  21.4547894  60.6008907  25.3875756
  20.6793024  62.5500178  18.1062262  20.2398014  62.0576557  18.7995119
  21.4301141  62.0073145  17.8654337  13.1585363  58.7411719  18.1086890
  13.9843382  58.4415491  17.7285533  12.8079415  57.9719341  18.5576679
  18.1266896  58.0938187  20.1784564  17.5046905  57.4308892  19.8786791
  18.7971763  58.1199319  19.4958211  11.3593968  56.6598045  19.0675824
  10.5225876  56.2320220  18.8859825  11.3317613  56.8530488  20.0046615
  18.1991423  46.5719975  29.7717070  18.2479579  47.4482098  29.3894839
  18.7413937  46.0297368  29.1988713  28.6846269  57.1161098  29.0518207
  27.8941813  57.0985237  28.5122706  28.4479623  57.6549392  29.8067243
  28.8044144  53.9653565  26.3650935  28.8542149  53.8003572  27.3066458
  28.6958067  53.0980824  25.9748816  17.6880403  56.6442110  13.6543024
  17.8368523  57.3277575  13.0009697  18.4946846  56.6247200  14.1692480
  26.0947906  49.9484493  27.6810242  26.9957769  49.8090957  27.3894240
  26.1695881  50.1138947  28.6208419  20.4290712  47.3251347  26.5263428
  19.5594021  47.6184913  26.2546017  20.6650192  47.9091792  27.2470692
  30.3062341  56.3850506  26.6092957  30.0147149  56.7480487  27.4456418
  29.6934472  55.6717514  26.4306289  31.5058023  53.9503386  19.1295527
  32.3404914  54.3893190  19.2933087  31.6417152  53.4742039  18.3103773
  28.5549529  51.5083121  25.0773015  29.0303651  51.7010767  24.2691866
  27.6315094  51.5642307  24.8316398  15.4433036  52.6707288  14.6604093
  15.1979078  51.7669618  14.8584303  15.6128950  52.6724438  13.7183571
  23.1329745  43.5430964  24.0428849  23.6511689  44.2791991  23.7175337
  22.7784878  43.8494958  24.8775608  23.3842340  39.9631247  19.5629745
  23.6644093  39.2954436  20.1890172  24.1692947  40.1560342  19.0504409
  21.1875808  59.1390241  11.1254772  20.6149775  59.7580428  10.6725243
  21.7608602  59.6889602  11.6594693  27.2551198  48.3848881  23.3101320
  28.2068621  48.4846978  23.3313544  27.0854648  47.5927149  23.8199405
  25.2765577  45.4704464  23.4960721  24.6815510  45.7509477  22.8007210
  24.9915274  45.9598365  24.2677462  24.4073068  59.4227391  12.2563354
  25.3403741  59.3572953  12.4596229  24.3196281  60.2583658  11.7977886
  27.0361085  58.7393261   9.2167301  26.9574716  58.4053125  10.1103059
  27.8570751  59.2315029   9.2158774  29.7339276  51.6055000  22.4243620
  29.7015596  50.6671001  22.6103304  30.3439899  51.6839037  21.6909445
  21.5722607  50.4751053   8.4670824  22.5181711  50.3457262   8.5359242
  21.1936852  49.7365715   8.9440252  29.8833764  48.3966044  22.4701903
  29.3672813  47.6124501  22.2831832  30.7673713  48.0684761  22.6348423
  27.5444491  42.1407059  18.4297716  27.3469312  41.8322148  19.3141048
  28.1544197  42.8668698  18.5595646  35.5515826  52.6671007  21.5649657
  36.2819214  52.4056295  22.1257360  34.9422771  51.9299729  21.6051725
  33.6331123  50.8078870  22.1624108  32.9064286  50.6734835  21.5540600
  33.2178410  51.1155699  22.9680826  21.4561299  54.5268800  29.9271481
  22.3764309  54.7047399  30.1211528  21.4210882  53.5824845  29.7751180
  10.6743464  49.7207393  18.8524756  10.3546249  48.8672701  18.5599130
  10.1276892  49.9355971  19.6082723  14.4523372  52.4369834  22.5694262
  14.6709381  53.3686942  22.5882296  14.8649146  52.0777809  23.3549066
  21.3727590  42.9437920  14.5569951  20.5628318  42.5985005  14.9325197
  22.0612006  42.6345463  15.1457562  23.3018138  42.0215966  16.1794247
  23.8549176  42.4411420  16.8384270  23.5388224  41.0951714  16.2217203
  19.3251237  48.0103040  31.9597011  19.2247964  48.9597397  31.8909102
  19.1072779  47.6821279  31.0873081  10.5431724  53.3410305  20.8217877
   9.8495196  52.9264258  20.3087832  11.2904715  53.3830841  20.2251296
  26.6796945  44.1316492  15.6872911  26.0995614  44.7901296  15.3050964
  26.4132878  43.3093836  15.2760329  25.1300511  43.5321549  17.8894232
  25.6300290  43.6438084  17.0808551  25.7736119  43.2282602  18.5295040
  19.1882507  51.4400179  30.7762073  18.7049589  52.2400539  30.9825962
  19.2743446  51.4508124  29.8229517  12.4568467  53.2728559  18.6983892
  12.4339155  53.3716246  17.7465775  12.7669103  54.1193709  19.0201058
  15.1155845  55.3304714  22.8130507  16.0699098  55.2988656  22.7460438
  14.9168368  54.8695337  23.6280732  15.7055227  53.9005830  25.3801304
  16.5248116  54.3949908  25.4036141  15.9792034  52.9837798  25.3518872
  25.4621823  46.2916582  14.7429260  24.5747678  46.5766233  14.5249454
  25.8775812  46.1310345  13.8956537  28.8136359  46.3163103  18.4583599
  29.5896749  46.8059555  18.7308216  28.0884493  46.7421157  18.9155468
  31.2508918  47.0290722  19.5157540  31.8453408  46.7886458  18.8050848
  31.3235501  46.3097853  20.1431076  13.4706073  60.8724333  19.8300704
  13.3360541  60.1124734  19.2638702  13.0538136  61.5965233  19.3629493
  24.6065036  56.0561257   8.8377280  25.3100886  56.2611259   9.4534935
  23.8827685  56.6238018   9.1026363  25.4362847  51.8071118  14.9579550
  25.3798048  52.2639669  14.1187182  25.9891189  51.0461802  14.7802393
  29.2467653  47.5960850  15.7829669  28.9904587  47.1957485  16.6137877
  28.6220521  48.3104644  15.6579809  33.5579990  50.3356923  18.2900961
  32.9979548  50.4050112  19.0632523  32.9523494  50.1597908  17.5700457
  16.6275199  61.7693650  20.0419147  16.5107583  62.7139083  19.9397837
  15.8067646  61.4667212  20.4304946  26.5151734  56.4943786  10.8875740
  27.3497338  56.0624984  10.7053215  26.3536077  56.3225799  11.8152634
  26.1697626  52.9975899  12.2532079  26.1146430  52.8320171  11.3120523
  25.5443681  53.7051932  12.4094269  10.9590141  48.2343963  26.0793501
  11.6049005  47.7242917  26.5680726  10.7507292  48.9712645  26.6536927
  23.4843533  55.3024811  31.5785642  24.3534693  55.4765463  31.2172277
  23.0050285  56.1219228  31.4561371  17.6529713  62.4221912  23.2575075
  18.5556960  62.4545522  23.5741570  17.4267083  61.4922363  23.2721411
  19.4083315  61.1752899  19.9185154  18.4578946  61.1754760  19.8049526
  19.7115802  60.4285633  19.4021189  23.2945871  39.0926785  16.0863334
  22.5278267  38.5385271  16.2320017  23.7056576  39.1648653  16.9477486
  15.2987632  45.3811581  30.1768515  16.1619094  45.0248385  30.3871840
  14.7253043  45.0425475  30.8643920  35.1436009  67.0113437  20.9830916
  35.7814419  66.8920184  20.2794257  35.0256852  67.9594281  21.0418869
  31.9525715  66.9640865  20.9192441  31.6144227  66.8481930  20.0312976
  32.8215483  66.5632030  20.8993447  27.8112531  68.8176341  16.9089332
  27.2477396  68.7266278  16.1405620  27.6964926  67.9976246  17.3891825
  32.4345498  68.1175717  26.8778647  32.4234139  67.7228515  26.0059150
  32.5966138  67.3841789  27.4712418  25.3576963  70.3127533  19.7473553
  26.1498255  69.9718358  19.3319852  25.5973613  70.4222508  20.6675706
  33.3912090  72.4847309  12.2203797  32.7400069  73.0701390  11.8337811
  34.1856452  73.0153504  12.2798835  27.3167717  69.5736446  12.6190931
  28.0898593  69.0265433  12.4803807  27.6693116  70.4380696  12.8305393
  29.1552759  70.9012829  25.8257831  28.8642625  71.8058459  25.7104497
  29.7909744  70.9429356  26.5401900  30.0808966  68.2789677  22.4159190
  30.6772538  68.0545699  21.7016153  30.1383938  67.5374423  23.0184638
  29.6533995  65.7329112  10.2509381  29.9059515  65.2110634   9.4892844
  28.7158554  65.5695258  10.3536065  34.6977277  64.7364891  18.0584125
  35.4840367  64.3184314  17.7074542  34.9615982  65.6410983  18.2265773
  34.8687355  70.1737741  12.7572781  34.2333188  70.2472368  13.4693686
  34.5384761  70.7631340  12.0791861  40.0985704  64.6740124  18.9617103
  40.8310876  64.1039341  19.1954933  39.3425060  64.2861724  19.4023609
  29.3730283  67.6357218  12.4533756  29.2566541  66.9602122  13.1214841
  29.4832543  67.1489592  11.6365909  31.7161824  67.0967365  16.1580445
  31.3520031  66.5697986  16.8693367  32.5728940  66.7065834  15.9846931
  37.6211125  58.3861698  23.4211712  37.2894450  59.2557109  23.1972927
  37.0256738  58.0697982  24.1005742  31.3567311  62.1257265  11.1541794
  31.5241714  62.9937502  11.5212265  31.1664480  62.2884547  10.2303083
  34.1142644  70.5874244  22.8207624  33.8143367  71.4899283  22.7123432
  33.7693704  70.3206427  23.6728777  27.5655126  67.0388041  18.8544329
  26.6405622  66.9064255  19.0622021  27.8139539  67.8182260  19.3514271
  37.5139788  63.1056784  20.5005062  36.6056665  63.0372193  20.2063823
  37.4627384  63.5828729  21.3286887  31.3356532  64.5814923  12.1388461
  31.2156157  65.0271973  12.9773941  30.6409120  64.9300240  11.5801999
  24.9263937  66.6821314  19.6888118  25.0556318  66.9355793  20.6027530
  24.2461388  67.2749022  19.3692773  29.0963424  77.3518564  15.7878592
  29.0187454  78.3026389  15.8667073  28.4925068  77.0064437  16.4453518
  31.5880654  64.5246430  28.4439959  30.8113988  65.0840350  28.4342824
  32.2271217  65.0103213  28.9654829  39.3801435  61.3073223  22.2782936
  38.7375815  61.6005756  21.6322730  38.8756363  61.1926143  23.0836132
  37.0341598  65.0536396  12.9668795  37.9459454  65.2863783  12.7916492
  36.5251245  65.6373440  12.4043873  29.8427026  67.3331883  28.0057926
  30.5841711  67.8716927  27.7292750  29.1364012  67.9598172  28.1629478
  31.6713436  64.4133630  23.9763644  32.5174631  64.8373044  24.1198293
  31.6112074  63.7567255  24.6702208  35.6411181  70.0362214  20.3582376
  35.0120043  70.2007928  19.6558444  35.2536843  70.4503824  21.1293340
  34.8212881  62.0737999  25.6344818  34.5773813  62.8280059  25.0979094
  35.0972812  62.4523346  26.4692065  34.3777573  61.2294432  21.2158656
  33.5162052  61.5275685  21.5075393  34.4040008  61.4464831  20.2839688
  31.1939142  69.7736622  17.6232461  31.6577488  70.0524325  16.8337084
  30.9295941  68.8720067  17.4405552  28.0863223  69.3208104  20.5612225
  28.6564581  69.7495372  19.9229709  28.6771335  69.0390689  21.2596410
  30.1308028  65.8959775  14.4322027  30.8332072  66.3480818  14.8995953
  29.7988657  65.2543594  15.0601920  28.5788390  64.4871531  28.8073236
  27.9487051  65.1687812  29.0408633  28.4724478  64.3754613  27.8626374
  23.8733362  64.1543327  19.7339160  23.0832416  64.4100856  19.2579271
  24.3644610  64.9691665  19.8391201  25.8248108  64.5187907  16.6922637
  25.0279271  64.6306601  17.2106133  25.5973700  64.8574559  15.8263527
  31.6553775  71.0432610  24.6405151  31.7198208  71.5053017  25.4763323
  30.9464699  70.4129975  24.7687461  22.1571065  64.4073818  22.1654151
  22.4079104  65.2920828  22.4311727  22.6930614  64.2278419  21.3929243
  31.3701793  72.7100717  14.5084132  31.2347468  73.5552253  14.9368980
  31.9111606  72.9119995  13.7450066  27.8569133  58.7892297  31.1698487
  27.4636078  58.2358496  31.8446131  28.6735273  59.1002876  31.5605005
  24.8231190  70.2276155  15.0812057  25.3355711  71.0219406  15.2317622
  25.4753903  69.5302446  15.0145658  26.6326075  73.3441912  17.1634810
  26.8092704  74.2659876  16.9755794  27.4282909  73.0300331  17.5929190
  30.7737094  60.2050176  28.7618744  31.5146807  60.8057329  28.6823206
  31.0055017  59.4627814  28.2036786  25.9178432  65.3906544  27.0396973
  25.8031947  64.4891801  27.3404072  25.0622949  65.6370240  26.6881790
  27.7557391  74.8620085  23.1645152  28.3064816  74.7337149  22.3922146
  26.9168867  75.1614974  22.8140045  31.5524562  71.1271213  27.5089384
  32.0852898  70.3659501  27.2788691  31.0238643  70.8344865  28.2513538
  34.7194257  56.2331279  23.0383025  34.3758526  57.1232921  22.9622136
  35.0873219  56.0432937  22.1752610  22.7880107  68.5564810  15.8571627
  23.6255329  68.9661818  15.6405335  22.9658375  67.6164252  15.8271821
  34.6844539  66.2239890  11.5455460  34.1691163  66.9944495  11.7843848
  34.4121848  65.5505026  12.1688522  32.2691650  61.0689591  16.6040699
  31.4133247  60.6796442  16.4246337  32.6818602  61.1481552  15.7440484
  33.7990797  58.6035934  21.0032259  33.2955593  58.5666070  20.1900064
  34.0921404  59.5128677  21.0628915  30.0433683  58.6874664  20.0098440
  30.9086680  58.4917473  19.6504330  30.1111192  58.4585016  20.9367797
  39.6578814  68.9772245  13.4808634  38.8808256  68.6383404  13.0363796
  40.3370294  68.9824868  12.8063599  34.4730843  64.0966982  13.3715242
  34.1680978  64.4113132  14.2225385  35.4261285  64.1748402  13.4142575
  32.9177274  70.2557206  15.0208196  32.3898636  69.5209965  14.7081433
  32.4164777  71.0331882  14.7748164  37.8970120  68.4506226  20.1375242
  37.2393795  69.1405488  20.2255370  38.7010520  68.8402658  20.4809228
  27.6496002  60.9176872  17.3814807  28.2239754  60.6952054  16.6488000
  28.2366984  60.9865567  18.1343408  36.7075579  66.8050599  18.1879184
  37.2207461  67.4380591  18.6900893  37.3576803  66.2051794  17.8222544
  27.9765589  62.9481333  11.4010692  27.1402901  63.2856020  11.7219967
  27.8370359  62.8130313  10.4637829  29.9518670  57.7918121  16.1089876
  29.2983082  57.4767138  15.4846491  29.9099144  57.1693861  16.8349699
  31.0629875  68.0737416   8.0243169  30.1556936  67.8426669   8.2234318
  31.5600907  67.2775035   8.2117150  33.9697953  76.7834923  10.9439855
  33.2959652  77.0866620  11.5524813  34.3563775  77.5864004  10.5945312
  33.1856410  64.2800054  20.4337524  32.2678971  64.5015001  20.2759212
  33.6016554  64.3546365  19.5749231  33.9691458  65.6791470  15.5640204
  34.7163277  66.1912867  15.2547326  34.2383047  65.3575523  16.4244598
  32.2418108  68.1750011  12.5467159  31.3329327  67.8909044  12.6439628
  32.2713192  68.5949089  11.6870466  36.4170295  62.7148586  17.5458994
  35.6793052  62.2025973  17.8769236  36.6697069  62.2748968  16.7342271
  36.5181922  55.4924838  18.1400763  36.8240799  54.6322202  17.8526678
  37.2434527  56.0842459  17.9399757  22.8106278  65.8955525  16.5282361
  22.6130678  65.3024886  15.8033427  22.2552942  65.5907735  17.2458300
  30.7903002  65.7878631  18.6476954  30.8451612  64.8352468  18.5719431
  29.9794204  65.9438071  19.1318252  31.9394196  69.7158755   9.8855237
  31.5013626  68.9994613   9.4260875  32.6804637  69.9434869   9.3240329
  28.7295362  64.4055691  16.4067333  27.9163228  64.7049862  16.8132525
  29.2254356  64.0111380  17.1241815  30.8803940  74.4013448  18.3401598
  30.8380119  74.6274294  17.4110130  31.7966639  74.1676823  18.4887399
  28.2209437  61.9774047  22.0228568  28.8608816  61.8362806  21.3251531
  27.3886967  61.6908560  21.6467170  28.9969741  71.2776477  18.1363560
  29.7910339  70.7826797  17.9346135  28.2861433  70.7494340  17.7731266
  33.8164585  73.6594573  22.4875928  33.8701607  74.2285509  23.2553644
  32.9479366  73.8296458  22.1229965  25.3052504  65.4219559  14.2123313
  24.3750092  65.3604014  14.4293275  25.4009976  64.8995512  13.4159954
  25.2238053  61.9474372  16.8001555  25.4844870  62.8619705  16.6910715
  26.0455225  61.4798814  16.9498167  26.6962978  63.3612129  23.9700379
  27.3686032  63.1529491  23.3213028  25.8692765  63.1634215  23.5305611
  32.5988550  59.9874070  25.9866040  31.9516466  60.6864019  25.8930516
  33.3689566  60.4210214  26.3542288  32.7752685  67.8254835  24.0462860
  33.7044745  67.9765994  23.8731827  32.3543715  67.9138856  23.1911506
  31.5741017  71.8505499  21.8161397  31.4352102  71.4824284  22.6887335
  30.7855613  72.3653139  21.6445355  32.1689169  76.9514596  13.1586934
  32.3440924  76.4802639  13.9732557  31.4821957  77.5780362  13.3868195
  33.1246232  71.2287102  19.2050235  32.7896064  71.1887872  20.1007885
  32.6250177  70.5631818  18.7320645  27.0990476  66.6354732  24.7302816
  26.9610274  65.9034971  25.3314355  28.0095399  66.5463632  24.4487004
  36.0605423  68.5743136   9.4787295  35.4434594  67.8489964   9.3820347
  35.5921912  69.3352496   9.1354369  29.7272776  66.3474691  24.2186496
  30.4372395  65.7067883  24.1773114  29.6842085  66.5987586  25.1412677
  28.4401710  63.3339909  26.0382135  27.9039067  62.8830648  26.6903732
  27.8518419  63.4685818  25.2952600  26.7350254  80.1003958  19.9326794
  26.9746852  80.7322483  20.6105813  25.8919450  79.7491998  20.2192153
  27.8503969  62.7928560   8.6008599  26.9733436  62.6717361   8.2370846
  28.3261722  62.0014639   8.3487488  19.3706109  67.5805720  18.6950106
  20.0577149  67.2667450  18.1071122  19.2154238  68.4847085  18.4217358
  24.1740832  62.4695917  23.1235130  24.0899020  61.8621586  22.3885540
  23.3523538  62.9604935  23.1244626  31.2478116  75.9083081  22.3368298
  31.1748287  76.7138052  22.8487603  30.8055509  76.1075047  21.5116319
  31.0367895  75.1454851  15.8471120  30.2535417  75.6876531  15.9409344
  31.7360641  75.6628830  16.2465361  34.3464545  60.9549480  18.4905325
  34.8433245  60.2019443  18.1706395  33.5751527  60.9913797  17.9248534
  35.4294326  69.7121168  16.0643748  34.4950605  69.8322630  15.8948453
  35.6070995  68.8093634  15.8003758  30.9299514  63.0966863  18.2177010
  30.5597302  62.5437904  18.9057915  31.4258607  62.4924997  17.6652010
  38.8166878  65.5538487  16.5993783  39.2827330  66.3866478  16.5254085
  39.2674378  65.0883468  17.3039041  28.7588713  73.5564358  25.3132028
  29.4598172  74.1900841  25.4661422  28.2883828  73.8979090  24.5527667
  36.8843109  71.8982308  13.5979935  37.1602953  71.7838903  14.5073809
  36.0147607  71.4999793  13.5592108  36.7883540  57.9219074  20.6384684
  35.8746620  58.1523301  20.8066891  37.2176642  58.0057518  21.4898716
  33.5197173  76.1468659  17.2412748  33.7019567  75.3290315  17.7040501
  34.3430159  76.3636351  16.8037638  33.8539338  75.0736844  14.5027797
  34.3827105  74.5629299  13.8897959  34.1167558  74.7579374  15.3673330
  24.3556431  73.0900713  22.2463130  24.9409868  72.3444401  22.3791034
  24.1581269  73.4004670  23.1299794  27.2095086  76.1251961  17.2625573
  26.5405461  76.6098088  16.7789613  27.0707956  76.3721181  18.1768951
  18.9474086  65.6606314  20.9667573  18.9858185  65.1269904  21.7604691
  18.4414378  65.1341519  20.3478551  26.3264848  60.5070854  24.4630116
  26.3906174  61.3685685  24.0507513  26.2631968  59.8944856  23.7302474
  25.8017120  62.5793987  28.1103150  26.4289159  62.1971064  28.7240674
  24.9445039  62.3608189  28.4758842  22.5782663  64.3870416  14.0421505
  22.8736104  63.4781094  13.9888558  21.6770699  64.3658155  13.7202507
  26.1076910  62.4626412  20.0249053  25.3863496  63.0762380  19.8856527
  26.8970166  62.9984177  19.9465699  28.9103224  59.7980839  26.2989705
  29.4337626  60.0443135  27.0616014  28.6915557  60.6300874  25.8792842
  24.3070505  62.0684513  14.1660830  23.9783211  61.1881892  13.9835936
  24.6609875  62.0132182  15.0537219  33.5550084  73.7039416  18.6755815
  33.4075046  72.7756124  18.8563385  34.3803577  73.7259507  18.1912891
  27.4212328  62.3557483  14.5336308  27.7608400  62.8843404  13.8114916
  27.8684448  62.6937889  15.3094874  30.1155769  60.7394534  23.9839376
  29.7752589  59.9402347  24.3860056  29.4094775  61.0396245  23.4116209
  30.7672241  57.8243846  22.4366699  31.5898310  57.3504325  22.3145589
  31.0110304  58.6034330  22.9365385  29.4080475  60.8532105  12.7329600
  30.1288838  61.2313358  12.2293317  28.7845779  61.5720982  12.8364578
  33.5511598  61.5577254  13.6687933  33.7675212  62.4401892  13.3676761
  33.0705665  61.1663467  12.9393575  28.2910819  64.5162967  20.2458677
  28.1455400  64.8303270  21.1382959  27.8136023  65.1347867  19.6929576
  30.1507202  61.5065515  20.2939567  30.1368771  60.6106608  19.9571865
  30.8679630  61.5136179  20.9277853  32.0033333  61.9402855  22.3392694
  31.7451111  62.8619926  22.3377025  31.4718373  61.5433290  23.0293158
  22.7656481  67.0568311  23.1846338  22.2209950  67.8328119  23.3166613
  23.6435831  67.4039116  23.0265460  29.5544098  60.3879895  15.5627137
  29.6760009  59.4596541  15.7618024  29.2646141  60.4018581  14.6505452
  32.4235289  58.0734806  18.6993857  32.4456985  58.1374139  17.7445836
  32.8403348  57.2339314  18.8934363  37.9354694  74.3620407  12.2179678
  38.6305599  74.9827099  12.4366993  38.2777844  73.5115758  12.4932056
  23.5522503  66.1838208  26.0776495  22.8104239  66.3320843  26.6641126
  23.2315248  66.4446473  25.2143245  31.5186778  77.8792096  18.1062262
  31.0791768  77.3868474  18.7995119  32.2694895  77.3365063  17.8654337
  23.9979117  74.0703636  18.1086890  24.8237137  73.7707408  17.7285533
  23.6473169  73.3011259  18.5576679  28.9660650  73.4230105  20.1784564
  28.3440659  72.7600810  19.8786791  29.6365517  73.4491236  19.4958211
  22.1987722  71.9889963  19.0675824  21.3619630  71.5612137  18.8859825
  22.1711367  72.1822406  20.0046615  29.0385178  61.9011893  29.7717070
  29.0873333  62.7774015  29.3894839  29.5807692  61.3589286  29.1988713
  28.5274157  71.9734028  13.6543024  28.6762277  72.6569492  13.0009697
  29.3340601  71.9539118  14.1692480  31.2684466  62.6543265  26.5263428
  30.3987776  62.9476831  26.2546017  31.5043946  63.2383710  27.2470692
  26.2826790  67.9999206  14.6604093  26.0372832  67.0961536  14.8584303
  26.4522705  68.0016356  13.7183571  33.9723500  58.8722882  24.0428849
  34.4905444  59.6083909  23.7175337  33.6178633  59.1786875  24.8775608
  25.5522438  63.7327563  12.1590254  24.8591683  63.8071918  11.5030290
  25.3074190  62.9687907  12.6811771  34.2236094  55.2923164  19.5629745
  34.5037848  54.6246354  20.1890172  35.0086701  55.4852260  19.0504409
  32.0269563  74.4682158  11.1254772  31.4543530  75.0872346  10.6725243
  32.6002356  75.0181520  11.6594693  38.0944952  63.7140798  23.3101320
  39.0462375  63.8138896  23.3313544  37.9248403  62.9219067  23.8199405
  36.1159332  60.7996382  23.4960721  35.5209264  61.0801394  22.8007210
  35.8309029  61.2890283  24.2677462  35.2466822  74.7519309  12.2563354
  36.1797496  74.6864870  12.4596229  35.1590035  75.5875575  11.7977886
  37.8754839  74.0685179   9.2167301  37.7968471  73.7345042  10.1103059
  38.6964506  74.5606947   9.2158774  32.4116361  65.8042971   8.4670824
  33.3575466  65.6749179   8.5359242  32.0330606  65.0657633   8.9440252
  40.7227519  63.7257962  22.4701903  40.2066567  62.9416418  22.2831832
  41.6067467  63.3976678  22.6348423  38.3838246  57.4698977  18.4297716
  38.1863067  57.1614065  19.3141048  38.9937951  58.1960616  18.5595646
  30.5959278  63.7292948   8.4025709  29.6890734  63.4326060   8.4788423
  30.8735259  63.4322766   7.5359995  21.5137219  65.0499311  18.8524756
  21.1940003  64.1964619  18.5599130  20.9670647  65.2647889  19.6082723
  25.2917126  67.7661752  22.5694262  25.5103136  68.6978860  22.5882296
  25.7042900  67.4069726  23.3549066  32.2121344  58.2729837  14.5569951
  31.4022072  57.9276922  14.9325197  32.9005761  57.9637381  15.1457562
  34.1411892  57.3507884  16.1794247  34.6942931  57.7703337  16.8384270
  34.3781979  56.4243632  16.2217203  30.1644992  63.3394958  31.9597011
  30.0641718  64.2889315  31.8909102  29.9466534  63.0113197  31.0873081
  29.3658063  60.5879883   8.5437688  30.2277227  60.9134781   8.8033506
  29.5508407  59.8011379   8.0310754  21.3825479  68.6702222  20.8217877
  20.6888950  68.2556175  20.3087832  22.1298470  68.7122759  20.2251296
  37.5190699  59.4608409  15.6872911  36.9389368  60.1193213  15.3050964
  37.2526632  58.6385754  15.2760329  35.9694266  58.8613467  17.8894232
  36.4694044  58.9730001  17.0808551  36.6129874  58.5574520  18.5295040
  30.0276262  66.7692097  30.7762073  29.5443343  67.5692457  30.9825962
  30.1137201  66.7800041  29.8229517  23.2962221  68.6020476  18.6983892
  23.2732909  68.7008163  17.7465775  23.6062858  69.4485627  19.0201058
  25.9549599  70.6596631  22.8130507  26.9092853  70.6280574  22.7460438
  25.7562123  70.1987255  23.6280732  26.5448981  69.2297747  25.3801304
  27.3641870  69.7241826  25.4036141  26.8185789  68.3129715  25.3518872
  36.3015577  61.6208500  14.7429260  35.4141432  61.9058150  14.5249454
  36.7169566  61.4602263  13.8956537  39.6530114  61.6455021  18.4583599
  40.4290504  62.1351473  18.7308216  38.9278248  62.0713075  18.9155468
  42.0902672  62.3582640  19.5157540  42.6847163  62.1178376  18.8050848
  42.1629256  61.6389770  20.1431076  24.3099828  76.2016251  19.8300704
  24.1754296  75.4416652  19.2638702  23.8931890  76.9257151  19.3629493
  35.4458791  71.3853174   8.8377280  36.1494641  71.5903177   9.4534935
  34.7221440  71.9529936   9.1026363  36.2756601  67.1363036  14.9579550
  36.2191803  67.5931587  14.1187182  36.8284944  66.3753720  14.7802393
  40.0861407  62.9252767  15.7829669  39.8298341  62.5249403  16.6137877
  39.4614275  63.6396561  15.6579809  27.4668954  77.0985568  20.0419147
  27.3501338  78.0431000  19.9397837  26.6461400  76.7959129  20.4304946
  37.3545488  71.8235703  10.8875740  38.1891092  71.3916902  10.7053215
  37.1929831  71.6517717  11.8152634  37.0091380  68.3267817  12.2532079
  36.9540184  68.1612088  11.3120523  36.3837436  69.0343850  12.4094269
  21.7983895  63.5635881  26.0793501  22.4442759  63.0534835  26.5680726
  21.5901047  64.3004563  26.6536927  30.3187506  57.8275926  11.8317397
  30.3066176  58.7717766  11.9885668  31.2110928  57.6446071  11.5376859
  28.4923468  77.7513830  23.2575075  29.3950715  77.7837440  23.5741570
  28.2660838  76.8214281  23.2721411  30.2477070  76.5044816  19.9185154
  29.2972701  76.5046678  19.8049526  30.5509556  75.7577551  19.4021189
  34.1339625  54.4218702  16.0863334  33.3672021  53.8677189  16.2320017
  34.5450330  54.4940571  16.9477486  26.1381386  60.7103498  30.1768515
  27.0012848  60.3540303  30.3871840  25.5646797  60.3717393  30.8643920
  38.6506285  84.1468259  16.9089332  38.0871150  84.0558196  16.1405620
  38.5358680  83.3268164  17.3891825  44.2305844  87.8139227  12.2203797
  43.5793824  88.3993307  11.8337811  45.0250207  88.3445422  12.2798835
  38.1561471  84.9028364  12.6190931  38.9292347  84.3557351  12.4803807
  38.5086870  85.7672613  12.8305393  40.4927749  81.0621030  10.2509381
  40.7453270  80.5402551   9.4892844  39.5552308  80.8987175  10.3536065
  45.7081109  85.5029659  12.7572781  45.0726942  85.5764285  13.4693686
  45.3778516  86.0923258  12.0791861  40.2124038  82.9649136  12.4533756
  40.0960296  82.2894039  13.1214841  40.3226298  82.4781510  11.6365909
  42.1961066  77.4549183  11.1541794  42.3635468  78.3229419  11.5212265
  42.0058235  77.6176465  10.2303083  39.9357179  92.6810482  15.7878592
  39.8581208  93.6318307  15.8667073  39.3318822  92.3356355  16.4453518
  47.8735353  80.3828313  12.9668795  48.7853209  80.6155700  12.7916492
  47.3645000  80.9665358  12.4043873  42.2095548  88.0392635  14.5084132
  42.0741222  88.8844171  14.9368980  42.7505360  88.2411913  13.7450066
  35.6624945  85.5568073  15.0812057  36.1749466  86.3511323  15.2317622
  36.3147658  84.8594364  15.0145658  37.4719830  88.6733829  17.1634810
  37.6486458  89.5951794  16.9755794  38.2676663  88.3592249  17.5929190
  33.6273862  83.8856727  15.8571627  34.4649084  84.2953736  15.6405335
  33.8052129  82.9456170  15.8271821  45.5238294  81.5531808  11.5455460
  45.0084917  82.3236413  11.7843848  45.2515602  80.8796944  12.1688522
  43.7571029  85.5849123  15.0208196  43.2292390  84.8501883  14.7081433
  43.2558532  86.3623800  14.7748164  38.8159344  78.2773251  11.4010692
  37.9796656  78.6147937  11.7219967  38.6764113  78.1422231  10.4637829
  41.9023629  83.4029334   8.0243169  40.9950691  83.1718587   8.2234318
  42.3994661  82.6066953   8.2117150  44.8091708  92.1126841  10.9439855
  44.1353407  92.4158538  11.5524813  45.1957530  92.9155921  10.5945312
  43.0811862  83.5041929  12.5467159  42.1723082  83.2200961  12.6439628
  43.1106946  83.9241007  11.6870466  33.6500033  81.2247443  16.5282361
  33.4524433  80.6316803  15.8033427  33.0946697  80.9199653  17.2458300
  42.7787950  85.0450672   9.8855237  42.3407380  84.3286531   9.4260875
  43.5198391  85.2726787   9.3240329  36.1446259  80.7511477  14.2123313
  35.2143847  80.6895932  14.4293275  36.2403731  80.2287429  13.4159954
  43.0082923  92.2806513  13.1586934  43.1834679  91.8094556  13.9732557
  42.3215711  92.9072279  13.3868195  46.8999178  83.9035054   9.4787295
  46.2828349  83.1781882   9.3820347  46.4315666  84.6644414   9.1354369
  37.5744008  95.4295876  19.9326794  37.8140607  96.0614400  20.6105813
  36.7313205  95.0783916  20.2192153  38.6897724  78.1220478   8.6008599
  37.8127190  78.0009279   8.2370846  39.1655477  77.3306556   8.3487488
  30.2099864  82.9097638  18.6950106  30.8970904  82.5959368  18.1071122
  30.0547993  83.8139003  18.4217358  41.8761650  90.4746769  15.8471120
  41.0929172  91.0168449  15.9409344  42.5754395  90.9920748  16.2465361
  49.6560632  80.8830404  16.5993783  50.1221084  81.7158396  16.5254085
  50.1068133  80.4175386  17.3039041  47.7236863  87.2274226  13.5979935
  47.9996707  87.1130820  14.5073809  46.8541362  86.8291711  13.5592108
  44.3590927  91.4760577  17.2412748  44.5413322  90.6582233  17.7040501
  45.1823913  91.6928269  16.8037638  44.6933093  90.4028762  14.5027797
  45.2220859  89.8921216  13.8897959  44.9561312  90.0871292  15.3673330
  38.0488841  91.4543878  17.2625573  37.3799216  91.9390006  16.7789613
  37.9101710  91.7013099  18.1768951  29.7867840  80.9898231  20.9667573
  29.8251940  80.4561822  21.7604691  29.2808133  80.4633437  20.3478551
  33.4176418  79.7162333  14.0421505  33.7129859  78.8073012  13.9888558
  32.5164453  79.6950073  13.7202507  35.1464259  77.3976431  14.1660830
  34.8176965  76.5173810  13.9835936  35.5003630  77.3424100  15.0537219
  38.2606082  77.6849401  14.5336308  38.6002155  78.2135322  13.8114916
  38.7078203  78.0229807  15.3094874  40.2474230  76.1824022  12.7329600
  40.9682592  76.5605275  12.2293317  39.6239534  76.9012899  12.8364578
  47.7873276  90.3745560  15.1182780  47.9610154  89.8091982  14.3656632
  48.2802167  91.1746455  14.9362270  48.7748449  89.6912324  12.2179678
  49.4699353  90.3119017  12.4366993  49.1171599  88.8407676  12.4932056
  50.6739872  87.1412030  13.7467009  51.1991196  87.4799303  13.0216329
  50.5862224  86.2059045  13.5630143  34.8372872  89.3995554  18.1086890
  35.6630891  89.0999326  17.7285533  34.4866924  88.6303176  18.5576679
  33.0381477  87.3181880  19.0675824  32.2013385  86.8904055  18.8859825
  33.0105122  87.5114324  20.0046615  39.3667912  87.3025946  13.6543024
  39.5156032  87.9861410  13.0009697  40.1734355  87.2831036  14.1692480
  37.1220545  83.3291123  14.6604093  36.8766587  82.4253453  14.8584303
  37.2916459  83.3308274  13.7183571  36.3916192  79.0619481  12.1590254
  35.6985437  79.1363836  11.5030290  36.1467944  78.2979824  12.6811771
  42.8663317  89.7974076  11.1254772  42.2937284  90.4164263  10.6725243
  43.4396111  90.3473438  11.6594693  46.0860577  90.0811226  12.2563354
  47.0191250  90.0156788  12.4596229  45.9983790  90.9167493  11.7977886
  48.7148594  89.3977097   9.2167301  48.6362225  89.0636960  10.1103059
  49.5358260  89.8898864   9.2158774  43.2510116  81.1334889   8.4670824
  44.1969220  81.0041097   8.5359242  42.8724361  80.3949551   8.9440252
  41.4353033  79.0584865   8.4025709  40.5284488  78.7617978   8.4788423
  41.7129014  78.7614683   7.5359995  40.2051817  75.9171800   8.5437688
  41.0670981  76.2426699   8.8033506  40.3902162  75.1303296   8.0310754
  35.1493582  91.5308168  19.8300704  35.0148050  90.7708569  19.2638702
  34.7325645  92.2549068  19.3629493  46.2852545  86.7145092   8.8377280
  46.9888395  86.9195094   9.4534935  45.5615194  87.2821854   9.1026363
  47.1150356  82.4654953  14.9579550  47.0585557  82.9223505  14.1187182
  47.6678698  81.7045638  14.7802393  38.3062708  92.4277485  20.0419147
  38.1895092  93.3722918  19.9397837  37.4855154  92.1251047  20.4304946
  48.1939243  87.1527621  10.8875740  49.0284847  86.7208820  10.7053215
  48.0323586  86.9809635  11.8152634  47.8485135  83.6559734  12.2532079
  47.7933939  83.4904006  11.3120523  47.2231190  84.3635767  12.4094269
  56.8223518  97.6697272  20.9830916  57.4601928  97.5504020  20.2794257
  56.7044361  98.6178116  21.0418869  53.6313224  97.6224700  20.9192441
  53.2931736  97.5065765  20.0312976  54.5002992  97.2215865  20.8993447
  49.4900040  99.4760177  16.9089332  48.9264905  99.3850114  16.1405620
  49.3752435  98.6560081  17.3891825  54.1133007  98.7759552  26.8778647
  54.1021648  98.3812350  26.0059150  54.2753647  98.0425625  27.4712418
  47.0364472 100.9711368  19.7473553  47.8285764 100.6302193  19.3319852
  47.2761122 101.0806343  20.6675706  55.0699599 103.1431144  12.2203797
  54.4187578 103.7285225  11.8337811  55.8643961 103.6737339  12.2798835
  48.9955226 100.2320282  12.6190931  49.7686102  99.6849269  12.4803807
  49.3480625 101.0964531  12.8305393  50.8340268 101.5596664  25.8257831
  50.5430134 102.4642295  25.7104497  51.4697253 101.6013191  26.5401900
  51.7596475  98.9373512  22.4159190  52.3560047  98.7129535  21.7016153
  51.8171447  98.1958258  23.0184638  51.3321504  96.3912948  10.2509381
  51.5847024  95.8694469   9.4892844  50.3946063  96.2279093  10.3536065
  56.3764786  95.3948726  18.0584125  57.1627876  94.9768149  17.7074542
  56.6403491  96.2994818  18.2265773  56.5474864 100.8321576  12.7572781
  55.9120697 100.9056203  13.4693686  56.2172270 101.4215175  12.0791861
  61.7773213  95.3323959  18.9617103  62.5098385  94.7623176  19.1954933
  61.0212569  94.9445560  19.4023609  51.0517792  98.2941054  12.4533756
  50.9354050  97.6185957  13.1214841  51.1620052  97.8073428  11.6365909
  53.3949333  97.7551201  16.1580445  53.0307540  97.2281822  16.8693367
  54.2516449  97.3649670  15.9846931  53.0354820  92.7841100  11.1541794
  53.2029223  93.6521337  11.5212265  52.8451989  92.9468382  10.2303083
  55.7930153 101.2458079  22.8207624  55.4930876 102.1483118  22.7123432
  55.4481213 100.9790263  23.6728777  49.2442635  97.6971876  18.8544329
  48.3193131  97.5648090  19.0622021  49.4927048  98.4766095  19.3514271
  59.1927297  93.7640620  20.5005062  58.2844174  93.6956028  20.2063823
  59.1414893  94.2412565  21.3286887  53.0144041  95.2398758  12.1388461
  52.8943666  95.6855809  12.9773941  52.3196629  95.5884076  11.5801999
  46.6051446  97.3405150  19.6888118  46.7343827  97.5939629  20.6027530
  45.9248897  97.9332858  19.3692773  50.7750933 108.0102400  15.7878592
  50.6974963 108.9610225  15.8667073  50.1712577 107.6648272  16.4453518
  53.2668163  95.1830265  28.4439959  52.4901497  95.7424185  28.4342824
  53.9058726  95.6687048  28.9654829  61.0588944  91.9657058  22.2782936
  60.4163324  92.2589591  21.6322730  60.5543872  91.8509978  23.0836132
  58.7129107  95.7120231  12.9668795  59.6246963  95.9447618  12.7916492
  58.2038754  96.2957275  12.4043873  51.5214535  97.9915719  28.0057926
  52.2629220  98.5300762  27.7292750  50.8151521  98.6182007  28.1629478
  56.9969875 100.1344859  26.6030087  57.4053231  99.6927270  25.8584720
  56.2747136  99.5597487  26.8564280  53.3500945  95.0717466  23.9763644
  54.1962140  95.4956879  24.1198293  53.2899583  94.4151090  24.6702208
  57.3198690 100.6946050  20.3582376  56.6907552 100.8591764  19.6558444
  56.9324352 101.1087659  21.1293340  61.1987921 101.6300487  17.7126740
  60.5138960 102.0099389  17.1623773  61.2831771 102.2395814  18.4458688
  56.5000390  92.7321834  25.6344818  56.2561322  93.4863895  25.0979094
  56.7760321  93.1107182  26.4692065  58.4538853  99.2760446  24.3122084
  58.6655748  99.9192206  23.6356465  58.4068601  98.4422763  23.8444014
  52.8726651 100.4320458  17.6232461  53.3364997 100.7108161  16.8337084
  52.6083449  99.5303902  17.4405552  49.7650732  99.9791939  20.5612225
  50.3352090 100.4079208  19.9229709  50.3558844  99.6974524  21.2596410
  51.8095537  96.5543610  14.4322027  52.5119581  97.0064654  14.8995953
  51.4776166  95.9127429  15.0601920  59.5684681 102.1532402  22.4844441
  60.3902125 101.7512589  22.2027123  59.5647084 102.0500636  23.4360557
  47.5035617  95.1771742  16.6922637  46.7066780  95.2890436  17.2106133
  47.2761209  95.5158394  15.8263527  53.3341284 101.7016445  24.6405151
  53.3985717 102.1636852  25.4763323  52.6252208 101.0713810  24.7687461
  67.6590674  98.4971150  18.8329412  66.9054382  97.9278548  18.6773417
  67.7938215  98.4633815  19.7800047  53.0489302 103.3684553  14.5084132
  52.9134977 104.2136088  14.9368980  53.5899115 103.5703830  13.7450066
  46.5018699 100.8859991  15.0812057  47.0143220 101.6803241  15.2317622
  47.1541412 100.1886281  15.0145658  48.3113584 104.0025747  17.1634810
  48.4880212 104.9243712  16.9755794  49.1070418 103.6884166  17.5929190
  54.6757778 103.9908119  28.6384474  54.2321633 103.2044498  28.3205378
  55.3374992 104.1787270  27.9728365  49.4344900 105.5203921  23.1645152
  49.9852325 105.3920984  22.3922146  48.5956376 105.8198810  22.8140045
  56.7739017 104.2710919  26.6665875  56.7557492 105.0919800  26.1746144
  57.6958937 104.1464994  26.8916016  53.2312071 101.7855049  27.5089384
  53.7640407 101.0243337  27.2788691  52.7026152 101.4928700  28.2513538
  44.4667616  99.2148645  15.8571627  45.3042838  99.6245653  15.6405335
  44.6445884  98.2748087  15.8271821  56.3632048  96.8823726  11.5455460
  55.8478672  97.6528330  11.7843848  56.0909357  96.2088862  12.1688522
  61.3366322  99.6356080  13.4808634  60.5595765  99.2967240  13.0363796
  62.0157803  99.6408703  12.8063599  56.1518352  94.7550818  13.3715242
  55.8468487  95.0696967  14.2225385  57.1048794  94.8332238  13.4142575
  54.5964783 100.9141041  15.0208196  54.0686145 100.1793801  14.7081433
  54.0952286 101.6915717  14.7748164  59.5757629  99.1090062  20.1375242
  58.9181304  99.7989323  20.2255370  60.3798029  99.4986494  20.4809228
  58.3863088  97.4634434  18.1879184  58.8994970  98.0964426  18.6900893
  59.0364312  96.8635630  17.8222544  49.6553098  93.6065168  11.4010692
  48.8190410  93.9439855  11.7219967  49.5157868  93.4714148  10.4637829
  52.7417384  98.7321251   8.0243169  51.8344445  98.5010505   8.2234318
  53.2388416  97.9358871   8.2117150  54.8643919  94.9383890  20.4337524
  53.9466480  95.1598837  20.2759212  55.2804063  95.0130200  19.5749231
  55.6478967  96.3375306  15.5640204  56.3950786  96.8496703  15.2547326
  55.9170556  96.0159358  16.4244598  53.9205617  98.8333846  12.5467159
  53.0116836  98.5492879  12.6439628  53.9500701  99.2532925  11.6870466
  59.1524884 102.4440436  16.3158326  58.6987212 101.6031346  16.3723517
  58.5218851 103.0801834  16.6533106  58.0957804  93.3732422  17.5458994
  57.3580561  92.8609808  17.8769236  58.3484577  92.9332803  16.7342271
  57.5957824 104.2816932  17.2508144  57.8880798 104.8421990  16.5320510
  58.1056444 104.5745493  18.0061303  44.4893787  96.5539360  16.5282361
  44.2918187  95.9608721  15.8033427  43.9340451  96.2491571  17.2458300
  52.4690511  96.4462467  18.6476954  52.5239121  95.4936303  18.5719431
  51.6581713  96.6021906  19.1318252  53.6181705 100.3742590   9.8855237
  53.1801135  99.6578449   9.4260875  54.3592146 100.6018705   9.3240329
  50.4082871  95.0639527  16.4067333  49.5950736  95.3633697  16.8132525
  50.9041865  94.6695215  17.1241815  52.5591449 105.0597284  18.3401598
  52.5167628 105.2858130  17.4110130  53.4754148 104.8260658  18.4887399
  56.0057083  95.5281351  25.2382227  56.3606470  95.7552824  26.0976693
  56.6529214  95.8599728  24.6159482  61.7354820  98.6499787  15.9431556
  61.5972718  98.8401383  15.0152745  61.3791038  99.4119170  16.3999607
  61.7624199 100.7176314  20.9542827  62.1960706 100.6251603  21.8025881
  62.4755780 100.6933814  20.3162843  50.6757250 101.9360313  18.1363560
  51.4697848 101.4410633  17.9346135  49.9648942 101.4078176  17.7731266
  55.4952094 104.3178408  22.4875928  55.5489116 104.8869344  23.2553644
  54.6266875 104.4880293  22.1229965  46.9840013  96.0803394  14.2123313
  46.0537601  96.0187850  14.4293275  47.0797485  95.5579347  13.4159954
  62.6239749 100.7600015  23.4875713  62.8175639 101.6645825  23.7334988
  62.5240367 100.3007434  24.3214298  57.6854857 100.9106757  29.0616593
  57.5340364 100.6817309  28.1446677  57.6759537 101.8677359  29.0747938
  54.4540194  98.4838670  24.0462860  55.3832254  98.6349830  23.8731827
  54.0331224  98.5722691  23.1911506  53.2528526 102.5089335  21.8161397
  53.1139611 102.1408119  22.6887335  52.4643122 103.0236974  21.6445355
  53.8476678 107.6098431  13.1586934  54.0228433 107.1386474  13.9732557
  53.1609466 108.2364197  13.3868195  54.8033741 101.8870937  19.2050235
  54.4683573 101.8471707  20.1007885  54.3037686 101.2215653  18.7320645
  59.3947064 103.9425880  27.1393075  59.3359610 103.2585100  26.4723658
  59.7966582 104.6844870  26.6873701  48.4137763 110.7587794  19.9326794
  48.6534361 111.3906318  20.6105813  47.5706959 110.4075834  20.2192153
  49.5291478  93.4512396   8.6008599  48.6520945  93.3301197   8.2370846
  50.0049231  92.6598474   8.3487488  59.3964471 101.9065464  25.3707055
  58.5091250 101.5691386  25.4933454  59.9663022 101.1748495  25.6075820
  41.0493618  98.2389556  18.6950106  41.7364658  97.9251286  18.1071122
  40.8941747  99.1430920  18.4217358  52.9265625 106.5666916  22.3368298
  52.8535796 107.3721888  22.8487603  52.4843018 106.7658882  21.5116319
  52.7155404 105.8038686  15.8471120  51.9322926 106.3460366  15.9409344
  53.4148150 106.3212666  16.2465361  63.8781812  97.3173681  20.1323616
  63.8671688  98.1998397  19.7617550  63.0099191  96.9645232  19.9378154
  55.3864308 106.4653750  24.4926457  56.0992280 107.1001215  24.4202358
  54.8954337 106.5617616  23.6766459  57.1081835 100.3705003  16.0643748
  56.1738114 100.4906465  15.8948453  57.2858504  99.4677470  15.8003758
  60.4954387  96.2122322  16.5993783  60.9614839  97.0450314  16.5254085
  60.9461887  95.7467304  17.3039041  50.4376222 104.2148194  25.3132028
  51.1385681 104.8484677  25.4661422  49.9671337 104.5562925  24.5527667
  58.5630618 102.5566143  13.5979935  58.8390462 102.4422738  14.5073809
  57.6935116 102.1583628  13.5592108  58.2377508  96.7692801  23.1384578
  57.5848958  97.0168709  22.4837031  58.6157888  95.9556939  22.8047055
  55.1984682 106.8052494  17.2412748  55.3807076 105.9874150  17.7040501
  56.0217668 107.0220187  16.8037638  55.5326847 105.7320679  14.5027797
  56.0614614 105.2213134  13.8897959  55.7955067 105.4163210  15.3673330
  54.2865081  97.5112612  29.6250615  53.6105718  97.4106742  30.2952990
  55.1092715  97.3551826  30.0886612  46.0343940 103.7484549  22.2463130
  46.6197377 103.0028237  22.3791034  45.8368778 104.0588505  23.1299794
  48.8882595 106.7835796  17.2625573  48.2192970 107.2681924  16.7789613
  48.7495465 107.0305017  18.1768951  40.6261595  96.3190149  20.9667573
  40.6645694  95.7853740  21.7604691  40.1201887  95.7925354  20.3478551
  53.0287864 108.8179540  23.8608231  53.5806172 108.9811161  24.6257316
  53.3694057 109.4083977  23.1888256  57.8798738 103.6440797  29.7156885
  58.4238642 104.2570755  29.2211840  57.2985583 104.2020376  30.2323898
  44.2570172  95.0454251  14.0421505  44.5523613  94.1364929  13.9888558
  43.3558208  95.0241991  13.7202507  56.1656251 106.7661515  20.8471913
  56.0407390 105.9651255  20.3382859  56.8235342 107.2607709  20.3585883
  58.2291159 104.5670535  22.4751463  57.2821495 104.4475886  22.4029790
  58.5773932 103.6793033  22.5577725  45.9858014  92.7268349  14.1660830
  45.6570720  91.8465728  13.9835936  46.3397384  92.6716017  15.0537219
  55.2337593 104.3623251  18.6755815  55.0862555 103.4339959  18.8563385
  56.0591086 104.3843342  18.1912891  49.0999837  93.0141319  14.5336308
  49.4395909  93.5427240  13.8114916  49.5471957  93.3521725  15.3094874
  58.8371714 105.1851810  19.7620688  59.7618262 104.9794672  19.6245139
  58.6687018 104.9368211  20.6710030  51.0867984  91.5115940  12.7329600
  51.8076347  91.8897193  12.2293317  50.4633288  92.2304817  12.8364578
  55.2299107  92.2161089  13.6687933  55.4462721  93.0985727  13.3676761
  54.7493174  91.8247303  12.9393575  58.6267031 105.7037478  15.1182780
  58.8003908 105.1383900  14.3656632  59.1195922 106.5038373  14.9362270
  44.4443990  97.7152147  23.1846338  43.8997459  98.4911955  23.3166613
  45.3223340  98.0622951  23.0265460  51.2331607  91.0463731  15.5627137
  51.3547518  90.1180377  15.7618024  50.9433649  91.0602417  14.6505452
  64.4806422  98.4673901  16.7373079  64.9237568  97.7181226  16.3392203
  63.6032932  98.4584037  16.3546811  53.1753675 106.3838021  25.8756885
  53.4840801 106.1387168  26.7479585  53.9729157 106.5884660  25.3875756
  53.1974287 108.5375931  18.1062262  52.7579277 108.0452310  18.7995119
  53.9482404 107.9948899  17.8654337  45.6766626 104.7287472  18.1086890
  46.5024646 104.4291244  17.7285533  45.3260678 103.9595094  18.5576679
  50.6448159 104.0813940  20.1784564  50.0228168 103.4184645  19.8786791
  51.3153026 104.1075072  19.4958211  43.8775231 102.6473798  19.0675824
  43.0407139 102.2195973  18.8859825  43.8498876 102.8406242  20.0046615
  61.2027532 103.1036851  29.0518207  60.4123076 103.0860990  28.5122706
  60.9660887 103.6425145  29.8067243  61.3225407  99.9529318  26.3650935
  61.3723412  99.7879325  27.3066458  61.2139331  99.0856577  25.9748816
  50.2061666 102.6317863  13.6543024  50.3549786 103.3153328  13.0009697
  51.0128110 102.6122953  14.1692480  58.6129170  95.9360246  27.6810242
  59.5139033  95.7966710  27.3894240  58.6877144  96.1014700  28.6208419
  62.8243604 102.3726259  26.6092957  62.5328413 102.7356240  27.4456418
  62.2115735 101.6593267  26.4306289  64.0239287  99.9379139  19.1295527
  64.8586178 100.3768943  19.2933087  64.1598415  99.4617792  18.3103773
  61.0730792  97.4958874  25.0773015  61.5484914  97.6886520  24.2691866
  60.1496358  97.5518060  24.8316398  47.9614299  98.6583041  14.6604093
  47.7160341  97.7545371  14.8584303  48.1310214  98.6600191  13.7183571
  47.2309947  94.3911399  12.1590254  46.5379192  94.4655753  11.5030290
  46.9861698  93.6271742  12.6811771  59.7732461  94.3724634  23.3101320
  60.7249884  94.4722731  23.3313544  59.6035912  93.5802902  23.8199405
  62.2520539  97.5930754  22.4243620  62.2196859  96.6546754  22.6103304
  62.8621163  97.6714790  21.6909445  54.0903870  96.4626806   8.4670824
  55.0362975  96.3333015   8.5359242  53.7118115  95.7241468   8.9440252
  62.4015028  94.3841797  22.4701903  61.8854076  93.6000254  22.2831832
  63.2854976  94.0560514  22.6348423  68.0697089  98.6546760  21.5649657
  68.8000478  98.3932048  22.1257360  67.4604035  97.9175482  21.6051725
  66.1512386  96.7954623  22.1624108  65.4245550  96.6610588  21.5540600
  65.7359673  97.1031452  22.9680826  53.9742563 100.5144553  29.9271481
  54.8945572 100.6923152  30.1211528  53.9392146  99.5700598  29.7751180
  52.2746787  94.3876783   8.4025709  51.3678243  94.0909896   8.4788423
  52.5522768  94.0906601   7.5359995  43.1924728  95.7083146  18.8524756
  42.8727512  94.8548454  18.5599130  42.6458156  95.9231724  19.6082723
  51.0445572  91.2463718   8.5437688  51.9064736  91.5718616   8.8033506
  51.2295916  90.4595214   8.0310754  43.0612988  99.3286058  20.8217877
  42.3676459  98.9140011  20.3087832  43.8085979  99.3706594  20.2251296
  59.1978208  90.1192245  15.6872911  58.6176877  90.7777049  15.3050964
  58.9314141  89.2969589  15.2760329  57.6481775  89.5197302  17.8894232
  58.1481553  89.6313837  17.0808551  58.2917383  89.2158355  18.5295040
  51.7063771  97.4275932  30.7762073  51.2230852  98.2276292  30.9825962
  51.7924710  97.4383877  29.8229517  44.9749730  99.2604312  18.6983892
  44.9520418  99.3591999  17.7465775  45.2850367 100.1069462  19.0201058
  47.6337108 101.3180467  22.8130507  48.5880362 101.2864409  22.7460438
  47.4349632 100.8571090  23.6280732  57.9803086  92.2792335  14.7429260
  57.0928941  92.5641986  14.5249454  58.3957075  92.1186098  13.8956537
  61.3317623  92.3038856  18.4583599  62.1078013  92.7935308  18.7308216
  60.6065757  92.7296910  18.9155468  63.7690181  93.0166475  19.5157540
  64.3634672  92.7762211  18.8050848  63.8416765  92.2973606  20.1431076
  45.9887337 106.8600086  19.8300704  45.8541805 106.1000487  19.2638702
  45.5719399 107.5840986  19.3629493  57.9544110  97.7946871  14.9579550
  57.8979312  98.2515422  14.1187182  58.5072453  97.0337555  14.7802393
  61.7648916  93.5836603  15.7829669  61.5085850  93.1833238  16.6137877
  61.1401784  94.2980397  15.6579809  66.0761254  96.3232676  18.2900961
  65.5160812  96.3925865  19.0632523  65.4704757  96.1473661  17.5700457
  49.1456463 107.7569403  20.0419147  49.0288847 108.7014836  19.9397837
  48.3248909 107.4542965  20.4304946  58.6878889  98.9851652  12.2532079
  58.6327693  98.8195924  11.3120523  58.0624945  99.6927685  12.4094269
  56.0024797 101.2900564  31.5785642  56.8715956 101.4641216  31.2172277
  55.5231548 102.1094981  31.4561371  51.9975015  88.4859761  11.8317397
  51.9853685  89.4301601  11.9885668  52.8898437  88.3029907  11.5376859
  50.1710977 108.4097665  23.2575075  51.0738224 108.4421275  23.5741570
  49.9448347 107.4798116  23.2721411  51.9264579 107.1628652  19.9185154
  50.9760210 107.1630513  19.8049526  52.2297065 106.4161386  19.4021189
  64.4706979 112.9516618  20.9192441  64.1325490 112.8357683  20.0312976
  65.3396747 112.5507783  20.8993447  64.9526762 114.1051470  26.8778647
  64.9415402 113.7104268  26.0059150  65.1147401 113.3717542  27.4712418
  61.6734023 116.8888582  25.8257831  61.3823889 117.7934212  25.7104497
  62.3091007 116.9305109  26.5401900  62.5990230 114.2665430  22.4159190
  63.1953802 114.0421452  21.7016153  62.6565201 113.5250176  23.0184638
  70.1392388 104.3737451  23.4211712  69.8075713 105.2432862  23.1972927
  69.5438002 104.0573735  24.1005742  60.0836389 113.0263794  18.8544329
  59.1586886 112.8940008  19.0622021  60.3320803 113.8058013  19.3514271
  70.0321052 109.0932537  20.5005062  69.1237929 109.0247946  20.2063823
  69.9808647 109.5704482  21.3286887  57.4445200 112.6697067  19.6888118
  57.5737582 112.9231546  20.6027530  56.7642652 113.2624775  19.3692773
  64.1061917 110.5122183  28.4439959  63.3295251 111.0716103  28.4342824
  64.7452480 110.9978966  28.9654829  71.8982698 107.2948976  22.2782936
  71.2557078 107.5881509  21.6322730  71.3937627 107.1801896  23.0836132
  62.3608290 113.3207636  28.0057926  63.1022974 113.8592680  27.7292750
  61.6545275 113.9473925  28.1629478  67.8363629 115.4636777  26.6030087
  68.2446985 115.0219187  25.8584720  67.1140891 114.8889404  26.8564280
  64.1894699 110.4009383  23.9763644  65.0355895 110.8248797  24.1198293
  64.1293337 109.7443008  24.6702208  67.3394145 108.0613752  25.6344818
  67.0955077 108.8155812  25.0979094  67.6154075 108.4399099  26.4692065
  69.2932608 114.6052364  24.3122084  69.5049503 115.2484124  23.6356465
  69.2462356 113.7714681  23.8444014  66.8958836 107.2170185  21.2158656
  66.0343315 107.5151438  21.5075393  66.9221271 107.4340584  20.2839688
  61.0969653 110.4747284  28.8073236  60.4668314 111.1563565  29.0408633
  60.9905741 110.3630366  27.8626374  56.3914626 110.1419080  19.7339160
  55.6013680 110.3976609  19.2579271  56.8825873 110.9567418  19.8391201
  64.1735039 117.0308363  24.6405151  64.2379471 117.4928770  25.4763323
  63.4645963 116.4005728  24.7687461  54.6752329 110.3949571  22.1654151
  54.9260367 111.2796581  22.4311727  55.2111877 110.2154172  21.3929243
  60.3750396 104.7768050  31.1698487  59.9817342 104.2234249  31.8446131
  61.1916537 105.0878629  31.5605005  63.2918357 106.1925929  28.7618744
  64.0328071 106.7933082  28.6823206  63.5236280 105.4503567  28.2036786
  58.4359695 111.3782297  27.0396973  58.3213210 110.4767554  27.3404072
  57.5804213 111.6245993  26.6881790  65.5151533 119.3200037  28.6384474
  65.0715387 118.5336415  28.3205378  66.1768747 119.5079187  27.9728365
  67.6132771 119.6002837  26.6665875  67.5951246 120.4211718  26.1746144
  68.5352691 119.4756912  26.8916016  64.0705825 117.1146966  27.5089384
  64.6034162 116.3535254  27.2788691  63.5419906 116.8220618  28.2513538
  67.2375520 102.2207032  23.0383025  66.8939790 103.1108674  22.9622136
  67.6054483 102.0308690  22.1752610  66.3172061 104.5911687  21.0032259
  65.8136856 104.5541823  20.1900064  66.6102667 105.5004430  21.0628915
  62.5614946 104.6750417  20.0098440  63.4267943 104.4793226  19.6504330
  62.6292455 104.4460769  20.9367797  60.1677265 106.9052625  17.3814807
  60.7421017 106.6827807  16.6488000  60.7548248 106.9741320  18.1343408
  62.4699933 103.7793874  16.1089876  61.8164346 103.4642891  15.4846491
  62.4280407 103.1569614  16.8349699  65.7037674 110.2675807  20.4337524
  64.7860235 110.4890755  20.2759212  66.1197817 110.3422118  19.5749231
  69.0363186 101.4800591  18.1400763  69.3422063 100.6197955  17.8526678
  69.7615791 102.0718212  17.9399757  55.3287542 111.8831278  16.5282361
  55.1311942 111.2900639  15.8033427  54.7734206 111.5783488  17.2458300
  66.8450837 110.8573269  25.2382227  67.2000225 111.0844742  26.0976693
  67.4922968 111.1891646  24.6159482  60.7390700 107.9649800  22.0228568
  61.3790080 107.8238559  21.3251531  59.9068231 107.6784313  21.6467170
  57.7419317 107.9350125  16.8001555  58.0026134 108.8495458  16.6910715
  58.5636489 107.4674567  16.9498167  59.2144242 109.3487882  23.9700379
  59.8867295 109.1405244  23.3213028  58.3874028 109.1509968  23.5305611
  65.1169814 105.9749823  25.9866040  64.4697729 106.6739773  25.8930516
  65.8870829 106.4085967  26.3542288  68.5248612 116.2398675  29.0616593
  68.3734118 116.0109227  28.1446677  68.5153291 117.1969276  29.0747938
  65.2933948 113.8130588  24.0462860  66.2226008 113.9641747  23.8731827
  64.8724978 113.9014609  23.1911506  59.6171739 112.6230485  24.7302816
  59.4791537 111.8910724  25.3314355  60.5276663 112.5339385  24.4487004
  62.2454040 112.3350444  24.2186496  62.9553658 111.6943636  24.1773114
  62.2023348 112.5863339  25.1412677  60.9582974 109.3215662  26.0382135
  60.4220331 108.8706401  26.6903732  60.3699682 109.4561571  25.2952600
  70.2358226 117.2357382  25.3707055  69.3485005 116.8983303  25.4933454
  70.8056777 116.5040413  25.6075820  51.8887373 113.5681473  18.6950106
  52.5758413 113.2543203  18.1071122  51.7335502 114.4722838  18.4217358
  56.6922095 108.4571670  23.1235130  56.6080284 107.8497339  22.3885540
  55.8704801 108.9480688  23.1244626  66.8645809 106.9425233  18.4905325
  67.3614508 106.1895196  18.1706395  66.0932790 106.9789550  17.9248534
  63.4480778 109.0842616  18.2177010  63.0778565 108.5313657  18.9057915
  63.9439870 108.4800750  17.6652010  61.2769976 119.5440111  25.3132028
  61.9779436 120.1776594  25.4661422  60.8065091 119.8854843  24.5527667
  69.3064804 103.9094827  20.6384684  68.3927884 104.1399054  20.8066891
  69.7357905 103.9933271  21.4898716  69.0771262 112.0984719  23.1384578
  68.4242712 112.3460626  22.4837031  69.4551642 111.2848857  22.8047055
  65.1258835 112.8404530  29.6250615  64.4499472 112.7398659  30.2952990
  65.9486469 112.6843744  30.0886612  56.8737694 119.0776466  22.2463130
  57.4591131 118.3320154  22.3791034  56.6762533 119.3880423  23.1299794
  51.4655349 111.6482067  20.9667573  51.5039449 111.1145657  21.7604691
  50.9595642 111.1217272  20.3478551  58.8446111 106.4946607  24.4630116
  58.9087438 107.3561438  24.0507513  58.7813232 105.8820609  23.7302474
  58.3198384 108.5669740  28.1103150  58.9470423 108.1846817  28.7240674
  57.4626303 108.3483942  28.4758842  68.7192492 118.9732715  29.7156885
  69.2632396 119.5862673  29.2211840  68.1379337 119.5312293  30.2323898
  58.6258174 108.4502165  20.0249053  57.9044759 109.0638133  19.8856527
  59.4151429 108.9859930  19.9465699  61.4284487 105.7856592  26.2989705
  61.9518889 106.0318888  27.0616014  61.2096820 106.6176627  25.8792842
  62.6337032 106.7270287  23.9839376  62.2933853 105.9278100  24.3860056
  61.9276038 107.0271998  23.4116209  63.2853504 103.8119599  22.4366699
  64.1079573 103.3380078  22.3145589  63.5291568 104.5910083  22.9365385
  60.8092083 110.5038720  20.2458677  60.6636664 110.8179023  21.1382959
  60.3317286 111.1223620  19.6929576  62.6688466 107.4941268  20.2939567
  62.6550034 106.5982361  19.9571865  63.3860894 107.5011932  20.9277853
  64.5214596 107.9278608  22.3392694  64.2632374 108.8495679  22.3377025
  63.9899637 107.5309043  23.0293158  55.2837745 113.0444064  23.1846338
  54.7391213 113.8203872  23.3166613  56.1617095 113.3914869  23.0265460
  64.9416552 104.0610559  18.6993857  64.9638249 104.1249892  17.7445836
  65.3584611 103.2215067  18.8934363  56.0703767 112.1713961  26.0776495
  55.3285503 112.3196596  26.6641126  55.7496511 112.4322226  25.2143245
  61.5566441 107.8887646  29.7717070  61.6054597 108.7649768  29.3894839
  62.0988955 107.3465039  29.1988713  72.0421287 118.4328769  29.0518207
  71.2516831 118.4152908  28.5122706  71.8054641 118.9717063  29.8067243
  72.1619162 115.2821235  26.3650935  72.2117167 115.1171243  27.3066458
  72.0533085 114.4148494  25.9748816  69.4522924 111.2652163  27.6810242
  70.3532787 111.1258628  27.3894240  69.5270899 111.4306618  28.6208419
  63.7865730 108.6419018  26.5263428  62.9169039 108.9352584  26.2546017
  64.0225210 109.2259463  27.2470692  71.9124547 112.8250791  25.0773015
  72.3878669 113.0178438  24.2691866  70.9890112 112.8809977  24.8316398
  66.4904763 104.8598635  24.0428849  67.0086707 105.5959662  23.7175337
  66.1359896 105.1662628  24.8775608  66.7417358 101.2798918  19.5629745
  67.0219111 100.6122107  20.1890172  67.5267965 101.4728013  19.0504409
  70.6126216 109.7016551  23.3101320  71.5643639 109.8014649  23.3313544
  70.4429666 108.9094820  23.8199405  68.6340595 106.7872135  23.4960721
  68.0390528 107.0677147  22.8007210  68.3490292 107.2766036  24.2677462
  73.2408782 109.7133715  22.4701903  72.7247831 108.9292171  22.2831832
  74.1248731 109.3852431  22.6348423  70.9019509 103.4574730  18.4297716
  70.7044330 103.1489818  19.3141048  71.5119215 104.1836369  18.5595646
  64.8136317 115.8436470  29.9271481  65.7339327 116.0215069  30.1211528
  64.7785900 114.8992516  29.7751180  54.0318482 111.0375064  18.8524756
  53.7121266 110.1840372  18.5599130  53.4851910 111.2523642  19.6082723
  57.8098390 113.7537505  22.5694262  58.0284399 114.6854613  22.5882296
  58.2224163 113.3945479  23.3549066  66.6593156 103.3383637  16.1794247
  67.2124194 103.7579090  16.8384270  66.8963242 102.4119385  16.2217203
  62.6826255 109.3270711  31.9597011  62.5822982 110.2765068  31.8909102
  62.4647797 108.9988950  31.0873081  53.9006742 114.6577975  20.8217877
  53.2070214 114.2431928  20.3087832  54.6479733 114.6998512  20.2251296
  62.5457525 112.7567850  30.7762073  62.0624607 113.5568210  30.9825962
  62.6318464 112.7675794  29.8229517  55.8143485 114.5896229  18.6983892
  55.7914173 114.6883917  17.7465775  56.1244121 115.4361380  19.0201058
  58.4730863 116.6472384  22.8130507  59.4274116 116.6156327  22.7460438
  58.2743386 116.1863008  23.6280732  59.0630245 115.2173500  25.3801304
  59.8823134 115.7117579  25.4036141  59.3367052 114.3005468  25.3518872
  54.3165159 109.5511634  26.0793501  54.9624023 109.0410588  26.5680726
  54.1082310 110.2880316  26.6536927  66.8418551 116.6192482  31.5785642
  67.7109711 116.7933134  31.2172277  66.3625303 117.4386898  31.4561371
  66.6520889 100.4094455  16.0863334  65.8853285  99.8552942  16.2320017
  67.0631594 100.4816324  16.9477486  58.6562650 106.6979251  30.1768515
  59.5194111 106.3416056  30.3871840  58.0828061 106.3593146  30.8643920
  71.2144151 120.1059968  31.1698487  70.8211096 119.5526166  31.8446131
  72.0310291 120.4170546  31.5605005  73.5220009 124.6562628  31.9597011
  73.4216736 125.6056985  31.8909102  73.3041552 124.3280867  31.0873081
  69.4956404 122.0271169  30.1768515  70.3587866 121.6707974  30.3871840
  68.9221815 121.6885064  30.8643920  25.3617476  34.6627167  16.4402192
  25.9057380  35.2757125  15.9457147  24.7804321  35.2206745  16.9569205
  28.6846270  34.1223221  15.7763513  27.8941814  34.1047360  15.2368013
  28.4479625  34.6611514  16.5312550  23.4843534  32.3086934  18.3030948
  24.3534694  32.4827586  17.9417583  23.0050286  33.1281350  18.1806678
  35.1436010  44.0175559   7.7076223  35.7814420  43.8982307   7.0039563
  35.0256853  44.9656403   7.7664175  32.4345499  45.1237839  13.6023953
  32.4234140  44.7290638  12.7304457  32.5966139  44.3903912  14.1957725
  29.1552761  47.9074951  12.5503137  28.8642627  48.8120582  12.4349804
  29.7909745  47.9491479  13.2647207  30.0808967  45.2851800   9.1404497
  30.6772540  45.0607822   8.4261460  30.1383939  44.5436545   9.7429945
  40.0985706  41.6802247   5.6862410  40.8310878  41.1101463   5.9200239
  39.3425061  41.2923847   6.1268915  37.6211126  35.3923821  10.1457018
  37.2894451  36.2619232   9.9218233  37.0256739  35.0760105  10.8251049
  34.1142646  47.5936367   9.5452931  33.8143369  48.4961405   9.4368738
  33.7693705  47.3268550  10.3974084  29.0963425  54.3580687   2.5123899
  29.0187455  55.3088512   2.5912379  28.4925069  54.0126559   3.1698825
  31.5880655  41.5308552  15.1685266  30.8113989  42.0902473  15.1588130
  32.2271218  42.0165335  15.6900136  39.3801436  38.3135345   9.0028242
  38.7375816  38.6067878   8.3568037  38.8756364  38.1988266   9.8081439
  29.8427028  44.3394006  14.7303233  30.5841712  44.8779050  14.4538056
  29.1364013  44.9660295  14.8874784  35.3182367  46.4823146  13.3275394
  35.7265723  46.0405557  12.5830026  34.5959629  45.9075774  13.5809587
  31.6713437  41.4195753  10.7008951  32.5174632  41.8435167  10.8443600
  31.6112075  40.7629377  11.3947514  35.6411182  47.0424337   7.0827683
  35.0120044  47.2070051   6.3803751  35.2536844  47.4565946   7.8538647
  39.5200414  47.9778775   4.4372047  38.8351452  48.3577676   3.8869080
  39.6044263  48.5874101   5.1703994  34.8212883  39.0800121  12.3590125
  34.5773814  39.8342182  11.8224400  35.0972813  39.4585469  13.1937372
  36.7751345  45.6238734  11.0367390  36.9868241  46.2670494  10.3601771
  36.7281094  44.7901050  10.5689320  28.5788391  41.4933654  15.5318543
  27.9487052  42.1749935  15.7653939  28.4724479  41.3816736  14.5871681
  37.8897173  48.5010689   9.2089748  38.7114617  48.0990876   8.9272429
  37.8859576  48.3978923  10.1605863  31.6553777  48.0494732  11.3650458
  31.7198209  48.5115140  12.2008630  30.9464701  47.4192097  11.4932768
  45.9803166  44.8449438   5.5574719  45.2266875  44.2756836   5.4018724
  46.1150708  44.8112102   6.5045354  27.8569134  35.7954420  17.8943794
  27.4636080  35.2420618  18.5691438  28.6735274  36.1064998  18.2850311
  30.7737095  37.2112299  15.4864050  31.5146808  37.8119452  15.4068513
  31.0055018  36.4689937  14.9282093  25.9178433  42.3968666  13.7642280
  25.8031948  41.4953923  14.0649379  25.0622951  42.6432363  13.4127096
  32.9970271  50.3386406  15.3629781  32.5534125  49.5522785  15.0450685
  33.6587484  50.5265557  14.6973671  27.7557392  51.8682208   9.8890459
  28.3064817  51.7399271   9.1167453  26.9168868  52.1677097   9.5385352
  35.0951509  50.6189206  13.3911182  35.0769984  51.4398087  12.8991451
  36.0171429  50.4943282  13.6161323  31.5524563  48.1333336  14.2334690
  32.0852900  47.3721624  14.0033998  31.0238644  47.8406988  14.9758845
  37.8970122  45.4568349   6.8620548  37.2393796  46.1467610   6.9500677
  38.7010521  45.8464781   7.2054535  37.4737377  48.7918723   3.0403633
  37.0199704  47.9509633   3.0968823  36.8431343  49.4280121   3.3778413
  35.9170316  50.6295220   3.9753451  36.2093290  51.1900277   3.2565817
  36.4268936  50.9223781   4.7306610  30.8803941  51.4075571   5.0646904
  30.8380120  51.6336417   4.1355436  31.7966640  51.1738945   5.2132705
  34.3269575  41.8759638  11.9627533  34.6818963  42.1031111  12.8221999
  34.9741706  42.2078015  11.3404789  40.0836691  47.0654601   7.6788134
  40.5173198  46.9729890   8.5271188  40.7968272  47.0412102   7.0408150
  33.8164586  50.6656695   9.2121235  33.8701609  51.2347632   9.9798950
  32.9479368  50.8358580   8.8475272  40.9452241  47.1078302  10.2121019
  41.1388131  48.0124112  10.4580294  40.8452859  46.6485721  11.0459604
  32.5988552  36.9936192  12.7111347  31.9516467  37.6926142  12.6175823
  33.3689567  37.4272336  13.0787595  36.0067350  47.2585045  15.7861900
  35.8552856  47.0295596  14.8691984  35.9972029  48.2155646  15.7993245
  32.7752686  44.8316957  10.7708166  33.7044746  44.9828117  10.5977134
  32.3543716  44.9200978   9.9156813  31.5741018  48.8567622   8.5406704
  31.4352104  48.4886406   9.4132642  30.7855614  49.3715261   8.3690662
  33.1246233  48.2349224   5.9295542  32.7896066  48.1949994   6.8253192
  32.6250179  47.5693940   5.4565952  27.0990477  43.6416854  11.4548123
  26.9610275  42.9097093  12.0559662  28.0095400  43.5525755  11.1732311
  29.7272778  43.3536814  10.9431803  30.4372396  42.7130006  10.9018421
  29.6842086  43.6049709  11.8657983  37.7159556  50.2904167  13.8638382
  37.6572102  49.6063387  13.1968965  38.1179075  51.0323157  13.4119008
  28.4401712  40.3402032  12.7627442  27.9039069  39.8892770  13.4149038
  27.8518420  40.4747941  12.0197906  26.7350255  57.1066081   6.6572101
  26.9746853  57.7384605   7.3351119  25.8919452  56.7554121   6.9437460
  37.7176964  48.2543751  12.0952361  36.8303742  47.9169673  12.2178760
  38.2875515  47.5226782  12.3321127  31.2478117  52.9145203   9.0613605
  31.1748288  53.7200175   9.5732909  30.8055510  53.1137169   8.2361626
  42.1994304  43.6651968   6.8568923  42.1884180  44.5476684   6.4862856
  41.3311684  43.3123519   6.6623460  33.7076801  52.8132037  11.2171763
  34.4204773  53.4479502  11.1447665  33.2166829  52.9095903  10.4011765
  28.7588714  50.5626481  12.0377334  29.4598174  51.1962964  12.1906728
  28.2883829  50.9041212  11.2772973  36.5590000  43.1171088   9.8629885
  35.9061450  43.3646996   9.2082337  36.9370380  42.3035227   9.5292362
  33.5197174  53.1530782   3.9658055  33.7019568  52.3352437   4.4285807
  34.3430160  53.3698474   3.5282945  32.6077573  43.8590899  16.3495922
  31.9318210  43.7585029  17.0198297  33.4305207  43.7030113  16.8131919
  24.3556432  50.0962836   8.9708437  24.9409869  49.3506524   9.1036341
  24.1581271  50.4066793   9.8545101  31.3500356  55.1657827  10.5853538
  31.9018664  55.3289448  11.3502623  31.6906549  55.7562265   9.9133562
  25.8017122  39.5856109  14.8348457  26.4289160  39.2033187  15.4485981
  24.9445041  39.3670311  15.2004149  36.2011230  49.9919084  16.4402192
  36.7451134  50.6049043  15.9457147  35.6198075  50.5498663  16.9569205
  34.4868743  53.1139802   7.5717220  34.3619883  52.3129542   7.0628165
  35.1447834  53.6085996   7.0831190  36.5503652  50.9148822   9.1996770
  35.6033987  50.7954174   9.1275097  36.8986425  50.0271321   9.2823031
  28.9103225  36.8042961  13.0235012  29.4337627  37.0505258  13.7861321
  28.6915558  37.6362996  12.6038149  33.5550085  50.7101539   5.4001122
  33.4075047  49.7818246   5.5808692  34.3803578  50.7321629   4.9158197
  37.1584207  51.5330097   6.4865995  38.0830754  51.3272959   6.3490446
  36.9899510  51.2846499   7.3955336  36.9479523  52.0515765   1.8428086
  37.1216400  51.4862187   1.0901939  37.4408414  52.8516660   1.6607576
  42.8018914  44.8152188   3.4618386  43.2450060  44.0659513   3.0637509
  41.9245424  44.8062324   3.0792118  23.5522505  43.1900330  12.8021802
  22.8104241  43.3382966  13.3886432  23.2315249  43.4508596  11.9388551
  31.4966167  52.7316308  12.6002192  31.8053294  52.4865455  13.4724892
  32.2941649  52.9362947  12.1121062  31.5186779  54.8854218   4.8307569
  31.0791770  54.3930597   5.5240425  32.2694896  54.3427186   4.5899644
  28.9660651  50.4292227   6.9029870  28.3440661  49.7662932   6.6032098
  29.6365518  50.4553359   6.2203518  29.0385179  38.9074015  16.4962376
  29.0873334  39.7836138  16.1140146  29.5807693  38.3651408  15.9234019
  39.5240025  49.4515138  15.7763513  38.7335568  49.4339277  15.2368013
  39.2873379  49.9903432  16.5312550  39.6437900  46.3007605  13.0896242
  39.6935905  46.1357612  14.0311765  39.5351823  45.4334864  12.6994123
  36.9341662  42.2838533  14.4055549  37.8351525  42.1444998  14.1139546
  37.0089637  42.4492988  15.3453726  31.2684467  39.6605388  13.2508735
  30.3987777  39.9538954  12.9791323  31.5043948  40.2445833  13.9715998
  41.1456096  48.7204546  13.3338263  40.8540905  49.0834527  14.1701724
  40.5328228  48.0071555  13.1551595  42.3451779  46.2857426   5.8540834
  43.1798670  46.7247230   6.0178394  42.4810908  45.8096079   5.0349079
  39.3943285  43.8437161  11.8018321  39.8697406  44.0364807  10.9937173
  38.4708850  43.8996347  11.5561705  38.0944954  40.7202921  10.0346627
  39.0462377  40.8201019  10.0558851  37.9248404  39.9281190  10.5444711
  36.1159333  37.8058504  10.2206028  35.5209265  38.0863517   9.5252516
  35.8309030  38.2952405  10.9922769  40.5733032  43.9409041   9.1488927
  40.5409352  43.0025041   9.3348610  41.1833655  44.0193077   8.4154751
  40.7227520  40.7320084   9.1947210  40.2066569  39.9478541   9.0077139
  41.6067469  40.4038801   9.3593729  46.3909581  45.0025048   8.2894963
  47.1212970  44.7410336   8.8502667  45.7816527  44.2653770   8.3297031
  44.4724878  43.1432910   8.8869415  43.7458042  43.0088875   8.2785906
  44.0572165  43.4509739   9.6926133  32.2955055  46.8622840  16.6516788
  33.2158064  47.0401439  16.8456834  32.2604638  45.9178885  16.4996487
  30.1644993  40.3457080  18.6842318  30.0641720  41.2951437  18.6154409
  29.9466535  40.0175319  17.8118388  30.0276263  43.7754219  17.5007379
  29.5443345  44.5754579  17.7071268  30.1137202  43.7862164  16.5474823
  25.9549600  47.6658754   9.5375813  26.9092854  47.6342696   9.4705745
  25.7562124  47.2049378  10.3526039  26.5448982  46.2359870  12.1046611
  27.3641871  46.7303949  12.1281448  26.8185790  45.3191838  12.0764178
  24.3099829  53.2078373   6.5546011  24.1754297  52.4478774   5.9884009
  23.8931891  53.9319273   6.0874800  44.3973746  42.6710963   5.0146267
  43.8373304  42.7404153   5.7877829  43.7917250  42.4951948   4.2945764
  27.4668955  54.1047690   6.7664454  27.3501339  55.0493123   6.6643144
  26.6461401  53.8021252   7.1550253  34.3237289  47.6378851  18.3030948
  35.1928449  47.8119504  17.9417583  33.8444040  48.4573268  18.1806678
  28.4923469  54.7575952   9.9820382  29.3950716  54.7899562  10.2986877
  28.2660839  53.8276403   9.9966718  30.2477071  53.5106939   6.6430461
  29.2972702  53.5108800   6.5294833  30.5509557  52.7639673   6.1266495
  26.1381388  37.7165621  16.9013822  27.0012849  37.3602426  17.1117147
  25.5646798  37.3779516  17.5889226  45.9829765  59.3467477   7.7076223
  46.6208175  59.2274225   7.0039563  45.8650608  60.2948321   7.7664175
  42.7919471  59.2994905   7.6437748  42.4537982  59.1835970   6.7558283
  43.6609239  58.8986070   7.6238754  38.6506287  61.1530382   3.6334639
  38.0871152  61.0620319   2.8650927  38.5358682  60.3330286   4.1137131
  43.2739254  60.4529757  13.6023953  43.2627895  60.0582555  12.7304457
  43.4359893  59.7195830  14.1957725  36.1970719  62.6481573   6.4718859
  36.9892010  62.3072398   6.0565159  36.4367369  62.7576548   7.3921013
  44.2305845  64.8201349  -1.0550896  43.5793825  65.4055430  -1.4416883
  45.0250208  65.3507544  -0.9955859  38.1561472  61.9090487  -0.6563762
  38.9292348  61.3619474  -0.7950886  38.5086871  62.7734736  -0.4449301
  39.9946515  63.2366869  12.5503137  39.7036381  64.1412500  12.4349804
  40.6303499  63.2783396  13.2647207  40.9202722  60.6143717   9.1404497
  41.5166294  60.3899740   8.4261460  40.9777693  59.8728463   9.7429945
  40.4927750  58.0683153  -3.0245312  40.7453271  57.5464674  -3.7861849
  39.5552309  57.9049298  -2.9218628  45.5371033  57.0718931   4.7829431
  46.3234122  56.6538354   4.4319848  45.8009737  57.9765023   4.9511080
  45.7081110  62.5091781  -0.5181912  45.0726943  62.5826408   0.1938993
  45.3778517  63.0985380  -1.1962833  50.9379460  57.0094164   5.6862410
  51.6704632  56.4393381   5.9200239  50.1818816  56.6215765   6.1268915
  40.2124039  59.9711259  -0.8220937  40.0960297  59.2956162  -0.1539853
  40.3226299  59.4843633  -1.6388784  42.5555580  59.4321406   2.8825752
  42.1913787  58.9052027   3.5938674  43.4122696  59.0419875   2.7092238
  48.4604881  50.7215738  10.1457018  48.1288205  51.5911149   9.9218233
  47.8650494  50.4052022  10.8251049  44.9536400  62.9228284   9.5452931
  44.6537123  63.8253323   9.4368738  44.6087460  62.6560468  10.3974084
  38.4048882  59.3742081   5.5789635  37.4799378  59.2418295   5.7867327
  38.6533295  60.1536300   6.0759578  48.3533544  55.4410825   7.2250368
  47.4450421  55.3726233   6.9309129  48.3021140  55.9182769   8.0532194
  42.1750288  56.9168963  -1.1366233  42.0549913  57.3626014  -0.2980752
  41.4802876  57.2654281  -1.6952694  35.7657693  59.0175355   6.4133425
  35.8950074  59.2709834   7.3272836  35.0855144  59.6103063   6.0938080
  39.9357180  69.6872605   2.5123899  39.8581210  70.6380430   2.5912379
  39.3318824  69.3418477   3.1698825  42.4274410  56.8600470  15.1685266
  41.6507744  57.4194390  15.1588130  43.0664973  57.3457253  15.6900136
  50.2195190  53.6427263   9.0028242  49.5769571  53.9359796   8.3568037
  49.7150119  53.5280183   9.8081439  47.8735354  57.3890436  -0.3085898
  48.7853210  57.6217823  -0.4838201  47.3645001  57.9727480  -0.8710820
  40.6820782  59.6685923  14.7303233  41.4235466  60.2070967  14.4538056
  39.9757767  60.2952212  14.8874784  46.1576122  61.8115064  13.3275394
  46.5659478  61.3697474  12.5830026  45.4353383  61.2367691  13.5809587
  42.5107192  56.7487671  10.7008951  43.3568387  57.1727084  10.8443600
  42.4505829  56.0921295  11.3947514  46.4804936  62.3716255   7.0827683
  45.8513799  62.5361969   6.3803751  46.0930598  62.7857864   7.8538647
  50.3594168  63.3070692   4.4372047  49.6745206  63.6869594   3.8869080
  50.4438017  63.9166019   5.1703994  45.6606637  54.4092039  12.3590125
  45.4167569  55.1634100  11.8224400  45.9366568  54.7877387  13.1937372
  47.6145100  60.9530651  11.0367390  47.8261995  61.5962411  10.3601771
  47.5674848  60.1192968  10.5689320  45.2171329  53.5648472   7.9403962
  44.3555808  53.8629726   8.2320700  45.2433763  53.7818871   7.0084995
  42.0332898  62.1090663   4.3477768  42.4971244  62.3878366   3.5582391
  41.7689696  61.2074107   4.1650859  38.9256979  61.6562144   7.2857531
  39.4958336  62.0849413   6.6475016  39.5165091  61.3744729   7.9841717
  40.9701784  58.2313815   1.1567333  41.6725828  58.6834859   1.6241260
  40.6382413  57.5897634   1.7847226  39.4182146  56.8225572  15.5318543
  38.7880806  57.5041852  15.7653939  39.3118234  56.7108653  14.5871681
  34.7127118  56.4897368   6.4584467  33.9226172  56.7454896   5.9824577
  35.2038366  57.3045706   6.5636507  48.7290928  63.8302607   9.2089748
  49.5508371  63.4282794   8.9272429  48.7253331  63.7270841  10.1605863
  36.6641864  56.8541947   3.4167943  35.8673027  56.9660641   3.9351439
  36.4367456  57.1928599   2.5508834  42.4947531  63.3786650  11.3650458
  42.5591964  63.8407057  12.2008630  41.7858455  62.7484015  11.4932768
  32.9964821  56.7427858   8.8899458  33.2472860  57.6274868   9.1557034
  33.5324370  56.5632460   8.1174549  56.8196921  60.1741355   5.5574719
  56.0660629  59.6048753   5.4018724  56.9544462  60.1404020   6.5045354
  42.2095549  65.0454758   1.2329438  42.0741224  65.8906293   1.6614286
  42.7505361  65.2474035   0.4695372  38.6962888  51.1246337  17.8943794
  38.3029834  50.5712536  18.5691438  39.5129029  51.4356916  18.2850311
  35.6624946  62.5630196   1.8057364  36.1749467  63.3573446   1.9562928
  36.3147659  61.8656486   1.7390965  37.4719831  65.6795952   3.8880117
  37.6486459  66.6013917   3.7001101  38.2676664  65.3654371   4.3174496
  41.6130849  52.5404217  15.4864050  42.3540563  53.1411370  15.4068513
  41.8448772  51.7981854  14.9282093  36.7572187  57.7260584  13.7642280
  36.6425703  56.8245841  14.0649379  35.9016705  57.9724281  13.4127096
  43.8364025  65.6678324  15.3629781  43.3927879  64.8814703  15.0450685
  44.4981239  65.8557475  14.6973671  38.5951146  67.1974126   9.8890459
  39.1458572  67.0691189   9.1167453  37.7562622  67.4969015   9.5385352
  45.9345263  65.9481124  13.3911182  45.9163739  66.7690005  12.8991451
  46.8565183  65.8235199  13.6161323  42.3918317  63.4625254  14.2334690
  42.9246654  62.7013542  14.0033998  41.8632399  63.1698905  14.9758845
  45.5588012  48.5685319   9.7628332  45.2152282  49.4586961   9.6867442
  45.9266975  48.3786977   8.8997917  33.6273863  60.8918850   2.5816934
  34.4649085  61.3015858   2.3650642  33.8052131  59.9518292   2.5517128
  45.5238295  58.5593931  -1.7299233  45.0084919  59.3298535  -1.4910846
  45.2515604  57.8859067  -1.1066172  43.1085406  53.4043631   3.3286005
  42.2527002  53.0150482   3.1491644  43.5212358  53.4835592   2.4685791
  44.6384553  50.9389975   7.7277565  44.1349348  50.9020110   6.9145370
  44.9315160  51.8482717   7.7874222  40.8827439  51.0228704   6.7343747
  41.7480435  50.8271513   6.3749636  40.9504948  50.7939056   7.6613104
  50.4972569  61.3126285   0.2053940  49.7202012  60.9737445  -0.2390897
  51.1764050  61.3178908  -0.4691094  45.3124598  56.4321023   0.0960548
  45.0074734  56.7467172   0.9470691  46.2655040  56.5102443   0.1387881
  43.7571030  62.5911246   1.7453502  43.2292392  61.8564006   1.4326740
  43.2558533  63.3685922   1.4993470  48.7363876  60.7860267   6.8620548
  48.0787551  61.4759528   6.9500677  49.5404275  61.1756698   7.2054535
  38.4889758  53.2530912   4.1060114  39.0633510  53.0306094   3.3733307
  39.0760740  53.3219607   4.8588715  47.5469335  59.1404639   4.9124490
  48.0601217  59.7734631   5.4146200  48.1970559  58.5405835   4.5467850
  40.7912425  50.1272161   2.8335183  40.1376838  49.8121178   2.2091798
  40.7492900  49.5047902   3.5595006  41.9023630  60.4091456  -5.2511525
  40.9950692  60.1780710  -5.0520376  42.3994662  59.6129076  -5.0637543
  44.8091709  69.1188963  -2.3314839  44.1353408  69.4220660  -1.7229881
  45.1957531  69.9218044  -2.6809382  44.0250166  56.6154095   7.1582831
  43.1072727  56.8369042   7.0004519  44.4410309  56.6900405   6.2994538
  44.8085214  58.0145510   2.2885511  45.5557033  58.5266908   1.9792633
  45.0776803  57.6929563   3.1489905  43.0811864  60.5104051  -0.7287535
  42.1723083  60.2263084  -0.6315065  43.1106948  60.9303130  -1.5884228
  48.3131131  64.1210641   3.0403633  47.8593458  63.2801551   3.0968823
  47.6825098  64.7572039   3.3778413  47.2564051  55.0502627   4.2704300
  46.5186808  54.5380013   4.6014543  47.5090824  54.6103008   3.4587577
  46.7564070  65.9587137   3.9753451  47.0487045  66.5192194   3.2565817
  47.2662691  66.2515698   4.7306610  47.3575678  47.8278879   4.8646070
  47.6634555  46.9676242   4.5771985  48.0828283  48.4196499   4.6645063
  33.6500034  58.2309565   3.2527667  33.4524434  57.6378926   2.5278734
  33.0946698  57.9261775   3.9703606  41.6296758  58.1232672   5.3722261
  41.6845368  57.1706508   5.2964737  40.8187960  58.2792111   5.8563559
  42.7787952  62.0512795  -3.3899456  42.3407381  61.3348654  -3.8493819
  43.5198392  62.2788910  -3.9514365  39.5689118  56.7409731   3.1312640
  38.7556983  57.0403902   3.5377832  40.0648112  56.3465420   3.8487122
  41.7197696  66.7367488   5.0646904  41.6773874  66.9628335   4.1355436
  42.6360394  66.5030863   5.2132705  45.1663329  57.2051556  11.9627533
  45.5212717  57.4323029  12.8221999  45.8135461  57.5369933  11.3404789
  50.8961066  60.3269992   2.6676862  50.7578965  60.5171588   1.7398052
  50.5397285  61.0889375   3.1244914  39.0603192  54.3128087   8.7473874
  39.7002572  54.1716846   8.0496838  38.2280723  54.0262600   8.3712476
  50.9230446  62.3946519   7.6788134  51.3566953  62.3021808   8.5271188
  51.6362027  62.3704019   7.0408150  39.8363496  63.6130517   4.8608867
  40.6304095  63.1180838   4.6591442  39.1255189  63.0848381   4.4976572
  44.6558341  65.9948613   9.2121235  44.7095363  66.5639549   9.9798950
  43.7873122  66.1650498   8.8475272  36.1446260  57.7573599   0.9368620
  35.2143848  57.6958055   1.1538582  36.2403732  57.2349552   0.1405261
  36.0631809  54.2828412   3.5246861  36.3238626  55.1973745   3.4156022
  36.8848981  53.8152855   3.6743474  37.5356734  55.6966169  10.6945686
  38.2079788  55.4883531  10.0458335  36.7086521  55.4988255  10.2550918
  51.7845996  62.4370220  10.2121019  51.9781886  63.3416030  10.4580294
  51.6846614  61.9777639  11.0459604  43.4382306  52.3228110  12.7111347
  42.7910221  53.0218060  12.6175823  44.2083322  52.7564254  13.0787595
  46.8461104  62.5876962  15.7861900  46.6946611  62.3587514  14.8691984
  46.8365784  63.5447564  15.7993245  43.6146441  60.1608875  10.7708166
  44.5438501  60.3120035  10.5977134  43.1937471  60.2492896   9.9156813
  42.4134772  64.1859539   8.5406704  42.2745858  63.8178324   9.4132642
  41.6249369  64.7007179   8.3690662  43.0082924  69.2868636  -0.1167759
  43.1834680  68.8156679   0.6977863  42.3215712  69.9134402   0.1113501
  43.9639988  63.5641142   5.9295542  43.6289820  63.5241912   6.8253192
  43.4643933  62.8985858   5.4565952  37.9384231  58.9708772  11.4548123
  37.8004029  58.2389011  12.0559662  38.8489155  58.8817672  11.1732311
  46.8999179  60.9097176  -3.7967399  46.2828350  60.1844005  -3.8934346
  46.4315668  61.6706537  -4.1400324  40.5666532  58.6828731  10.9431803
  41.2766151  58.0421924  10.9018421  40.5235840  58.9341626  11.8657983
  48.5553311  65.6196085  13.8638382  48.4965857  64.9355305  13.1968965
  48.9572829  66.3615075  13.4119008  39.2795466  55.6693949  12.7627442
  38.7432823  55.2184688  13.4149038  38.6912175  55.8039858  12.0197906
  37.5744010  72.4357999   6.6572101  37.8140608  73.0676523   7.3351119
  36.7313206  72.0846039   6.9437460  48.5570718  63.5835669  12.0952361
  47.6697497  63.2461591  12.2178760  49.1269269  62.8518700  12.3321127
  30.2099865  59.9159760   5.4195413  30.8970905  59.6021491   4.8316428
  30.0547994  60.8201125   5.1462664  35.0134587  54.8049957   9.8480437
  34.9292776  54.1975627   9.1130847  34.1917294  55.2958975   9.8489933
  42.0871872  68.2437121   9.0613605  42.0142043  69.0492093   9.5732909
  41.6449265  68.4429087   8.2361626  41.8761651  67.4808891   2.5716426
  41.0929173  68.0230571   2.6654651  42.5754396  67.9982871   2.9710667
  45.1858301  53.2903521   5.2150632  45.6827001  52.5373483   4.8951702
  44.4145283  53.3267837   4.6493841  53.0388059  58.9943886   6.8568923
  53.0277935  59.8768602   6.4862856  52.1705438  58.6415437   6.6623460
  44.5470555  68.1423955  11.2171763  45.2598527  68.7771420  11.1447665
  44.0560584  68.2387821  10.4011765  46.2688082  62.0475208   2.7889055
  45.3344361  62.1676670   2.6193759  46.4464750  61.1447675   2.5249065
  41.7693270  55.4320904   4.9422316  41.3991058  54.8791944   5.6303222
  42.2652362  54.8279037   4.3897316  49.6560633  57.8892527   3.3239089
  50.1221085  58.7220519   3.2499392  50.1068134  57.4237509   4.0284348
  39.5982469  65.8918399  12.0377334  40.2991928  66.5254882  12.1906728
  39.1277584  66.2333130  11.2772973  47.7236864  64.2336348   0.3225241
  47.9996708  64.1192943   1.2319115  46.8541363  63.8353833   0.2837414
  47.6277296  50.2573114   7.3629990  46.7140376  50.4877341   7.5312197
  48.0570397  50.3411558   8.2144023  47.3983755  58.4463006   9.8629885
  46.7455205  58.6938913   9.2082337  47.7764134  57.6327144   9.5292362
  44.3590928  68.4822699   3.9658055  44.5413323  67.6644355   4.4285807
  45.1823914  68.6990391   3.5282945  44.6933094  67.4090884   1.2273103
  45.2220860  66.8983339   0.6143265  44.9561313  67.0933415   2.0918636
  43.4471328  59.1882817  16.3495922  42.7711965  59.0876946  17.0198297
  44.2698961  59.0322031  16.8131919  35.1950187  65.4254754   8.9708437
  35.7803623  64.6798442   9.1036341  34.9975025  65.7358710   9.8545101
  38.0488842  68.4606001   3.9870879  37.3799217  68.9452129   3.5034919
  37.9101712  68.7075221   4.9014258  29.7867841  57.9960354   7.6912880
  29.8251941  57.4623945   8.4849998  29.2808134  57.4695559   7.0723857
  42.1894110  70.4949745  10.5853538  42.7412418  70.6581366  11.3502623
  42.5300304  71.0854182   9.9133562  37.1658604  52.8424894  11.1875422
  37.2299930  53.7039725  10.7752820  37.1025724  52.2298896  10.4547781
  36.6410876  54.9148027  14.8348457  37.2682915  54.5325104  15.4485981
  35.7838795  54.6962229  15.2004149  47.0404985  65.3211002  16.4402192
  47.5844889  65.9340960  15.9457147  46.4591830  65.8790580  16.9569205
  33.4176419  56.7224456   0.7666811  33.7129860  55.8135134   0.7133865
  32.5164455  56.7012195   0.4447814  45.3262498  68.4431720   7.5717220
  45.2013637  67.6421460   7.0628165  45.9841589  68.9377913   7.0831190
  36.9470666  54.7980453   6.7494360  36.2257252  55.4116420   6.6101833
  37.7363922  55.3338217   6.6711006  47.3897406  66.2440740   9.1996770
  46.4427742  66.1246091   9.1275097  47.7380179  65.3563238   9.2823031
  39.7496979  52.1334879  13.0235012  40.2731381  52.3797176  13.7861321
  39.5309313  52.9654914  12.6038149  35.1464261  54.4038554   0.8906137
  34.8176967  53.5235933   0.7081242  35.5003631  54.3486222   1.7782526
  44.3943839  66.0393456   5.4001122  44.2468802  65.1110164   5.5808692
  45.2197333  66.0613547   4.9158197  38.2606084  54.6911523   1.2581614
  38.6002156  55.2197445   0.5360223  38.7078204  55.0291930   2.0340181
  47.9977961  66.8622015   6.4865995  48.9224509  66.6564876   6.3490446
  47.8293265  66.6138416   7.3955336  40.9549524  53.0748574  10.7084682
  40.6146345  52.2756387  11.1105362  40.2488531  53.3750285  10.1361515
  41.6065996  50.1597887   9.1612005  42.4292066  49.6858365   9.0390896
  41.8504060  50.9388370   9.6610692  40.2474231  53.1886145  -0.5425093
  40.9682593  53.5667398  -1.0461376  39.6239535  53.9075022  -0.4390115
  44.3905354  53.8931294   0.3933239  44.6068968  54.7755932   0.0922067
  43.9099421  53.5017507  -0.3361119  39.1304575  56.8517007   6.9703984
  38.9849156  57.1657310   7.8628265  38.6529779  57.4701908   6.4174883
  40.9900958  53.8419555   7.0184873  40.9762527  52.9460649   6.6817171
  41.7073386  53.8490219   7.6523160  42.8427089  54.2756895   9.0638001
  42.5844866  55.1973966   9.0622331  42.3112129  53.8787330   9.7538465
  47.7873277  67.3807683   1.8428086  47.9610155  66.8154105   1.0901939
  48.2802169  68.1808577   1.6607576  33.6050237  59.3922352   9.9091645
  33.0603705  60.1682160  10.0411919  34.4829587  59.7393156   9.7510767
  40.3937854  52.7233936   2.2872444  40.5153765  51.7950582   2.4863331
  40.1039896  52.7372621   1.3750759  43.2629044  50.4088846   5.4239163
  43.2850741  50.4728179   4.4691143  43.6797103  49.5693355   5.6179670
  53.6412669  60.1444106   3.4618386  54.0843815  59.3951431   3.0637509
  52.7639179  60.1354242   3.0792118  48.7748450  66.6974447  -1.0575015
  49.4699355  67.3181140  -0.8387701  49.1171600  65.8469798  -0.7822638
  34.3916259  58.5192248  12.8021802  33.6497995  58.6674883  13.3886432
  34.0709003  58.7800514  11.9388551  50.6739873  64.1474152   0.4712315
  51.1991197  64.4861425  -0.2538365  50.5862226  63.2121168   0.2875450
  42.3359922  68.0608226  12.6002192  42.6447048  67.8157373  13.4724892
  43.1335404  68.2654865  12.1121062  42.3580534  70.2146136   4.8307569
  41.9185524  69.7222514   5.5240425  43.1088651  69.6719103   4.5899644
  34.8372873  66.4057677   4.8332197  35.6630893  66.1061449   4.4530840
  34.4866925  65.6365299   5.2821985  39.8054406  65.7584145   6.9029870
  39.1834415  65.0954850   6.6032098  40.4759273  65.7845277   6.2203518
  33.0381478  64.3244003   5.7921130  32.2013386  63.8966177   5.6105131
  33.0105123  64.5176446   6.7291921  39.8778933  54.2365933  16.4962376
  39.9267089  55.1128056  16.1140146  40.4201448  53.6943326  15.9234019
  50.3633779  64.7807056  15.7763513  49.5729323  64.7631195  15.2368013
  50.1267134  65.3195350  16.5312550  50.4831654  61.6299523  13.0896242
  50.5329659  61.4649530  14.0311765  50.3745578  60.7626782  12.6994123
  39.3667913  64.3088068   0.3788331  39.5156033  64.9923533  -0.2744997
  40.1734356  64.2893158   0.8937786  47.7735417  57.6130451  14.4055549
  48.6745279  57.4736915  14.1139546  47.8483391  57.7784905  15.3453726
  42.1078222  54.9897305  13.2508735  41.2381531  55.2830871  12.9791323
  42.3437702  55.5737750  13.9715998  51.9849851  64.0496464  13.3338263
  51.6934659  64.4126445  14.1701724  51.3721982  63.3363472  13.1551595
  53.1845533  61.6149344   5.8540834  54.0192425  62.0539148   6.0178394
  53.3204662  61.1387997   5.0349079  50.2337039  59.1729079  11.8018321
  50.7091161  59.3656725  10.9937173  49.3102605  59.2288264  11.5561705
  37.1220546  60.3353246   1.3849400  36.8766588  59.4315576   1.5829610
  37.2916460  60.3370396   0.4428878  44.8117256  51.2076922  10.7674155
  45.3299200  51.9437949  10.4420644  44.4572388  51.5140916  11.6020914
  45.0629850  47.6277205   6.2875052  45.3431604  46.9600394   6.9135478
  45.8480457  47.8206300   5.7749716  42.8663318  66.8036199  -2.1499922
  42.2937285  67.4226386  -2.6029450  43.4396112  67.3535560  -1.6160000
  48.9338708  56.0494839  10.0346627  49.8856131  56.1492936  10.0558851
  48.7642159  55.2573107  10.5444711  46.9553088  53.1350422  10.2206028
  46.3603020  53.4155435   9.5252516  46.6702784  53.6244323  10.9922769
  46.0860578  67.0873349  -1.0191340  47.0191251  67.0218910  -0.8158464
  45.9983791  67.9229616  -1.4776807  48.7148595  66.4039219  -4.0587392
  48.6362226  66.0699083  -3.1651634  49.5358262  66.8960987  -4.0595920
  51.4126786  59.2700958   9.1488927  51.3803106  58.3316959   9.3348610
  52.0227410  59.3484995   8.4154751  43.2510117  58.1397011  -4.8083869
  44.1969222  58.0103220  -4.7395451  42.8724362  57.4011673  -4.3314441
  51.5621274  56.0612002   9.1947210  51.0460323  55.2770458   9.0077139
  52.4461223  55.7330718   9.3593729  49.2232001  49.8053017   5.1543022
  49.0256823  49.4968106   6.0386354  49.8331707  50.5314656   5.2840952
  57.2303336  60.3316965   8.2894963  57.9606724  60.0702253   8.8502667
  56.6210281  59.5945687   8.3297031  55.3118633  58.4724828   8.8869415
  54.5851797  58.3380793   8.2785906  54.8965920  58.7801656   9.6926133
  43.1348809  62.1914758  16.6516788  44.0551819  62.3693357  16.8456834
  43.0998392  61.2470803  16.4996487  32.3530974  57.3853351   5.5770062
  32.0333759  56.5318659   5.2844436  31.8064403  57.6001929   6.3328030
  36.1310882  60.1015792   9.2939569  36.3496892  61.0332900   9.3127603
  36.5436656  59.7423767  10.0794373  43.0515100  50.6083878   1.2815257
  42.2415828  50.2630962   1.6570503  43.7399517  50.2991421   1.8702869
  44.9805648  49.6861924   2.9039554  45.5336687  50.1057378   3.5629577
  45.2175734  48.7597672   2.9462510  41.0038747  55.6748998  18.6842318
  40.9035474  56.6243355  18.6154409  40.7860289  55.3467237  17.8118388
  32.2219234  61.0056263   7.5463184  31.5282706  60.5910215   7.0333138
  32.9692225  61.0476799   6.9496603  48.3584455  51.7962449   2.4118218
  47.7783124  52.4547254   2.0296270  48.0920388  50.9739794   2.0005636
  46.8088021  51.1967507   4.6139538  47.3087800  51.3084042   3.8053857
  47.4523629  50.8928560   5.2540347  40.8670017  59.1046137  17.5007379
  40.3837099  59.9046497  17.7071268  40.9530956  59.1154082  16.5474823
  34.1355977  60.9374516   5.4229199  34.1126665  61.0362204   4.4711082
  34.4456613  61.7839667   5.7446365  36.7943355  62.9950671   9.5375813
  37.7486608  62.9634614   9.4705745  36.5955878  62.5341295  10.3526039
  37.3842737  61.5651788  12.1046611  38.2035626  62.0595866  12.1281448
  37.6579545  60.6483756  12.0764178  47.1409333  53.9562540   1.4674566
  46.2535188  54.2412190   1.2494761  47.5563322  53.7956303   0.6201843
  50.4923869  53.9809061   5.1828906  51.2684259  54.4705513   5.4553522
  49.7672003  54.4067115   5.6400775  52.9296428  54.6936680   6.2402846
  53.5240919  54.4532416   5.5296154  53.0023012  53.9743811   6.8676382
  35.1493584  68.5370291   6.5546011  35.0148052  67.7770692   5.9884009
  34.7325646  69.2611191   6.0874800  46.2852547  63.7207215  -4.4377414
  46.9888397  63.9257217  -3.8219758  45.5615195  64.2883976  -4.1728330
  47.1150357  59.4717076   1.6824856  47.0585558  59.9285627   0.8432489
  47.6678699  58.7107760   1.5047699  50.9255163  55.2606808   2.5074976
  50.6692097  54.8603443   3.3383184  50.3008031  55.9750602   2.3825115
  55.2367501  58.0002881   5.0146267  54.6767059  58.0696070   5.7877829
  54.6311004  57.8243866   4.2945764  38.3062709  69.4339608   6.7664454
  38.1895094  70.3785040   6.6643144  37.4855156  69.1313170   7.1550253
  48.1939244  64.1589744  -2.3878954  49.0284848  63.7270942  -2.5701479
  48.0323587  63.9871757  -1.4602059  47.8485136  60.6621857  -1.0222614
  47.7933940  60.4966128  -1.9634170  47.2231191  61.3697890  -0.8660425
  32.6377651  55.8989921  12.8038808  33.2836515  55.3888875  13.2926033
  32.4294802  56.6358603  13.3782233  45.1631043  62.9670769  18.3030948
  46.0322203  63.1411421  17.9417583  44.6837795  63.7865186  18.1806678
  39.3317224  70.0867870   9.9820382  40.2344470  70.1191480  10.2986877
  39.1054594  69.1568321   9.9966718  41.0870826  68.8398856   6.6430461
  40.1366457  68.8400718   6.5294833  41.3903312  68.0931591   6.1266495
  44.9733381  46.7572743   2.8108641  44.2065777  46.2031229   2.9565323
  45.3844086  46.8294611   3.6722792  36.9775142  53.0457538  16.9013822
  37.8406604  52.6894343  17.1117147  36.4040553  52.7071433  17.5889226
  56.8223519  74.6759395   7.7076223  57.4601929  74.5566142   7.0039563
  56.7044362  75.6240239   7.7664175  53.6313225  74.6286823   7.6437748
  53.2931737  74.5127888   6.7558283  54.5002994  74.2277988   7.6238754
  49.4900041  76.4822299   3.6334639  48.9264906  76.3912236   2.8650927
  49.3752436  75.6622204   4.1137131  54.1133008  75.7821675  13.6023953
  54.1021649  75.3874473  12.7304457  54.2753648  75.0487747  14.1957725
  47.0364473  77.9773491   6.4718859  47.8285765  77.6364316   6.0565159
  47.2761123  78.0868466   7.3921013  55.0699600  80.1493267  -1.0550896
  54.4187580  80.7347347  -1.4416883  55.8643963  80.6799462  -0.9955859
  48.9955227  77.2382404  -0.6563762  49.7686103  76.6911391  -0.7950886
  49.3480626  78.1026654  -0.4449301  50.8340270  78.5658786  12.5503137
  50.5430136  79.4704417  12.4349804  51.4697254  78.6075314  13.2647207
  51.7596476  75.9435635   9.1404497  52.3560049  75.7191657   8.4261460
  51.8171448  75.2020380   9.7429945  51.3321505  73.3975070  -3.0245312
  51.5847025  72.8756592  -3.7861849  50.3946064  73.2341216  -2.9218628
  56.3764788  72.4010849   4.7829431  57.1627877  71.9830272   4.4319848
  56.6403492  73.3056941   4.9511080  56.5474865  77.8383699  -0.5181912
  55.9120698  77.9118326   0.1938993  56.2172271  78.4277298  -1.1962833
  61.7773215  72.3386082   5.6862410  62.5098387  71.7685299   5.9200239
  61.0212570  71.9507682   6.1268915  51.0517794  75.3003176  -0.8220937
  50.9354052  74.6248080  -0.1539853  51.1620053  74.8135550  -1.6388784
  53.3949334  74.7613323   2.8825752  53.0307542  74.2343944   3.5938674
  54.2516450  74.3711792   2.7092238  59.2998635  66.0507656  10.1457018
  58.9681960  66.9203067   9.9218233  58.7044248  65.7343940  10.8251049
  53.0354821  69.7903223  -2.1212899  53.2029224  70.6583459  -1.7542428
  52.8451990  69.9530505  -3.0451610  55.7930155  78.2520202   9.5452931
  55.4930878  79.1545241   9.4368738  55.4481214  77.9852385  10.3974084
  49.2442636  74.7033999   5.5789635  48.3193133  74.5710213   5.7867327
  49.4927049  75.4828218   6.0759578  59.1927298  70.7702742   7.2250368
  58.2844176  70.7018151   6.9309129  59.1414894  71.2474687   8.0532194
  53.0144042  72.2460881  -1.1366233  52.8943668  72.6917931  -0.2980752
  52.3196631  72.5946198  -1.6952694  46.6051447  74.3467272   6.4133425
  46.7343828  74.6001751   7.3272836  45.9248898  74.9394980   6.0938080
  50.7750934  85.0164522   2.5123899  50.6974964  85.9672347   2.5912379
  50.1712578  84.6710395   3.1698825  53.2668164  72.1892388  15.1685266
  52.4901498  72.7486308  15.1588130  53.9058727  72.6749171  15.6900136
  61.0588945  68.9719181   9.0028242  60.4163325  69.2651714   8.3568037
  60.5543873  68.8572101   9.8081439  58.7129108  72.7182354  -0.3085898
  59.6246965  72.9509741  -0.4838201  58.2038756  73.3019398  -0.8710820
  56.9969876  77.1406982  13.3275394  57.4053232  76.6989392  12.5830026
  56.2747138  76.5659609  13.5809587  53.3500946  72.0779588  10.7008951
  54.1962141  72.5019002  10.8443600  53.2899584  71.4213213  11.3947514
  57.3198691  77.7008172   7.0827683  56.6907553  77.8653886   6.3803751
  56.9324353  78.1149782   7.8538647  61.1987923  78.6362610   4.4372047
  60.5138961  79.0161511   3.8869080  61.2831772  79.2457937   5.1703994
  56.5000392  69.7383957  12.3590125  56.2561323  70.4926017  11.8224400
  56.7760322  70.1169304  13.1937372  58.4538854  76.2822569  11.0367390
  58.6655750  76.9254329  10.3601771  58.4068603  75.4484886  10.5689320
  56.0565083  68.8940390   7.9403962  55.1949562  69.1921643   8.2320700
  56.0827518  69.1110789   7.0084995  52.8726653  77.4382580   4.3477768
  53.3364998  77.7170283   3.5582391  52.6083451  76.5366025   4.1650859
  49.7650734  76.9854062   7.2857531  50.3352091  77.4141330   6.6475016
  50.3558846  76.7036647   7.9841717  51.8095539  73.5605733   1.1567333
  52.5119582  74.0126776   1.6241260  51.4776167  72.9189552   1.7847226
  50.2575900  72.1517489  15.5318543  49.6274561  72.8333770  15.7653939
  50.1511988  72.0400571  14.5871681  45.5520873  71.8189285   6.4584467
  44.7619927  72.0746814   5.9824577  46.0432120  72.6337623   6.5636507
  59.5684682  79.1594525   9.2089748  60.3902126  78.7574712   8.9272429
  59.5647085  79.0562759  10.1605863  47.5035618  72.1833865   3.4167943
  46.7066781  72.2952559   3.9351439  47.2761210  72.5220517   2.5508834
  53.3341286  78.7078568  11.3650458  53.3985718  79.1698975  12.2008630
  52.6252210  78.0775933  11.4932768  43.8358576  72.0719776   8.8899458
  44.0866614  72.9566786   9.1557034  44.3718124  71.8924377   8.1174549
  67.6590675  75.5033273   5.5574719  66.9054384  74.9340671   5.4018724
  67.7938216  75.4695937   6.5045354  53.0489303  80.3746675   1.2329438
  52.9134978  81.2198211   1.6614286  53.5899116  80.5765953   0.4695372
  46.5018701  77.8922113   1.8057364  47.0143221  78.6865364   1.9562928
  47.1541414  77.1948404   1.7390965  48.3113585  81.0087870   3.8880117
  48.4880214  81.9305834   3.7001101  49.1070419  80.6946289   4.3174496
  52.4524604  67.8696134  15.4864050  53.1934317  68.4703287  15.4068513
  52.6842527  67.1273772  14.9282093  54.6757780  80.9970242  15.3629781
  54.2321634  80.2106620  15.0450685  55.3374993  81.1849392  14.6973671
  49.4344901  82.5266043   9.8890459  49.9852326  82.3983107   9.1167453
  48.5956377  82.8260932   9.5385352  56.7739018  81.2773042  13.3911182
  56.7557493  82.0981923  12.8991451  57.6958938  81.1527117  13.6161323
  53.2312072  78.7917171  14.2334690  53.7640409  78.0305459  14.0033998
  52.7026153  78.4990823  14.9758845  56.3981767  63.8977237   9.7628332
  56.0546036  64.7878879   9.6867442  56.7660729  63.7078895   8.8997917
  44.4667617  76.2210768   2.5816934  45.3042839  76.6307776   2.3650642
  44.6445885  75.2810210   2.5517128  56.3632050  73.8885848  -1.7299233
  55.8478673  74.6590453  -1.4910846  56.0909358  73.2150984  -1.1066172
  53.9479161  68.7335549   3.3286005  53.0920757  68.3442399   3.1491644
  54.3606112  68.8127510   2.4685791  55.4778307  66.2681892   7.7277565
  54.9743103  66.2312027   6.9145370  55.7708914  67.1774635   7.7874222
  51.7221193  66.3520622   6.7343747  52.5874190  66.1563431   6.3749636
  51.7898702  66.1230974   7.6613104  61.3366324  76.6418203   0.2053940
  60.5595767  76.3029362  -0.2390897  62.0157805  76.6470826  -0.4691094
  56.1518353  71.7612940   0.0960548  55.8468488  72.0759090   0.9470691
  57.1048795  71.8394360   0.1387881  54.5964785  77.9203164   1.7453502
  54.0686146  77.1855923   1.4326740  54.0952287  78.6977840   1.4993470
  59.5757631  76.1152184   6.8620548  58.9181305  76.8051446   6.9500677
  60.3798030  76.5048616   7.2054535  49.3283512  68.5822830   4.1060114
  49.9027264  68.3598011   3.3733307  49.9154495  68.6511524   4.8588715
  58.3863089  74.4696557   4.9124490  58.8994971  75.1026549   5.4146200
  59.0364313  73.8697752   4.5467850  49.6553099  70.6127291  -1.8744001
  48.8190412  70.9501978  -1.5534726  49.5157869  70.4776271  -2.8116864
  51.6306180  65.4564079   2.8335183  50.9770592  65.1413096   2.2091798
  51.5886654  64.8339819   3.5595006  52.7417385  75.7383374  -5.2511525
  51.8344447  75.5072627  -5.0520376  53.2388417  74.9420993  -5.0637543
  54.8643920  71.9446012   7.1582831  53.9466482  72.1660959   7.0004519
  55.2804064  72.0192323   6.2994538  55.6478968  73.3437428   2.2885511
  56.3950787  73.8558825   1.9792633  55.9170558  73.0221481   3.1489905
  53.9205618  75.8395969  -0.7287535  53.0116838  75.5555002  -0.6315065
  53.9500702  76.2595047  -1.5884228  59.1524886  79.4502558   3.0403633
  58.6987213  78.6093468   3.0968823  58.5218852  80.0863957   3.3778413
  58.0957805  70.3794544   4.2704300  57.3580562  69.8671931   4.6014543
  58.3484579  69.9394926   3.4587577  57.5957825  81.2879055   3.9753451
  57.8880799  81.8484112   3.2565817  58.1056445  81.5807616   4.7306610
  58.1969433  63.1570796   4.8646070  58.5028309  62.2968160   4.5771985
  58.9222037  63.7488417   4.6645063  44.4893789  73.5601483   3.2527667
  44.2918188  72.9670844   2.5278734  43.9340453  73.2553693   3.9703606
  52.4690512  73.4524589   5.3722261  52.5239122  72.4998426   5.2964737
  51.6581714  73.6084029   5.8563559  53.6181706  77.3804712  -3.3899456
  53.1801136  76.6640571  -3.8493819  54.3592147  77.6080827  -3.9514365
  50.4082872  72.0701649   3.1312640  49.5950738  72.3695820   3.5377832
  50.9041866  71.6757338   3.8487122  52.5591450  82.0659406   5.0646904
  52.5167629  82.2920252   4.1355436  53.4754149  81.8322781   5.2132705
  56.0057084  72.5343474  11.9627533  56.3606472  72.7614947  12.8221999
  56.6529215  72.8661850  11.3404789  61.7354821  75.6561910   2.6676862
  61.5972719  75.8463506   1.7398052  61.3791040  76.4181292   3.1244914
  49.8996947  69.6420005   8.7473874  50.5396326  69.5008764   8.0496838
  49.0674478  69.3554518   8.3712476  61.7624200  77.7238437   7.6788134
  62.1960707  77.6313726   8.5271188  62.4755781  77.6995937   7.0408150
  50.6757251  78.9422435   4.8608867  51.4697849  78.4472755   4.6591442
  49.9648943  78.4140298   4.4976572  55.4952095  81.3240531   9.2121235
  55.5489118  81.8931467   9.9798950  54.6266877  81.4942416   8.8475272
  46.9840014  73.0865517   0.9368620  46.0537602  73.0249972   1.1538582
  47.0797486  72.5641470   0.1405261  46.9025563  69.6120330   3.5246861
  47.1632381  70.5265663   3.4156022  47.7242736  69.1444772   3.6743474
  48.3750489  71.0258087  10.6945686  49.0473542  70.8175449  10.0458335
  47.5480275  70.8280173  10.2550918  62.6239750  77.7662137  10.2121019
  62.8175640  78.6707948  10.4580294  62.5240368  77.3069556  11.0459604
  54.2776061  67.6520028  12.7111347  53.6303976  68.3509977  12.6175823
  55.0477076  68.0856172  13.0787595  57.6854859  77.9168880  15.7861900
  57.5340365  77.6879432  14.8691984  57.6759538  78.8739481  15.7993245
  54.4540195  75.4900793  10.7708166  55.3832255  75.6411952  10.5977134
  54.0331225  75.5784813   9.9156813  53.2528527  79.5151457   8.5406704
  53.1139613  79.1470241   9.4132642  52.4643123  80.0299097   8.3690662
  53.8476679  84.6160554  -0.1167759  54.0228435  84.1448597   0.6977863
  53.1609467  85.2426320   0.1113501  54.8033742  78.8933060   5.9295542
  54.4683575  78.8533830   6.8253192  54.3037688  78.2277776   5.4565952
  48.7777986  74.3000690  11.4548123  48.6397784  73.5680929  12.0559662
  49.6882909  74.2109590  11.1732311  51.4060287  74.0120649  10.9431803
  52.1159905  73.3713841  10.9018421  51.3629595  74.2633544  11.8657983
  59.3947065  80.9488002  13.8638382  59.3359611  80.2647223  13.1968965
  59.7966584  81.6906992  13.4119008  50.1189221  70.9985867  12.7627442
  49.5826578  70.5476605  13.4149038  49.5305929  71.1331776  12.0197906
  48.4137764  87.7649916   6.6572101  48.6534362  88.3968440   7.3351119
  47.5706961  87.4137956   6.9437460  49.5291480  70.4574518  -4.6746094
  48.6520946  70.3363319  -5.0383848  50.0049233  69.6660597  -4.9267206
  59.3964473  78.9127586  12.0952361  58.5091251  78.5753508  12.2178760
  59.9663024  78.1810618  12.3321127  41.0493620  75.2451678   5.4195413
  41.7364660  74.9313408   4.8316428  40.8941748  76.1493043   5.1462664
  45.8528342  70.1341875   9.8480437  45.7686531  69.5267544   9.1130847
  45.0311048  70.6250893   9.8489933  52.9265626  83.5729039   9.0613605
  52.8535797  84.3784010   9.5732909  52.4843019  83.7721005   8.2361626
  52.7155406  82.8100809   2.5716426  51.9322928  83.3522489   2.6654651
  53.4148151  83.3274788   2.9710667  56.0252056  68.6195438   5.2150632
  56.5220755  67.8665401   4.8951702  55.2539037  68.6559755   4.6493841
  63.8781813  74.3235804   6.8568923  63.8671689  75.2060519   6.4862856
  63.0099193  73.9707355   6.6623460  55.3864310  83.4715873  11.2171763
  56.0992282  84.1063338  11.1447665  54.8954338  83.5679739  10.4011765
  57.1081836  77.3767125   2.7889055  56.1738115  77.4968588   2.6193759
  57.2858505  76.4739592   2.5249065  52.6087024  70.7612821   4.9422316
  52.2384812  70.2083862   5.6303222  53.1046117  70.1570955   4.3897316
  60.4954388  73.2184445   3.3239089  60.9614840  74.0512436   3.2499392
  60.9461888  72.7529426   4.0284348  50.4376223  81.2210316  12.0377334
  51.1385683  81.8546799  12.1906728  49.9671338  81.5625048  11.2772973
  58.5630619  79.5628266   0.3225241  58.8390463  79.4484861   1.2319115
  57.6935118  79.1645751   0.2837414  58.4671051  65.5865032   7.3629990
  57.5534130  65.8169259   7.5312197  58.8964152  65.6703476   8.2144023
  58.2377509  73.7754924   9.8629885  57.5848959  74.0230831   9.2082337
  58.6157889  72.9619062   9.5292362  55.1984683  83.8114617   3.9658055
  55.3807077  82.9936273   4.4285807  56.0217669  84.0282309   3.5282945
  55.5326848  82.7382802   1.2273103  56.0614615  82.2275257   0.6143265
  55.7955068  82.4225332   2.0918636  46.0343941  80.7546671   8.9708437
  46.6197378  80.0090359   9.1036341  45.8368780  81.0650628   9.8545101
  48.8882596  83.7897919   3.9870879  48.2192972  84.2744046   3.5034919
  48.7495466  84.0367139   4.9014258  40.6261596  73.3252272   7.6912880
  40.6645695  72.7915862   8.4849998  40.1201889  72.7987477   7.0723857
  53.0287865  85.8241662  10.5853538  53.5806173  85.9873284  11.3502623
  53.3694058  86.4146100   9.9133562  48.0052358  68.1716812  11.1875422
  48.0693685  69.0331643  10.7752820  47.9419478  67.5590814  10.4547781
  57.8798739  80.6502920  16.4402192  58.4238643  81.2632878  15.9457147
  57.2985584  81.2082498  16.9569205  44.2570173  72.0516374   0.7666811
  44.5523615  71.1427052   0.7133865  43.3558209  72.0304113   0.4447814
  56.1656252  83.7723638   7.5717220  56.0407392  82.9713378   7.0628165
  56.8235343  84.2669831   7.0831190  47.7864420  70.1272370   6.7494360
  47.0651006  70.7408338   6.6101833  48.5757676  70.6630135   6.6711006
  58.2291161  81.5732658   9.1996770  57.2821496  81.4538009   9.1275097
  58.5773934  80.6855156   9.2823031  50.5890734  67.4626797  13.0235012
  51.1125136  67.7089093  13.7861321  50.3703067  68.2946832  12.6038149
  45.9858015  69.7330471   0.8906137  45.6570721  68.8527850   0.7081242
  46.3397386  69.6778140   1.7782526  55.2337594  81.3685374   5.4001122
  55.0862556  80.4402081   5.5808692  56.0591087  81.3905465   4.9158197
  49.0999838  70.0203441   1.2581614  49.4395911  70.5489362   0.5360223
  49.5471959  70.3583847   2.0340181  58.8371716  82.1913933   6.4865995
  59.7618263  81.9856794   6.3490446  58.6687019  81.9430334   7.3955336
  51.7943279  68.4040492  10.7084682  51.4540099  67.6048305  11.1105362
  51.0882285  68.7042203  10.1361515  52.4459751  65.4889804   9.1612005
  53.2685820  65.0150282   9.0390896  52.6897814  66.2680288   9.6610692
  51.0867985  68.5178063  -0.5425093  51.8076348  68.8959316  -1.0461376
  50.4633289  69.2366940  -0.4390115  55.2299108  69.2223212   0.3933239
  55.4462723  70.1047850   0.0922067  54.7493175  68.8309425  -0.3361119
  49.9698330  72.1808925   6.9703984  49.8242910  72.4949228   7.8628265
  49.4923533  72.7993825   6.4174883  51.8294712  69.1711473   7.0184873
  51.8156281  68.2752566   6.6817171  52.5467141  69.1782137   7.6523160
  53.6820843  69.6048813   9.0638001  53.4238621  70.5265884   9.0622331
  53.1505884  69.2079248   9.7538465  58.6267032  82.7099600   1.8428086
  58.8003909  82.1446023   1.0901939  59.1195923  83.5100495   1.6607576
  44.4443992  74.7214269   9.9091645  43.8997460  75.4974077  10.0411919
  45.3223342  75.0685074   9.7510767  51.2331608  68.0525853   2.2872444
  51.3547520  67.1242499   2.4863331  50.9433651  68.0664539   1.3750759
  54.1022799  65.7380764   5.4239163  54.1244496  65.8020097   4.4691143
  54.5190858  64.8985272   5.6179670  64.4806423  75.4736023   3.4618386
  64.9237569  74.7243348   3.0637509  63.6032933  75.4646160   3.0792118
  53.1974288  85.5438053   4.8307569  52.7579279  85.0514432   5.5240425
  53.9482405  85.0011021   4.5899644  45.6766627  81.7349594   4.8332197
  46.5024647  81.4353366   4.4530840  45.3260679  80.9657217   5.2821985
  50.6448160  81.0876063   6.9029870  50.0228170  80.4246768   6.6032098
  51.3153027  81.1137194   6.2203518  43.8775232  79.6535921   5.7921130
  43.0407141  79.2258095   5.6105131  43.8498878  79.8468364   6.7291921
  50.7172688  69.5657851  16.4962376  50.7660843  70.4419973  16.1140146
  51.2595202  69.0235244  15.9234019  61.2027534  80.1098974  15.7763513
  60.4123077  80.0923113  15.2368013  60.9660888  80.6487268  16.5312550
  61.3225409  76.9591440  13.0896242  61.3723414  76.7941448  14.0311765
  61.2139332  76.0918699  12.6994123  50.2061667  79.6379986   0.3788331
  50.3549788  80.3215450  -0.2744997  51.0128111  79.6185076   0.8937786
  58.6129171  72.9422368  14.4055549  59.5139034  72.8028833  14.1139546
  58.6877146  73.1076823  15.3453726  52.9471976  70.3189223  13.2508735
  52.0775286  70.6122789  12.9791323  53.1831457  70.9029668  13.9715998
  62.8243605  79.3788382  13.3338263  62.5328414  79.7418362  14.1701724
  62.2115737  78.6655390  13.1551595  64.0239288  76.9441261   5.8540834
  64.8586179  77.3831066   6.0178394  64.1598417  76.4679915   5.0349079
  61.0730794  74.5020996  11.8018321  61.5484915  74.6948643  10.9937173
  60.1496359  74.5580182  11.5561705  47.9614300  75.6645164   1.3849400
  47.7160342  74.7607494   1.5829610  48.1310215  75.6662314   0.4428878
  55.6511010  66.5368840  10.7674155  56.1692954  67.2729867  10.4420644
  55.2966143  66.8432833  11.6020914  47.2309948  71.3973521  -1.1164439
  46.5379193  71.4717876  -1.7724403  46.9861700  70.6333865  -0.5942922
  55.9023604  62.9569122   6.2875052  56.1825358  62.2892311   6.9135478
  56.6874211  63.1498218   5.7749716  59.7732463  71.3786756  10.0346627
  60.7249886  71.4784854  10.0558851  59.6035913  70.5865025  10.5444711
  57.7946842  68.4642340  10.2206028  57.1996774  68.7447352   9.5252516
  57.5096539  68.9536241  10.9922769  62.2520541  74.5992876   9.1488927
  62.2196861  73.6608877   9.3348610  62.8621164  74.6776913   8.4154751
  54.0903871  73.4688929  -4.8083869  55.0362976  73.3395137  -4.7395451
  53.7118116  72.7303591  -4.3314441  62.4015029  71.3903920   9.1947210
  61.8854078  70.6062376   9.0077139  63.2854978  71.0622636   9.3593729
  60.0625756  65.1344935   5.1543022  59.8650577  64.8260023   6.0386354
  60.6725461  65.8606574   5.2840952  68.0697090  75.6608883   8.2894963
  68.8000479  75.3994171   8.8502667  67.4604036  74.9237605   8.3297031
  66.1512387  73.8016746   8.8869415  65.4245551  73.6672710   8.2785906
  65.7359674  74.1093574   9.6926133  52.2746789  71.3938905  -4.8728984
  51.3678244  71.0972018  -4.7966271  52.5522770  71.0968724  -5.7394698
  43.1924729  72.7145269   5.5770062  42.8727513  71.8610577   5.2844436
  42.6458157  72.9293847   6.3328030  46.9704636  75.4307710   9.2939569
  47.1890646  76.3624818   9.3127603  47.3830410  75.0715684  10.0794373
  53.8908854  65.9375795   1.2815257  53.0809583  65.5922880   1.6570503
  54.5793271  65.6283339   1.8702869  55.8199403  65.0153842   2.9039554
  56.3730441  65.4349295   3.5629577  56.0569489  64.0889590   2.9462510
  51.8432502  71.0040916  18.6842318  51.7429229  71.9535273  18.6154409
  51.6254044  70.6759155  17.8118388  51.0445573  68.2525841  -4.7317005
  51.9064737  68.5780739  -4.4721188  51.2295917  67.4657337  -5.2443939
  43.0612989  76.3348180   7.5463184  42.3676460  75.9202133   7.0333138
  43.8085980  76.3768717   6.9496603  59.1978210  67.1254367   2.4118218
  58.6176879  67.7839171   2.0296270  58.9314142  66.3031712   2.0005636
  57.6481776  66.5259425   4.6139538  58.1481554  66.6375959   3.8053857
  58.2917384  66.2220478   5.2540347  44.9749731  76.2666434   5.4229199
  44.9520420  76.3654121   4.4711082  45.2850368  77.1131585   5.7446365
  47.6337109  78.3242589   9.5375813  48.5880363  78.2926532   9.4705745
  47.4349633  77.8633213  10.3526039  48.2236491  76.8943705  12.1046611
  49.0429380  77.3887784  12.1281448  48.4973299  75.9775673  12.0764178
  57.9803088  69.2854458   1.4674566  57.0928943  69.5704108   1.2494761
  58.3957077  69.1248221   0.6201843  61.3317624  69.3100979   5.1828906
  62.1078014  69.7997431   5.4553522  60.6065758  69.7359033   5.6400775
  63.7690182  70.0228598   6.2402846  64.3634673  69.7824334   5.5296154
  63.8416766  69.3035728   6.8676382  45.9887338  83.8662209   6.5546011
  45.8541806  83.1062610   5.9884009  45.5719400  84.5903109   6.0874800
  57.9544111  74.8008993   1.6824856  57.8979313  75.2577545   0.8432489
  58.5072454  74.0399678   1.5047699  61.7648917  70.5898725   2.5074976
  61.5085852  70.1895361   3.3383184  61.1401785  71.3042519   2.3825115
  66.0761255  73.3294799   5.0146267  65.5160813  73.3987988   5.7877829
  65.4704759  73.1535783   4.2945764  49.1456464  84.7631526   6.7664454
  49.0288848  85.7076958   6.6643144  48.3248910  84.4605087   7.1550253
  58.6878891  75.9913775  -1.0222614  58.6327694  75.8258046  -1.9634170
  58.0624946  76.6989808  -0.8660425  51.9975016  65.4921884  -1.4437296
  51.9853686  66.4363724  -1.2869025  52.8898438  65.3092029  -1.7377835
  50.1710978  85.4159788   9.9820382  51.0738225  85.4483398  10.2986877
  49.9448348  84.4860239   9.9966718  51.9264580  84.1690774   6.6430461
  50.9760211  84.1692636   6.5294833  52.2297066  83.4223509   6.1266495
  55.8127136  62.0864660   2.8108641  55.0459531  61.5323147   2.9565323
  56.2237841  62.1586529   3.6722792  64.4706980  89.9578741   7.6437748
  64.1325491  89.8419805   6.7558283  65.3396748  89.5569906   7.6238754
  64.9526763  91.1113592  13.6023953  64.9415404  90.7166391  12.7304457
  65.1147402  90.3779665  14.1957725  61.6734024  93.8950704  12.5503137
  61.3823890  94.7996335  12.4349804  62.3091008  93.9367232  13.2647207
  62.5990231  91.2727553   9.1404497  63.1953803  91.0483575   8.4261460
  62.6565202  90.5312298   9.7429945  70.1392390  81.3799574  10.1457018
  69.8075714  82.2494985   9.9218233  69.5438003  81.0635858  10.8251049
  60.0836391  90.0325917   5.5789635  59.1586887  89.9002131   5.7867327
  60.3320804  90.8120136   6.0759578  70.0321053  86.0994660   7.2250368
  69.1237930  86.0310068   6.9309129  69.9808649  86.5766605   8.0532194
  57.4445202  89.6759190   6.4133425  57.5737583  89.9293669   7.3272836
  56.7642653  90.2686898   6.0938080  64.1061919  87.5184305  15.1685266
  63.3295253  88.0778226  15.1588130  64.7452482  88.0041088  15.6900136
  71.8982699  84.3011098   9.0028242  71.2557080  84.5943631   8.3568037
  71.3937628  84.1864019   9.8081439  62.3608291  90.3269759  14.7303233
  63.1022975  90.8654803  14.4538056  61.6545276  90.9536048  14.8874784
  67.8363631  92.4698899  13.3275394  68.2446987  92.0281310  12.5830026
  67.1140892  91.8951527  13.5809587  64.1894701  87.4071506  10.7008951
  65.0355896  87.8310920  10.8443600  64.1293338  86.7505130  11.3947514
  67.3394146  85.0675874  12.3590125  67.0955078  85.8217935  11.8224400
  67.6154076  85.4461222  13.1937372  69.2932609  91.6114487  11.0367390
  69.5049504  92.2546247  10.3601771  69.2462357  90.7776803  10.5689320
  66.8958838  84.2232307   7.9403962  66.0343317  84.5213561   8.2320700
  66.9221272  84.4402706   7.0084995  61.0969655  87.4809407  15.5318543
  60.4668315  88.1625688  15.7653939  60.9905743  87.3692489  14.5871681
  56.3914627  87.1481203   6.4584467  55.6013681  87.4038732   5.9824577
  56.8825875  87.9629541   6.5636507  64.1735040  94.0370485  11.3650458
  64.2379473  94.4990893  12.2008630  63.4645964  93.4067850  11.4932768
  54.6752330  87.4011693   8.8899458  54.9260369  88.2858703   9.1557034
  55.2111879  87.2216295   8.1174549  63.2918358  83.1988052  15.4864050
  64.0328072  83.7995205  15.4068513  63.5236281  82.4565690  14.9282093
  58.4359696  88.3844419  13.7642280  58.3213212  87.4829676  14.0649379
  57.5804214  88.6308116  13.4127096  65.5151534  96.3262159  15.3629781
  65.0715388  95.5398538  15.0450685  66.1768748  96.5141310  14.6973671
  67.6132772  96.6064959  13.3911182  67.5951248  97.4273840  12.8991451
  68.5352692  96.4819035  13.6161323  64.0705826  94.1209089  14.2334690
  64.6034163  93.3597377  14.0033998  63.5419908  93.8282741  14.9758845
  67.2375521  79.2269155   9.7628332  66.8939791  80.1170797   9.6867442
  67.6054484  79.0370812   8.8997917  66.3172062  81.5973810   7.7277565
  65.8136857  81.5603945   6.9145370  66.6102669  82.5066553   7.7874222
  62.5614948  81.6812540   6.7343747  63.4267944  81.4855348   6.3749636
  62.6292457  81.4522891   7.6613104  60.1677267  83.9114748   4.1060114
  60.7421019  83.6889929   3.3733307  60.7548249  83.9803442   4.8588715
  62.4699934  80.7855997   2.8335183  61.8164347  80.4705014   2.2091798
  62.4280409  80.1631737   3.5595006  65.7037675  87.2737930   7.1582831
  64.7860236  87.4952877   7.0004519  66.1197818  87.3484241   6.2994538
  69.0363187  78.4862714   4.8646070  69.3422064  77.6260077   4.5771985
  69.7615792  79.0780334   4.6645063  55.3287543  88.8893401   3.2527667
  55.1311943  88.2962761   2.5278734  54.7734207  88.5845611   3.9703606
  66.8450838  87.8635391  11.9627533  67.2000226  88.0906864  12.8221999
  67.4922970  88.1953768  11.3404789  60.7390701  84.9711922   8.7473874
  61.3790081  84.8300681   8.0496838  59.9068232  84.6846436   8.3712476
  57.7419318  84.9412247   3.5246861  58.0026135  85.8557581   3.4156022
  58.5636490  84.4736690   3.6743474  59.2144243  86.3550005  10.6945686
  59.8867297  86.1467367  10.0458335  58.3874030  86.1572091  10.2550918
  65.1169815  82.9811945  12.7111347  64.4697730  83.6801895  12.6175823
  65.8870831  83.4148089  13.0787595  68.5248613  93.2460798  15.7861900
  68.3734120  93.0171349  14.8691984  68.5153293  94.2031399  15.7993245
  65.2933950  90.8192710  10.7708166  66.2226010  90.9703870  10.5977134
  64.8724980  90.9076731   9.9156813  59.6171740  89.6292608  11.4548123
  59.4791538  88.8972846  12.0559662  60.5276664  89.5401508  11.1732311
  62.2454041  89.3412567  10.9431803  62.9553660  88.7005759  10.9018421
  62.2023349  89.5925462  11.8657983  60.9582975  86.3277785  12.7627442
  60.4220332  85.8768523  13.4149038  60.3699684  86.4623694  12.0197906
  70.2358227  94.2419504  12.0952361  69.3485006  93.9045426  12.2178760
  70.8056778  93.5102535  12.3321127  51.8887374  90.5743596   5.4195413
  52.5758414  90.2605326   4.8316428  51.7335503  91.4784960   5.1462664
  56.6922096  85.4633792   9.8480437  56.6080285  84.8559462   9.1130847
  55.8704803  85.9542811   9.8489933  66.8645810  83.9487356   5.2150632
  67.3614510  83.1957318   4.8951702  66.0932792  83.9851673   4.6493841
  63.4480779  86.0904739   4.9422316  63.0778566  85.5375779   5.6303222
  63.9439871  85.4862872   4.3897316  61.2769978  96.5502234  12.0377334
  61.9779437  97.1838717  12.1906728  60.8065093  96.8916965  11.2772973
  69.3064805  80.9156949   7.3629990  68.3927885  81.1461176   7.5312197
  69.7357906  80.9995393   8.2144023  69.0771263  89.1046841   9.8629885
  68.4242714  89.3522749   9.2082337  69.4551643  88.2910980   9.5292362
  65.1258837  89.8466652  16.3495922  64.4499474  89.7460782  17.0198297
  65.9486470  89.6905866  16.8131919  56.8737696  96.0838589   8.9708437
  57.4591132  95.3382277   9.1036341  56.6762534  96.3942546   9.8545101
  51.4655350  88.6544189   7.6912880  51.5039450  88.1207780   8.4849998
  50.9595643  88.1279395   7.0723857  58.8446113  83.5008730  11.1875422
  58.9087439  84.3623561  10.7752820  58.7813233  82.8882731  10.4547781
  58.3198385  85.5731862  14.8348457  58.9470424  85.1908940  15.4485981
  57.4626304  85.3546064  15.2004149  68.7192494  95.9794837  16.4402192
  69.2632398  96.5924796  15.9457147  68.1379339  96.5374416  16.9569205
  58.6258175  85.4564288   6.7494360  57.9044761  86.0700256   6.6101833
  59.4151431  85.9922053   6.6711006  61.4284488  82.7918714  13.0235012
  61.9518890  83.0381011  13.7861321  61.2096822  83.6238749  12.6038149
  62.6337033  83.7332410  10.7084682  62.2933854  82.9340223  11.1105362
  61.9276040  84.0334120  10.1361515  63.2853505  80.8181722   9.1612005
  64.1079575  80.3442200   9.0390896  63.5291569  81.5972206   9.6610692
  60.8092084  87.5100843   6.9703984  60.6636665  87.8241146   7.8628265
  60.3317288  88.1285743   6.4174883  62.6688467  84.5003391   7.0184873
  62.6550036  83.6044484   6.6817171  63.3860895  84.5074054   7.6523160
  64.5214598  84.9340731   9.0638001  64.2632375  85.8557801   9.0622331
  63.9899638  84.5371165   9.7538465  55.2837746  90.0506187   9.9091645
  54.7391214  90.8265995  10.0411919  56.1617096  90.3976991   9.7510767
  64.9416553  81.0672681   5.4239163  64.9638250  81.1312014   4.4691143
  65.3584612  80.2277190   5.6179670  56.0703768  89.1776083  12.8021802
  55.3285504  89.3258719  13.3886432  55.7496512  89.4384349  11.9388551
  61.5566442  84.8949768  16.4962376  61.6054598  85.7711891  16.1140146
  62.0988957  84.3527161  15.9234019  72.0421288  95.4390891  15.7763513
  71.2516832  95.4215030  15.2368013  71.8054643  95.9779185  16.5312550
  72.1619163  92.2883358  13.0896242  72.2117168  92.1233365  14.0311765
  72.0533086  91.4210617  12.6994123  69.4522926  88.2714286  14.4055549
  70.3532788  88.1320751  14.1139546  69.5270900  88.4368741  15.3453726
  63.7865731  85.6481141  13.2508735  62.9169040  85.9414707  12.9791323
  64.0225211  86.2321586  13.9715998  71.9124548  89.8312914  11.8018321
  72.3878670  90.0240560  10.9937173  70.9890114  89.8872100  11.5561705
  66.4904765  81.8660758  10.7674155  67.0086709  82.6021784  10.4420644
  66.1359897  82.1724751  11.6020914  66.7417359  78.2861040   6.2875052
  67.0219113  77.6184229   6.9135478  67.5267966  78.4790136   5.7749716
  70.6126217  86.7078674  10.0346627  71.5643640  86.8076772  10.0558851
  70.4429668  85.9156943  10.5444711  68.6340597  83.7934257  10.2206028
  68.0390529  84.0739270   9.5252516  68.3490293  84.2828158  10.9922769
  73.2408783  86.7195837   9.1947210  72.7247832  85.9354294   9.0077139
  74.1248732  86.3914554   9.3593729  70.9019510  80.4636853   5.1543022
  70.7044332  80.1551941   6.0386354  71.5119216  81.1898492   5.2840952
  64.8136318  92.8498593  16.6516788  65.7339328  93.0277192  16.8456834
  64.7785901  91.9054638  16.4996487  54.0318483  88.0437187   5.5770062
  53.7121268  87.1902495   5.2844436  53.4851912  88.2585765   6.3328030
  57.8098391  90.7599628   9.2939569  58.0284401  91.6916735   9.3127603
  58.2224165  90.4007602  10.0794373  66.6593157  80.3445760   2.9039554
  67.2124196  80.7641213   3.5629577  66.8963243  79.4181508   2.9462510
  62.6826256  86.3332833  18.6842318  62.5822983  87.2827190  18.6154409
  62.4647798  86.0051072  17.8118388  53.9006743  91.6640098   7.5463184
  53.2070215  91.2494051   7.0333138  54.6479734  91.7060635   6.9496603
  62.5457526  89.7629972  17.5007379  62.0624608  90.5630332  17.7071268
  62.6318465  89.7737917  16.5474823  55.8143486  91.5958352   5.4229199
  55.7914174  91.6946039   4.4711082  56.1244122  92.4423503   5.7446365
  58.4730864  93.6534507   9.5375813  59.4274117  93.6218449   9.4705745
  58.2743387  93.1925131  10.3526039  59.0630246  92.2235623  12.1046611
  59.8823135  92.7179702  12.1281448  59.3367054  91.3067591  12.0764178
  66.8418552  93.6254604  18.3030948  67.7109712  93.7995257  17.9417583
  66.3625304  94.4449021  18.1806678  66.6520890  77.4156578   2.8108641
  65.8853286  76.8615065   2.9565323  67.0631595  77.4878447   3.6722792
  71.2144152  97.1122090  17.8943794  70.8211098  96.5588289  18.5691438
  72.0310292  97.4232669  18.2850311  73.5220011 101.6624751  18.6842318
  73.4216738 102.6119108  18.6154409  73.3041553 101.3342990  17.8118388
  69.4956406  99.0333292  16.9013822  70.3587867  98.6770096  17.1117147
  68.9221816  98.6947186  17.5889226  47.0404986  42.3273125   3.1647499
  47.5844890  42.9403083   2.6702453  46.4591831  42.8852703   3.6814512
  50.3633780  41.7869179   2.5008820  49.5729324  41.7693318   1.9613319
  50.1267135  42.3257472   3.2557857  45.1631045  39.9732891   5.0276255
  46.0322204  40.1473544   4.6662890  44.6837796  40.7927308   4.9051984
  56.8223520  51.6821517  -5.5678470  57.4601930  51.5628265  -6.2715130
  56.7044363  52.6302361  -5.5090518  54.1133010  52.7883797   0.3269260
  54.1021650  52.3936596  -0.5450236  54.2753649  52.0549870   0.9203031
  50.8340271  55.5720909  -0.7251556  50.5430137  56.4766540  -0.8404890
  51.4697255  55.6137437  -0.0107486  51.7596478  52.9497758  -4.1350196
  52.3560050  52.7253780  -4.8493233  51.8171449  52.2082503  -3.5324749
  61.7773216  49.3448204  -7.5892284  62.5098388  48.7747421  -7.3554454
  61.0212572  48.9569805  -7.1485778  59.2998636  43.0569779  -3.1297675
  58.9681961  43.9265190  -3.3536460  58.7044250  42.7406063  -2.4503645
  55.7930156  55.2582325  -3.7301762  55.4930879  56.1607363  -3.8385955
  55.4481215  54.9914508  -2.8780609  50.7750936  62.0226645 -10.7630795
  50.6974965  62.9734470 -10.6842314  50.1712579  61.6772517 -10.1055868
  53.2668165  49.1954510   1.8930572  52.4901499  49.7548430   1.8833437
  53.9058728  49.6811293   2.4145442  61.0588946  45.9781303  -4.2726451
  60.4163326  46.2713836  -4.9186657  60.5543875  45.8634224  -3.4673254
  51.5214538  52.0039964   1.4548539  52.2629222  52.5425008   1.1783363
  50.8151523  52.6306252   1.6120091  56.9969877  54.1469104   0.0520701
  57.4053233  53.7051515  -0.6924667  56.2747139  53.5721732   0.3054894
  53.3500947  49.0841711  -2.5745742  54.1962143  49.5081125  -2.4311093
  53.2899585  48.4275335  -1.8807179  57.3198692  54.7070295  -6.1927010
  56.6907554  54.8716009  -6.8950943  56.9324354  55.1211904  -5.4216046
  61.1987924  55.6424733  -8.8382647  60.5138962  56.0223634  -9.3885613
  61.2831773  56.2520059  -8.1050699  56.5000393  46.7446079  -0.9164569
  56.2561325  47.4988140  -1.4530293  56.7760323  47.1231427  -0.0817322
  58.4538856  53.2884692  -2.2387303  58.6655751  53.9316452  -2.9152922
  58.4068604  52.4547008  -2.7065373  50.2575901  49.1579612   2.2563849
  49.6274562  49.8395893   2.4899246  50.1511989  49.0462693   1.3116987
  59.5684683  56.1656647  -4.0664946  60.3902127  55.7636834  -4.3482264
  59.5647086  56.0624881  -3.1148830  53.3341287  55.7140690  -1.9104235
  53.3985719  56.1761098  -1.0746063  52.6252211  55.0838055  -1.7821925
  67.6590677  52.5095396  -7.7179974  66.9054385  51.9402794  -7.8735970
  67.7938218  52.4758060  -6.7709340  49.5356644  43.4600378   4.6189100
  49.1423590  42.9066576   5.2936745  50.3522785  43.7710956   5.0095618
  52.4524605  44.8758257   2.2109357  53.1934319  45.4765410   2.1313819
  52.6842528  44.1335895   1.6527399  47.5965943  50.0614624   0.4887587
  47.4819458  49.1599881   0.7894685  46.7410461  50.3078321   0.1372403
  54.6757781  58.0032364   2.0875087  54.2321635  57.2168743   1.7695992
  55.3374995  58.1911515   1.4218978  49.4344902  59.5328166  -3.3864234
  49.9852327  59.4045229  -4.1587240  48.5956378  59.8323055  -3.7369342
  56.7739019  58.2835164   0.1156488  56.7557494  59.1044045  -0.3763242
  57.6958939  58.1589240   0.3406630  53.2312073  55.7979294   0.9579997
  53.7640410  55.0367582   0.7279305  52.7026154  55.5052946   1.7004151
  59.5757632  53.1214307  -6.4134145  58.9181306  53.8113568  -6.3254016
  60.3798031  53.5110739  -6.0700159  59.1524887  56.4564681 -10.2351061
  58.6987214  55.6155591 -10.1785870  58.5218854  57.0926079  -9.8976280
  57.5957826  58.2941178  -9.3001242  57.8880801  58.8546235 -10.0188877
  58.1056447  58.5869739  -8.5448083  52.5591451  59.0721529  -8.2107789
  52.5167630  59.2982375  -9.1399257  53.4754150  58.8384903  -8.0621988
  56.0057085  49.5405596  -1.3127160  56.3606473  49.7677069  -0.4532694
  56.6529216  49.8723973  -1.9349905  61.7624202  54.7300559  -5.5966559
  62.1960708  54.6375848  -4.7483505  62.4755782  54.7058060  -6.2346543
  55.4952097  58.3302653  -4.0633459  55.5489119  58.8993590  -3.2955743
  54.6266878  58.5004538  -4.4279422  62.6239751  54.7724260  -3.0633674
  62.8175641  55.6770070  -2.8174399  62.5240369  54.3131679  -2.2295089
  54.2776062  44.6582150  -0.5643347  53.6303977  45.3572100  -0.6578870
  55.0477077  45.0918294  -0.1967098  57.6854860  54.9231003   2.5107207
  57.5340366  54.6941554   1.5937290  57.6759539  55.8801604   2.5238552
  54.4540196  52.4962915  -2.5046527  55.3832256  52.6474075  -2.6777560
  54.0331226  52.5846936  -3.3597880  53.2528528  56.5213580  -4.7347989
  53.1139614  56.1532364  -3.8622051  52.4643124  57.0361219  -4.9064032
  54.8033743  55.8995182  -7.3459152  54.4683576  55.8595952  -6.4501502
  54.3037689  55.2339898  -7.8188741  48.7777987  51.3062812  -1.8206570
  48.6397785  50.5743051  -1.2195031  49.6882911  51.2171713  -2.1022383
  51.4060288  51.0182772  -2.3322891  52.1159906  50.3775964  -2.3736272
  51.3629596  51.2695667  -1.4096710  59.3947067  57.9550125   0.5883688
  59.3359613  57.2709345  -0.0785729  59.7966585  58.6969115   0.1364314
  50.1189222  48.0047990  -0.5127251  49.5826579  47.5538728   0.1394345
  49.5305930  48.1393898  -1.2556787  48.4137765  64.7712039  -6.6182593
  48.6534364  65.4030563  -5.9403574  47.5706962  64.4200079  -6.3317233
  59.3964474  55.9189709  -1.1802332  58.5091253  55.5815631  -1.0575933
  59.9663025  55.1872740  -0.9433566  52.9265627  60.5791161  -4.2141089
  52.8535799  61.3846133  -3.7021784  52.4843020  60.7783127  -5.0393067
  63.8781814  51.3297926  -6.4185770  63.8671691  52.2122642  -6.7891837
  63.0099194  50.9769477  -6.6131233  55.3864311  60.4777995  -2.0582930
  56.0992283  61.1125460  -2.1307029  54.8954339  60.5741861  -2.8742928
  50.4376224  58.2272439  -1.2377359  51.1385684  58.8608922  -1.0847965
  49.9671339  58.5687170  -1.9981720  58.2377510  50.7817046  -3.4124809
  57.5848961  51.0292954  -4.0672356  58.6157890  49.9681185  -3.7462332
  55.1984684  60.8176739  -9.3096639  55.3807079  59.9998395  -8.8468886
  56.0217670  61.0344432  -9.7471749  54.2865083  51.5236857   3.0741228
  53.6105720  51.4230987   3.7443603  55.1092717  51.3676071   3.5377225
  46.0343942  57.7608794  -4.3046257  46.6197379  57.0152482  -4.1718352
  45.8368781  58.0712751  -3.4209593  53.0287866  62.8303785  -2.6901156
  53.5806174  62.9935406  -1.9252071  53.3694060  63.4208223  -3.3621131
  47.4804632  47.2502067   1.5593763  48.1076671  46.8679144   2.1731288
  46.6232551  47.0316269   1.9249456  57.8798740  57.6565042   3.1647499
  58.4238644  58.2695001   2.6702453  57.2985585  58.2144621   3.6814512
  56.1656253  60.7785760  -5.7037474  56.0407393  59.9775500  -6.2126528
  56.8235345  61.2731954  -6.1923504  58.2291162  58.5794780  -4.0757924
  57.2821497  58.4600132  -4.1479597  58.5773935  57.6917278  -3.9931662
  50.5890735  44.4688919  -0.2519682  51.1125137  44.7151216   0.5106628
  50.3703068  45.3008954  -0.6716544  55.2337595  58.3747497  -7.8753571
  55.0862558  57.4464204  -7.6946001  56.0591089  58.3967587  -8.3596496
  58.8371717  59.1976055  -6.7888699  59.7618264  58.9918917  -6.9264247
  58.6687020  58.9492457  -5.8799357  58.6267033  59.7161723 -11.4326607
  58.8003911  59.1508145 -12.1852755  59.1195924  60.5162618 -11.6147117
  64.4806424  52.4798146  -9.8136307  64.9237570  51.7305471 -10.2117184
  63.6032935  52.4708282 -10.1962575  45.2310015  50.8546288  -0.4732891
  44.4891751  51.0028924   0.1131739  44.9102759  51.1154554  -1.3366142
  53.1753677  60.3962266  -0.6752501  53.4840804  60.1511413   0.1970198
  53.9729160  60.6008905  -1.1633631  53.1974290  62.5500176  -8.4447125
  52.7579280  62.0576555  -7.7514268  53.9482406  62.0073144  -8.6855050
  50.6448162  58.0938185  -6.3724823  50.0228171  57.4308890  -6.6722595
  51.3153029  58.1199317  -7.0551175  50.7172689  46.5719973   3.2207683
  50.7660845  47.4482096   2.8385452  51.2595203  46.0297366   2.6479326
  61.2027535  57.1161096   2.5008820  60.4123079  57.0985235   1.9613319
  60.9660889  57.6549390   3.2557857  61.3225410  53.9653563  -0.1858452
  61.3723415  53.8003570   0.7557071  61.2139333  53.0980822  -0.5760571
  58.6129172  49.9484491   1.1300855  59.5139035  49.8090956   0.8384853
  58.6877147  50.1138946   2.0699033  52.9471978  47.3251346  -0.0245959
  52.0775287  47.6184912  -0.2963370  53.1831458  47.9091791   0.6961305
  62.8243607  56.3850504   0.0583570  62.5328415  56.7480485   0.8947031
  62.2115738  55.6717513  -0.1203098  64.0239289  53.9503384  -7.4213860
  64.8586180  54.3893188  -7.2576299  64.1598418  53.4742037  -8.2405614
  61.0730795  51.5083119  -1.4736372  61.5484917  51.7010765  -2.2817521
  60.1496360  51.5642305  -1.7192988  59.7732464  48.3848879  -3.2408066
  60.7249887  48.4846977  -3.2195842  59.6035914  47.5927148  -2.7309982
  57.7946843  45.4704462  -3.0548665  57.1996776  45.7509475  -3.7502177
  57.5096540  45.9598363  -2.2831924  62.2520542  51.6054999  -4.1265767
  62.2196862  50.6670999  -3.9406083  62.8621165  51.6839035  -4.8599942
  62.4015030  48.3966042  -4.0807484  61.8854079  47.6124499  -4.2677555
  63.2854979  48.0684759  -3.9160964  68.0697092  52.6671006  -4.9859730
  68.8000480  52.4056294  -4.4252027  67.4604037  51.9299727  -4.9457662
  66.1512389  50.8078868  -4.3885279  65.4245552  50.6734833  -4.9968787
  65.7359676  51.1155697  -3.5828561  53.9742565  54.5268798   3.3762094
  54.8945575  54.7047397   3.5702141  53.9392148  53.5824843   3.2241794
  51.8432503  48.0103038   5.4087624  51.7429230  48.9597395   5.3399715
  51.6254045  47.6821277   4.5363694  51.7063773  51.4400177   4.2252686
  51.2230855  52.2400537   4.4316575  51.7924712  51.4508122   3.2720130
  47.6337111  55.3304712  -3.7378880  48.5880364  55.2988654  -3.8048949
  47.4349634  54.8695336  -2.9228654  48.2236493  53.9005828  -1.1708083
  49.0429382  54.3949906  -1.1473245  48.4973300  52.9837796  -1.1990515
  45.9887339  60.8724331  -6.7208682  45.8541807  60.1124732  -7.2870684
  45.5719402  61.5965231  -7.1879893  66.0761256  50.3356921  -8.2608426
  65.5160814  50.4050110  -7.4876864  65.4704760  50.1597906  -8.9808930
  49.1456465  61.7693648  -6.5090240  49.0288849  62.7139081  -6.6111549
  48.3248911  61.4667210  -6.1204440  56.0024799  55.3024809   5.0276255
  56.8715959  55.4765461   4.6662890  55.5231551  56.1219226   4.9051984
  50.1710979  62.4221910  -3.2934311  51.0738226  62.4545520  -2.9767816
  49.9448349  61.4922361  -3.2787975  51.9264581  61.1752897  -6.6324233
  50.9760212  61.1754758  -6.7459860  52.2297068  60.4285631  -7.1488198
  47.8168898  45.3811579   3.6259129  48.6800359  45.0248384   3.8362453
  47.2434309  45.0425474   4.3134533  64.4706981  66.9640863  -5.6316946
  64.1325493  66.8481928  -6.5196411  65.3396749  66.5632028  -5.6515939
  64.9526764  68.1175715   0.3269260  64.9415405  67.7228513  -0.5450236
  65.1147404  67.3841788   0.9203031  61.6734025  70.9012827  -0.7251556
  61.3823891  71.8058458  -0.8404890  62.3091010  70.9429354  -0.0107486
  62.5990232  68.2789675  -4.1350196  63.1953804  68.0545698  -4.8493233
  62.6565204  67.5374421  -3.5324749  70.1392391  58.3861696  -3.1297675
  69.8075716  59.2557107  -3.3536460  69.5438004  58.0697980  -2.4503645
  60.0836392  67.0388039  -7.6965058  59.1586888  66.9064253  -7.4887366
  60.3320805  67.8182258  -7.1995116  70.0321054  63.1056782  -6.0504325
  69.1237931  63.0372191  -6.3445564  69.9808650  63.5828727  -5.2222500
  57.4445203  66.6821313  -6.8621269  57.5737584  66.9355792  -5.9481857
  56.7642654  67.2749021  -7.1816614  64.1061920  64.5246428   1.8930572
  63.3295254  65.0840348   1.8833437  64.7452483  65.0103211   2.4145442
  71.8982701  61.3073221  -4.2726451  71.2557081  61.6005754  -4.9186657
  71.3937629  61.1926141  -3.4673254  62.3608292  67.3331881   1.4548539
  63.1022977  67.8716925   1.1783363  61.6545278  67.9598170   1.6120091
  67.8363632  69.4761022   0.0520701  68.2446988  69.0343432  -0.6924667
  67.1140893  68.9013649   0.3054894  64.1894702  64.4133629  -2.5745742
  65.0355897  64.8373042  -2.4311093  64.1293340  63.7567253  -1.8807179
  67.3394147  62.0737997  -0.9164569  67.0955079  62.8280058  -1.4530293
  67.6154078  62.4523345  -0.0817322  69.2932610  68.6176609  -2.2387303
  69.5049505  69.2608369  -2.9152922  69.2462358  67.7838926  -2.7065373
  66.8958839  61.2294430  -5.3350731  66.0343318  61.5275684  -5.0433993
  66.9221274  61.4464829  -6.2669698  61.0969656  64.4871530   2.2563849
  60.4668317  65.1687810   2.4899246  60.9905744  64.3754611   1.3116987
  56.3914628  64.1543326  -6.8170227  55.6013682  64.4100854  -7.2930116
  56.8825876  64.9691663  -6.7118186  64.1735041  71.0432608  -1.9104235
  64.2379474  71.5053015  -1.0746063  63.4645965  70.4129973  -1.7821925
  54.6752331  64.4073816  -4.3855236  54.9260370  65.2920826  -4.1197660
  55.2111880  64.2278418  -5.1580144  60.3750399  58.7892295   4.6189100
  59.9817344  58.2358494   5.2936745  61.1916539  59.1002874   5.0095618
  63.2918360  60.2050175   2.2109357  64.0328073  60.8057328   2.1313819
  63.5236283  59.4627812   1.6527399  58.4359698  65.3906542   0.4887587
  58.3213213  64.4891799   0.7894685  57.5804215  65.6370239   0.1372403
  65.5151535  73.3324282   2.0875087  65.0715390  72.5460661   1.7695992
  66.1768749  73.5203433   1.4218978  67.6132774  73.6127082   0.1156488
  67.5951249  74.4335963  -0.3763242  68.5352694  73.4881157   0.3406630
  64.0705828  71.1271211   0.9579997  64.6034164  70.3659500   0.7279305
  63.5419909  70.8344863   1.7004151  67.2375523  56.2331277  -3.5126361
  66.8939792  57.1232919  -3.5887251  67.6054485  56.0432935  -4.3756776
  66.3172063  58.6035933  -5.5477128  65.8136859  58.5666068  -6.3609323
  66.6102670  59.5128675  -5.4880472  62.5614949  58.6874662  -6.5410946
  63.4267946  58.4917471  -6.9005057  62.6292458  58.4585014  -5.6141590
  60.1677268  60.9176870  -9.1694580  60.7421020  60.6952052  -9.9021387
  60.7548250  60.9865565  -8.4165978  62.4699936  57.7918119 -10.4419510
  61.8164348  57.4767136 -11.0662895  62.4280410  57.1693860  -9.7159687
  65.7037676  64.2800053  -6.1171863  64.7860237  64.5015000  -6.2750175
  66.1197820  64.3546363  -6.9760155  69.0363188  55.4924837  -8.4108624
  69.3422065  54.6322200  -8.6982709  69.7615793  56.0842457  -8.6109630
  55.3287544  65.8955523 -10.0227026  55.1311944  65.3024884 -10.7475959
  54.7734208  65.5907733  -9.3051087  66.8450840  64.8697514  -1.3127160
  67.2000227  65.0968987  -0.4532694  67.4922971  65.2015891  -1.9349905
  60.7390703  61.9774045  -4.5280819  61.3790082  61.8362804  -5.2257856
  59.9068233  61.6908558  -4.9042217  57.7419319  61.9474370  -9.7507832
  58.0026136  62.8619703  -9.8598672  58.5636491  61.4798813  -9.6011219
  59.2144244  63.3612127  -2.5809008  59.8867298  63.1529489  -3.2296359
  58.3874031  63.1634213  -3.0203775  65.1169816  59.9874068  -0.5643347
  64.4697732  60.6864018  -0.6578870  65.8870832  60.4210212  -0.1967098
  68.5248614  70.2522920   2.5107207  68.3734121  70.0233472   1.5937290
  68.5153294  71.2093522   2.5238552  65.2933951  67.8254833  -2.5046527
  66.2226011  67.9765993  -2.6777560  64.8724981  67.9138854  -3.3597880
  59.6171742  66.6354730  -1.8206570  59.4791540  65.9034969  -1.2195031
  60.5276665  66.5463630  -2.1022383  62.2454042  66.3474689  -2.3322891
  62.9553661  65.7067882  -2.3736272  62.2023351  66.5987584  -1.4096710
  60.9582976  63.3339907  -0.5127251  60.4220333  62.8830646   0.1394345
  60.3699685  63.4685816  -1.2556787  70.2358228  71.2481627  -1.1802332
  69.3485007  70.9107548  -1.0575933  70.8056779  70.5164658  -0.9433566
  51.8887375  67.5805718  -7.8559280  52.5758415  67.2667448  -8.4438265
  51.7335504  68.4847083  -8.1292029  56.6922098  62.4695915  -3.4274257
  56.6080286  61.8621585  -4.1623847  55.8704804  62.9604933  -3.4264760
  66.8645811  60.9549479  -8.0604062  67.3614511  60.2019441  -8.3802991
  66.0932793  60.9913795  -8.6260852  63.4480780  63.0966862  -8.3332377
  63.0778568  62.5437902  -7.6451472  63.9439873  62.4924995  -8.8857377
  61.2769979  73.5564357  -1.2377359  61.9779438  74.1900840  -1.0847965
  60.8065094  73.8979088  -1.9981720  69.3064806  57.9219072  -5.9124703
  68.3927886  58.1523299  -5.7442496  69.7357908  58.0057516  -5.0610670
  69.0771265  66.1108964  -3.4124809  68.4242715  66.3584871  -4.0672356
  69.4551645  65.2973102  -3.7462332  65.1258838  66.8528775   3.0741228
  64.4499475  66.7522904   3.7443603  65.9486472  66.6967989   3.5377225
  56.8737697  73.0900712  -4.3046257  57.4591134  72.3444399  -4.1718352
  56.6762535  73.4004668  -3.4209593  51.4655352  65.6606312  -5.5841813
  51.5039451  65.1269902  -4.7904695  50.9595644  65.1341517  -6.2030836
  58.8446114  60.5070852  -2.0879271  58.9087440  61.3685683  -2.5001873
  58.7813234  59.8944854  -2.8206913  58.3198386  62.5793985   1.5593763
  58.9470425  62.1971062   2.1731288  57.4626305  62.3608187   1.9249456
  68.7192495  72.9856960   3.1647499  69.2632399  73.5986918   2.6702453
  68.1379340  73.5436538   3.6814512  58.6258176  62.4626411  -6.5260333
  57.9044762  63.0762378  -6.6652860  59.4151432  62.9984175  -6.6043687
  61.4284490  59.7980837  -0.2519682  61.9518891  60.0443134   0.5106628
  61.2096823  60.6300872  -0.6716544  62.6337035  60.7394532  -2.5670011
  62.2933855  59.9402345  -2.1649331  61.9276041  61.0396243  -3.1393178
  63.2853507  57.8243845  -4.1142688  64.1079576  57.3504323  -4.2363798
  63.5291570  58.6034328  -3.6144002  60.8092085  64.5162965  -6.3050709
  60.6636666  64.8303268  -5.4126428  60.3317289  65.1347866  -6.8579811
  62.6688468  61.5065513  -6.2569820  62.6550037  60.6106606  -6.5937522
  63.3860896  61.5136177  -5.6231534  64.5214599  61.9402853  -4.2116692
  64.2632377  62.8619924  -4.2132362  63.9899639  61.5433288  -3.5216228
  55.2837747  67.0568310  -3.3663048  54.7391216  67.8328118  -3.2342774
  56.1617097  67.4039114  -3.5243927  64.9416555  58.0734804  -7.8515530
  64.9638251  58.1374137  -8.8063550  65.3584614  57.2339313  -7.6575024
  56.0703769  66.1838206  -0.4732891  55.3285505  66.3320841   0.1131739
  55.7496514  66.4446471  -1.3366142  61.5566444  61.9011891   3.2207683
  61.6054599  62.7774014   2.8385452  62.0988958  61.3589284   2.6479326
  72.0421289  72.4453014   2.5008820  71.2516833  72.4277153   1.9613319
  71.8054644  72.9841308   3.2557857  72.1619164  69.2945480  -0.1858452
  72.2117169  69.1295488   0.7557071  72.0533088  68.4272739  -0.5760571
  69.4522927  65.2776408   1.1300855  70.3532790  65.1382873   0.8384853
  69.5270901  65.4430863   2.0699033  63.7865732  62.6543263  -0.0245959
  62.9169042  62.9476829  -0.2963370  64.0225212  63.2383708   0.6961305
  71.9124549  66.8375037  -1.4736372  72.3878671  67.0302683  -2.2817521
  70.9890115  66.8934222  -1.7192988  66.4904766  58.8722880  -2.5080538
  67.0086710  59.6083907  -2.8334050  66.1359899  59.1786873  -1.6733779
  66.7417360  55.2923163  -6.9879642  67.0219114  54.6246352  -6.3619215
  67.5267967  55.4852258  -7.5004978  70.6126218  63.7140797  -3.2408066
  71.5643641  63.8138894  -3.2195842  70.4429669  62.9219065  -2.7309982
  68.6340598  60.7996380  -3.0548665  68.0390530  61.0801393  -3.7502177
  68.3490295  61.2890281  -2.2831924  73.2408785  63.7257960  -4.0807484
  72.7247833  62.9416416  -4.2677555  74.1248733  63.3976676  -3.9160964
  70.9019512  57.4698975  -8.1211671  70.7044333  57.1614064  -7.2368339
  71.5119217  58.1960614  -7.9913741  64.8136320  69.8560715   3.3762094
  65.7339329  70.0339314   3.5702141  64.7785903  68.9116761   3.2241794
  54.0318485  65.0499309  -7.6984631  53.7121269  64.1964617  -7.9910257
  53.4851913  65.2647887  -6.9426664  57.8098392  67.7661750  -3.9815125
  58.0284402  68.6978858  -3.9627091  58.2224166  67.4069725  -3.1960321
  66.6593158  57.3507882 -10.3715140  67.2124197  57.7703336  -9.7125116
  66.8963245  56.4243630 -10.3292184  62.6826258  63.3394956   5.4087624
  62.5822984  64.2889313   5.3399715  62.4647800  63.0113195   4.5363694
  53.9006745  68.6702221  -5.7291510  53.2070216  68.2556173  -6.2421555
  54.6479736  68.7122757  -6.3258091  62.5457528  66.7692095   4.2252686
  62.0624609  67.5692455   4.4316575  62.6318467  66.7800040   3.2720130
  55.8143487  68.6020474  -7.8525495  55.7914175  68.7008162  -8.8043612
  56.1244124  69.4485625  -7.5308329  58.4730865  70.6596629  -3.7378880
  59.4274119  70.6280572  -3.8048949  58.2743389  70.1987253  -2.9228654
  59.0630247  69.2297745  -1.1708083  59.8823136  69.7241824  -1.1473245
  59.3367055  68.3129714  -1.1990515  54.3165161  63.5635879  -0.4715885
  54.9624025  63.0534833   0.0171340  54.1082313  64.3004561   0.1027540
  66.8418554  70.6316727   5.0276255  67.7109713  70.8057379   4.6662890
  66.3625305  71.4511144   4.9051984  66.6520891  54.4218701 -10.4646052
  65.8853287  53.8677187 -10.3189370  67.0631596  54.4940569  -9.6031901
  58.6562652  60.7103496   3.6259129  59.5194114  60.3540301   3.8362453
  58.0828063  60.3717391   4.3134533  71.2144153  74.1184213   4.6189100
  70.8211099  73.5650412   5.2936745  72.0310294  74.4294792   5.0095618
  73.5220012  78.6686874   5.4087624  73.4216739  79.6181231   5.3399715
  73.3041554  78.3405112   4.5363694  69.4956407  76.0395414   3.6259129
  70.3587868  75.6832219   3.8362453  68.9221818  75.7009309   4.3134533
  68.7192496  49.9919083 -10.1107195  69.2632400  50.6049041 -10.6052240
  68.1379341  50.5498661  -9.5940182  72.0421291  49.4515137 -10.7745873
  71.2516834  49.4339276 -11.3141374  71.8054645  49.9903430 -10.0196837
  66.8418555  47.6378849  -8.2478438  67.7109715  47.8119502  -8.6091803
  66.3625306  48.4573266  -8.3702709  71.2144154  51.1246336  -8.6565593
  70.8211100  50.5712534  -7.9817949  72.0310295  51.4356914  -8.2659076
  73.5220013  55.6748996  -7.8667069  73.4216740  56.6243353  -7.9354978
  73.3041555  55.3467235  -8.7390999  69.4956408  53.0457537  -9.6495565
  70.3587870  52.6894342  -9.4392240  68.9221819  52.7071432  -8.9620160
   2.6228145  98.4971152  45.3838796   1.8691853  97.9278550  45.2282801
   2.7575686  98.4633817  46.3309431   3.0334560  98.6546762  48.1159040
   3.7637948  98.3932050  48.6766744   2.4241505  97.9175484  48.1561108
   1.1149857  96.7954625  48.7133492   0.3883020  96.6610590  48.1049983
   0.6997144  97.1031453  49.5190210   1.0398724  96.3232678  44.8410344
   0.4798282  96.3925867  45.6141906   0.4342228  96.1473662  44.1209841
   4.0000656 101.4800593  44.6910147   4.3059533 100.6197957  44.4036062
   4.7253261 102.0718213  44.4909140   1.7054828 101.2798919  46.1139129
   1.9856582 100.6122108  46.7399555   2.4905435 101.4728015  45.6013793
   1.6158359 100.4094457  42.6372718   0.8490755  99.8552944  42.7829400
   2.0269064 100.4816326  43.4986869   2.6228146  75.5033275  32.1084103
   1.8691854  74.9340673  31.9528107   2.7575687  75.4695939  33.0554737
   3.0334561  75.6608885  34.8404347   3.7637949  75.3994173  35.4012050
   2.4241506  74.9237607  34.8806415   1.1149858  73.8016747  35.4378798
   0.3883022  73.6672712  34.8295290   0.6997145  74.1093576  36.2435516
   1.0398726  73.3294800  31.5655651   0.4798284  73.3987990  32.3387213
   0.4342229  73.1535785  30.8455147   2.6254744  90.0051314  34.2585607
   3.2633154  89.8858062  33.5548947   2.5075587  90.9532158  34.3173559
   2.1796013  87.7302768  31.3338815   2.9659102  87.3122191  30.9829232
   2.4434717  88.6348860  31.5020463   7.5804440  87.6678001  32.2371793
   8.3129612  87.0977218  32.4709623   6.8243795  87.2799602  32.6778299
   5.1029860  81.3799575  36.6966402   4.7713185  82.2494986  36.4727617
   4.5075473  81.0635859  37.3760432   1.5961380  93.5812121  36.0962315
   1.2962103  94.4837160  35.9878122   1.2512439  93.3144305  36.9483468
   4.9958523  86.0994662  33.7759752   4.0875401  86.0310070  33.4818513
   4.9446119  86.5766607  34.6041577   6.8620170  84.3011100  35.5537626
   6.2194550  84.5943633  34.9077420   6.3575098  84.1864020  36.3590823
   4.5160333  88.0474273  26.2423485   5.4278190  88.2801660  26.0671183
   4.0069981  88.6311317  25.6798564   2.8001101  92.4698901  39.8784778
   3.2084457  92.0281312  39.1339410   2.0778363  91.8951529  40.1318971
   3.1229916  93.0300092  33.6337067   2.4938778  93.1945806  32.9313134
   2.7355578  93.4441701  34.4048031   7.0019148  93.9654530  30.9881430
   6.3170186  94.3453431  30.4378464   7.0862997  94.5749856  31.7213378
   2.3031617  85.0675876  38.9099508   2.0592548  85.8217937  38.3733784
   2.5791547  85.4461224  39.7446755   4.2570079  91.6114489  37.5876774
   4.4686975  92.2546248  36.9111155   4.2099828  90.7776805  37.1198704
   1.8596308  84.2232309  34.4913346   0.9980787  84.5213563  34.7830084
   1.8858743  84.4402708  33.5594379   5.3715907  94.4886444  35.7599131
   6.1933351  94.0866631  35.4781813   5.3678310  94.3854678  36.7115247
  13.4621900  90.8325192  32.1084103  12.7085609  90.2632591  31.9528107
  13.5969442  90.7987857  33.0554737   2.5770243  96.6064961  39.9420565
   2.5588718  97.4273842  39.4500835   3.4990163  96.4819036  40.1670707
   2.2012992  79.2269157  36.3137716   1.8577261  80.1170798  36.2376826
   2.5691955  79.0370814  35.4507301   1.2809532  81.5973812  34.2786949
   0.7774328  81.5603947  33.4654754   1.5740139  82.5066555  34.3383605
   7.1397549  91.9710122  26.7563324   6.3626992  91.6321282  26.3118486
   7.8189030  91.9762746  26.0818289   1.9549578  87.0904860  26.6469932
   1.6499713  87.4051009  27.4980075   2.9080020  87.1686280  26.6897265
   5.3788856  91.4444104  33.4129932   4.7212530  92.1343365  33.5010061
   6.1829255  91.8340536  33.7563918   4.1894314  89.7988476  31.4633874
   4.7026196  90.4318468  31.9655584   4.8395538  89.1989672  31.0977234
   1.4510193  88.6729348  28.8394895   2.1982012  89.1850745  28.5302017
   1.7201783  88.3513400  29.6999288   4.9556111  94.7794478  29.5913017
   4.5018438  93.9385388  29.6478207   4.3250077  95.4155876  29.9287797
   3.8989030  85.7086464  30.8213684   3.1611787  85.1963850  31.1523927
   4.1515804  85.2686845  30.0096961   4.0000658  78.4862716  31.4155453
   4.3059534  77.6260079  31.1281368   4.7253262  79.0780336  31.2154447
   1.8088309  87.8635393  38.5136917   2.1637697  88.0906866  39.3731383
   2.4560440  88.1953770  37.8914172   7.5386046  90.9853829  29.2186246
   7.4003944  91.1755425  28.2907435   7.1822265  91.7473212  29.6754297
   7.5655425  93.0530356  34.2297518   7.9991932  92.9605645  35.0780572
   8.2787006  93.0287856  33.5917534   1.2983320  96.6532450  35.7630618
   1.3520343  97.2223386  36.5308334   0.4298102  96.8234335  35.3984655
   8.4270975  93.0954057  36.7630403   8.6206865  93.9999867  37.0089678
   8.3271593  92.6361476  37.5968988   3.4886084  93.2460799  42.3371284
   3.3371590  93.0171351  41.4201367   3.4790763  94.2031401  42.3502629
   5.1978290  96.2779922  40.4147765   5.1390837  95.5939142  39.7478348
   5.5997809  97.0198912  39.9628391   5.1995698  94.2419506  38.6461745
   4.3122476  93.9045428  38.7688144   5.7694249  93.5102537  38.8830511
   1.8283281  83.9487358  31.7660015   2.3251980  83.1957320  31.4461086
   1.0570262  83.9851674  31.2003225   9.6813038  89.6527723  33.4078307
   9.6702914  90.5352439  33.0372240   8.8130418  89.2999274  33.2132844
   1.1895535  98.8007792  37.7681147   1.9023507  99.4355257  37.6957048
   0.6985563  98.8971658  36.9521149   2.9113061  92.7059045  29.3398439
   1.9769340  92.8260507  29.1703143   3.0889730  91.8031512  29.0758449
   6.2985613  88.5476364  29.8748473   6.7646065  89.3804356  29.8008775
   6.7493113  88.0821346  30.5793731   4.2702276  80.9156951  33.9139374
   3.3565355  81.1461178  34.0821581   4.6995377  80.9995395  34.7653407
   4.0408734  89.1046843  36.4139268   3.3880184  89.3522751  35.7591721
   4.4189114  88.2910981  36.0801745   3.6829964  95.9794839  42.9911576
   4.2269868  96.5924797  42.4966530   3.1016809  96.5374418  43.5078589
   1.9687477  99.1015557  34.1226603   1.8438617  98.3005297  33.6137549
   2.6266568  99.5961751  33.6340573   4.0322386  96.9024577  35.7506153
   3.0852721  96.7829928  35.6784480   4.3805159  96.0147075  35.8332415
   4.6402941  97.5205852  33.0375378   5.5649488  97.3148714  32.8999830
   4.4718244  97.2722253  33.9464720   1.0330333  84.5515131  26.9442623
   1.2493948  85.4339769  26.6431451   0.5524400  84.1601345  26.2148265
  10.2837648  90.8027943  30.0127770  10.7268794  90.0535268  29.6146893
   9.4064158  90.7938079  29.6301502   7.3164853  94.8057990  27.0221699
   7.8416177  95.1445262  26.2971019   7.2287205  93.8705005  26.8384834
   7.0058759  95.4390893  42.3272897   6.2154302  95.4215032  41.7877396
   6.7692113  95.9779187  43.0821934   7.1256634  92.2883360  39.6405625
   7.1754639  92.1233367  40.5821148   7.0170557  91.4210619  39.2503506
   4.4160396  88.2714288  40.9564932   5.3170259  88.1320753  40.6648930
   4.4908371  88.4368743  41.8963110   8.6274831  94.7080301  39.8847647
   8.3359639  95.0710282  40.7211108   8.0146962  93.9947309  39.7060979
   9.8270513  92.2733181  32.4050217  10.6617404  92.7122985  32.5687778
   9.9629642  91.7971834  31.5858463   6.8762019  89.8312916  38.3527705
   7.3516140  90.0240562  37.5446556   5.9527584  89.8872102  38.1071089
   1.4542235  81.8660759  37.3183539   1.9724179  82.6021786  36.9930027
   1.0997368  82.1724753  38.1530298   1.7054829  78.2861042  32.8384435
   1.9856583  77.6184231  33.4644862   2.4905436  78.4790137  32.3259099
   5.5763688  86.7078676  36.5856011   6.5281111  86.8076774  36.6068235
   5.4067138  85.9156944  37.0954095   3.5978067  83.7934259  36.7715412
   3.0027999  84.0739272  36.0761900   3.3127764  84.2828160  37.5432153
   8.0551766  89.9284796  35.6998310   8.0228086  88.9900796  35.8857994
   8.6652389  90.0068832  34.9664135   8.2046254  86.7195839  35.7456593
   7.6885303  85.9354296  35.5586522   9.0886203  86.3914556  35.9103113
   5.8656981  80.4636855  31.7052406   5.6681802  80.1551943  32.5895738
   6.4756687  81.1898493  31.8350336  13.8728315  90.9900802  34.8404347
  14.6031704  90.7286091  35.4012050  13.2635261  90.2529524  34.8806415
  11.9543613  89.1308665  35.4378798  11.2276776  88.9964630  34.8295290
  11.5390899  89.4385494  36.2435516   1.6230628  80.3445761  29.4548937
   2.1761666  80.7641215  30.1138961   1.8600714  79.4181510  29.4971893
   5.0009435  82.4546287  28.9627602   4.4208104  83.1131091  28.5805654
   4.7345367  81.6323631  28.5515019   3.4513001  81.8551344  31.1648922
   3.9512779  81.9667879  30.3563241   4.0948609  81.5512397  31.8049730
   3.7834313  84.6146377  28.0183950   2.8960168  84.8996028  27.8004145
   4.1988302  84.4540140  27.1711227   7.1348849  84.6392898  31.7338289
   7.9109239  85.1289350  32.0062906   6.4096983  85.0650952  32.1910159
   9.5721407  85.3520517  32.7912230  10.1665898  85.1116253  32.0805538
   9.6447991  84.6327648  33.4185766   3.7575336  90.1300913  28.2334240
   3.7010538  90.5869464  27.3941873   4.3103679  89.3691598  28.0557083
   7.5680142  85.9190645  29.0584360   7.3117077  85.5187280  29.8892567
   6.9433010  86.6334439  28.9334499  11.8792480  88.6586718  31.5655651
  11.3192038  88.7279907  32.3387213  11.2735984  88.4827703  30.8455147
   1.8056023  93.6254606  44.8540332   2.6747183  93.7995258  44.4926967
   1.3262774  94.4449023  44.7316061   1.6158361  77.4156580  29.3618025
   0.8490756  76.8615067  29.5074707   2.0269066  77.4878449  30.2232176
  13.0189767 103.0594686  31.3338815  13.8052856 102.6414109  30.9829232
  13.2828471 103.9640778  31.5020463  18.4198194 102.9969919  32.2371793
  19.1523366 102.4269136  32.4709623  17.6637550 102.6091519  32.6778299
  15.9423615  96.7091493  36.6966402  15.6106939  97.5786904  36.4727617
  15.3469228  96.3927777  37.3760432  15.8352278 101.4286579  33.7759752
  14.9269155 101.3601988  33.4818513  15.7839874 101.9058524  34.6041577
   9.9093144 102.8476225  41.7194649   9.1326478 103.4070145  41.7097514
  10.5483707 103.3333008  42.2409519  17.7013924  99.6303018  35.5537626
  17.0588305  99.9235551  34.9077420  17.1968853  99.5155938  36.3590823
  15.3554088 103.3766191  26.2423485  16.2671944 103.6093578  26.0671183
  14.8463735 103.9603235  25.6798564   9.9925926 102.7363425  37.2518335
  10.8387121 103.1602839  37.3952984   9.9324563 102.0797050  37.9456898
  13.1425371 100.3967794  38.9099508  12.8986303 101.1509854  38.3733784
  13.4185302 100.7753141  39.7446755  12.6990063  99.5524227  34.4913346
  11.8374542  99.8505480  34.7830084  12.7252497  99.7694626  33.5594379
  24.3015655 106.1617110  32.1084103  23.5479363 105.5924508  31.9528107
  24.4363196 106.1279775  33.0554737   6.1781622  97.1122092  44.4453177
   5.7848568  96.5588291  45.1200822   6.9947763  97.4232671  44.8359695
   9.0949583  98.5279971  42.0373434   9.8359297  99.1287124  41.9577896
   9.3267506  97.7857609  41.4791476  13.0406746  94.5561074  36.3137716
  12.6971016  95.4462716  36.2376826  13.4085709  94.3662732  35.4507301
  10.5904140  99.3919386  29.8795389   9.7345737  99.0026237  29.7001028
  11.0031092  99.4711347  29.0195175  12.1203287  96.9265729  34.2786949
  11.6168082  96.8895865  33.4654754  12.4133894  97.8358472  34.3383605
   8.3646173  97.0104459  33.2853131   9.2299169  96.8147268  32.9259020
   8.4323682  96.7814811  34.2122487  17.9791303 107.3002040  26.7563324
  17.2020746 106.9613200  26.3118486  18.6582784 107.3054663  26.0818289
  12.7943332 102.4196778  26.6469932  12.4893468 102.7342927  27.4980075
  13.7473774 102.4978197  26.6897265   5.9708492  99.2406667  30.6569497
   6.5452244  99.0181849  29.9242690   6.5579474  99.3095362  31.4098099
  15.0288069 105.1280394  31.4633874  15.5419951 105.7610386  31.9655584
  15.6789293 104.5281590  31.0977234   8.2731159  96.1147916  29.3844567
   7.6195572  95.7996933  28.7601182   8.2311634  95.4923656  30.1104390
  11.5068900 102.6029850  33.7092214  10.5891461 102.8244797  33.5513902
  11.9229043 102.6776160  32.8503922  12.2903948 104.0021265  28.8394895
  13.0375767 104.5142662  28.5302017  12.5595537 103.6805318  29.6999288
  14.7382785 101.0378381  30.8213684  14.0005542 100.5255768  31.1523927
  14.9909558 100.5978763  30.0096961  14.8394412  93.8154633  31.4155453
  15.1453289  92.9551997  31.1281368  15.5647017  94.4072254  31.2154447
  12.6482063 103.1927311  38.5136917  13.0031451 103.4198784  39.3731383
  13.2954195 103.5245688  37.8914172  18.3779800 106.3145747  29.2186246
  18.2397699 106.5047343  28.2907435  18.0216019 107.0765129  29.6754297
   6.5421926 100.3003842  35.2983258   7.1821306 100.1592601  34.6006221
   5.7099457 100.0138355  34.9221860   5.0175468 101.6841924  37.2455069
   5.6898522 101.4759286  36.5967718   4.1905255 101.4864010  36.8060302
  10.9201040  98.3103865  39.2620730  10.2728955  99.0093815  39.1685207
  11.6902056  98.7440009  39.6296979   6.7614200 101.6569704  39.3136826
   6.2251557 101.2060443  39.9658422   6.1730909 101.7915613  38.5707290
   2.4953321 100.7925712  36.3989820   2.4111510 100.1851381  35.6640230
   1.6736028 101.2834730  36.3999317  12.6677035  99.2779275  31.7660015
  13.1645735  98.5249238  31.4461086  11.8964017  99.3143592  31.2003225
  20.5206793 104.9819641  33.4078307  20.5096669 105.8644356  33.0372240
  19.6524172 104.6291192  33.2132844   9.2512004 101.4196658  31.4931700
   8.8809792 100.8667699  32.1812605   9.7471096 100.8154792  30.9406700
  17.1379367 103.8768282  29.8748473  17.6039819 104.7096273  29.8008775
  17.5886868 103.4113263  30.5793731  15.1096030  96.2448869  33.9139374
  14.1959110  96.4753096  34.0821581  15.5389131  96.3287313  34.7653407
  14.8802489 104.4338761  36.4139268  14.2273939 104.6814668  35.7591721
  15.2582868 103.6202899  36.0801745   4.6477338  98.8300649  37.7384806
   4.7118664  99.6915480  37.3262204   4.5844458  98.2174651  37.0057164
   4.1229610 100.9023782  41.3857840   4.7501649 100.5200859  41.9995365
   3.2657529 100.6837984  41.7513533   4.4289400 100.7856207  33.3003744
   3.7075986 101.3992175  33.1611217   5.2182656 101.3213972  33.2220390
   7.2315713  98.1210634  39.5744395   7.7550115  98.3672930  40.3370705
   7.0128047  98.9530669  39.1547533   8.4368259  99.0624329  37.2594066
   8.0965079  98.2632142  37.6614746   7.7307265  99.3626040  36.6870899
   9.0884730  96.1473641  35.7121389   9.9110800  95.6734120  35.5900279
   9.3322794  96.9264125  36.2120075  11.8724088  99.8807049  26.9442623
  12.0887702 100.7631687  26.6431451  11.3918155  99.4893262  26.2148265
   8.4719692  99.8295310  33.5694257   8.4581261  98.9336403  33.2326555
   9.1892120  99.8365974  34.2032543  10.3245823 100.2632650  35.6147385
  10.0663601 101.1849721  35.6131715   9.7930863  99.8663085  36.3047849
  10.7447778  96.3964601  31.9748547  10.7669475  96.4603934  31.0200527
  11.1615837  95.5569109  32.1689053  21.1231403 106.1319860  30.0127770
  21.5662549 105.3827186  29.6146893  20.2457913 106.1229997  29.6301502
   7.3597667 100.2241688  43.0471760   7.4085823 101.1003810  42.6649529
   7.9020182  99.6819081  42.4743403  15.2554151 103.6006205  40.9564932
  16.1564013 103.4612670  40.6648930  15.3302125 103.7660660  41.8963110
   9.5896956 100.9773060  39.8018118   8.7200265 101.2706626  39.5300707
   9.8256436 101.5613505  40.5225382  20.6664267 107.6025099  32.4050217
  21.5011159 108.0414903  32.5687778  20.8023396 107.1263752  31.5858463
  17.7155773 105.1604833  38.3527705  18.1909895 105.3532480  37.5446556
  16.7921339 105.2164019  38.1071089  12.2935990  97.1952677  37.3183539
  12.8117934  97.9313704  36.9930027  11.9391123  97.5016670  38.1530298
  12.5448584  93.6152960  32.8384435  12.8250338  92.9476149  33.4644862
  13.3299191  93.8082055  32.3259099  16.4157442 102.0370594  36.5856011
  17.3674865 102.1368691  36.6068235  16.2460893 101.2448862  37.0954095
  14.4371822  99.1226177  36.7715412  13.8421754  99.4031189  36.0761900
  14.1521518  99.6120078  37.5432153  18.8945520 105.2576713  35.6998310
  18.8621840 104.3192714  35.8857994  19.5046144 105.3360750  34.9664135
  19.0440009 102.0487757  35.7456593  18.5279057 101.2646213  35.5586522
  19.9279957 101.7206473  35.9103113  16.7050735  95.7928772  31.7052406
  16.5075557  95.4843860  32.5895738  17.3150441  96.5190411  31.8350336
  24.7122070 106.3192720  34.8404347  25.4425458 106.0578008  35.4012050
  24.1029015 105.5821442  34.8806415  22.7937367 104.4600583  35.4378798
  22.0670531 104.3256548  34.8295290  22.3784654 104.7677411  36.2435516
  10.5333834  96.5959632  27.8324641   9.7234562  96.2506717  28.2079887
  11.2218251  96.2867176  28.4212252  12.4624382  95.6737679  29.4548937
  13.0155421  96.0933133  30.1138961  12.6994468  94.7473427  29.4971893
   8.4857481 101.6624753  45.2351701   8.3854208 102.6119110  45.1663792
   8.2679023 101.3342992  44.3627771  15.8403189  97.7838204  28.9627602
  15.2601858  98.4423008  28.5805654  15.5739122  96.9615549  28.5515019
  14.2906756  97.1843262  31.1648922  14.7906534  97.2959797  30.3563241
  14.9342363  96.8804315  31.8049730  14.6228067  99.9438295  28.0183950
  13.7353922 100.2287945  27.8004145  15.0382056  99.7832058  27.1711227
  17.9742603  99.9684816  31.7338289  18.7502993 100.4581268  32.0062906
  17.2490737 100.3942870  32.1910159  20.4115162 100.6812435  32.7912230
  21.0059653 100.4408171  32.0805538  20.4841746  99.9619565  33.4185766
  14.5969091 105.4592831  28.2334240  14.5404292 105.9161382  27.3941873
  15.1497433 104.6983515  28.0557083  18.4073897 101.2482562  29.0584360
  18.1510831 100.8479198  29.8892567  17.7826765 101.9626356  28.9334499
  22.7186235 103.9878636  31.5655651  22.1585793 104.0571825  32.3387213
  22.1129738 103.8119620  30.8455147  12.4552115  92.7448497  29.3618025
  11.6884511  92.1906984  29.5074707  12.8662820  92.8170366  30.2232176
   4.4593876  99.0333293  43.4523206   5.3225338  98.6770098  43.6626530
   3.8859287  98.6947188  44.1398610  25.6788167 109.1446551  31.4155453
  25.9847043 108.2843915  31.1281368  26.4040771 109.7364171  31.2154447
  23.3842338 108.9444877  32.8384435  23.6644092 108.2768066  33.4644862
  24.1692945 109.1373973  32.3259099  23.2945870 108.0740415  29.3618025
  22.5278265 107.5198902  29.5074707  23.7056575 108.1462284  30.2232176
   2.6228147  52.5095397  18.8329409   1.8691855  51.9402795  18.6773414
   2.7575688  52.4758062  19.7800044   3.0334562  52.6671007  21.5649654
   3.7637951  52.4056295  22.1257357   2.4241508  51.9299729  21.6051722
   1.1149859  50.8078870  22.1624105   0.3883023  50.6734835  21.5540596
   0.6997146  51.1155699  22.9680823   1.0398727  50.3356923  18.2900958
   0.4798285  50.4050112  19.0632520   0.4342230  50.1597908  17.5700454
   2.6254745  67.0113437  20.9830913   3.2633155  66.8920184  20.2794253
   2.5075588  67.9594281  21.0418866   2.1796014  64.7364891  18.0584121
   2.9659103  64.3184314  17.7074538   2.4434718  65.6410983  18.2265770
   7.5804441  64.6740124  18.9617100   8.3129613  64.1039341  19.1954929
   6.8243797  64.2861724  19.4023606   5.1029861  58.3861698  23.4211709
   4.7713186  59.2557109  23.1972924   4.5075475  58.0697982  24.1005739
   1.5961381  70.5874244  22.8207621   1.2962104  71.4899283  22.7123429
   1.2512440  70.3206427  23.6728774   4.9958525  63.1056784  20.5005059
   4.0875402  63.0372193  20.2063820   4.9446120  63.5828729  21.3286884
   6.8620171  61.3073223  22.2782933   6.2194551  61.6005756  21.6322727
   6.3575100  61.1926143  23.0836129   4.5160335  65.0536396  12.9668792
   5.4278191  65.2863783  12.7916489   4.0069982  65.6373440  12.4043870
   2.8001102  69.4761024  26.6030084   3.2084458  69.0343434  25.8584717
   2.0778364  68.9013651  26.8564277   3.1229917  70.0362214  20.3582373
   2.4938780  70.2007928  19.6558441   2.7355579  70.4503824  21.1293337
   7.0019149  70.9716652  17.7126737   6.3170187  71.3515553  17.1623770
   7.0862998  71.5811979  18.4458685   2.3031618  62.0737999  25.6344815
   2.0592550  62.8280059  25.0979091   2.5791548  62.4523346  26.4692062
   4.2570081  68.6176611  24.3122081   4.4686976  69.2608371  23.6356462
   4.2099829  67.7838928  23.8444011   1.8596310  61.2294432  21.2158653
   0.9980789  61.5275685  21.5075390   1.8858744  61.4464831  20.2839685
   5.3715909  71.4948567  22.4844438   6.1933352  71.0928754  22.2027120
   5.3678311  71.3916801  23.4360554  13.4621902  67.8387315  18.8329409
  12.7085610  67.2694713  18.6773414  13.5969443  67.8049980  19.7800044
   2.5770244  73.6127084  26.6665872   2.5588719  74.4335965  26.1746141
   3.4990164  73.4881159  26.8916013   2.2012993  56.2331279  23.0383022
   1.8577263  57.1232921  22.9622133   2.5691956  56.0432937  22.1752607
   1.2809534  58.6035934  21.0032255   0.7774329  58.5666070  20.1900061
   1.5740140  59.5128677  21.0628912   7.1397550  68.9772245  13.4808631
   6.3626993  68.6383404  13.0363793   7.8189031  68.9824868  12.8063596
   1.9549579  64.0966982  13.3715238   1.6499715  64.4113132  14.2225382
   2.9080021  64.1748402  13.4142571   5.3788857  68.4506226  20.1375239
   4.7212531  69.1405488  20.2255367   6.1829256  68.8402658  20.4809225
   4.1894316  66.8050599  18.1879180   4.7026197  67.4380591  18.6900890
   4.8395540  66.2051794  17.8222541   1.4510194  65.6791470  15.5640201
   2.1982013  66.1912867  15.2547323   1.7201784  65.3575523  16.4244595
   4.9556112  71.7856600  16.3158323   4.5018439  70.9447510  16.3723514
   4.3250079  72.4217999  16.6533103   3.8989032  62.7148586  17.5458991
   3.1611788  62.2025973  17.8769233   4.1515805  62.2748968  16.7342267
   4.0000659  55.4924838  18.1400760   4.3059536  54.6322202  17.8526675
   4.7253264  56.0842459  17.9399754   1.8088310  64.8697516  25.2382224
   2.1637698  65.0968989  26.0976689   2.4560441  65.2015892  24.6159479
   7.5386047  67.9915952  15.9431553   7.4003946  68.1817548  15.0152742
   7.1822266  68.7535334  16.3999604   7.5655427  70.0592479  20.9542824
   7.9991933  69.9667768  21.8025878   8.2787007  70.0349979  20.3162840
   1.2983322  73.6594573  22.4875925   1.3520344  74.2285509  23.2553641
   0.4298103  73.8296458  22.1229962   8.4270976  70.1016179  23.4875710
   8.6206866  71.0061990  23.7334985   8.3271594  69.6423598  24.3214295
   3.4886085  70.2522922  29.0616590   3.3371591  70.0233474  28.1446674
   3.4790764  71.2093523  29.0747935   5.1978292  73.2842045  27.1393072
   5.1390838  72.6001265  26.4723655   5.5997810  74.0261035  26.6873698
   5.1995699  71.2481628  25.3707052   4.3122478  70.9107550  25.4933451
   5.7694250  70.5164660  25.6075817   1.8283282  60.9549480  18.4905322
   2.3251982  60.2019443  18.1706392   1.0570264  60.9913797  17.9248531
   9.6813039  66.6589846  20.1323613   9.6702916  67.5414561  19.7617547
   8.8130419  66.3061397  19.9378150   1.1895536  75.8069915  24.4926454
   1.9023508  76.4417380  24.4202355   0.6985564  75.9033781  23.6766455
   2.9113063  69.7121168  16.0643745   1.9769341  69.8322630  15.8948450
   3.0889731  68.8093634  15.8003755   6.2985614  65.5538487  16.5993779
   6.7646066  66.3866478  16.5254082   6.7493115  65.0883468  17.3039038
   4.2702277  57.9219074  20.6384681   3.3565357  58.1523301  20.8066888
   4.6995378  58.0057518  21.4898713   4.0408735  66.1108966  23.1384575
   3.3880186  66.3584873  22.4837028   4.4189115  65.2973104  22.8047052
   3.6829966  72.9856962  29.7156882   4.2269870  73.5986920  29.2211837
   3.1016810  73.5436540  30.2323895   1.9687478  76.1077680  20.8471910
   1.8438618  75.3067420  20.3382856   2.6266570  76.6023873  20.3585880
   4.0322387  73.9086700  22.4751460   3.0852722  73.7892051  22.4029787
   4.3805160  73.0209198  22.5577722   4.6402942  74.5267975  19.7620685
   5.5649489  74.3210836  19.6245136   4.4718245  74.2784376  20.6710027
   1.0330334  61.5577254  13.6687930   1.2493949  62.4401892  13.3676758
   0.5524402  61.1663467  12.9393572  10.2837649  67.8090065  16.7373076
  10.7268795  67.0597390  16.3392200   9.4064160  67.8000202  16.3546808
   7.3164854  71.8120112  13.7467006   7.8416178  72.1507385  13.0216326
   7.2287206  70.8767128  13.5630140   7.0058760  72.4453016  29.0518204
   6.2154304  72.4277155  28.5122703   6.7692114  72.9841310  29.8067240
   7.1256635  69.2945482  26.3650932   7.1754640  69.1295490  27.3066455
   7.0170558  68.4272741  25.9748813   4.4160397  65.2776410  27.6810239
   5.3170260  65.1382875  27.3894237   4.4908372  65.4430865  28.6208416
   8.6274832  71.7142424  26.6092954   8.3359640  72.0772404  27.4456415
   8.0146963  71.0009432  26.4306286   9.8270514  69.2795304  19.1295524
  10.6617405  69.7185108  19.2933084   9.9629643  68.8033957  18.3103770
   6.8762020  66.8375038  25.0773012   7.3516142  67.0302685  24.2691863
   5.9527585  66.8934224  24.8316395   1.4542236  58.8722882  24.0428846
   1.9724180  59.6083909  23.7175334   1.0997369  59.1786875  24.8775605
   1.7054831  55.2923164  19.5629742   1.9856584  54.6246354  20.1890169
   2.4905438  55.4852260  19.0504406   5.5763689  63.7140798  23.3101317
   6.5281112  63.8138896  23.3313541   5.4067139  62.9219067  23.8199402
   3.5978068  60.7996382  23.4960718   3.0028001  61.0801394  22.8007207
   3.3127765  61.2890283  24.2677459   8.0551767  66.9346918  22.4243617
   8.0228087  65.9962919  22.6103301   8.6652390  67.0130955  21.6909442
   8.2046255  63.7257962  22.4701900   7.6885304  62.9416418  22.2831829
   9.0886204  63.3976678  22.6348420   5.8656982  57.4698977  18.4297713
   5.6681803  57.1614065  19.3141045   6.4756688  58.1960616  18.5595643
  13.8728317  67.9962925  21.5649654  14.6031705  67.7348213  22.1257357
  13.2635262  67.2591647  21.6051722  11.9543614  66.1370788  22.1624105
  11.2276777  66.0026753  21.5540596  11.5390901  66.4447616  22.9680823
   1.6230629  57.3507884  16.1794244   2.1761667  57.7703337  16.8384267
   1.8600715  56.4243632  16.2217200   5.0009436  59.4608409  15.6872908
   4.4208105  60.1193213  15.3050961   4.7345369  58.6385754  15.2760326
   3.4513002  58.8613467  17.8894229   3.9512781  58.9730001  17.0808548
   4.0948610  58.5574520  18.5295037   3.7834314  61.6208500  14.7429257
   2.8960169  61.9058150  14.5249451   4.1988303  61.4602263  13.8956534
   7.1348850  61.6455021  18.4583596   7.9109240  62.1351473  18.7308213
   6.4096984  62.0713075  18.9155465   9.5721409  62.3582640  19.5157536
  10.1665899  62.1178376  18.8050845   9.6447992  61.6389770  20.1431073
   3.7575338  67.1363036  14.9579547   3.7010539  67.5931587  14.1187179
   4.3103680  66.3753720  14.7802390   7.5680144  62.9252767  15.7829666
   7.3117078  62.5249403  16.6137874   6.9433012  63.6396561  15.6579805
  11.8792481  65.6648841  18.2900958  11.3192039  65.7342030  19.0632520
  11.2735985  65.4889825  17.5700454   1.8056024  70.6316729  31.5785639
   2.6747184  70.8057381  31.2172274   1.3262776  71.4511145  31.4561368
   1.6158362  54.4218702  16.0863331   0.8490758  53.8677189  16.2320014
   2.0269067  54.4940571  16.9477483  13.4648500  82.3405355  20.9830913
  14.1026910  82.2212102  20.2794253  13.3469343  83.2886199  21.0418866
  10.2738206  82.2932783  20.9192438   9.9356718  82.1773847  20.0312973
  11.1427974  81.8923948  20.8993444  10.7557989  83.4467634  26.8778644
  10.7446630  83.0520433  26.0059147  10.9178629  82.7133707  27.4712415
   7.4765250  86.2304746  25.8257828   7.1855116  87.1350377  25.7104494
   8.1122235  86.2721274  26.5401897   8.4021457  83.6081595  22.4159187
   8.9985029  83.3837617  21.7016150   8.4596429  82.8666340  23.0184635
  13.0189768  80.0656808  18.0584121  13.8052858  79.6476232  17.7074538
  13.2828473  80.9702901  18.2265770  18.4198196  80.0032042  18.9617100
  19.1523367  79.4331258  19.1954929  17.6637551  79.6153642  19.4023606
  15.9423616  73.7153616  23.4211709  15.6106941  74.5849027  23.1972924
  15.3469229  73.3989900  24.1005739  12.4355135  85.9166162  22.8207621
  12.1355858  86.8191201  22.7123429  12.0906195  85.6498345  23.6728774
  15.8352279  78.4348702  20.5005059  14.9269157  78.3664110  20.2063820
  15.7839875  78.9120647  21.3286884   9.9093145  79.8538347  28.4439956
   9.1326479  80.4132268  28.4342821  10.5483708  80.3395130  28.9654826
  17.7013926  76.6365140  22.2782933  17.0588306  76.9297673  21.6322727
  17.1968854  76.5218061  23.0836129  15.3554089  80.3828313  12.9668792
  16.2671945  80.6155700  12.7916489  14.8463736  80.9665358  12.4043870
   8.1639517  82.6623801  28.0057923   8.9054202  83.2008845  27.7292746
   7.4576503  83.2890090  28.1629475  13.6394857  84.8052941  26.6030084
  14.0478213  84.3635352  25.8584717  12.9172118  84.2305569  26.8564277
   9.9925927  79.7425548  23.9763641  10.8387122  80.1664962  24.1198290
   9.9324565  79.0859172  24.6702204  13.9623672  85.3654132  20.3582373
  13.3332534  85.5299846  19.6558441  13.5749334  85.7795741  21.1293337
  17.8412903  86.3008570  17.7126737  17.1563942  86.6807471  17.1623770
  17.9256753  86.9103896  18.4458685  13.1425372  77.4029916  25.6344815
  12.8986304  78.1571977  25.0979091  13.4185303  77.7815264  26.4692062
  15.0963835  83.9468529  24.3122081  15.3080730  84.5900289  23.6356462
  15.0493583  83.1130845  23.8444011  12.6990064  76.5586349  21.2158653
  11.8374543  76.8567603  21.5075390  12.7252499  76.7756748  20.2839685
   6.9000881  79.8163449  28.8073233   6.2699542  80.4979730  29.0408630
   6.7936969  79.7046531  27.8626371  16.2109663  86.8240484  22.4844438
  17.0327107  86.4220672  22.2027120  16.2072066  86.7208718  23.4360554
   9.9766266  86.3724528  24.6405148  10.0410699  86.8344935  25.4763320
   9.2677190  85.7421892  24.7687458  24.3015656  83.1679233  18.8329409
  23.5479364  82.5986631  18.6773414  24.4363197  83.1341897  19.7800044
   6.1781624  74.1184215  31.1698484   5.7848569  73.5650413  31.8446128
   6.9947764  74.4294793  31.5605001   9.0949585  75.5342094  28.7618740
   9.8359298  76.1349247  28.6823203   9.3267508  74.7919732  28.2036783
   4.2390923  80.7198461  27.0396970   4.1244438  79.8183718  27.3404069
   3.3835440  80.9662158  26.6881787  11.3182760  88.6616202  28.6384471
  10.8746615  87.8752580  28.3205375  11.9799974  88.8495352  27.9728362
  13.4163999  88.9419001  26.6665872  13.3982474  89.7627883  26.1746141
  14.3383919  88.8173077  26.8916013   9.8737053  86.4563131  27.5089380
  10.4065390  85.6951419  27.2788688   9.3451134  86.1636783  28.2513535
  13.0406748  71.5623197  23.0383022  12.6971017  72.4524839  22.9622133
  13.4085710  71.3724855  22.1752607  10.5904141  76.3981509  16.6040696
   9.7345738  76.0088359  16.4246334  11.0031093  76.4773470  15.7440481
  12.1203288  73.9327852  21.0032255  11.6168084  73.8957987  20.1900061
  12.4133895  74.8420595  21.0628912   8.3646174  74.0166582  20.0098437
   9.2299171  73.8209390  19.6504327   8.4323683  73.7876934  20.9367794
  17.9791305  84.3064163  13.4808631  17.2020747  83.9675322  13.0363793
  18.6582785  84.3116786  12.8063596  12.7943334  79.4258900  13.3715238
  12.4893469  79.7405049  14.2225382  13.7473776  79.5040320  13.4142571
  16.2182611  83.7798144  20.1375239  15.5606286  84.4697405  20.2255367
  17.0223011  84.1694576  20.4809225   5.9708493  76.2468790  17.3814804
   6.5452245  76.0243971  16.6487997   6.5579475  76.3157484  18.1343405
  15.0288070  82.1342517  18.1879180  15.5419952  82.7672508  18.6900890
  15.6789294  81.5343712  17.8222541   8.2731161  73.1210039  16.1089873
   7.6195573  72.8059056  15.4846488   8.2311635  72.4985779  16.8349696
  11.5068901  79.6091972  20.4337521  10.5891462  79.8306919  20.2759209
  11.9229045  79.6838283  19.5749228  12.2903949  81.0083388  15.5640201
  13.0375768  81.5204785  15.2547323  12.5595538  80.6867441  16.4244595
  15.7949866  87.1148518  16.3158323  15.3412194  86.2739428  16.3723514
  15.1643833  87.7509916  16.6533103  14.7382786  78.0440504  17.5458991
  14.0005543  77.5317890  17.8769233  14.9909560  77.6040886  16.7342267
  14.8394413  70.8216756  18.1400760  15.1453290  69.9614120  17.8526675
  15.5647018  71.4134376  17.9399754   9.1115493  81.1170549  18.6476951
   9.1664103  80.1644386  18.5719428   8.3006695  81.2729988  19.1318249
  12.6482065  80.1989433  25.2382224  13.0031452  80.4260907  26.0976689
  13.2954196  80.5307810  24.6159479  18.3779802  83.3207869  15.9431553
  18.2397700  83.5109465  15.0152742  18.0216020  84.0827252  16.3999604
   6.5421928  77.3065964  22.0228565   7.1821307  77.1654724  21.3251528
   5.7099458  77.0200478  21.6467167  18.4049181  85.3884396  20.9542824
  18.8385688  85.2959685  21.8025878  19.1180762  85.3641897  20.3162840
  12.1377076  88.9886490  22.4875925  12.1914098  89.5577427  23.2553641
  11.2691857  89.1588375  22.1229962   5.0175470  78.6904047  23.9700376
   5.6898523  78.4821409  23.3213025   4.1905256  78.4926133  23.5305608
  19.2664731  85.4308097  23.4875710  19.4600621  86.3353907  23.7334985
  19.1665349  84.9715516  24.3214295  10.9201042  75.3165987  25.9866037
  10.2728957  76.0155937  25.8930513  11.6902057  75.7502131  26.3542285
  14.3279839  85.5814840  29.0616590  14.1765346  85.3525391  28.1446674
  14.3184519  86.5385441  29.0747935  11.0965176  83.1546752  24.0462857
  12.0257236  83.3057912  23.8731824  10.6756206  83.2430773  23.1911503
   9.8953508  87.1797417  21.8161394   9.7564593  86.8116201  22.6887332
   9.1068104  87.6945056  21.6445352  11.4458723  86.5579020  19.2050232
  11.1108555  86.5179789  20.1007882  10.9462668  85.8923735  18.7320642
   5.4202967  81.9646650  24.7302813   5.2822765  81.2326888  25.3314352
   6.3307890  81.8755550  24.4487001   8.0485267  81.6766609  24.2186493
   8.7584886  81.0359801  24.1773111   8.0054576  81.9279504  25.1412674
  16.0372046  88.6133962  27.1393072  15.9784592  87.9293182  26.4723655
  16.4391564  89.3552952  26.6873698   6.7614201  78.6631827  26.0382132
   6.2251558  78.2122565  26.6903729   6.1730910  78.7977736  25.2952597
  16.0389453  86.5773546  25.3707052  15.1516232  86.2399468  25.4933451
  16.6088004  85.8456577  25.6075817   2.4953323  77.7987834  23.1235127
   2.4111511  77.1913504  22.3885537   1.6736029  78.2896853  23.1244623
  12.6677037  76.2841398  18.4905322  13.1645736  75.5311360  18.1706392
  11.8964018  76.3205715  17.9248531  20.5206794  81.9881764  20.1323613
  20.5096670  82.8706479  19.7617547  19.6524173  81.6353314  19.9378150
  12.0289290  91.1361833  24.4926454  12.7417262  91.7709297  24.4202355
  11.5379319  91.2325699  23.6766455  13.7506817  85.0413085  16.0643745
  12.8163096  85.1614548  15.8948450  13.9283486  84.1385552  15.8003755
   9.2512005  78.4258781  18.2177006   8.8809793  77.8729821  18.9057912
   9.7471098  77.8216914  17.6652007  17.1379369  80.8830404  16.5993779
  17.6039821  81.7158396  16.5254082  17.5886869  80.4175386  17.3039038
   7.0801204  88.8856276  25.3132024   7.7810663  89.5192759  25.4661419
   6.6096319  89.2271008  24.5527664  15.1096031  73.2510991  20.6384681
  14.1959111  73.4815218  20.8066888  15.5389133  73.3349436  21.4898713
  14.8802490  81.4400883  23.1384575  14.2273940  81.6876791  22.4837028
  15.2582870  80.6265022  22.8047052  10.9290063  82.1820695  29.6250612
  10.2530700  82.0814824  30.2952987  11.7517697  82.0259908  30.0886609
   4.6477339  75.8362772  24.4630113   4.7118665  76.6977603  24.0507510
   4.5844459  75.2236773  23.7302471   4.1229611  77.9085904  28.1103147
   4.7501650  77.5262982  28.7240671   3.2657530  77.6900106  28.4758839
  14.5223720  88.3148879  29.7156882  15.0663624  88.9278838  29.2211837
  13.9410565  88.8728458  30.2323895  12.8081233  91.4369597  20.8471910
  12.6832372  90.6359337  20.3382856  13.4660324  91.9315791  20.3585880
   4.4289401  77.7918330  20.0249050   3.7075987  78.4054298  19.8856524
   5.2182657  78.3276095  19.9465696  14.8716141  89.2378618  22.4751460
  13.9246477  89.1183969  22.4029787  15.2198914  88.3501116  22.5577722
   7.2315715  75.1272756  26.2989702   7.7550117  75.3735053  27.0616011
   7.0128048  75.9592791  25.8792839  15.4796696  89.8559893  19.7620685
  16.4043244  89.6502754  19.6245136  15.3112000  89.6076294  20.6710027
   8.4368260  76.0686452  23.9839373   8.0965080  75.2694265  24.3860052
   7.7307266  76.3688162  23.4116206   9.0884732  73.1535764  22.4366696
   9.9110801  72.6796242  22.3145586   9.3322795  73.9326248  22.9365382
  11.8724089  76.8869171  13.6687930  12.0887703  77.7693809  13.3676758
  11.3918156  76.4955385  12.9393572   6.6123310  79.8454885  20.2458674
   6.4667891  80.1595188  21.1382956   6.1348514  80.4639785  19.6929573
   8.4719693  76.8357433  20.2939564   8.4581262  75.9398526  19.9571862
   9.1892121  76.8428096  20.9277850  10.3245824  77.2694773  22.3392691
  10.0663602  78.1911843  22.3377022   9.7930864  76.8725207  23.0293155
  10.7447780  73.4026723  18.6993854  10.7669476  73.4666056  17.7445833
  11.1615839  72.5631232  18.8934360  21.1231404  83.1381983  16.7373076
  21.5662550  82.3889308  16.3392200  20.2457914  83.1292119  16.3546808
   1.8734994  81.5130125  26.0776492   1.1316730  81.6612761  26.6641123
   1.5527739  81.7738391  25.2143242  18.1558608  87.1412030  13.7467006
  18.6809932  87.4799303  13.0216326  18.0680961  86.2059045  13.5630140
   9.8178657  91.0546104  25.8756882  10.1265783  90.8095250  26.7479582
  10.6154139  91.2592742  25.3875752   7.3597669  77.2303810  29.7717067
   7.4085824  78.1065933  29.3894836   7.9020183  76.6881203  29.1988710
  17.8452514  87.7744934  29.0518204  17.0548058  87.7569072  28.5122703
  17.6085869  88.3133227  29.8067240  17.9650389  84.6237400  26.3650932
  18.0148394  84.4587407  27.3066455  17.8564313  83.7564659  25.9748813
  15.2554152  80.6068328  27.6810239  16.1564015  80.4674793  27.3894237
  15.3302126  80.7722783  28.6208416   9.5896957  77.9835183  26.5263425
   8.7200267  78.2768749  26.2546014   9.8256438  78.5675628  27.2470689
  19.4668586  87.0434341  26.6092954  19.1753395  87.4064322  27.4456415
  18.8540718  86.3301350  26.4306286  20.6664269  84.6087221  19.1295524
  21.5011160  85.0477025  19.2933084  20.8023397  84.1325874  18.3103770
  17.7155775  82.1666956  25.0773012  18.1909896  82.3594602  24.2691863
  16.7921340  82.2226142  24.8316395  12.2935991  74.2014800  24.0428846
  12.8117935  74.9375827  23.7175334  11.9391124  74.5078793  24.8775605
  12.5448585  70.6215082  19.5629742  12.8250339  69.9538271  20.1890169
  13.3299192  70.8144178  19.0504406  16.4157443  79.0432716  23.3101317
  17.3674866  79.1430814  23.3313541  16.2460894  78.2510985  23.8199402
  14.4371823  76.1288299  23.4960718  13.8421755  76.4093312  22.8007207
  14.1521520  76.6182200  24.2677459  18.8945521  82.2638836  22.4243617
  18.8621841  81.3254837  22.6103301  19.5046145  82.3422873  21.6909442
  19.0440010  79.0549879  22.4701900  18.5279058  78.2708336  22.2831829
  19.9279958  78.7268596  22.6348420  16.7050737  72.7990895  18.4297713
  16.5075558  72.4905983  19.3141045  17.3150442  73.5252534  18.5595643
  24.7122071  83.3254843  21.5649654  25.4425460  83.0640131  22.1257357
  24.1029017  82.5883565  21.6051722  22.7937368  81.4662705  22.1624105
  22.0670532  81.3318670  21.5540596  22.3784655  81.7739534  22.9680823
  10.6167545  85.1852635  29.9271478  11.5370554  85.3631234  30.1211524
  10.5817128  84.2408680  29.7751177   3.6129617  83.0953670  22.5694259
   3.8315627  84.0270777  22.5882293   4.0255391  82.7361644  23.3549063
  10.5333835  73.6021755  14.5569947   9.7234563  73.2568840  14.9325194
  11.2218252  73.2929299  15.1457559  12.4624383  72.6799802  16.1794244
  13.0155422  73.0995255  16.8384267  12.6994470  71.7535550  16.2217200
   8.4857483  78.6686875  31.9597008   8.3854209  79.6181232  31.8909099
   8.2679025  78.3405114  31.0873078  15.8403190  74.7900327  15.6872908
  15.2601859  75.4485131  15.3050961  15.5739123  73.9677671  15.2760326
  14.2906757  74.1905385  17.8894229  14.7906535  74.3021919  17.0808548
  14.9342365  73.8866437  18.5295037   8.3488753  82.0984014  30.7762070
   7.8655834  82.8984374  30.9825959   8.4349692  82.1091959  29.8229514
   4.8661472  84.5589665  25.3801301   5.6854361  85.0533744  25.4036138
   5.1398280  83.6421633  25.3518869  14.6228068  76.9500417  14.7429257
  13.7353923  77.2350068  14.5249451  15.0382057  76.7894181  13.8956534
  17.9742605  76.9746938  18.4583596  18.7502995  77.4643391  18.7308213
  17.2490739  77.4004992  18.9155465  20.4115163  77.6874557  19.5157536
  21.0059654  77.4470293  18.8050845  20.4841747  76.9681688  20.1431073
  14.5969092  82.4654953  14.9579547  14.5404294  82.9223505  14.1187179
  15.1497435  81.7045638  14.7802390  18.4073898  78.2544685  15.7829666
  18.1510832  77.8541321  16.6137874  17.7826766  78.9688479  15.6579805
  22.7186236  80.9940758  18.2900958  22.1585794  81.0633948  19.0632520
  22.1129739  80.8181743  17.5700454  12.6449779  85.9608646  31.5785639
  13.5140938  86.1349299  31.2172274  12.1656530  86.7803063  31.4561368
  12.4552116  69.7510620  16.0863331  11.6884512  69.1969107  16.2320014
  12.8662821  69.8232489  16.9477483   4.4593877  76.0395416  30.1768512
   5.3225339  75.6832221  30.3871837   3.8859288  75.7009311  30.8643917
  24.3042254  97.6697272  20.9830913  24.9420664  97.5504020  20.2794253
  24.1863097  98.6178116  21.0418866  21.1131961  97.6224700  20.9192438
  20.7750472  97.5065765  20.0312973  21.9821729  97.2215865  20.8993444
  21.5951744  98.7759552  26.8778644  21.5840384  98.3812350  26.0059147
  21.7572383  98.0425625  27.4712415  18.3159005 101.5596664  25.8257828
  18.0248871 102.4642295  25.7104494  18.9515989 101.6013191  26.5401897
  19.2415212  98.9373512  22.4159187  19.8378784  98.7129535  21.7016150
  19.2990183  98.1958258  23.0184635  23.8583523  95.3948726  18.0584121
  24.6446612  94.9768149  17.7074538  24.1222227  96.2994818  18.2265770
  29.2591950  95.3323959  18.9617100  29.9917122  94.7623176  19.1954929
  28.5031306  94.9445560  19.4023606  26.7817370  89.0445533  23.4211709
  26.4500695  89.9140944  23.1972924  26.1862984  88.7281817  24.1005739
  23.2748890 101.2458079  22.8207621  22.9749613 102.1483118  22.7123429
  22.9299949 100.9790263  23.6728774  26.6746034  93.7640620  20.5005059
  25.7662911  93.6956028  20.2063820  26.6233629  94.2412565  21.3286884
  20.7486899  95.1830265  28.4439956  19.9720234  95.7424185  28.4342821
  21.3877463  95.6687048  28.9654826  28.5407680  91.9657058  22.2782933
  27.8982060  92.2589591  21.6322727  28.0362609  91.8509978  23.0836129
  26.1947844  95.7120231  12.9668792  27.1065700  95.9447618  12.7916489
  25.6857491  96.2957275  12.4043870  19.0033272  97.9915719  28.0057923
  19.7447956  98.5300762  27.7292746  18.2970257  98.6182007  28.1629475
  24.4788611 100.1344859  26.6030084  24.8871967  99.6927270  25.8584717
  23.7565873  99.5597487  26.8564277  20.8319681  95.0717466  23.9763641
  21.6780877  95.4956879  24.1198290  20.7718319  94.4151090  24.6702204
  24.8017426 100.6946050  20.3582373  24.1726288 100.8591764  19.6558441
  24.4143088 101.1087659  21.1293337  28.6806658 101.6300487  17.7126737
  27.9957696 102.0099389  17.1623770  28.7650507 102.2395814  18.4458685
  23.9819127  92.7321834  25.6344815  23.7380059  93.4863895  25.0979091
  24.2579057  93.1107182  26.4692062  25.9357590  99.2760446  24.3122081
  26.1474485  99.9192206  23.6356462  25.8887338  98.4422763  23.8444011
  23.5383819  91.8878267  21.2158653  22.6768298  92.1859521  21.5075390
  23.5646253  92.1048666  20.2839685  17.7394636  95.1455367  28.8073233
  17.1093296  95.8271648  29.0408630  17.6330723  95.0338448  27.8626371
  27.0503417 102.1532402  22.4844438  27.8720861 101.7512589  22.2027120
  27.0465820 102.0500636  23.4360554  20.8160021 101.7016445  24.6405148
  20.8804453 102.1636852  25.4763320  20.1070945 101.0713810  24.7687458
  35.1409411  98.4971150  18.8329409  34.3873119  97.9278548  18.6773414
  35.2756952  98.4633815  19.7800044  17.0175378  89.4476133  31.1698484
  16.6242324  88.8942331  31.8446128  17.8341519  89.7586711  31.5605001
  19.9343339  90.8634012  28.7618740  20.6753053  91.4641165  28.6823203
  20.1661262  90.1211649  28.2036783  15.0784677  96.0490379  27.0396970
  14.9638192  95.1475636  27.3404069  14.2229195  96.2954076  26.6881787
  22.1576515 103.9908119  28.6384471  21.7140369 103.2044498  28.3205375
  22.8193729 104.1787270  27.9728362  24.2557753 104.2710919  26.6665872
  24.2376228 105.0919800  26.1746141  25.1777673 104.1464994  26.8916013
  20.7130807 101.7855049  27.5089380  21.2459144 101.0243337  27.2788688
  20.1844888 101.4928700  28.2513535  23.8800502  86.8915115  23.0383022
  23.5364772  87.7816756  22.9622133  24.2479465  86.7016772  22.1752607
  21.4297896  91.7273426  16.6040696  20.5739492  91.3380277  16.4246334
  21.8424848  91.8065387  15.7440481  22.9597043  89.2619770  21.0032255
  22.4561838  89.2249905  20.1900061  23.2527649  90.1712512  21.0628912
  19.2039928  89.3458499  20.0098437  20.0692925  89.1501308  19.6504327
  19.2717437  89.1168851  20.9367794  28.8185059  99.6356080  13.4808631
  28.0414502  99.2967240  13.0363793  29.4976540  99.6408703  12.8063596
  23.6337088  94.7550818  13.3715238  23.3287224  95.0696967  14.2225382
  24.5867530  94.8332238  13.4142571  27.0576366  99.1090062  20.1375239
  26.4000040  99.7989323  20.2255367  27.8616765  99.4986494  20.4809225
  16.8102248  91.5760707  17.3814804  17.3845999  91.3535889  16.6487997
  17.3973230  91.6449402  18.1343405  25.8681825  97.4634434  18.1879180
  26.3813706  98.0964426  18.6900890  26.5183049  96.8635630  17.8222541
  19.1124915  88.4501956  16.1089873  18.4589328  88.1350973  15.4846488
  19.0705389  87.8277697  16.8349696  22.3462656  94.9383890  20.4337521
  21.4285217  95.1598837  20.2759209  22.7622799  95.0130200  19.5749228
  23.1297703  96.3375306  15.5640201  23.8769522  96.8496703  15.2547323
  23.3989293  96.0159358  16.4244595  26.6343621 102.4440436  16.3158323
  26.1805948 101.6031346  16.3723514  26.0037588 103.0801834  16.6533103
  25.5776540  93.3732422  17.5458991  24.8399297  92.8609808  17.8769233
  25.8303314  92.9332803  16.7342267  25.6788168  86.1508674  18.1400760
  25.9847045  85.2906037  17.8526675  26.4040773  86.7426294  17.9399754
  19.9509248  96.4462467  18.6476951  20.0057857  95.4936303  18.5719428
  19.1400450  96.6021906  19.1318249  23.4875819  95.5281351  25.2382224
  23.8425207  95.7552824  26.0976689  24.1347950  95.8599728  24.6159479
  29.2173556  98.6499787  15.9431553  29.0791455  98.8401383  15.0152742
  28.8609775  99.4119170  16.3999604  17.3815682  92.6357882  22.0228565
  18.0215062  92.4946641  21.3251528  16.5493213  92.3492395  21.6467167
  29.2442936 100.7176314  20.9542824  29.6779442 100.6251603  21.8025878
  29.9574516 100.6933814  20.3162840  22.9770831 104.3178408  22.4875925
  23.0307853 104.8869344  23.2553641  22.1085612 104.4880293  22.1229962
  15.8569224  94.0195964  23.9700376  16.5292277  93.8113326  23.3213025
  15.0299011  93.8218050  23.5305608  30.1058485 100.7600015  23.4875710
  30.2994375 101.6645825  23.7334985  30.0059103 100.3007434  24.3214295
  21.7594796  90.6457905  25.9866037  21.1122711  91.3447855  25.8930513
  22.5295811  91.0794049  26.3542285  25.1673594 100.9106757  29.0616590
  25.0159100 100.6817309  28.1446674  25.1578273 101.8677359  29.0747935
  21.9358930  98.4838670  24.0462857  22.8650990  98.6349830  23.8731824
  21.5149960  98.5722691  23.1911503  20.7347262 102.5089335  21.8161394
  20.5958348 102.1408119  22.6887332  19.9461858 103.0236974  21.6445352
  22.2852477 101.8870937  19.2050232  21.9502310 101.8471707  20.1007882
  21.7856423 101.2215653  18.7320642  16.2596721  97.2938567  24.7302813
  16.1216519  96.5618806  25.3314352  17.1701645  97.2047467  24.4487001
  18.8879022  97.0058527  24.2186493  19.5978640  96.3651719  24.1773111
  18.8448330  97.2571421  25.1412674  26.8765801 103.9425880  27.1393072
  26.8178347 103.2585100  26.4723655  27.2785319 104.6844870  26.6873698
  17.6007956  93.9923744  26.0382132  17.0645313  93.5414483  26.6903729
  17.0124664  94.1269653  25.2952597  26.8783208 101.9065464  25.3707052
  25.9909987 101.5691386  25.4933451  27.4481759 101.1748495  25.6075817
  13.3347077  93.1279752  23.1235127  13.2505266  92.5205422  22.3885537
  12.5129784  93.6188770  23.1244623  23.5070791  91.6133316  18.4905322
  24.0039491  90.8603278  18.1706392  22.7357772  91.6497632  17.9248531
  31.3600548  97.3173681  20.1323613  31.3490425  98.1998397  19.7617547
  30.4917928  96.9645232  19.9378150  22.8683045 106.4653750  24.4926454
  23.5811017 107.1001215  24.4202355  22.3773073 106.5617616  23.6766455
  24.5900572 100.3705003  16.0643745  23.6556850 100.4906465  15.8948450
  24.7677240  99.4677470  15.8003755  20.0905760  93.7550699  18.2177006
  19.7203547  93.2021739  18.9057912  20.5864852  93.1508832  17.6652007
  27.9773123  96.2122322  16.5993779  28.4433575  97.0450314  16.5254082
  28.4280624  95.7467304  17.3039038  17.9194958 104.2148194  25.3132024
  18.6204418 104.8484677  25.4661419  17.4490073 104.5562925  24.5527664
  25.9489786  88.5802909  20.6384681  25.0352866  88.8107136  20.8066888
  26.3782887  88.6641353  21.4898713  25.7196244  96.7692801  23.1384575
  25.0667695  97.0168709  22.4837028  26.0976624  95.9556939  22.8047052
  21.7683817  97.5112612  29.6250612  21.0924454  97.4106742  30.2952987
  22.5911451  97.3551826  30.0886609  15.4871093  91.1654689  24.4630113
  15.5512420  92.0269520  24.0507510  15.4238214  90.5528691  23.7302471
  14.9623366  93.2377822  28.1103147  15.5895405  92.8554899  28.7240671
  14.1051285  93.0192024  28.4758839  25.3617475 103.6440797  29.7156882
  25.9057378 104.2570755  29.2211837  24.7804319 104.2020376  30.2323895
  23.6474987 106.7661515  20.8471910  23.5226127 105.9651255  20.3382856
  24.3054079 107.2607709  20.3585880  15.2683156  93.1210248  20.0249050
  14.5469741  93.7346215  19.8856524  16.0576411  93.6568012  19.9465696
  25.7109896 104.5670535  22.4751460  24.7640231 104.4475886  22.4029787
  26.0592669 103.6793033  22.5577722  18.0709469  90.4564674  26.2989702
  18.5943871  90.7026971  27.0616011  17.8521802  91.2884709  25.8792839
  26.3190451 105.1851810  19.7620685  27.2436998 104.9794672  19.6245136
  26.1505754 104.9368211  20.6710027  19.2762014  91.3978369  23.9839373
  18.9358835  90.5986182  24.3860052  18.5701021  91.6980080  23.4116206
  19.9278486  88.4827682  22.4366696  20.7504555  88.0088160  22.3145586
  20.1716550  89.2618165  22.9365382  22.7117843  92.2161089  13.6687930
  22.9281458  93.0985727  13.3676758  22.2311911  91.8247303  12.9393572
  17.4517065  95.1746802  20.2458674  17.3061646  95.4887105  21.1382956
  16.9742268  95.7931703  19.6929573  19.3113448  92.1649350  20.2939564
  19.2975016  91.2690444  19.9571862  20.0285876  92.1720014  20.9277850
  21.1639578  92.5986691  22.3392691  20.9057356  93.5203761  22.3377022
  20.6324619  92.2017125  23.0293155  21.5841534  88.7318641  18.6993854
  21.6063231  88.7957974  17.7445833  22.0009593  87.8923150  18.8934360
  31.9625158  98.4673901  16.7373076  32.4056304  97.7181226  16.3392200
  31.0851669  98.4584037  16.3546808  12.7128749  96.8422043  26.0776492
  11.9710485  96.9904678  26.6641123  12.3921493  97.1030309  25.2143242
  28.9952363 102.4703948  13.7467006  29.5203687 102.8091220  13.0216326
  28.9074715 101.5350963  13.5630140  20.6572411 106.3838021  25.8756882
  20.9659538 106.1387168  26.7479582  21.4547894 106.5884660  25.3875752
  18.1991423  92.5595728  29.7717067  18.2479579  93.4357851  29.3894836
  18.7413937  92.0173121  29.1988710  28.6846269 103.1036851  29.0518204
  27.8941813 103.0860990  28.5122703  28.4479623 103.6425145  29.8067240
  28.8044144  99.9529318  26.3650932  28.8542149  99.7879325  27.3066455
  28.6958067  99.0856577  25.9748813  26.0947906  95.9360246  27.6810239
  26.9957769  95.7966710  27.3894237  26.1695881  96.1014700  28.6208416
  20.4290712  93.3127100  26.5263425  19.5594021  93.6060666  26.2546014
  20.6650192  93.8967545  27.2470689  30.3062341 102.3726259  26.6092954
  30.0147149 102.7356240  27.4456415  29.6934472 101.6593267  26.4306286
  31.5058023  99.9379139  19.1295524  32.3404914 100.3768943  19.2933084
  31.6417152  99.4617792  18.3103770  28.5549529  97.4958874  25.0773012
  29.0303651  97.6886520  24.2691863  27.6315094  97.5518060  24.8316395
  23.1329745  89.5306717  24.0428846  23.6511689  90.2667744  23.7175334
  22.7784878  89.8370711  24.8775605  23.3842340  85.9507000  19.5629742
  23.6644093  85.2830189  20.1890169  24.1692947  86.1436095  19.0504406
  27.2551198  94.3724634  23.3101317  28.2068621  94.4722731  23.3313541
  27.0854648  93.5802902  23.8199402  25.2765577  91.4580217  23.4960718
  24.6815510  91.7385230  22.8007207  24.9915274  91.9474118  24.2677459
  29.7339276  97.5930754  22.4243617  29.7015596  96.6546754  22.6103301
  30.3439899  97.6714790  21.6909442  29.8833764  94.3841797  22.4701900
  29.3672813  93.6000254  22.2831829  30.7673713  94.0560514  22.6348420
  27.5444491  88.1282813  18.4297713  27.3469312  87.8197901  19.3141045
  28.1544197  88.8544451  18.5595643  35.5515826  98.6546760  21.5649654
  36.2819214  98.3932048  22.1257357  34.9422771  97.9175482  21.6051722
  33.6331123  96.7954623  22.1624105  32.9064286  96.6610588  21.5540596
  33.2178410  97.1031452  22.9680823  21.4561299 100.5144553  29.9271478
  22.3764309 100.6923152  30.1211524  21.4210882  99.5700598  29.7751177
  14.4523372  98.4245587  22.5694259  14.6709381  99.3562695  22.5882293
  14.8649146  98.0653562  23.3549063  21.3727590  88.9313673  14.5569947
  20.5628318  88.5860758  14.9325194  22.0612006  88.6221216  15.1457559
  23.3018138  88.0091719  16.1794244  23.8549176  88.4287173  16.8384267
  23.5388224  87.0827468  16.2217200  19.3251237  93.9978793  31.9597008
  19.2247964  94.9473150  31.8909099  19.1072779  93.6697032  31.0873078
  26.6796945  90.1192245  15.6872908  26.0995614  90.7777049  15.3050961
  26.4132878  89.2969589  15.2760326  25.1300511  89.5197302  17.8894229
  25.6300290  89.6313837  17.0808548  25.7736119  89.2158355  18.5295037
  19.1882507  97.4275932  30.7762070  18.7049589  98.2276292  30.9825959
  19.2743446  97.4383877  29.8229514  15.7055227  99.8881583  25.3801301
  16.5248116 100.3825661  25.4036138  15.9792034  98.9713551  25.3518869
  25.4621823  92.2792335  14.7429257  24.5747678  92.5641986  14.5249451
  25.8775812  92.1186098  13.8956534  28.8136359  92.3038856  18.4583596
  29.5896749  92.7935308  18.7308213  28.0884493  92.7296910  18.9155465
  31.2508918  93.0166475  19.5157536  31.8453408  92.7762211  18.8050845
  31.3235501  92.2973606  20.1431073  25.4362847  97.7946871  14.9579547
  25.3798048  98.2515422  14.1187179  25.9891189  97.0337555  14.7802390
  29.2467653  93.5836603  15.7829666  28.9904587  93.1833238  16.6137874
  28.6220521  94.2980397  15.6579805  33.5579990  96.3232676  18.2900958
  32.9979548  96.3925865  19.0632520  32.9523494  96.1473661  17.5700454
  10.9590141  94.2219716  26.0793498  11.6049005  93.7118670  26.5680723
  10.7507292  94.9588398  26.6536923  23.4843533 101.2900564  31.5785639
  24.3534693 101.4641216  31.2172274  23.0050285 102.1094981  31.4561368
  23.2945871  85.0802538  16.0863331  22.5278267  84.5261024  16.2320014
  23.7056576  85.1524407  16.9477483  15.2987632  91.3687334  30.1768512
  16.1619094  91.0124138  30.3871837  14.7253043  91.0301228  30.8643917
  34.6977277 110.7240644  18.0584121  35.4840367 110.3060067  17.7074538
  34.9615982 111.6286736  18.2265770  40.0985704 110.6615877  18.9617100
  40.8310876 110.0915094  19.1954929  39.3425060 110.2737477  19.4023606
  37.6211125 104.3737451  23.4211709  37.2894450 105.2432862  23.1972924
  37.0256738 104.0573735  24.1005739  37.5139788 109.0932537  20.5005059
  36.6056665 109.0247946  20.2063820  37.4627384 109.5704482  21.3286884
  31.5880654 110.5122183  28.4439956  30.8113988 111.0716103  28.4342821
  32.2271217 110.9978966  28.9654826  39.3801435 107.2948976  22.2782933
  38.7375815 107.5881509  21.6322727  38.8756363 107.1801896  23.0836129
  37.0341598 111.0412149  12.9668792  37.9459454 111.2739536  12.7916489
  36.5251245 111.6249193  12.4043870  31.6713436 110.4009383  23.9763641
  32.5174631 110.8248797  24.1198290  31.6112074 109.7443008  24.6702204
  34.8212881 108.0613752  25.6344815  34.5773813 108.8155812  25.0979091
  35.0972812 108.4399099  26.4692062  34.3777573 107.2170185  21.2158653
  33.5162052 107.5151438  21.5075390  34.4040008 107.4340584  20.2839685
  45.9803165 113.8263068  18.8329409  45.2266873 113.2570466  18.6773414
  46.1150706 113.7925733  19.7800044  27.8569133 104.7768050  31.1698484
  27.4636078 104.2234249  31.8446128  28.6735273 105.0878629  31.5605001
  30.7737094 106.1925929  28.7618740  31.5146807 106.7933082  28.6823203
  31.0055017 105.4503567  28.2036783  34.7194257 102.2207032  23.0383022
  34.3758526 103.1108674  22.9622133  35.0873219 102.0308690  22.1752607
  32.2691650 107.0565344  16.6040696  31.4133247 106.6672195  16.4246334
  32.6818602 107.1357305  15.7440481  33.7990797 104.5911687  21.0032255
  33.2955593 104.5541823  20.1900061  34.0921404 105.5004430  21.0628912
  30.0433683 104.6750417  20.0098437  30.9086680 104.4793226  19.6504327
  30.1111192 104.4460769  20.9367794  39.6578814 114.9647998  13.4808631
  38.8808256 114.6259157  13.0363793  40.3370294 114.9700621  12.8063596
  34.4730843 110.0842735  13.3715238  34.1680978 110.3988885  14.2225382
  35.4261285 110.1624155  13.4142571  27.6496002 106.9052625  17.3814804
  28.2239754 106.6827807  16.6487997  28.2366984 106.9741320  18.1343405
  36.7075579 112.7926352  18.1879180  37.2207461 113.4256344  18.6900890
  37.3576803 112.1927547  17.8222541  29.9518670 103.7793874  16.1089873
  29.2983082 103.4642891  15.4846488  29.9099144 103.1569614  16.8349696
  33.1856410 110.2675807  20.4337521  32.2678971 110.4890755  20.2759209
  33.6016554 110.3422118  19.5749228  33.9691458 111.6667223  15.5640201
  34.7163277 112.1788620  15.2547323  34.2383047 111.3451276  16.4244595
  36.4170295 108.7024339  17.5458991  35.6793052 108.1901726  17.8769233
  36.6697069 108.2624721  16.7342267  36.5181922 101.4800591  18.1400760
  36.8240799 100.6197955  17.8526675  37.2434527 102.0718212  17.9399754
  34.3269574 110.8573269  25.2382224  34.6818961 111.0844742  26.0976689
  34.9741705 111.1891646  24.6159479  40.0567311 113.9791705  15.9431553
  39.9185209 114.1693301  15.0152742  39.7003529 114.7411087  16.3999604
  28.2209437 107.9649800  22.0228565  28.8608816 107.8238559  21.3251528
  27.3886967 107.6784313  21.6467167  26.6962978 109.3487882  23.9700376
  27.3686032 109.1405244  23.3213025  25.8692765 109.1509968  23.5305608
  32.5988550 105.9749823  25.9866037  31.9516466 106.6739773  25.8930513
  33.3689566 106.4085967  26.3542285  28.4401710 109.3215662  26.0382132
  27.9039067 108.8706401  26.6903729  27.8518419 109.4561571  25.2952597
  24.1740832 108.4571670  23.1235127  24.0899020 107.8497339  22.3885537
  23.3523538 108.9480688  23.1244623  34.3464545 106.9425233  18.4905322
  34.8433245 106.1895196  18.1706392  33.5751527 106.9789550  17.9248531
  42.1994303 112.6465599  20.1323613  42.1884179 113.5290314  19.7617547
  41.3311682 112.2937150  19.9378150  30.9299514 109.0842616  18.2177006
  30.5597302 108.5313657  18.9057912  31.4258607 108.4800750  17.6652007
  38.8166878 111.5414240  16.5993779  39.2827330 112.3742231  16.5254082
  39.2674378 111.0759221  17.3039038  36.7883540 103.9094827  20.6384681
  35.8746620 104.1399054  20.8066888  37.2176642 103.9933271  21.4898713
  36.5589999 112.0984719  23.1384575  35.9061449 112.3460626  22.4837028
  36.9370379 111.2848857  22.8047052  26.3264848 106.4946607  24.4630113
  26.3906174 107.3561438  24.0507510  26.2631968 105.8820609  23.7302471
  25.8017120 108.5669740  28.1103147  26.4289159 108.1846817  28.7240671
  24.9445039 108.3483942  28.4758839  26.1076910 108.4502165  20.0249050
  25.3863496 109.0638133  19.8856524  26.8970166 108.9859930  19.9465696
  28.9103224 105.7856592  26.2989702  29.4337626 106.0318888  27.0616011
  28.6915557 106.6176627  25.8792839  30.1155769 106.7270287  23.9839373
  29.7752589 105.9278100  24.3860052  29.4094775 107.0271998  23.4116206
  30.7672241 103.8119599  22.4366696  31.5898310 103.3380078  22.3145586
  31.0110304 104.5910083  22.9365382  33.5511598 107.5453007  13.6687930
  33.7675212 108.4277645  13.3676758  33.0705665 107.1539220  12.9393572
  30.1507202 107.4941268  20.2939564  30.1368771 106.5982361  19.9571862
  30.8679630 107.5011932  20.9277850  32.0033333 107.9278608  22.3392691
  31.7451111 108.8495679  22.3377022  31.4718373 107.5309043  23.0293155
  32.4235289 104.0610559  18.6993854  32.4456985 104.1249892  17.7445833
  32.8403348 103.2215067  18.8934360  42.8018913 113.7965818  16.7373076
  43.2450059 113.0473143  16.3392200  41.9245423 113.7875955  16.3546808
  29.0385178 107.8887646  29.7717067  29.0873333 108.7649768  29.3894836
  29.5807692 107.3465039  29.1988710  36.9341661 111.2652163  27.6810239
  37.8351524 111.1258628  27.3894237  37.0089635 111.4306618  28.6208416
  31.2684466 108.6419018  26.5263425  30.3987776 108.9352584  26.2546014
  31.5043946 109.2259463  27.2470689  42.3451778 115.2671057  19.1295524
  43.1798669 115.7060861  19.2933084  42.4810906 114.7909710  18.3103770
  39.3943283 112.8250791  25.0773012  39.8697405 113.0178438  24.2691863
  38.4708849 112.8809977  24.8316395  33.9723500 104.8598635  24.0428846
  34.4905444 105.5959662  23.7175334  33.6178633 105.1662628  24.8775605
  34.2236094 101.2798918  19.5629742  34.5037848 100.6122107  20.1890169
  35.0086701 101.4728013  19.0504406  38.0944952 109.7016551  23.3101317
  39.0462375 109.8014649  23.3313541  37.9248403 108.9094820  23.8199402
  36.1159332 106.7872135  23.4960718  35.5209264 107.0677147  22.8007207
  35.8309029 107.2766036  24.2677459  40.5733030 112.9222671  22.4243617
  40.5409350 111.9838672  22.6103301  41.1833654 113.0006708  21.6909442
  40.7227519 109.7133715  22.4701900  40.2066567 108.9292171  22.2831829
  41.6067467 109.3852431  22.6348420  38.3838246 103.4574730  18.4297713
  38.1863067 103.1489818  19.3141045  38.9937951 104.1836369  18.5595643
  46.3909580 113.9838678  21.5649654  47.1212969 113.7223966  22.1257357
  45.7816526 113.2467400  21.6051722  44.4724877 112.1246541  22.1624105
  43.7458041 111.9902506  21.5540596  44.0572164 112.4323369  22.9680823
  32.2121344 104.2605590  14.5569947  31.4022072 103.9152675  14.9325194
  32.9005761 103.9513134  15.1457559  34.1411892 103.3383637  16.1794244
  34.6942931 103.7579090  16.8384267  34.3781979 102.4119385  16.2217200
  30.1644992 109.3270711  31.9597008  30.0641718 110.2765068  31.8909099
  29.9466534 108.9988950  31.0873078  37.5190699 105.4484162  15.6872908
  36.9389368 106.1068966  15.3050961  37.2526632 104.6261507  15.2760326
  35.9694266 104.8489220  17.8894229  36.4694044 104.9605754  17.0808548
  36.6129874 104.5450273  18.5295037  36.3015577 107.6084253  14.7429257
  35.4141432 107.8933903  14.5249451  36.7169566 107.4478016  13.8956534
  39.6530114 107.6330774  18.4583596  40.4290504 108.1227226  18.7308213
  38.9278248 108.0588828  18.9155465  42.0902672 108.3458393  19.5157536
  42.6847163 108.1054129  18.8050845  42.1629256 107.6265523  20.1431073
  36.2756601 113.1238789  14.9579547  36.2191803 113.5807340  14.1187179
  36.8284944 112.3629473  14.7802390  40.0861407 108.9128520  15.7829666
  39.8298341 108.5125156  16.6137874  39.4614275 109.6272314  15.6579805
  44.3973745 111.6524594  18.2900958  43.8373303 111.7217783  19.0632520
  43.7917248 111.4765578  17.5700454  34.1339625 100.4094455  16.0863331
  33.3672021  99.8552942  16.2320014  34.5450330 100.4816324  16.9477483
  26.1381386 106.6979251  30.1768512  27.0012848 106.3416056  30.3871837
  25.5646797 106.3593146  30.8643917  47.3575677 116.8092509  18.1400760
  47.6634554 115.9489873  17.8526675  48.0828282 117.4010129  17.9399754
  45.0629849 116.6090835  19.5629742  45.3431602 115.9414024  20.1890169
  45.8480456 116.8019931  19.0504406  44.9733380 115.7386373  16.0863331
  44.2065776 115.1844860  16.2320014  45.3844085 115.8108242  16.9477483
   3.6829967  49.9919084  16.4402189   4.2269871  50.6049043  15.9457144
   3.1016812  50.5498663  16.9569202   7.0058761  49.4515138  15.7763510
   6.2154305  49.4339277  15.2368010   6.7692116  49.9903432  16.5312547
   1.8056025  47.6378851  18.3030945   2.6747185  47.8119504  17.9417580
   1.3262777  48.4573268  18.1806675  13.4648501  59.3467477   7.7076220
  14.1026911  59.2274225   7.0039560  13.3469344  60.2948321   7.7664172
  10.7557990  60.4529757  13.6023950  10.7446631  60.0582555  12.7304454
  10.9178630  59.7195830  14.1957722   7.4765252  63.2366869  12.5503134
   7.1855118  64.1412500  12.4349801   8.1122236  63.2783396  13.2647204
   8.4021458  60.6143717   9.1404494   8.9985031  60.3899740   8.4261457
   8.4596430  59.8728463   9.7429942  18.4198197  57.0094164   5.6862407
  19.1523369  56.4393381   5.9200236  17.6637552  56.6215765   6.1268912
  15.9423617  50.7215738  10.1457015  15.6106942  51.5911149   9.9218230
  15.3469231  50.4052022  10.8251046  12.4355137  62.9228284   9.5452928
  12.1355860  63.8253323   9.4368735  12.0906196  62.6560468  10.3974081
   9.9093146  56.8600470  15.1685263   9.1326480  57.4194390  15.1588127
  10.5483709  57.3457253  15.6900133  17.7013927  53.6427263   9.0028239
  17.0588307  53.9359796   8.3568034  17.1968855  53.5280183   9.8081436
   8.1639519  59.6685923  14.7303230   8.9054203  60.2070967  14.4538053
   7.4576504  60.2952212  14.8874781  13.6394858  61.8115064  13.3275391
  14.0478214  61.3697474  12.5830023  12.9172120  61.2367691  13.5809584
   9.9925928  56.7487671  10.7008948  10.8387123  57.1727084  10.8443597
   9.9324566  56.0921295  11.3947511  13.9623673  62.3716255   7.0827680
  13.3332535  62.5361969   6.3803748  13.5749335  62.7857864   7.8538644
  17.8412905  63.3070692   4.4372044  17.1563943  63.6869594   3.8869077
  17.9256754  63.9166019   5.1703991  13.1425374  54.4092039  12.3590122
  12.8986305  55.1634100  11.8224397  13.4185304  54.7877387  13.1937369
  15.0963836  60.9530651  11.0367387  15.3080732  61.5962411  10.3601768
  15.0493585  60.1192968  10.5689317   6.9000882  56.8225572  15.5318540
   6.2699543  57.5041852  15.7653936   6.7936970  56.7108653  14.5871678
  16.2109664  63.8302607   9.2089745  17.0327108  63.4282794   8.9272426
  16.2072067  63.7270841  10.1605860   9.9766268  63.3786650  11.3650455
  10.0410700  63.8407057  12.2008627   9.2677192  62.7484015  11.4932765
  24.3015657  60.1741355   5.5574716  23.5479366  59.6048753   5.4018720
  24.4363199  60.1404020   6.5045351   6.1781625  51.1246337  17.8943791
   5.7848571  50.5712536  18.5691435   6.9947765  51.4356916  18.2850308
   9.0949586  52.5404217  15.4864047   9.8359299  53.1411370  15.4068510
   9.3267509  51.7981854  14.9282090   4.2390924  57.7260584  13.7642277
   4.1244439  56.8245841  14.0649376   3.3835442  57.9724281  13.4127093
  11.3182762  65.6678324  15.3629777  10.8746616  64.8814703  15.0450682
  11.9799975  65.8557475  14.6973668  13.4164000  65.9481124  13.3911179
  13.3982475  66.7690005  12.8991448  14.3383920  65.8235199  13.6161320
   9.8737054  63.4625254  14.2334687  10.4065391  62.7013542  14.0033995
   9.3451135  63.1698905  14.9758842  16.2182613  60.7860267   6.8620545
  15.5606287  61.4759528   6.9500674  17.0223012  61.1756698   7.2054532
  15.7949868  64.1210641   3.0403630  15.3412195  63.2801551   3.0968820
  15.1643834  64.7572039   3.3778410  12.6482066  57.2051556  11.9627530
  13.0031454  57.4323029  12.8221996  13.2954197  57.5369933  11.3404786
  18.4049182  62.3946519   7.6788131  18.8385689  62.3021808   8.5271185
  19.1180763  62.3704019   7.0408147  12.1377077  65.9948613   9.2121231
  12.1914100  66.5639549   9.9798947  11.2691859  66.1650498   8.8475269
  19.2664732  62.4370220  10.2121016  19.4600622  63.3416030  10.4580291
  19.1665350  61.9777639  11.0459601  10.9201043  52.3228110  12.7111344
  10.2728958  53.0218060  12.6175820  11.6902058  52.7564254  13.0787592
  14.3279841  62.5876962  15.7861897  14.1765347  62.3587514  14.8691981
  14.3184520  63.5447564  15.7993242  11.0965177  60.1608875  10.7708163
  12.0257237  60.3120035  10.5977131  10.6756207  60.2492896   9.9156810
   9.8953509  64.1859539   8.5406701   9.7564595  63.8178324   9.4132639
   9.1068105  64.7007179   8.3690659  11.4458724  63.5641142   5.9295539
  11.1108557  63.5241912   6.8253189  10.9462670  62.8985858   5.4565949
   5.4202968  58.9708772  11.4548120   5.2822766  58.2389011  12.0559659
   6.3307891  58.8817672  11.1732308   8.0485269  58.6828731  10.9431800
   8.7584887  58.0421924  10.9018418   8.0054577  58.9341626  11.8657980
  16.0372047  65.6196085  13.8638379  15.9784594  64.9355305  13.1968962
  16.4391566  66.3615075  13.4119005   6.7614203  55.6693949  12.7627439
   6.2251560  55.2184688  13.4149035   6.1730911  55.8039858  12.0197903
  16.0389455  63.5835669  12.0952358  15.1516233  63.2461591  12.2178757
  16.6088006  62.8518700  12.3321124  20.5206795  58.9943886   6.8568920
  20.5096671  59.8768602   6.4862853  19.6524175  58.6415437   6.6623457
  12.0289292  68.1423955  11.2171760  12.7417264  68.7771420  11.1447662
  11.5379320  68.2387821  10.4011762   7.0801205  65.8918399  12.0377331
   7.7810665  66.5254882  12.1906725   6.6096320  66.2333130  11.2772970
  14.8802491  58.4463006   9.8629881  14.2273941  58.6938913   9.2082334
  15.2582871  57.6327144   9.5292359  10.9290064  59.1882817  16.3495919
  10.2530701  59.0876946  17.0198294  11.7517698  59.0322031  16.8131916
   4.1229613  54.9148027  14.8348453   4.7501652  54.5325104  15.4485978
   3.2657532  54.6962229  15.2004146  14.5223721  65.3211002  16.4402189
  15.0663625  65.9340960  15.9457144  13.9410566  65.8790580  16.9569202
  12.8081234  68.4431720   7.5717217  12.6832374  67.6421460   7.0628162
  13.4660325  68.9377913   7.0831187  14.8716143  66.2440740   9.1996767
  13.9246478  66.1246091   9.1275094  15.2198916  65.3563238   9.2823028
   7.2315716  52.1334879  13.0235009   7.7550118  52.3797176  13.7861318
   7.0128049  52.9654914  12.6038146  15.4796698  66.8622015   6.4865992
  16.4043245  66.6564876   6.3490443  15.3112001  66.6138416   7.3955333
  21.1231405  60.1444106   3.4618383  21.5662551  59.3951431   3.0637506
  20.2457915  60.1354242   3.0792115   1.8734996  58.5192248  12.8021799
   1.1316732  58.6674883  13.3886429   1.5527740  58.7800514  11.9388548
   9.8178658  68.0608226  12.6002189  10.1265785  67.8157373  13.4724888
  10.6154140  68.2654865  12.1121059   7.3597670  54.2365933  16.4962373
   7.4085825  55.1128056  16.1140143   7.9020184  53.6943326  15.9234016
  17.8452516  64.7807056  15.7763510  17.0548059  64.7631195  15.2368010
  17.6085870  65.3195350  16.5312547  17.9650391  61.6299523  13.0896239
  18.0148396  61.4649530  14.0311762  17.8564314  60.7626782  12.6994120
  15.2554153  57.6130451  14.4055545  16.1564016  57.4736915  14.1139543
  15.3302128  57.7784905  15.3453723   9.5896958  54.9897305  13.2508732
   8.7200268  55.2830871  12.9791320   9.8256439  55.5737750  13.9715995
  19.4668588  64.0496464  13.3338260  19.1753396  64.4126445  14.1701721
  18.8540719  63.3363472  13.1551592  20.6664270  61.6149344   5.8540831
  21.5011161  62.0539148   6.0178391  20.8023399  61.1387997   5.0349076
  17.7155776  59.1729079  11.8018318  18.1909897  59.3656725  10.9937170
  16.7921341  59.2288264  11.5561702  16.4157445  56.0494839  10.0346624
  17.3674868  56.1492936  10.0558848  16.2460895  55.2573107  10.5444708
  14.4371824  53.1350422  10.2206025  13.8421756  53.4155435   9.5252513
  14.1521521  53.6244323  10.9922766  18.8945523  59.2700958   9.1488924
  18.8621843  58.3316959   9.3348607  19.5046146  59.3484995   8.4154748
  19.0440011  56.0612002   9.1947207  18.5279060  55.2770458   9.0077136
  19.9279960  55.7330718   9.3593726  24.7122072  60.3316965   8.2894960
  25.4425461  60.0702253   8.8502664  24.1029018  59.5945687   8.3297028
  22.7937370  58.4724828   8.8869412  22.0670533  58.3380793   8.2785903
  22.3784656  58.7801656   9.6926130  10.6167546  62.1914758  16.6516785
  11.5370555  62.3693357  16.8456831  10.5817129  61.2470803  16.4996484
   8.4857484  55.6748998  18.6842315   8.3854211  56.6243355  18.6154406
   8.2679026  55.3467237  17.8118385   8.3488754  59.1046137  17.5007376
   7.8655836  59.9046497  17.7071265   8.4349693  59.1154082  16.5474820
   4.8661473  61.5651788  12.1046608   5.6854362  62.0595866  12.1281445
   5.1398281  60.6483756  12.0764175  22.7186237  58.0002881   5.0146264
  22.1585795  58.0696070   5.7877826  22.1129741  57.8243866   4.2945761
  12.6449780  62.9670769  18.3030945  13.5140940  63.1411421  17.9417580
  12.1656531  63.7865186  18.1806675   4.4593879  53.0457538  16.9013819
   5.3225340  52.6894343  17.1117144   3.8859289  52.7071433  17.5889223
  24.3042256  74.6759395   7.7076220  24.9420666  74.5566142   7.0039560
  24.1863099  75.6240239   7.7664172  21.1131962  74.6286823   7.6437745
  20.7750473  74.5127888   6.7558280  21.9821730  74.2277988   7.6238751
  21.5951745  75.7821675  13.6023950  21.5840386  75.3874473  12.7304454
  21.7572384  75.0487747  14.1957722  18.3159006  78.5658786  12.5503134
  18.0248872  79.4704417  12.4349801  18.9515990  78.6075314  13.2647204
  19.2415213  75.9435635   9.1404494  19.8378785  75.7191657   8.4261457
  19.2990184  75.2020380   9.7429942  23.8583524  72.4010849   4.7829428
  24.6446613  71.9830272   4.4319845  24.1222228  73.3056941   4.9511076
  29.2591951  72.3386082   5.6862407  29.9917123  71.7685299   5.9200236
  28.5031307  71.9507682   6.1268912  26.7817372  66.0507656  10.1457015
  26.4500696  66.9203067   9.9218230  26.1862985  65.7343940  10.8251046
  23.2748891  78.2520202   9.5452928  22.9749614  79.1545241   9.4368735
  22.9299951  77.9852385  10.3974081  26.6746035  70.7702742   7.2250365
  25.7662912  70.7018151   6.9309126  26.6233631  71.2474687   8.0532191
  20.7486901  72.1892388  15.1685263  19.9720235  72.7486308  15.1588127
  21.3877464  72.6749171  15.6900133  28.5407681  68.9719181   9.0028239
  27.8982062  69.2651714   8.3568034  28.0362610  68.8572101   9.8081436
  26.1947845  72.7182354  -0.3085902  27.1065701  72.9509741  -0.4838204
  25.6857492  73.3019398  -0.8710823  19.0033273  74.9977841  14.7303230
  19.7447957  75.5362885  14.4538053  18.2970258  75.6244130  14.8874781
  24.4788613  77.1406982  13.3275391  24.8871969  76.6989392  12.5830023
  23.7565874  76.5659609  13.5809584  20.8319683  72.0779588  10.7008948
  21.6780878  72.5019002  10.8443597  20.7718320  71.4213213  11.3947511
  24.8017427  77.7008172   7.0827680  24.1726290  77.8653886   6.3803748
  24.4143089  78.1149782   7.8538644  28.6806659  78.6362610   4.4372044
  27.9957697  79.0161511   3.8869077  28.7650509  79.2457937   5.1703991
  23.9819128  69.7383957  12.3590122  23.7380060  70.4926017  11.8224397
  24.2579059  70.1169304  13.1937369  25.9357591  76.2822569  11.0367387
  26.1474486  76.9254329  10.3601768  25.8887339  75.4484886  10.5689317
  23.5383820  68.8940390   7.9403959  22.6768299  69.1921643   8.2320697
  23.5646254  69.1110789   7.0084992  17.7394637  72.1517489  15.5318540
  17.1093297  72.8333770  15.7653936  17.6330725  72.0400571  14.5871678
  27.0503419  79.1594525   9.2089745  27.8720862  78.7574712   8.9272426
  27.0465822  79.0562759  10.1605860  20.8160022  78.7078568  11.3650455
  20.8804455  79.1698975  12.2008627  20.1070946  78.0775933  11.4932765
  35.1409412  75.5033273   5.5574716  34.3873120  74.9340671   5.4018720
  35.2756953  75.4695937   6.5045351  17.0175379  66.4538255  17.8943791
  16.6242325  65.9004454  18.5691435  17.8341520  66.7648834  18.2850308
  19.9343340  67.8696134  15.4864047  20.6753054  68.4703287  15.4068510
  20.1661263  67.1273772  14.9282090  15.0784678  73.0552501  13.7642277
  14.9638194  72.1537759  14.0649376  14.2229196  73.3016198  13.4127093
  22.1576516  80.9970242  15.3629777  21.7140370  80.2106620  15.0450682
  22.8193730  81.1849392  14.6973668  24.2557754  81.2773042  13.3911179
  24.2376230  82.0981923  12.8991448  25.1777674  81.1527117  13.6161320
  20.7130808  78.7917171  14.2334687  21.2459145  78.0305459  14.0033995
  20.1844890  78.4990823  14.9758842  23.8800503  63.8977237   9.7628329
  23.5364773  64.7878879   9.6867439  24.2479466  63.7078895   8.8997914
  21.4297897  68.7335549   3.3286002  20.5739494  68.3442399   3.1491641
  21.8424849  68.8127510   2.4685788  22.9597044  66.2681892   7.7277562
  22.4561839  66.2312027   6.9145367  23.2527651  67.1774635   7.7874219
  19.2039930  66.3520622   6.7343744  20.0692926  66.1563431   6.3749633
  19.2717439  66.1230974   7.6613101  28.8185060  76.6418203   0.2053937
  28.0414503  76.3029362  -0.2390901  29.4976541  76.6470826  -0.4691098
  23.6337089  71.7612940   0.0960545  23.3287225  72.0759090   0.9470688
  24.5867531  71.8394360   0.1387878  27.0576367  76.1152184   6.8620545
  26.4000042  76.8051446   6.9500674  27.8616766  76.5048616   7.2054532
  16.8102249  68.5822830   4.1060111  17.3846001  68.3598011   3.3733304
  17.3973231  68.6511524   4.8588712  25.8681826  74.4696557   4.9124487
  26.3813708  75.1026549   5.4146197  26.5183050  73.8697752   4.5467847
  19.1124916  65.4564079   2.8335180  18.4589329  65.1413096   2.2091795
  19.0705391  64.8339819   3.5595003  22.3462657  71.9446012   7.1582828
  21.4285218  72.1660959   7.0004516  22.7622800  72.0192323   6.2994535
  23.1297705  73.3437428   2.2885508  23.8769524  73.8558825   1.9792630
  23.3989294  73.0221481   3.1489901  26.6343622  79.4502558   3.0403630
  26.1805949  78.6093468   3.0968820  26.0037589  80.0863957   3.3778410
  25.5776542  70.3794544   4.2704297  24.8399299  69.8671931   4.6014540
  25.8303315  69.9394926   3.4587574  25.6788169  63.1570796   4.8646066
  25.9847046  62.2968160   4.5771982  26.4040774  63.7488417   4.6645060
  19.9509249  73.4524589   5.3722258  20.0057859  72.4998426   5.2964734
  19.1400451  73.6084029   5.8563556  23.4875820  72.5343474  11.9627530
  23.8425208  72.7614947  12.8221996  24.1347952  72.8661850  11.3404786
  29.2173557  75.6561910   2.6676859  29.0791456  75.8463506   1.7398049
  28.8609776  76.4181292   3.1244910  17.3815683  69.6420005   8.7473871
  18.0215063  69.5008764   8.0496835  16.5493214  69.3554518   8.3712473
  29.2442937  77.7238437   7.6788131  29.6779444  77.6313726   8.5271185
  29.9574518  77.6995937   7.0408147  22.9770832  81.3240531   9.2121231
  23.0307854  81.8931467   9.9798947  22.1085613  81.4942416   8.8475269
  15.8569225  71.0258087  10.6945683  16.5292279  70.8175449  10.0458332
  15.0299012  70.8280173  10.2550915  30.1058487  77.7662137  10.2121016
  30.2994377  78.6707948  10.4580291  30.0059105  77.3069556  11.0459601
  21.7594797  67.6520028  12.7111344  21.1122712  68.3509977  12.6175820
  22.5295813  68.0856172  13.0787592  25.1673595  77.9168880  15.7861897
  25.0159102  77.6879432  14.8691981  25.1578275  78.8739481  15.7993242
  21.9358932  75.4900793  10.7708163  22.8650992  75.6411952  10.5977131
  21.5149962  75.5784813   9.9156810  20.7347263  79.5151457   8.5406701
  20.5958349  79.1470241   9.4132639  19.9461860  80.0299097   8.3690659
  22.2852479  78.8933060   5.9295539  21.9502311  78.8533830   6.8253189
  21.7856424  78.2277776   5.4565949  16.2596723  74.3000690  11.4548120
  16.1216520  73.5680929  12.0559659  17.1701646  74.2109590  11.1732308
  18.8879023  74.0120649  10.9431800  19.5978642  73.3713841  10.9018418
  18.8448331  74.2633544  11.8657980  26.8765802  80.9488002  13.8638379
  26.8178348  80.2647223  13.1968962  27.2785320  81.6906992  13.4119005
  17.6007957  70.9985867  12.7627439  17.0645314  70.5476605  13.4149035
  17.0124666  71.1331776  12.0197903  26.8783209  78.9127586  12.0952358
  25.9909988  78.5753508  12.2178757  27.4481760  78.1810618  12.3321124
  13.3347078  70.1341875   9.8480433  13.2505267  69.5267544   9.1130843
  12.5129785  70.6250893   9.8489930  23.5070792  68.6195438   5.2150629
  24.0039492  67.8665401   4.8951699  22.7357774  68.6559755   4.6493838
  31.3600550  74.3235804   6.8568920  31.3490426  75.2060519   6.4862853
  30.4917929  73.9707355   6.6623457  22.8683046  83.4715873  11.2171760
  23.5811018  84.1063338  11.1447662  22.3773075  83.5679739  10.4011762
  24.5900573  77.3767125   2.7889052  23.6556852  77.4968588   2.6193756
  24.7677241  76.4739592   2.5249062  20.0905761  70.7612821   4.9422313
  19.7203549  70.2083862   5.6303219  20.5864853  70.1570955   4.3897313
  27.9773124  73.2184445   3.3239086  28.4433576  74.0512436   3.2499389
  28.4280625  72.7529426   4.0284345  17.9194960  81.2210316  12.0377331
  18.6204419  81.8546799  12.1906725  17.4490075  81.5625048  11.2772970
  25.9489787  65.5865032   7.3629987  25.0352867  65.8169259   7.5312194
  26.3782889  65.6703476   8.2144020  25.7196246  73.7754924   9.8629881
  25.0667696  74.0230831   9.2082334  26.0976625  72.9619062   9.5292359
  21.7683819  74.5174735  16.3495919  21.0924456  74.4168864  17.0198294
  22.5911452  74.3613949  16.8131916  15.4871095  68.1716812  11.1875419
  15.5512421  69.0331643  10.7752817  15.4238215  67.5590814  10.4547778
  14.9623367  70.2439945  14.8348453  15.5895406  69.8617022  15.4485978
  14.1051286  70.0254147  15.2004146  25.3617476  80.6502920  16.4402189
  25.9057380  81.2632878  15.9457144  24.7804321  81.2082498  16.9569202
  23.6474989  83.7723638   7.5717217  23.5226128  82.9713378   7.0628162
  24.3054080  84.2669831   7.0831187  15.2683157  70.1272370   6.7494357
  14.5469743  70.7408338   6.6101830  16.0576413  70.6630135   6.6711003
  25.7109897  81.5732658   9.1996767  24.7640233  81.4538009   9.1275094
  26.0592670  80.6855156   9.2823028  18.0709470  67.4626797  13.0235009
  18.5943872  67.7089093  13.7861318  17.8521804  68.2946832  12.6038146
  26.3190452  82.1913933   6.4865992  27.2437000  81.9856794   6.3490443
  26.1505756  81.9430334   7.3955333  19.2762016  68.4040492  10.7084679
  18.9358836  67.6048305  11.1105359  18.5701022  68.7042203  10.1361512
  19.9278487  65.4889804   9.1612002  20.7504557  65.0150282   9.0390893
  20.1716551  66.2680288   9.6610689  22.7117845  69.2223212   0.3933236
  22.9281459  70.1047850   0.0922064  22.2311912  68.8309425  -0.3361122
  17.4517066  72.1808925   6.9703981  17.3061647  72.4949228   7.8628262
  16.9742270  72.7993825   6.4174879  19.3113449  69.1711473   7.0184870
  19.2975018  68.2752566   6.6817168  20.0285877  69.1782137   7.6523156
  21.1639580  69.6048813   9.0637998  20.9057358  70.5265884   9.0622328
  20.6324620  69.2079248   9.7538462  21.5841535  65.7380764   5.4239160
  21.6063232  65.8020097   4.4691140  22.0009594  64.8985272   5.6179667
  31.9625160  75.4736023   3.4618383  32.4056306  74.7243348   3.0637506
  31.0851670  75.4646160   3.0792115  12.7128750  73.8484166  12.8021799
  11.9710486  73.9966801  13.3886429  12.3921494  74.1092431  11.9388548
  28.9952364  79.4766070   0.4712312  29.5203688  79.8153343  -0.2538368
  28.9074717  78.5413085   0.2875447  20.6572413  83.3900144  12.6002189
  20.9659539  83.1449291  13.4724888  21.4547895  83.5946782  12.1121059
  18.1991424  69.5657851  16.4962373  18.2479580  70.4419973  16.1140143
  18.7413939  69.0235244  15.9234016  28.6846270  80.1098974  15.7763510
  27.8941814  80.0923113  15.2368010  28.4479625  80.6487268  16.5312547
  28.8044145  76.9591440  13.0896239  28.8542150  76.7941448  14.0311762
  28.6958069  76.0918699  12.6994120  26.0947908  72.9422368  14.4055545
  26.9957770  72.8028833  14.1139543  26.1695882  73.1076823  15.3453723
  20.4290713  70.3189223  13.2508732  19.5594022  70.6122789  12.9791320
  20.6650193  70.9029668  13.9715995  30.3062342  79.3788382  13.3338260
  30.0147150  79.7418362  14.1701721  29.6934473  78.6655390  13.1551592
  31.5058024  76.9441261   5.8540831  32.3404916  77.3831066   6.0178391
  31.6417153  76.4679915   5.0349076  28.5549530  74.5020996  11.8018318
  29.0303652  74.6948643  10.9937170  27.6315096  74.5580182  11.5561702
  23.1329747  66.5368840  10.7674152  23.6511691  67.2729867  10.4420641
  22.7784880  66.8432833  11.6020911  23.3842341  62.9569122   6.2875049
  23.6644095  62.2892311   6.9135475  24.1692948  63.1498218   5.7749713
  27.2551199  71.3786756  10.0346624  28.2068622  71.4784854  10.0558848
  27.0854650  70.5865025  10.5444708  25.2765579  68.4642340  10.2206025
  24.6815511  68.7447352   9.5252513  24.9915275  68.9536241  10.9922766
  29.7339277  74.5992876   9.1488924  29.7015597  73.6608877   9.3348607
  30.3439901  74.6776913   8.4154748  29.8833766  71.3903920   9.1947207
  29.3672814  70.6062376   9.0077136  30.7673714  71.0622636   9.3593726
  27.5444492  65.1344935   5.1543019  27.3469314  64.8260023   6.0386351
  28.1544198  65.8606574   5.2840949  35.5515827  75.6608883   8.2894960
  36.2819215  75.3994171   8.8502664  34.9422772  74.9237605   8.3297028
  33.6331124  73.8016746   8.8869412  32.9064288  73.6672710   8.2785903
  33.2178411  74.1093574   9.6926130  21.4561300  77.5206675  16.6516785
  22.3764310  77.6985274  16.8456831  21.4210883  76.5762721  16.4996484
  14.4523373  75.4307710   9.2939566  14.6709383  76.3624818   9.3127600
  14.8649147  75.0715684  10.0794370  21.3727591  65.9375795   1.2815254
  20.5628319  65.5922880   1.6570500  22.0612008  65.6283339   1.8702866
  23.3018139  65.0153842   2.9039551  23.8549178  65.4349295   3.5629574
  23.5388225  64.0889590   2.9462507  19.3251238  71.0040916  18.6842315
  19.2247965  71.9535273  18.6154406  19.1072780  70.6759155  17.8118385
  26.6796946  67.1254367   2.4118215  26.0995615  67.7839171   2.0296267
  26.4132879  66.3031712   2.0005632  25.1300513  66.5259425   4.6139535
  25.6300291  66.6375959   3.8053854  25.7736120  66.2220478   5.2540344
  19.1882508  74.4338054  17.5007376  18.7049590  75.2338415  17.7071265
  19.2743447  74.4445999  16.5474820  15.7055228  76.8943705  12.1046608
  16.5248117  77.3887784  12.1281445  15.9792036  75.9775673  12.0764175
  25.4621824  69.2854458   1.4674563  24.5747679  69.5704108   1.2494758
  25.8775813  69.1248221   0.6201840  28.8136360  69.3100979   5.1828902
  29.5896750  69.7997431   5.4553519  28.0884494  69.7359033   5.6400772
  31.2508919  70.0228598   6.2402843  31.8453410  69.7824334   5.5296151
  31.3235503  69.3035728   6.8676379  25.4362848  74.8008993   1.6824853
  25.3798049  75.2577545   0.8432486  25.9891190  74.0399678   1.5047696
  29.2467654  70.5898725   2.5074973  28.9904588  70.1895361   3.3383181
  28.6220522  71.3042519   2.3825112  33.5579992  73.3294799   5.0146264
  32.9979550  73.3987988   5.7877826  32.9523495  73.1535783   4.2945761
  10.9590142  71.2281839  12.8038805  11.6049006  70.7180793  13.2926030
  10.7507293  71.9650521  13.3782230  23.4843534  78.2962687  18.3030945
  24.3534694  78.4703339  17.9417580  23.0050286  79.1157103  18.1806675
  23.2945872  62.0864660   2.8108638  22.5278268  61.5323147   2.9565320
  23.7056577  62.1586529   3.6722789  15.2987633  68.3749456  16.9013819
  16.1619095  68.0186261  17.1117144  14.7253044  68.0363351  17.5889223
  35.1436010  90.0051313   7.7076220  35.7814420  89.8858060   7.0039560
  35.0256853  90.9532156   7.7664172  31.9525716  89.9578741   7.6437745
  31.6144228  89.8419805   6.7558280  32.8215485  89.5569906   7.6238751
  32.4345499  91.1113592  13.6023950  32.4234140  90.7166391  12.7304454
  32.5966139  90.3779665  14.1957722  29.1552761  93.8950704  12.5503134
  28.8642627  94.7996335  12.4349801  29.7909745  93.9367232  13.2647204
  30.0808967  91.2727553   9.1404494  30.6772540  91.0483575   8.4261457
  30.1383939  90.5312298   9.7429942  34.6977279  87.7302766   4.7829428
  35.4840368  87.3122190   4.4319845  34.9615983  88.6348859   4.9511076
  40.0985706  87.6678000   5.6862407  40.8310878  87.0977216   5.9200236
  39.3425061  87.2799600   6.1268912  37.6211126  81.3799574  10.1457015
  37.2894451  82.2494985   9.9218230  37.0256739  81.0635858  10.8251046
  34.1142646  93.5812120   9.5452928  33.8143369  94.4837158   9.4368735
  33.7693705  93.3144303  10.3974081  37.5139789  86.0994660   7.2250365
  36.6056667  86.0310068   6.9309126  37.4627385  86.5766605   8.0532191
  31.5880655  87.5184305  15.1685263  30.8113989  88.0778226  15.1588127
  32.2271218  88.0041088  15.6900133  39.3801436  84.3011098   9.0028239
  38.7375816  84.5943631   8.3568034  38.8756364  84.1864019   9.8081436
  37.0341599  88.0474271  -0.3085902  37.9459456  88.2801658  -0.4838204
  36.5251247  88.6311316  -0.8710823  29.8427028  90.3269759  14.7303230
  30.5841712  90.8654803  14.4538053  29.1364013  90.9536048  14.8874781
  35.3182367  92.4698899  13.3275391  35.7265723  92.0281310  12.5830023
  34.5959629  91.8951527  13.5809584  31.6713437  87.4071506  10.7008948
  32.5174632  87.8310920  10.8443597  31.6112075  86.7505130  11.3947511
  35.6411182  93.0300090   7.0827680  35.0120044  93.1945804   6.3803748
  35.2536844  93.4441699   7.8538644  39.5200414  93.9654528   4.4372044
  38.8351452  94.3453429   3.8869077  39.6044263  94.5749854   5.1703991
  34.8212883  85.0675874  12.3590122  34.5773814  85.8217935  11.8224397
  35.0972813  85.4461222  13.1937369  36.7751345  91.6114487  11.0367387
  36.9868241  92.2546247  10.3601768  36.7281094  90.7776803  10.5689317
  34.3777574  84.2232307   7.9403959  33.5162053  84.5213561   8.2320697
  34.4040009  84.4402706   7.0084992  28.5788391  87.4809407  15.5318540
  27.9487052  88.1625688  15.7653936  28.4724479  87.3692489  14.5871678
  37.8897173  94.4886442   9.2089745  38.7114617  94.0866629   8.9272426
  37.8859576  94.3854676  10.1605860  31.6553777  94.0370485  11.3650455
  31.7198209  94.4990893  12.2008627  30.9464701  93.4067850  11.4932765
  45.9803166  90.8325191   5.5574716  45.2266875  90.2632589   5.4018720
  46.1150708  90.7987855   6.5045351  27.8569134  81.7830173  17.8943791
  27.4636080  81.2296371  18.5691435  28.6735274  82.0940751  18.2850308
  30.7737095  83.1988052  15.4864047  31.5146808  83.7995205  15.4068510
  31.0055018  82.4565690  14.9282090  25.9178433  88.3844419  13.7642277
  25.8031948  87.4829676  14.0649376  25.0622951  88.6308116  13.4127093
  32.9970271  96.3262159  15.3629777  32.5534125  95.5398538  15.0450682
  33.6587484  96.5141310  14.6973668  35.0951509  96.6064959  13.3911179
  35.0769984  97.4273840  12.8991448  36.0171429  96.4819035  13.6161320
  31.5524563  94.1209089  14.2334687  32.0852900  93.3597377  14.0033995
  31.0238644  93.8282741  14.9758842  34.7194258  79.2269155   9.7628329
  34.3758527  80.1170797   9.6867439  35.0873221  79.0370812   8.8997914
  32.2691652  84.0627467   3.3286002  31.4133248  83.6734317   3.1491641
  32.6818603  84.1419428   2.4685788  33.7990798  81.5973810   7.7277562
  33.2955594  81.5603945   6.9145367  34.0921405  82.5066553   7.7874219
  30.0433684  81.6812540   6.7343744  30.9086681  81.4855348   6.3749633
  30.1111193  81.4522891   7.6613101  39.6578815  91.9710121   0.2053937
  38.8808258  91.6321280  -0.2390901  40.3370296  91.9762744  -0.4691098
  34.4730844  87.0904858   0.0960545  34.1680979  87.4051007   0.9470688
  35.4261286  87.1686278   0.1387878  37.8970122  91.4444102   6.8620545
  37.2393796  92.1343363   6.9500674  38.7010521  91.8340534   7.2054532
  27.6496003  83.9114748   4.1060111  28.2239755  83.6889929   3.3733304
  28.2366986  83.9803442   4.8588712  36.7075580  89.7988475   4.9124487
  37.2207462  90.4318466   5.4146197  37.3576804  89.1989670   4.5467847
  29.9518671  80.7855997   2.8335180  29.2983083  80.4705014   2.2091795
  29.9099145  80.1631737   3.5595003  33.1856411  87.2737930   7.1582828
  32.2678973  87.4952877   7.0004516  33.6016555  87.3484241   6.2994535
  33.9691459  88.6729346   2.2885508  34.7163278  89.1850743   1.9792630
  34.2383049  88.3513399   3.1489901  37.4737377  94.7794476   3.0403630
  37.0199704  93.9385386   3.0968820  36.8431343  95.4155874   3.3778410
  36.4170296  85.7086462   4.2704297  35.6793053  85.1963848   4.6014540
  36.6697070  85.2686844   3.4587574  36.5181924  78.4862714   4.8646066
  36.8240800  77.6260077   4.5771982  37.2434528  79.0780334   4.6645060
  30.7903003  88.7816507   5.3722258  30.8451613  87.8290344   5.2964734
  29.9794205  88.9375946   5.8563556  34.3269575  87.8635391  11.9627530
  34.6818963  88.0906864  12.8221996  34.9741706  88.1953768  11.3404786
  40.0567312  90.9853827   2.6676859  39.9185210  91.1755423   1.7398049
  39.7003531  91.7473210   3.1244910  28.2209438  84.9711922   8.7473871
  28.8608817  84.8300681   8.0496835  27.3886969  84.6846436   8.3712473
  40.0836691  93.0530354   7.6788131  40.5173198  92.9605643   8.5271185
  40.7968272  93.0287855   7.0408147  33.8164586  96.6532448   9.2121231
  33.8701609  97.2223385   9.9798947  32.9479368  96.8234333   8.8475269
  26.6962980  86.3550005  10.6945683  27.3686033  86.1467367  10.0458332
  25.8692766  86.1572091  10.2550915  40.9452241  93.0954055  10.2121016
  41.1388131  93.9999865  10.4580291  40.8452859  92.6361474  11.0459601
  32.5988552  82.9811945  12.7111344  31.9516467  83.6801895  12.6175820
  33.3689567  83.4148089  13.0787592  36.0067350  93.2460798  15.7861897
  35.8552856  93.0171349  14.8691981  35.9972029  94.2031399  15.7993242
  32.7752686  90.8192710  10.7708163  33.7044746  90.9703870  10.5977131
  32.3543716  90.9076731   9.9156810  31.5741018  94.8443375   8.5406701
  31.4352104  94.4762159   9.4132639  30.7855614  95.3591014   8.3690659
  33.1246233  94.2224977   5.9295539  32.7896066  94.1825747   6.8253189
  32.6250179  93.5569693   5.4565949  27.0990477  89.6292608  11.4548120
  26.9610275  88.8972846  12.0559659  28.0095400  89.5401508  11.1732308
  29.7272778  89.3412567  10.9431800  30.4372396  88.7005759  10.9018418
  29.6842086  89.5925462  11.8657980  37.7159556  96.2779920  13.8638379
  37.6572102  95.5939140  13.1968962  38.1179075  97.0198910  13.4119005
  28.4401712  86.3277785  12.7627439  27.9039069  85.8768523  13.4149035
  27.8518420  86.4623694  12.0197903  37.7176964  94.2419504  12.0952358
  36.8303742  93.9045426  12.2178757  38.2875515  93.5102535  12.3321124
  24.1740833  85.4633792   9.8480433  24.0899022  84.8559462   9.1130843
  23.3523539  85.9542811   9.8489930  34.3464547  83.9487356   5.2150629
  34.8433246  83.1957318   4.8951699  33.5751528  83.9851673   4.6493838
  42.1994304  89.6527721   6.8568920  42.1884180  90.5352437   6.4862853
  41.3311684  89.2999272   6.6623457  33.7076801  98.8007790  11.2171760
  34.4204773  99.4355255  11.1447662  33.2166829  98.8971656  10.4011762
  35.4294327  92.7059043   2.7889052  34.4950606  92.8260506   2.6193756
  35.6070996  91.8031510   2.5249062  30.9299515  86.0904739   4.9422313
  30.5597303  85.5375779   5.6303219  31.4258608  85.4862872   4.3897313
  38.8166879  88.5476362   3.3239086  39.2827331  89.3804354   3.2499389
  39.2674379  88.0821344   4.0284345  28.7588714  96.5502234  12.0377331
  29.4598174  97.1838717  12.1906725  28.2883829  96.8916965  11.2772970
  36.7883542  80.9156949   7.3629987  35.8746621  81.1461176   7.5312194
  37.2176643  80.9995393   8.2144020  36.5590000  89.1046841   9.8629881
  35.9061450  89.3522749   9.2082334  36.9370380  88.2910980   9.5292359
  32.6077573  89.8466652  16.3495919  31.9318210  89.7460782  17.0198294
  33.4305207  89.6905866  16.8131916  26.3264849  83.5008730  11.1875419
  26.3906176  84.3623561  10.7752817  26.2631969  82.8882731  10.4547778
  25.8017122  85.5731862  14.8348453  26.4289160  85.1908940  15.4485978
  24.9445041  85.3546064  15.2004146  36.2011230  95.9794837  16.4402189
  36.7451134  96.5924796  15.9457144  35.6198075  96.5374416  16.9569202
  34.4868743  99.1015555   7.5717217  34.3619883  98.3005295   7.0628162
  35.1447834  99.5961749   7.0831187  26.1076911  85.4564288   6.7494357
  25.3863497  86.0700256   6.6101830  26.8970167  85.9922053   6.6711003
  36.5503652  96.9024576   9.1996767  35.6033987  96.7829927   9.1275094
  36.8986425  96.0147074   9.2823028  28.9103225  82.7918714  13.0235009
  29.4337627  83.0381011  13.7861318  28.6915558  83.6238749  12.6038146
  37.1584207  97.5205850   6.4865992  38.0830754  97.3148712   6.3490443
  36.9899510  97.2722252   7.3955333  30.1155770  83.7332410  10.7084679
  29.7752590  82.9340223  11.1105359  29.4094776  84.0334120  10.1361512
  30.7672242  80.8181722   9.1612002  31.5898311  80.3442200   9.0390893
  31.0110305  81.5972206   9.6610689  33.5511599  84.5515129   0.3933236
  33.7675214  85.4339767   0.0922064  33.0705666  84.1601343  -0.3361122
  28.2910821  87.5100843   6.9703981  28.1455401  87.8241146   7.8628262
  27.8136024  88.1285743   6.4174879  30.1507203  84.5003391   7.0184870
  30.1368772  83.6044484   6.6817168  30.8679632  84.5074054   7.6523156
  32.0033334  84.9340731   9.0637998  31.7451112  85.8557801   9.0622328
  31.4718375  84.5371165   9.7538462  32.4235290  81.0672681   5.4239160
  32.4456987  81.1312014   4.4691140  32.8403349  80.2277190   5.6179667
  42.8018914  90.8027941   3.4618383  43.2450060  90.0535266   3.0637506
  41.9245424  90.7938077   3.0792115  23.5522505  89.1776083  12.8021799
  22.8104241  89.3258719  13.3886429  23.2315249  89.4384349  11.9388548
  31.4966167  98.7192061  12.6002189  31.8053294  98.4741208  13.4724888
  32.2941649  98.9238700  12.1121059  29.0385179  84.8949768  16.4962373
  29.0873334  85.7711891  16.1140143  29.5807693  84.3527161  15.9234016
  39.5240025  95.4390891  15.7763510  38.7335568  95.4215030  15.2368010
  39.2873379  95.9779185  16.5312547  39.6437900  92.2883358  13.0896239
  39.6935905  92.1233365  14.0311762  39.5351823  91.4210617  12.6994120
  36.9341662  88.2714286  14.4055545  37.8351525  88.1320751  14.1139543
  37.0089637  88.4368741  15.3453723  31.2684467  85.6481141  13.2508732
  30.3987777  85.9414707  12.9791320  31.5043948  86.2321586  13.9715995
  41.1456096  94.7080299  13.3338260  40.8540905  95.0710280  14.1701721
  40.5328228  93.9947308  13.1551592  42.3451779  92.2733179   5.8540831
  43.1798670  92.7122983   6.0178391  42.4810908  91.7971832   5.0349076
  39.3943285  89.8312914  11.8018318  39.8697406  90.0240560  10.9937170
  38.4708850  89.8872100  11.5561702  33.9723501  81.8660758  10.7674152
  34.4905445  82.6021784  10.4420641  33.6178634  82.1724751  11.6020911
  34.2236095  78.2861040   6.2875049  34.5037849  77.6184229   6.9135475
  35.0086702  78.4790136   5.7749713  38.0944954  86.7078674  10.0346624
  39.0462377  86.8076772  10.0558848  37.9248404  85.9156943  10.5444708
  36.1159333  83.7934257  10.2206025  35.5209265  84.0739270   9.5252513
  35.8309030  84.2828158  10.9922766  40.5733032  89.9284794   9.1488924
  40.5409352  88.9900795   9.3348607  41.1833655  90.0068830   8.4154748
  40.7227520  86.7195837   9.1947207  40.2066569  85.9354294   9.0077136
  41.6067469  86.3914554   9.3593726  38.3838247  80.4636853   5.1543019
  38.1863068  80.1551941   6.0386351  38.9937953  81.1898492   5.2840949
  46.3909581  90.9900801   8.2894960  47.1212970  90.7286089   8.8502664
  45.7816527  90.2529523   8.3297028  44.4724878  89.1308663   8.8869412
  43.7458042  88.9964628   8.2785903  44.0572165  89.4385492   9.6926130
  32.2955055  92.8498593  16.6516785  33.2158064  93.0277192  16.8456831
  32.2604638  91.9054638  16.4996484  25.2917127  90.7599628   9.2939566
  25.5103137  91.6916735   9.3127600  25.7042901  90.4007602  10.0794370
  32.2121345  81.2667713   1.2815254  31.4022074  80.9214798   1.6570500
  32.9005762  80.9575257   1.8702866  34.1411894  80.3445760   2.9039551
  34.6942932  80.7641213   3.5629574  34.3781980  79.4181508   2.9462507
  30.1644993  86.3332833  18.6842315  30.0641720  87.2827190  18.6154406
  29.9466535  86.0051072  17.8118385  37.5190701  82.4546285   2.4118215
  36.9389370  83.1131089   2.0296267  37.2526633  81.6323629   2.0005632
  35.9694267  81.8551343   4.6139535  36.4694045  81.9667877   3.8053854
  36.6129875  81.5512395   5.2540344  30.0276263  89.7629972  17.5007376
  29.5443345  90.5630332  17.7071265  30.1137202  89.7737917  16.5474820
  26.5448982  92.2235623  12.1046608  27.3641871  92.7179702  12.1281445
  26.8185790  91.3067591  12.0764175  36.3015579  84.6146375   1.4674563
  35.4141434  84.8996026   1.2494758  36.7169568  84.4540139   0.6201840
  39.6530115  84.6392896   5.1828902  40.4290505  85.1289349   5.4553519
  38.9278249  85.0650950   5.6400772  42.0902673  85.3520515   6.2402843
  42.6847164  85.1116251   5.5296151  42.1629257  84.6327646   6.8676379
  36.2756602  90.1300911   1.6824853  36.2191804  90.5869463   0.8432486
  36.8284945  89.3691596   1.5047696  40.0861408  85.9190643   2.5074973
  39.8298343  85.5187279   3.3383181  39.4614276  86.6334437   2.3825112
  44.3973746  88.6586716   5.0146264  43.8373304  88.7279906   5.7877826
  43.7917250  88.4827701   4.2945761  21.7983897  86.5573757  12.8038805
  22.4442760  86.0472711  13.2926030  21.5901048  87.2942438  13.3782230
  34.3237289  93.6254604  18.3030945  35.1928449  93.7995257  17.9417580
  33.8444040  94.4449021  18.1806675  34.1339627  77.4156578   2.8108638
  33.3672022  76.8615065   2.9565320  34.5450332  77.4878447   3.6722789
  26.1381388  83.7041374  16.9013819  27.0012849  83.3478179  17.1117144
  25.5646798  83.3655269  17.5889223  42.7919471 105.2870658   7.6437745
  42.4537982 105.1711723   6.7558280  43.6609239 104.8861823   7.6238751
  43.2739254 106.4405510  13.6023950  43.2627895 106.0458308  12.7304454
  43.4359893 105.7071583  14.1957722  39.9946515 109.2242622  12.5503134
  39.7036381 110.1288253  12.4349801  40.6303499 109.2659149  13.2647204
  40.9202722 106.6019470   9.1404494  41.5166294 106.3775493   8.4261457
  40.9777693 105.8604216   9.7429942  48.4604881  96.7091491  10.1457015
  48.1288205  97.5786902   9.9218230  47.8650494  96.3927775  10.8251046
  48.3533544 101.4286578   7.2250365  47.4450421 101.3601986   6.9309126
  48.3021140 101.9058522   8.0532191  42.4274410 102.8476223  15.1685263
  41.6507744 103.4070143  15.1588127  43.0664973 103.3333006  15.6900133
  50.2195190  99.6303016   9.0028239  49.5769571  99.9235549   8.3568034
  49.7150119  99.5155936   9.8081436  40.6820782 105.6561676  14.7303230
  41.4235466 106.1946720  14.4538053  39.9757767 106.2827965  14.8874781
  46.1576122 107.7990817  13.3275391  46.5659478 107.3573227  12.5830023
  45.4353383 107.2243444  13.5809584  42.5107192 102.7363424  10.7008948
  43.3568387 103.1602837  10.8443597  42.4505829 102.0797048  11.3947511
  45.6606637 100.3967792  12.3590122  45.4167569 101.1509853  11.8224397
  45.9366568 100.7753140  13.1937369  47.6145100 106.9406404  11.0367387
  47.8261995 107.5838164  10.3601768  47.5674848 106.1068721  10.5689317
  45.2171329  99.5524225   7.9403959  44.3555808  99.8505479   8.2320697
  45.2433763  99.7694624   7.0084992  39.4182146 102.8101325  15.5318540
  38.7880806 103.4917606  15.7653936  39.3118234 102.6984406  14.5871678
  42.4947531 109.3662403  11.3650455  42.5591964 109.8282810  12.2008627
  41.7858455 108.7359768  11.4932765  38.6962888  97.1122090  17.8943791
  38.3029834  96.5588289  18.5691435  39.5129029  97.4232669  18.2850308
  41.6130849  98.5279970  15.4864047  42.3540563  99.1287123  15.4068510
  41.8448772  97.7857607  14.9282090  36.7572187 103.7136337  13.7642277
  36.6425703 102.8121594  14.0649376  35.9016705 103.9600034  13.4127093
  43.8364025 111.6554077  15.3629777  43.3927879 110.8690456  15.0450682
  44.4981239 111.8433228  14.6973668  45.9345263 111.9356877  13.3911179
  45.9163739 112.7565758  12.8991448  46.8565183 111.8110952  13.6161320
  42.3918317 109.4501007  14.2334687  42.9246654 108.6889295  14.0033995
  41.8632399 109.1574658  14.9758842  45.5588012  94.5561073   9.7628329
  45.2152282  95.4462714   9.6867439  45.9266975  94.3662730   8.8997914
  44.6384553  96.9265728   7.7277562  44.1349348  96.8895863   6.9145367
  44.9315160  97.8358470   7.7874219  40.8827439  97.0104457   6.7343744
  41.7480435  96.8147266   6.3749633  40.9504948  96.7814809   7.6613101
  38.4889758  99.2406665   4.1060111  39.0633510  99.0181847   3.3733304
  39.0760740  99.3095360   4.8588712  40.7912425  96.1147914   2.8335180
  40.1376838  95.7996931   2.2091795  40.7492900  95.4923655   3.5595003
  44.0250166 102.6029848   7.1582828  43.1072727 102.8244795   7.0004516
  44.4410309 102.6776158   6.2994535  47.3575678  93.8154632   4.8646066
  47.6634555  92.9551995   4.5771982  48.0828283  94.4072252   4.6645060
  45.1663329 103.1927309  11.9627530  45.5212717 103.4198782  12.8221996
  45.8135461 103.5245686  11.3404786  39.0603192 100.3003840   8.7473871
  39.7002572 100.1592599   8.0496835  38.2280723 100.0138353   8.3712473
  37.5356734 101.6841922  10.6945683  38.2079788 101.4759284  10.0458332
  36.7086521 101.4864008  10.2550915  43.4382306  98.3103863  12.7111344
  42.7910221  99.0093813  12.6175820  44.2083322  98.7440007  13.0787592
  46.8461104 108.5752715  15.7861897  46.6946611 108.3463267  14.8691981
  46.8365784 109.5323317  15.7993242  43.6146441 106.1484628  10.7708163
  44.5438501 106.2995788  10.5977131  43.1937471 106.2368649   9.9156810
  37.9384231 104.9584525  11.4548120  37.8004029 104.2264764  12.0559659
  38.8489155 104.8693425  11.1732308  40.5666532 104.6704485  10.9431800
  41.2766151 104.0297677  10.9018418  40.5235840 104.9217379  11.8657980
  39.2795466 101.6569702  12.7627439  38.7432823 101.2060441  13.4149035
  38.6912175 101.7915611  12.0197903  48.5570718 109.5711422  12.0952358
  47.6697497 109.2337344  12.2178757  49.1269269 108.8394453  12.3321124
  35.0134587 100.7925710   9.8480433  34.9292776 100.1851380   9.1130843
  34.1917294 101.2834728   9.8489930  45.1858301  99.2779274   5.2150629
  45.6827001  98.5249236   4.8951699  44.4145283  99.3143590   4.6493838
  41.7693270 101.4196657   4.9422313  41.3991058 100.8667697   5.6303219
  42.2652362 100.8154790   4.3897313  39.5982469 111.8794152  12.0377331
  40.2991928 112.5130635  12.1906725  39.1277584 112.2208883  11.2772970
  47.6277296  96.2448867   7.3629987  46.7140376  96.4753094   7.5312194
  48.0570397  96.3287311   8.2144020  47.3983755 104.4338759   9.8629881
  46.7455205 104.6814667   9.2082334  47.7764134 103.6202897   9.5292359
  43.4471328 105.1758570  16.3495919  42.7711965 105.0752699  17.0198294
  44.2698961 105.0197784  16.8131916  37.1658604  98.8300647  11.1875419
  37.2299930  99.6915478  10.7752817  37.1025724  98.2174649  10.4547778
  36.6410876 100.9023780  14.8348453  37.2682915 100.5200857  15.4485978
  35.7838795 100.6837982  15.2004146  47.0404985 111.3086755  16.4402189
  47.5844889 111.9216713  15.9457144  46.4591830 111.8666334  16.9569202
  36.9470666 100.7856206   6.7494357  36.2257252 101.3992173   6.6101830
  37.7363922 101.3213970   6.6711003  39.7496979  98.1210632  13.0235009
  40.2731381  98.3672929  13.7861318  39.5309313  98.9530667  12.6038146
  40.9549524  99.0624327  10.7084679  40.6146345  98.2632140  11.1105359
  40.2488531  99.3626038  10.1361512  41.6065996  96.1473640   9.1612002
  42.4292066  95.6734118   9.0390893  41.8504060  96.9264123   9.6610689
  39.1304575 102.8392760   6.9703981  38.9849156 103.1533063   7.8628262
  38.6529779 103.4577661   6.4174879  40.9900958  99.8295308   7.0184870
  40.9762527  98.9336402   6.6817168  41.7073386  99.8365972   7.6523156
  42.8427089 100.2632648   9.0637998  42.5844866 101.1849719   9.0622328
  42.3112129  99.8663083   9.7538462  43.2629044  96.3964599   5.4239160
  43.2850741  96.4603932   4.4691140  43.6797103  95.5569108   5.6179667
  34.3916259 104.5068001  12.8021799  33.6497995 104.6550636  13.3886429
  34.0709003 104.7676267  11.9388548  39.8778933 100.2241686  16.4962373
  39.9267089 101.1003809  16.1140143  40.4201448  99.6819079  15.9234016
  50.3633779 110.7682809  15.7763510  49.5729323 110.7506948  15.2368010
  50.1267134 111.3071103  16.5312547  50.4831654 107.6175276  13.0896239
  50.5329659 107.4525283  14.0311762  50.3745578 106.7502535  12.6994120
  47.7735417 103.6006204  14.4055545  48.6745279 103.4612668  14.1139543
  47.8483391 103.7660658  15.3453723  42.1078222 100.9773058  13.2508732
  41.2381531 101.2706624  12.9791320  42.3437702 101.5613503  13.9715995
  50.2337039 105.1604832  11.8018318  50.7091161 105.3532478  10.9937170
  49.3102605 105.2164018  11.5561702  44.8117256  97.1952675  10.7674152
  45.3299200  97.9313702  10.4420641  44.4572388  97.5016669  11.6020911
  45.0629850  93.6152958   6.2875049  45.3431604  92.9476147   6.9135475
  45.8480457  93.8082053   5.7749713  48.9338708 102.0370592  10.0346624
  49.8856131 102.1368689  10.0558848  48.7642159 101.2448860  10.5444708
  46.9553088  99.1226175  10.2206025  46.3603020  99.4031188   9.5252513
  46.6702784  99.6120076  10.9922766  51.5621274 102.0487755   9.1947207
  51.0460323 101.2646212   9.0077136  52.4461223 101.7206472   9.3593726
  49.2232001  95.7928770   5.1543019  49.0256823  95.4843859   6.0386351
  49.8331707  96.5190409   5.2840949  43.1348809 108.1790511  16.6516785
  44.0551819 108.3569110  16.8456831  43.0998392 107.2346556  16.4996484
  36.1310882 106.0891545   9.2939566  36.3496892 107.0208653   9.3127600
  36.5436656 105.7299520  10.0794370  44.9805648  95.6737677   2.9039551
  45.5336687  96.0933131   3.5629574  45.2175734  94.7473425   2.9462507
  41.0038747 101.6624751  18.6842315  40.9035474 102.6119108  18.6154406
  40.7860289 101.3342990  17.8118385  40.8670017 105.0921890  17.5007376
  40.3837099 105.8922250  17.7071265  40.9530956 105.1029835  16.5474820
  37.3842737 107.5527541  12.1046608  38.2035626 108.0471619  12.1281445
  37.6579545 106.6359509  12.0764175  32.6377651 101.8865674  12.8038805
  33.2836515 101.3764628  13.2926030  32.4294802 102.6234356  13.3782230
  45.1631043 108.9546522  18.3030945  46.0322203 109.1287174  17.9417580
  44.6837795 109.7740939  18.1806675  44.9733381  92.7448496   2.8108638
  44.2065777  92.1906982   2.9565320  45.3844086  92.8170364   3.6722789
  36.9775142  99.0333292  16.9013819  37.8406604  98.6770096  17.1117144
  36.4040553  98.6947186  17.5889223  49.5356643 112.4414008  17.8943791
  49.1423589 111.8880207  18.5691435  50.3522783 112.7524587  18.2850308
  51.8432502 116.9916669  18.6842315  51.7429229 117.9411026  18.6154406
  51.6254044 116.6634908  17.8118385  47.8168897 114.3625209  16.9013819
  48.6800358 114.0062014  17.1117144  47.2434307 114.0239104  17.5889223
  25.3617477  57.6565042   3.1647496  25.9057381  58.2695001   2.6702450
  24.7804322  58.2144621   3.6814509  28.6846271  57.1161096   2.5008817
  27.8941815  57.0985235   1.9613316  28.4479626  57.6549390   3.2557853
  23.4843536  55.3024809   5.0276252  24.3534695  55.4765461   4.6662887
  23.0050287  56.1219226   4.9051981  35.1436011  67.0113435  -5.5678473
  35.7814421  66.8920182  -6.2715133  35.0256854  67.9594279  -5.5090521
  32.4345501  68.1175715   0.3269257  32.4234141  67.7228513  -0.5450239
  32.5966140  67.3841788   0.9203028  29.1552762  70.9012827  -0.7251559
  28.8642628  71.8058458  -0.8404893  29.7909746  70.9429354  -0.0107490
  30.0808969  68.2789675  -4.1350199  30.6772541  68.0545698  -4.8493237
  30.1383940  67.5374421  -3.5324752  40.0985707  64.6740122  -7.5892287
  40.8310879  64.1039339  -7.3554457  39.3425063  64.2861723  -7.1485781
  37.6211127  58.3861696  -3.1297678  37.2894452  59.2557107  -3.3536463
  37.0256741  58.0697980  -2.4503648  34.1142647  70.5874242  -3.7301765
  33.8143370  71.4899281  -3.8385958  33.7693706  70.3206425  -2.8780613
  31.5880656  64.5246428   1.8930569  30.8113991  65.0840348   1.8833434
  32.2271220  65.0103211   2.4145439  39.3801437  61.3073221  -4.2726454
  38.7375817  61.6005754  -4.9186660  38.8756366  61.1926141  -3.4673258
  29.8427029  67.3331881   1.4548536  30.5841713  67.8716925   1.1783360
  29.1364014  67.9598170   1.6120088  35.3182368  69.4761022   0.0520698
  35.7265724  69.0343432  -0.6924670  34.5959630  68.9013649   0.3054891
  31.6713438  64.4133629  -2.5745745  32.5174634  64.8373042  -2.4311096
  31.6112076  63.7567253  -1.8807182  35.6411183  70.0362212  -6.1927013
  35.0120045  70.2007927  -6.8950946  35.2536845  70.4503822  -5.4216049
  39.5200415  70.9716650  -8.8382650  38.8351453  71.3515552  -9.3885616
  39.6044264  71.5811977  -8.1050702  34.8212884  62.0737997  -0.9164572
  34.5773816  62.8280058  -1.4530296  35.0972814  62.4523345  -0.0817325
  36.7751347  68.6176609  -2.2387306  36.9868242  69.2608369  -2.9152925
  36.7281095  67.7838926  -2.7065376  28.5788393  64.4871530   2.2563846
  27.9487053  65.1687810   2.4899243  28.4724480  64.3754611   1.3116984
  37.8897174  71.4948565  -4.0664949  38.7114618  71.0928752  -4.3482267
  37.8859577  71.3916799  -3.1148833  31.6553778  71.0432608  -1.9104238
  31.7198210  71.5053015  -1.0746067  30.9464702  70.4129973  -1.7821928
  45.9803168  67.8387313  -7.7179977  45.2266876  67.2694711  -7.8735973
  46.1150709  67.8049978  -6.7709343  27.8569135  58.7892295   4.6189097
  27.4636081  58.2358494   5.2936741  28.6735276  59.1002874   5.0095615
  30.7737096  60.2050175   2.2109354  31.5146810  60.8057328   2.1313816
  31.0055019  59.4627812   1.6527396  25.9178434  65.3906542   0.4887583
  25.8031949  64.4891799   0.7894682  25.0622952  65.6370239   0.1372400
  32.9970272  73.3324282   2.0875084  32.5534126  72.5460661   1.7695989
  33.6587486  73.5203433   1.4218975  35.0951510  73.6127082   0.1156485
  35.0769985  74.4335963  -0.3763245  36.0171430  73.4881157   0.3406626
  31.5524564  71.1271211   0.9579994  32.0852901  70.3659500   0.7279302
  31.0238645  70.8344863   1.7004148  37.8970123  68.4506224  -6.4134148
  37.2393797  69.1405486  -6.3254019  38.7010522  68.8402656  -6.0700162
  37.4737378  71.7856599 -10.2351064  37.0199705  70.9447508 -10.1785873
  36.8431345  72.4217997  -9.8976283  34.3269576  64.8697514  -1.3127163
  34.6818964  65.0968987  -0.4532697  34.9741707  65.2015891  -1.9349908
  40.0836693  70.0592477  -5.5966563  40.5173199  69.9667766  -4.7483508
  40.7968273  70.0349977  -6.2346547  33.8164588  73.6594571  -4.0633462
  33.8701610  74.2285507  -3.2955746  32.9479369  73.8296456  -4.4279425
  40.9452242  70.1016177  -3.0633677  41.1388132  71.0061988  -2.8174402
  40.8452860  69.6423597  -2.2295092  32.5988553  59.9874068  -0.5643350
  31.9516468  60.6864018  -0.6578873  33.3689568  60.4210212  -0.1967102
  36.0067351  70.2522920   2.5107203  35.8552857  70.0233472   1.5937287
  35.9972030  71.2093522   2.5238549  32.7752687  67.8254833  -2.5046530
  33.7044747  67.9765993  -2.6777563  32.3543717  67.9138854  -3.3597884
  31.5741019  71.8505497  -4.7347992  31.4352105  71.4824282  -3.8622054
  30.7855615  72.3653137  -4.9064035  33.1246234  71.2287100  -7.3459155
  32.7896067  71.1887870  -6.4501505  32.6250180  70.5631816  -7.8188744
  27.0990478  66.6354730  -1.8206573  26.9610276  65.9034969  -1.2195034
  28.0095402  66.5463630  -2.1022386  29.7272779  66.3474689  -2.3322894
  30.4372397  65.7067882  -2.3736275  29.6842087  66.5987584  -1.4096713
  37.7159558  73.2842043   0.5883685  37.6572104  72.6001263  -0.0785732
  38.1179076  74.0261033   0.1364311  28.4401713  63.3339907  -0.5127254
  27.9039070  62.8830646   0.1394342  27.8518421  63.4685816  -1.2556790
  37.7176965  71.2481627  -1.1802335  36.8303744  70.9107548  -1.0575936
  38.2875516  70.5164658  -0.9433570  42.1994305  66.6589844  -6.4185773
  42.1884182  67.5414559  -6.7891840  41.3311685  66.3061395  -6.6131236
  33.7076802  75.8069913  -2.0582933  34.4204774  76.4417378  -2.1307032
  33.2166830  75.9033779  -2.8742931  28.7588715  73.5564357  -1.2377362
  29.4598175  74.1900840  -1.0847968  28.2883830  73.8979088  -1.9981723
  36.5590001  66.1108964  -3.4124812  35.9061452  66.3584871  -4.0672359
  36.9370381  65.2973102  -3.7462335  32.6077574  66.8528775   3.0741225
  31.9318211  66.7522904   3.7443600  33.4305208  66.6967989   3.5377222
  25.8017123  62.5793985   1.5593760  26.4289162  62.1971062   2.1731284
  24.9445042  62.3608187   1.9249453  36.2011232  72.9856960   3.1647496
  36.7451135  73.5986918   2.6702450  35.6198076  73.5436538   3.6814509
  34.4868744  76.1077678  -5.7037477  34.3619884  75.3067418  -6.2126531
  35.1447836  76.6023871  -6.1923507  36.5503653  73.9086698  -4.0757927
  35.6033988  73.7892049  -4.1479600  36.8986426  73.0209196  -3.9931665
  28.9103226  59.7980837  -0.2519685  29.4337628  60.0443134   0.5106625
  28.6915559  60.6300872  -0.6716547  37.1584208  74.5267973  -6.7888702
  38.0830755  74.3210834  -6.9264250  36.9899511  74.2784374  -5.8799360
  42.8018915  67.8090063  -9.8136310  43.2450061  67.0597389 -10.2117187
  41.9245426  67.8000200 -10.1962578  23.5522506  66.1838206  -0.4732894
  22.8104242  66.3320841   0.1131736  23.2315250  66.4446471  -1.3366145
  31.4966169  75.7254184  -0.6752504  31.8053295  75.4803331   0.1970195
  32.2941651  75.9300823  -1.1633634  29.0385180  61.9011891   3.2207680
  29.0873336  62.7774014   2.8385449  29.5807694  61.3589284   2.6479323
  39.5240026  72.4453014   2.5008817  38.7335570  72.4277153   1.9613316
  39.2873380  72.9841308   3.2557853  39.6437901  69.2945480  -0.1858455
  39.6935906  69.1295488   0.7557068  39.5351824  68.4272739  -0.5760574
  36.9341663  65.2776408   1.1300852  37.8351526  65.1382873   0.8384850
  37.0089638  65.4430863   2.0699030  31.2684469  62.6543263  -0.0245962
  30.3987778  62.9476829  -0.2963373  31.5043949  63.2383708   0.6961302
  41.1456098  71.7142422   0.0583567  40.8540906  72.0772403   0.8947028
  40.5328229  71.0009430  -0.1203101  42.3451780  69.2795302  -7.4213863
  43.1798671  69.7185106  -7.2576302  42.4810909  68.8033955  -8.2405617
  39.3943286  66.8375037  -1.4736375  39.8697408  67.0302683  -2.2817524
  38.4708851  66.8934222  -1.7192991  38.0944955  63.7140797  -3.2408069
  39.0462378  63.8138894  -3.2195845  37.9248405  62.9219065  -2.7309985
  36.1159334  60.7996380  -3.0548669  35.5209267  61.0801393  -3.7502180
  35.8309031  61.2890281  -2.2831927  40.5733033  66.9346916  -4.1265770
  40.5409353  65.9962917  -3.9406086  41.1833656  67.0130953  -4.8599945
  40.7227521  63.7257960  -4.0807487  40.2066570  62.9416416  -4.2677558
  41.6067470  63.3976676  -3.9160967  46.3909583  67.9962923  -4.9859733
  47.1212971  67.7348211  -4.4252030  45.7816528  67.2591645  -4.9457665
  44.4724880  66.1370786  -4.3885282  43.7458043  66.0026751  -4.9968790
  44.0572167  66.4447614  -3.5828564  32.2955056  69.8560715   3.3762091
  33.2158066  70.0339314   3.5702138  32.2604639  68.9116761   3.2241790
  30.1644994  63.3394956   5.4087621  30.0641721  64.2889313   5.3399712
  29.9466536  63.0113195   4.5363691  30.0276264  66.7692095   4.2252683
  29.5443346  67.5692455   4.4316572  30.1137203  66.7800040   3.2720127
  26.5448984  69.2297745  -1.1708086  27.3641873  69.7241824  -1.1473248
  26.8185791  68.3129714  -1.1990518  44.3973747  65.6648839  -8.2608429
  43.8373305  65.7342028  -7.4876867  43.7917251  65.4889823  -8.9808933
  34.3237290  70.6316727   5.0276252  35.1928450  70.8057379   4.6662887
  33.8444042  71.4511144   4.9051981  26.1381389  60.7103496   3.6259126
  27.0012851  60.3540301   3.8362450  25.5646800  60.3717391   4.3134530
  42.7919472  82.2932781  -5.6316949  42.4537984  82.1773846  -6.5196414
  43.6609240  81.8923946  -5.6515943  43.2739255  83.4467633   0.3269257
  43.2627896  83.0520431  -0.5450239  43.4359895  82.7133705   0.9203028
  39.9946516  86.2304744  -0.7251559  39.7036382  87.1350375  -0.8404893
  40.6303501  86.2721272  -0.0107490  40.9202723  83.6081593  -4.1350199
  41.5166295  83.3837615  -4.8493237  40.9777695  82.8666338  -3.5324752
  48.4604882  73.7153614  -3.1297678  48.1288207  74.5849025  -3.3536463
  47.8650495  73.3989898  -2.4503648  48.3533545  78.4348700  -6.0504328
  47.4450423  78.3664109  -6.3445567  48.3021141  78.9120645  -5.2222503
  42.4274411  79.8538346   1.8930569  41.6507745  80.4132266   1.8833434
  43.0664974  80.3395129   2.4145439  50.2195192  76.6365139  -4.2726454
  49.5769572  76.9297672  -4.9186660  49.7150120  76.5218059  -3.4673258
  40.6820783  82.6623799   1.4548536  41.4235468  83.2008843   1.1783360
  39.9757769  83.2890088   1.6120088  46.1576123  84.8052940   0.0520698
  46.5659479  84.3635350  -0.6924670  45.4353384  84.2305567   0.3054891
  42.5107193  79.7425546  -2.5745745  43.3568388  80.1664960  -2.4311096
  42.4505831  79.0859171  -1.8807182  45.6606638  77.4029915  -0.9164572
  45.4167570  78.1571975  -1.4530296  45.9366569  77.7815262  -0.0817325
  47.6145101  83.9468527  -2.2387306  47.8261996  84.5900287  -2.9152925
  47.5674849  83.1130844  -2.7065376  45.2171330  76.5586348  -5.3350734
  44.3555809  76.8567601  -5.0433996  45.2433765  76.7756747  -6.2669701
  39.4182147  79.8163447   2.2563846  38.7880808  80.4979728   2.4899243
  39.3118235  79.7046529   1.3116984  42.4947532  86.3724526  -1.9104238
  42.5591965  86.8344933  -1.0746067  41.7858456  85.7421891  -1.7821928
  38.6962890  74.1184213   4.6189097  38.3029835  73.5650412   5.2936741
  39.5129030  74.4294792   5.0095615  41.6130851  75.5342092   2.2109354
  42.3540564  76.1349245   2.1313816  41.8448774  74.7919730   1.6527396
  36.7572189  80.7198459   0.4887583  36.6425704  79.8183717   0.7894682
  35.9016706  80.9662156   0.1372400  43.8364026  88.6616200   2.0875084
  43.3927881  87.8752578   1.7695989  44.4981240  88.8495350   1.4218975
  45.9345265  88.9419000   0.1156485  45.9163740  89.7627881  -0.3763245
  46.8565185  88.8173075   0.3406626  42.3918319  86.4563129   0.9579994
  42.9246655  85.6951417   0.7279302  41.8632400  86.1636781   1.7004148
  45.5588014  71.5623195  -3.5126365  45.2152283  72.4524837  -3.5887254
  45.9266976  71.3724853  -4.3756780  44.6384554  73.9327850  -5.5477131
  44.1349350  73.8957985  -6.3609326  44.9315161  74.8420593  -5.4880475
  40.8827440  74.0166580  -6.5410950  41.7480437  73.8209389  -6.9005060
  40.9504949  73.7876932  -5.6141593  38.4889759  76.2468788  -9.1694583
  39.0633511  76.0243969  -9.9021390  39.0760741  76.3157482  -8.4165981
  40.7912427  73.1210037 -10.4419513  40.1376839  72.8059054 -11.0662899
  40.7492901  72.4985777  -9.7159690  44.0250167  79.6091970  -6.1171866
  43.1072728  79.8306917  -6.2750178  44.4410311  79.6838281  -6.9760158
  47.3575679  70.8216754  -8.4108627  47.6634556  69.9614118  -8.6982712
  48.0828284  71.4134375  -8.6109633  45.1663331  80.1989432  -1.3127163
  45.5212718  80.4260905  -0.4532697  45.8135462  80.5307808  -1.9349908
  39.0603194  77.3065963  -4.5280822  39.7002573  77.1654722  -5.2257859
  38.2280724  77.0200476  -4.9042220  37.5356735  78.6904045  -2.5809011
  38.2079789  78.4821407  -3.2296362  36.7086522  78.4926131  -3.0203778
  43.4382307  75.3165986  -0.5643350  42.7910223  76.0155935  -0.6578873
  44.2083323  75.7502130  -0.1967102  46.8461105  85.5814838   2.5107203
  46.6946612  85.3525390   1.5937287  46.8365785  86.5385439   2.5238549
  43.6146442  83.1546751  -2.5046530  44.5438502  83.3057910  -2.6777563
  43.1937472  83.2430771  -3.3597884  37.9384233  81.9646648  -1.8206573
  37.8004031  81.2326887  -1.2195034  38.8489156  81.8755548  -2.1022386
  40.5666533  81.6766607  -2.3322894  41.2766152  81.0359799  -2.3736275
  40.5235842  81.9279502  -1.4096713  39.2795467  78.6631825  -0.5127254
  38.7432824  78.2122563   0.1394342  38.6912176  78.7977734  -1.2556790
  48.5570719  86.5773544  -1.1802335  47.6697498  86.2399466  -1.0575936
  49.1269270  85.8456576  -0.9433570  35.0134589  77.7987833  -3.4274260
  34.9292777  77.1913502  -4.1623850  34.1917295  78.2896851  -3.4264764
  45.1858302  76.2841396  -8.0604065  45.6827002  75.5311359  -8.3802995
  44.4145284  76.3205713  -8.6260855  41.7693271  78.4258779  -8.3332380
  41.3991059  77.8729820  -7.6451475  42.2652364  77.8216913  -8.8857380
  39.5982470  88.8856274  -1.2377362  40.2991929  89.5192757  -1.0847968
  39.1277585  89.2271006  -1.9981723  47.6277297  73.2510990  -5.9124706
  46.7140377  73.4815217  -5.7442499  48.0570399  73.3349434  -5.0610674
  47.3983756  81.4400882  -3.4124812  46.7455206  81.6876789  -4.0672359
  47.7764136  80.6265020  -3.7462335  43.4471329  82.1820693   3.0741225
  42.7711966  82.0814822   3.7443600  44.2698963  82.0259906   3.5377222
  37.1658605  75.8362770  -2.0879274  37.2299931  76.6977601  -2.5001876
  37.1025725  75.2236772  -2.8206916  36.6410877  77.9085903   1.5593760
  37.2682916  77.5262980   2.1731284  35.7838796  77.6900104   1.9249453
  47.0404986  88.3148878   3.1647496  47.5844890  88.9278836   2.6702450
  46.4591831  88.8728456   3.6814509  36.9470667  77.7918328  -6.5260336
  36.2257253  78.4054296  -6.6652863  37.7363923  78.3276093  -6.6043691
  39.7496981  75.1272755  -0.2519685  40.2731383  75.3735051   0.5106625
  39.5309314  75.9592790  -0.6716547  40.9549526  76.0686450  -2.5670014
  40.6146346  75.2694263  -2.1649334  40.2488532  76.3688161  -3.1393181
  41.6065998  73.1535762  -4.1142691  42.4292067  72.6796240  -4.2363801
  41.8504061  73.9326246  -3.6144005  39.1304576  79.8454883  -6.3050713
  38.9849157  80.1595186  -5.4126431  38.6529780  80.4639783  -6.8579814
  40.9900959  76.8357431  -6.2569823  40.9762528  75.9398524  -6.5937525
  41.7073387  76.8428095  -5.6231537  42.8427090  77.2694771  -4.2116696
  42.5844868  78.1911842  -4.2132365  42.3112130  76.8725206  -3.5216231
  43.2629046  73.4026722  -7.8515533  43.2850742  73.4666055  -8.8063553
  43.6797105  72.5631230  -7.6575027  34.3916260  81.5130124  -0.4732894
  33.6497996  81.6612759   0.1131736  34.0709005  81.7738389  -1.3366145
  39.8778935  77.2303809   3.2207680  39.9267090  78.1065931   2.8385449
  40.4201449  76.6881202   2.6479323  50.3633780  87.7744932   2.5008817
  49.5729324  87.7569071   1.9613316  50.1267135  88.3133225   3.2557853
  50.4831655  84.6237398  -0.1858455  50.5329660  84.4587406   0.7557068
  50.3745579  83.7564657  -0.5760574  47.7735418  80.6068326   1.1300852
  48.6745281  80.4674791   0.8384850  47.8483392  80.7722781   2.0699030
  42.1078223  77.9835181  -0.0245962  41.2381533  78.2768747  -0.2963373
  42.3437703  78.5675626   0.6961302  50.2337040  82.1666954  -1.4736375
  50.7091162  82.3594601  -2.2817524  49.3102606  82.2226140  -1.7192991
  44.8117257  74.2014798  -2.5080541  45.3299201  74.9375825  -2.8334053
  44.4572390  74.5078791  -1.6733782  45.0629851  70.6215080  -6.9879645
  45.3431605  69.9538269  -6.3619218  45.8480458  70.8144176  -7.5004981
  48.9338709  79.0432714  -3.2408069  49.8856132  79.1430812  -3.2195845
  48.7642160  78.2510983  -2.7309985  46.9553089  76.1288298  -3.0548669
  46.3603021  76.4093310  -3.7502180  46.6702786  76.6182199  -2.2831927
  51.5621276  79.0549877  -4.0807487  51.0460324  78.2708334  -4.2677558
  52.4461224  78.7268594  -3.9160967  49.2232003  72.7990893  -8.1211674
  49.0256824  72.4905981  -7.2368342  49.8331708  73.5252532  -7.9913744
  43.1348811  85.1852633   3.3762091  44.0551820  85.3631232   3.5702138
  43.0998394  84.2408679   3.2241790  36.1310883  83.0953668  -3.9815128
  36.3496893  84.0270776  -3.9627094  36.5436657  82.7361642  -3.1960324
  44.9805649  72.6799800 -10.3715143  45.5336688  73.0995253  -9.7125120
  45.2175736  71.7535548 -10.3292187  41.0038749  78.6686874   5.4087621
  40.9035475  79.6181231   5.3399712  40.7860291  78.3405112   4.5363691
  40.8670019  82.0984012   4.2252683  40.3837100  82.8984373   4.4316572
  40.9530958  82.1091957   3.2720127  37.3842738  84.5589663  -1.1708086
  38.2035627  85.0533742  -1.1473248  37.6579546  83.6421631  -1.1990518
  32.6377652  78.8927797  -0.4715889  33.2836516  78.3826751   0.0171337
  32.4294804  79.6296479   0.1027537  45.1631045  85.9608645   5.0276252
  46.0322204  86.1349297   4.6662887  44.6837796  86.7803061   4.9051981
  44.9733382  69.7510618 -10.4646056  44.2065778  69.1969105 -10.3189373
  45.3844087  69.8232487  -9.6031904  36.9775143  76.0395414   3.6259126
  37.8406605  75.6832219   3.8362450  36.4040554  75.7009309   4.3134530
  49.5356644  89.4476131   4.6189097  49.1423590  88.8942329   5.2936741
  50.3522785  89.7586709   5.0095615  51.8432503  93.9978791   5.4087621
  51.7429230  94.9473148   5.3399712  51.6254045  93.6697030   4.5363691
  47.8168898  91.3687332   3.6259126  48.6800359  91.0124137   3.8362450
  47.2434309  91.0301227   4.3134530  47.0404987  65.3211000 -10.1107198
  47.5844891  65.9340959 -10.6052243  46.4591832  65.8790579  -9.5940185
  50.3633782  64.7807054 -10.7745877  49.5729325  64.7631193 -11.3141377
  50.1267136  65.3195348 -10.0196840  45.1631046  62.9670767  -8.2478441
  46.0322206  63.1411419  -8.6091806  44.6837797  63.7865184  -8.3702712
  49.5356645  66.4538253  -8.6565596  49.1423591  65.9004452  -7.9817952
  50.3522786  66.7648832  -8.2659079  51.8432504  71.0040914  -7.8667072
  51.7429231  71.9535271  -7.9354981  51.6254046  70.6759153  -8.7391002
  47.8168899  68.3749454  -9.6495568  48.6800361  68.0186259  -9.4392243
  47.2434310  68.0363349  -8.9620163
 118.8459613 118.8459613 118.8459613 109.4712190 109.4712190 109.4712190
