default_name
  4753
 181.4380000  31.6840000  33.8660000 181.3302136  32.5094906  34.4378815
 181.1266889  31.8954997  32.9287414 182.3607340  31.3023118  34.0175771
 180.5160000  30.6690000  34.3580000 179.8347976  30.3901949  33.5540534
 181.2760000  29.4290000  34.8030000 181.8476855  29.0320572  33.9641249
 181.9557578  29.6903839  35.6139919 180.2863445  28.3726823  35.2893167
 179.8450184  27.5597086  34.4338012 179.9811258  28.3888249  36.5116835
 179.6670000  31.2210000  35.5000000 179.0270000  30.4580000  36.2270000
 179.6480000  32.5490000  35.6450000 180.2804838  33.1251482  35.1082348
 178.7730000  33.2010000  36.6180000 178.7376412  32.5613829  37.4998950
 179.3020000  34.5950000  37.0150000 179.6565273  35.1003344  36.1166415
 178.2060000  35.4400000  37.6780000 177.8512750  34.9354969  38.5767477
 178.6109216  36.4159644  37.9456428 177.3761936  35.5696049  36.9832172
 180.4400000  34.4800000  38.0320000 181.1844632  33.8042842  37.6109497
 180.8747149  35.4730107  38.1462468 179.9960000  33.9610000  39.3930000
 179.5615717  32.9677649  39.2796159 180.8563358  33.9067147  40.0600642
 179.2518211  34.6364907  39.8149122 177.3880000  33.2640000  35.9790000
 177.0610000  34.2030000  35.2420000 176.5730000  32.2350000  36.2260000
 176.8509995  31.5252256  36.8885978 175.3050000  32.0690000  35.5270000
 175.3720015  32.5122721  34.5334610 174.9620000  30.5920000  35.3790000
 174.7388807  30.2592313  36.3926972 174.0706833  30.4914604  34.7596887
 176.0900000  29.7310000  34.7950000 177.0073564  29.9447011  35.3435344
 175.7700000  28.2470000  34.9010000 174.8529556  28.0324327  34.3522840
 176.5900992  27.6668245  34.4779936 175.6374168  27.9773091  35.9487542
 176.3480000  30.1170000  33.3450000 176.6373317  31.1666529  33.2938586
 177.1503198  29.4994126  32.9413046 175.4413183  29.9616731  32.7602772
 174.1890000  32.7990000  36.2640000 174.0230000  32.6070000  37.4760000
 173.4170000  33.6330000  35.5730000 173.4860000  33.9150000  34.1270000
 173.4437715  32.9778450  33.5719707 174.4206775  34.4284359  33.9014770
 172.2760000  34.7880000  33.8850000 171.4446289  34.1690125  33.5476936
 172.5107988  35.5283022  33.1201971 171.9690000  35.4510000  35.1960000
 170.8979158  35.6424771  35.2609162 172.5142198  36.3811186  35.3563569
 172.3780000  34.4170000  36.2500000 172.8217484  34.8766698  37.1331134
 171.1930000  33.5630000  36.6660000 171.0060000  32.4310000  36.2160000
 170.3870000  34.1300000  37.5590000 170.6385813  34.9892643  38.0264089
 169.1300000  33.4940000  37.9160000 169.3122425  32.4965176  38.3158945
 168.3930000  34.3170000  38.9730000 168.1952953  35.3157694  38.5838052
 167.4493896  33.8305572  39.2201299 169.0081613  34.3922244  39.8696700
 168.2690000  33.3350000  36.6710000 168.2130000  34.2250000  35.8150000
 167.6210000  32.1780000  36.5650000 167.7965468  31.5057016  37.2980058
 166.7690000  31.7780000  35.4480000 166.2314166  30.8699061  35.7208894
 165.7450000  32.8630000  35.0800000 166.2765574  33.7630702  34.7710995
 165.1350412  32.4999608  34.2528042 164.8270000  33.2150000  36.2440000
 164.2080000  32.3360000  36.8510000 164.7380000  34.4990000  36.5640000
 164.1430418  34.7857931  37.3281167 165.2655928  35.1841047  36.0421013
 167.5740000  31.3820000  34.2150000 166.9860000  31.2090000  33.1440000
 168.8910000  31.2250000  34.3240000 169.3912875  31.5474839  35.1399755
 169.6530000  30.6010000  33.2470000 169.3783393  31.0519119  32.2934072
 171.1490000  30.7940000  33.4640000 171.3095305  31.8644982  33.5919168
 171.4360011  30.2724324  34.3770704 171.9880000  30.2940000  32.3150000
 171.9830000  30.9450000  31.0830000 171.3586060  31.8292826  30.9554231
 172.7550000  30.4850000  30.0300000 172.7555595  31.0148550  29.0774480
 173.5310000  29.3590000  30.1920000 174.2950000  28.9030000  29.1460000
 174.2108228  29.4429174  28.3566946 173.5380000  28.6830000  31.3940000
 174.1408579  27.7837499  31.5205389 172.7700000  29.1560000  32.4460000
 172.7722167  28.6313319  33.4014154 169.3390000  29.1090000  33.1760000
 169.1580000  28.4500000  34.2040000 169.2790000  28.5670000  31.9590000
 169.5191511  29.1182981  31.1475216 168.8180000  27.1940000  31.7530000
 168.6972454  26.6746677  32.7036900 167.4890000  27.1290000  30.9860000
 167.5974716  27.6288629  30.0234668 167.1100000  25.6730000  30.7610000
 167.0008891  25.1725595  31.7231617 166.1669664  25.6224243  30.2167297
 167.8902008  25.1792823  30.1816631 166.3830000  27.8730000  31.7320000
 166.6644567  28.9193137  31.8507933 165.4546743  27.8092018  31.1643374
 166.2395287  27.4221445  32.7139604 169.8870000  26.4140000  31.0080000
 170.2950000  26.8070000  29.9020000 170.3120000  25.2960000  31.6010000
 169.9049972  25.0576424  32.4941034 171.3610000  24.4330000  31.0660000
 171.9553787  24.9482812  30.3114813 172.2990000  23.9450000  32.1810000
 171.6977896  23.5577206  33.0035934 173.2110000  22.8600000  31.6720000
 173.8129038  23.2466902  30.8496354 173.8668357  22.5285565  32.4770623
 172.6142766  22.0183445  31.3203770 173.1050000  25.1110000  32.7230000
 172.4286106  25.8647405  33.1260816 173.7681450  24.7588609  33.5131496
 173.6979873  25.5480886  31.9196194 170.7250000  23.2550000  30.3410000
 169.9520000  22.4980000  30.9360000 171.0690000  23.0990000  29.0600000
 171.6430524  23.8170792  28.6417591 170.5900000  22.0060000  28.2060000
 170.8003386  22.2508000  27.1648805 171.2650000  20.6770000  28.5410000
 172.2690465  20.8943206  28.9053647 170.6875688  20.1986568  29.3321138
 171.3530000  19.7310000  27.3250000 170.3789254  19.7329123  26.8358416
 172.1012386  20.1383493  26.6450680 171.7300000  18.3050000  27.6980000
 171.9484078  17.7491597  26.7861675 172.6182280  18.3298804  28.3292935
 170.5920000  17.6220000  28.4490000 170.4742296  18.1283948  29.4070162
 169.6833320  17.7447231  27.8596268 170.8410000  16.1690000  28.6820000
 171.6827158  16.0550813  29.2284766 170.0590477  15.7691890  29.1808003
 170.9497324  15.6995033  27.7943913 169.0750000  21.8520000  28.2620000
 168.5470000  20.7380000  28.3070000 168.3710000  22.9850000  28.2650000
 168.8616899  23.8649757  28.3354663 166.9150000  23.0060000  28.2460000
 166.5615933  24.0319934  28.3486670 166.3800000  22.4330000  26.9280000
 167.0719064  22.7154842  26.1345471 166.3569277  21.3471089  27.0196963
 165.0000000  22.9380000  26.5940000 164.7260000  24.1290000  26.8490000
 164.1930000  22.1380000  26.0760000 166.3040000  22.2570000  29.4230000
 165.1390000  21.8530000  29.3590000 167.0700000  22.0220000  30.4760000
 168.0309308  22.3258004  30.5424586 166.5240000  21.2120000  31.5600000
 165.4371764  21.1700976  31.4881814 167.0800000  19.7760000  31.4660000
 166.7858254  19.3656509  30.4999906 168.1671402  19.8337206  31.5198018
 166.5600000  18.8660000  32.5880000 167.1157207  19.1012164  33.4957162
 165.5043535  19.0907011  32.7403873 166.7190000  17.4150000  32.2690000
 165.9664342  17.1055916  31.5437345 167.7129734  17.2267429  31.8631975
 166.5530000  16.6280000  33.4750000 166.0877636  17.0660811  34.2571378
 166.9620000  15.3720000  33.6040000 167.5490000  14.7410000  32.5810000
 167.6822751  15.2233029  31.7036622 167.8562646  13.7851336  32.6905788
 166.8020000  14.7450000  34.7510000 166.3684895  15.2228575  35.5280591
 167.1135457  13.7891896  34.8482855 166.7820000  21.7750000  32.9500000
 165.9300000  21.6360000  33.8400000 167.9470000  22.3670000  33.1950000
 168.6199027  22.5289427  32.4594215 168.3170000  22.7240000  34.5640000
 167.5382635  22.3901062  35.2496993 169.6390000  22.0670000  34.9680000
 170.4789257  22.2944438  34.3115753 169.8751219  22.3860934  35.9831482
 169.5180000  20.5950000  35.0050000 168.7890000  19.8710000  35.8950000
 168.2710060  20.4220927  36.6799069 168.8730000  18.5470000  35.5910000
 168.4270076  17.8081230  36.1156438 169.6510000  18.3740000  34.4820000
 170.0200000  17.2070000  33.8160000 169.6546243  16.2550432  34.2011980
 170.8260000  17.3300000  32.7090000 171.1420359  16.4390212  32.1664339
 171.2530000  18.5850000  32.2600000 171.8796767  18.6812202  31.3733674
 170.8870000  19.7570000  32.9380000 171.2589868  20.7111565  32.5647548
 170.0720000  19.6470000  34.0700000 168.3790000  24.2370000  34.6850000
 169.2900000  24.8720000  34.1460000 167.4070000  24.8030000  35.3980000
 166.7176102  24.2088108  35.8359273 167.2580000  26.2470000  35.5290000
 167.7317224  26.7477013  34.6846159 165.7780000  26.6250000  35.5530000
 165.3589455  26.3088889  34.5977166 165.3211673  26.0492180  36.3579094
 165.4950000  28.1100000  35.7660000 165.8440953  28.3947672  36.7585427
 166.0369972  28.6819228  35.0128431 163.9880000  28.4050000  35.6480000
 163.8594355  29.3377486  35.0988642 163.5177714  27.5912118  35.0959734
 163.3270000  28.5320000  37.0420000 163.7020941  27.6995433  37.6373325
 163.6824078  29.4708724  37.4666211 161.8180000  28.5160000  37.0500000
 161.4884705  27.6459203  36.6569715 161.4854322  28.6038248  37.9996239
 161.4702254  29.2875466  36.4987579 167.9780000  26.6970000  36.7990000
 167.5550000  26.3840000  37.9230000 169.0790000  27.4230000  36.6240000
 169.4168756  27.6204531  35.6928976 169.8640000  27.8950000  37.7590000
 170.1883172  27.0970517  38.4269791 171.1060000  28.6510000  37.2570000
 170.7908370  29.3969885  36.5274297 171.8300000  29.3430000  38.4130000
 172.1458951  28.5975495  39.1428046 172.7042800  29.8702468  38.0312333
 171.1565163  30.0550602  38.8899607 172.0450000  27.7070000  36.4920000
 171.5190429  27.2865742  35.6348458 172.9166611  28.2625313  36.1460354
 172.3667619  26.9008691  37.1513354 168.9930000  28.7700000  38.6510000
 168.3220000  29.6950000  38.1790000 168.9940000  28.4820000  39.9490000
 169.4532545  27.6411353  40.2685796 168.3030000  29.3110000  40.9340000
 167.5706518  29.9402989  40.4282845 167.5760000  28.4510000  41.9710000
 168.3712409  27.8425761  42.4017105 167.1588046  29.1004754  42.7405646
 166.4790000  27.5410000  41.4240000 166.8861181  26.9430082  40.6086709
 165.9660000  26.6280000  42.5090000 165.5582755  27.2253041  43.3245289
 165.1843927  25.9851150  42.1041670 166.7839946  26.0127004  42.8836888
 165.3420000  28.3550000  40.8130000 165.7286709  28.9636884  39.9956362
 164.5754930  27.6802909  40.4317705 164.9085402  29.0032756  41.5745447
 169.2520000  30.2630000  41.6490000 168.9840000  31.4640000  41.7200000
 170.3570000  29.7450000  42.1810000 170.4996156  28.7454489  42.1553541
 171.3530000  30.5660000  42.8480000 171.5337054  31.4642977  42.2576560
 170.8900000  30.9840000  44.2450000 171.6086682  31.7015727  44.6408594
 169.9146285  31.4614550  44.1512600 170.7850000  29.8020000  45.1880000
 170.3062364  28.9858083  44.6469665 171.7967190  29.5079009  45.4673429
 169.9890000  30.1150000  46.4350000 170.6168742  30.6875007  47.1177268
 169.1195184  30.7102899  46.1561970 169.5270000  28.8300000  47.1240000
 168.5695472  28.5274631  46.6999055 170.2660377  28.0490163  46.9451511
 169.3750000  29.0430000  48.5910000 168.6899181  29.7663410  48.7569530
 169.0698781  28.1840894  49.0260554 170.2621865  29.3229298  48.9842411
 172.6640000  29.7970000  42.9310000 172.6990000  28.5670000  42.8550000
 173.7450000  30.5590000  43.0430000 173.6612277  31.5515871  42.8761096
 175.0580000  30.0230000  43.3750000 175.2903588  29.1607027  42.7500584
 176.1090000  31.1050000  43.1250000 176.0559911  31.2865450  42.0515333
 175.7289915  31.9756842  43.6594180 177.5300000  30.8600000  43.5190000
 177.6214905  30.8072875  44.6038741 177.8933650  29.9314453  43.0787114
 178.3670000  32.0410000  42.9900000 178.2220817  32.0972231  41.9111411
 177.9908384  32.9524601  43.4545884 179.8450000  31.8920000  43.2940000
 180.2983287  32.8825148  43.3323940 179.9580578  31.4034871  44.2618183
 180.5190000  31.0790000  42.2470000 180.4147248  31.5317137  41.3501852
 181.5006455  30.9921627  42.4682043 180.0993680  30.1609850  42.2115528
 175.0520000  29.5910000  44.8350000 174.5260000  30.3050000  45.6930000
 175.5890000  28.4020000  45.1190000 175.9398170  27.7973378  44.3900210
 175.6050000  27.9090000  46.4970000 175.3486735  28.7056491  47.1953882
 174.6300000  26.7340000  46.6800000 174.7545346  26.3291782  47.6843460
 173.1920000  27.1850000  46.4910000 173.0665682  27.5895448  45.4866539
 172.5233264  26.3348239  46.6258222 172.9526719  27.9547479  47.2246957
 174.9560000  25.6030000  45.7120000 174.7255678  25.9505179  44.7049086
 176.0234915  25.3966017  45.7892084 174.1590000  24.3110000  46.0060000
 173.0913576  24.5165150  45.9285196 174.4337343  23.5418228  45.2842059
 174.3892799  23.9626000  47.0128210 177.0230000  27.5140000  46.9030000
 177.2820000  27.2080000  48.0700000 177.9530000  27.5190000  45.9480000
 177.6851993  27.6951062  44.9902063 179.3580000  27.2770000  46.2380000
 179.6276840  27.7582145  47.1781076 179.5383767  26.2047504  46.3144489
 180.2200000  27.8440000  45.1290000 179.7330000  28.2190000  44.0620000
 181.5190000  27.9170000  45.3850000 181.9244267  27.6386780  46.2671935
 182.4020000  28.4200000  44.3510000 182.3236577  27.7733669  43.4770279
 182.0908724  29.4299862  44.0841163 183.8410000  28.4540000  44.8100000
 184.1500000  28.3320000  46.0030000 184.7180000  28.6400000  43.8290000
 184.3764178  28.7662870  42.8869424 186.1470000  28.6700000  44.0500000
 186.3824340  29.4741329  44.7471660 186.4612983  27.7170780  44.4757412
 186.9000000  28.9040000  42.7540000 188.1240000  29.0150000  42.7630000
 186.2953423  28.9844452  41.6870606 188.6300000  26.1890000  41.1010000
 188.0137908  26.8504858  40.6506405 189.5320231  26.2252861  40.6480784
 188.5619061  26.3109644  42.1012937 188.1220000  24.8470000  40.8410000
 188.8883161  24.2737445  40.3192367 187.7880000  24.1350000  42.1550000
 188.6826966  24.0766638  42.7748501 187.0153813  24.6923411  42.6846520
 187.2748196  22.7230157  42.0031855 186.9372870  21.9751349  43.1375333
 187.0449342  22.4121007  44.1302935 186.4614918  20.6660099  42.9967782
 186.1986965  20.0837308  43.8799489 186.3232280  20.1047647  41.7216758
 185.9527871  19.0855180  41.6120876 186.6607601  20.8526432  40.5873255
 186.5531111  20.4156744  39.5945667 187.1365552  22.1617689  40.7280768
 187.3993474  22.7440456  39.8449041 186.8830000  24.8910000  39.9430000
 186.8030000  24.1940000  38.9180000 185.9220000  25.7140000  40.3450000
 186.0685062  26.3060609  41.1500461 184.6480000  25.7930000  39.6560000
 184.7671882  26.3632870  38.7347692 184.2999862  24.7878396  39.4180120
 183.6120000  26.4810000  40.5340000 183.9470000  27.2740000  41.4100000
 182.3500000  26.1720000  40.2580000 182.1374512  25.4813770  39.5523356
 181.2450000  26.8120000  40.9500000 181.5773436  27.1594139  41.9282385
 180.7300000  28.0060000  40.1590000 180.3993899  27.6501497  39.1832097
 179.8820628  28.4298667  40.6969959 181.7800000  29.0560000  39.9770000
 181.9297937  29.5498730  40.9370792 182.7026049  28.5593330  39.6766315
 181.4050000  30.0690000  38.9510000 181.5800000  31.2610000  39.2540000
 180.9420000  29.6830000  37.8580000 180.1380000  25.7900000  41.1110000
 180.0410000  24.8490000  40.3220000 179.2980000  25.9820000  42.1300000
 179.4650012  26.7471850  42.7677319 178.1770000  25.0890000  42.4000000
 178.0317750  24.4127146  41.5575945 178.3980000  24.2650000  43.6900000
 178.5120110  24.9446991  44.5344590 177.2090000  23.3490000  43.9340000
 177.0946259  22.6686511  43.0901134 177.3742177  22.7730716  44.8445550
 176.3046575  23.9477453  44.0424804 179.6890000  23.4490000  43.5690000
 179.4816105  22.4622505  43.9830238 179.9088353  23.3572825  42.5053460
 180.8910000  24.0590000  44.2860000 180.6720735  24.1506074  45.3498511
 181.7609937  23.4168714  44.1485915 181.0992968  25.0456411  43.8721744
 176.8950000  25.9110000  42.4930000 176.8590000  26.9690000  43.1330000
 175.8340000  25.4070000  41.8690000 175.9135267  24.4903448  41.4524451
 174.5660000  26.1040000  41.7610000 174.5959931  27.0146588  42.3592476
 174.2760000  26.4850000  40.3010000 174.3277172  25.5781759  39.6984266
 173.2560145  26.8692388  40.2915072 175.2050000  27.5180000  39.7310000
 176.3280000  27.1360000  39.0070000 176.5256693  26.0731784  38.8675845
 177.1950000  28.0840000  38.4630000 178.0770684  27.7779483  37.9005149
 176.9210000  29.4250000  38.6410000 177.7670000  30.3750000  38.1200000
 178.5147840  29.9955390  37.6526371 175.7970000  29.8280000  39.3480000
 175.5794179  30.8878497  39.4802011 174.9480000  28.8730000  39.8880000
 174.0638096  29.1824755  40.4452543 173.4690000  25.1780000  42.2640000
 173.5240000  23.9700000  42.0290000 172.4670000  25.7410000  42.9400000
 172.5890211  26.6381827  43.3875192 171.1900000  25.0600000  43.0960000
 171.3557016  23.9827660  43.1104626 170.4900000  25.4670000  44.4030000
 171.1346229  25.1492363  45.2225040 170.4162185  26.5544963  44.4001451
 169.1010000  24.8640000  44.5860000 168.4385507  25.3676343  43.8820013
 169.1745491  23.8086317  44.3235357 168.5330000  25.0000000  46.0130000
 169.2630000  25.4020000  46.9420000 167.3350000  24.6970000  46.1940000
 170.3480000  25.4090000  41.8760000 170.2630000  26.5800000  41.4880000
 169.8020000  24.3870000  41.2220000 169.9669259  23.4449512  41.5467195
 169.0100000  24.5720000  40.0160000 168.6973515  25.6138858  39.9465443
 169.8020000  24.2080000  38.7400000 170.1141165  23.1648714  38.7906570
 169.1693833  24.3553244  37.8646761 170.6819458  24.8466843  38.6633385
 167.7550000  23.7260000  40.1160000 167.6930000  22.7470000  40.8690000
 166.7440000  24.1290000  39.3660000 166.7854169  25.0035556  38.8624760
 165.5360000  23.3310000  39.2610000 165.4357969  22.7087421  40.1502995
 164.2980000  24.2100000  39.1400000 164.2271661  24.8336053  40.0311780
 164.4081458  24.8447966  38.2607951 163.0200000  23.3630000  39.0040000
 163.0659783  22.7944967  38.0751346 162.9562730  22.6754578  39.8474019
 161.5630000  24.4080000  38.9840000 160.2790000  23.1090000  38.9770000
 160.3793959  22.4933419  39.8708595 159.2925462  23.5725262  38.9646253
 160.3977166  22.4848243  38.0913295 165.6310000  22.4310000  38.0420000
 165.9180000  22.8990000  36.9240000 165.3670000  21.1490000  38.2550000
 165.2759572  20.8142238  39.2035439 165.2500000  20.1890000  37.1720000
 165.9979251  20.3918032  36.4054636 165.4740000  18.7840000  37.7100000
 166.3476302  18.8187170  38.3608949 164.5989747  18.4952498  38.2922835
 165.7020000  17.7820000  36.6230000 164.9180000  17.8070000  35.6580000
 166.6530000  16.9750000  36.7500000 163.8690000  20.3600000  36.5610000
 162.8720000  19.9640000  37.1620000 163.8000000  20.9810000  35.3750000
 164.6378556  21.3051426  34.9134494 162.5010000  21.2610000  34.7410000
 161.8404521  21.7623070  35.4484369 162.6970000  22.1730000  33.5220000
 163.4422966  21.6463257  32.9259745 161.7808715  22.2839361  32.9419123
 163.2310000  23.5550000  33.9000000 164.1011561  23.4249829  34.5434475
 163.6360000  24.3750000  32.6390000 162.7661922  24.5058337  31.9952486
 164.0110507  25.3516111  32.9450529 164.4145520  23.8421514  32.0930792
 162.2260000  24.3180000  34.7750000 162.0393922  23.7554157  35.6897545
 162.6333711  25.2968957  35.0278106 161.2908147  24.4440798  34.2294440
 161.7770000  19.9880000  34.3240000 160.5800000  20.0400000  34.0290000
 162.4750000  18.8560000  34.2830000 163.4678180  18.8684687  34.4680845
 161.8580000  17.5910000  33.9130000 161.0094171  17.7795459  33.2553856
 162.8500000  16.6850000  33.1830000 163.0547604  17.2637923  32.2823492
 163.7746916  16.5463061  33.7431870 162.2810000  15.3200000  32.7930000
 162.0206106  14.7913009  33.7099381 161.0120000  15.4340000  31.8770000
 161.2717331  15.9622149  30.9595979 160.6500798  14.4357415  31.6308405
 160.2314625  15.9833440  32.4033865 163.3890000  14.4690000  32.1860000
 164.1874984  14.3366329  32.9160539 162.9878435  13.4948239  31.9064365
 163.7856397  14.9657259  31.3005401 161.3130000  16.9080000  35.1590000
 160.0990000  16.6930000  35.2510000 162.1930000  16.5950000  36.1310000
 163.1617019  16.8754919  36.0758623 161.7630000  15.8140000  37.2880000
 160.9937608  15.1089751  36.9728648 162.9240000  15.0270000  37.9110000
 162.5352034  14.3921781  38.7072027 163.6140000  14.1520000  36.8480000
 164.0034857  14.7862070  36.0516446 164.4347444  13.6009786  37.3071876
 162.8928301  13.4486282  36.4317276 163.8830000  15.9550000  38.4500000
 164.6127517  15.4696048  38.8417324 161.1640000  16.6760000  38.3780000
 160.5260000  16.1320000  39.2860000 161.3890000  18.0030000  38.3430000
 162.1092557  18.2609309  37.6836043 160.8000000  19.0590000  39.1810000
 161.0291831  20.0294107  38.7406850 159.2640000  18.9210000  39.3010000
 159.0533498  18.1197667  40.0093438 158.8719123  19.8609773  39.6893426
 158.5940000  18.6040000  37.9560000 158.9766298  17.6390726  37.6234187
 157.5222972  18.5258370  38.1388817 158.8470000  19.6380000  36.8910000
 159.9153247  19.8469338  36.8350711 158.5003815  19.2600767  35.9291637
 158.1430000  20.8800000  37.1860000 157.6099590  20.8968653  38.0437192
 158.1650000  21.9730000  36.4320000 158.8750000  22.0280000  35.2970000
 159.4092773  21.2240967  34.9996999 158.8726724  22.8731106  34.7439337
 157.4550000  23.0350000  36.7970000 156.9046390  23.0041337  37.6433156
 157.4688826  23.8683134  36.2264785 161.4020000  19.1530000  40.5770000
 160.9540000  19.9840000  41.3620000 162.3880000  18.3290000  40.9140000
 162.5462338  17.5076909  40.3478615 163.2170000  18.5230000  42.0970000
 162.5963199  18.9197481  42.9003968 163.8680000  17.2140000  42.5790000
 164.3074181  17.4106626  43.5569237 163.0738042  16.4743322  42.6802159
 164.9770000  16.6630000  41.6070000 164.5401517  16.3457764  40.6600926
 165.6188401  17.5277868  41.4388210 165.8160000  15.5060000  42.2010000
 166.8870000  15.2410000  41.6100000 165.4630000  14.9380000  43.2800000
 164.2990000  19.5570000  41.8350000 164.6560000  19.8360000  40.6890000
 164.8300000  20.1130000  42.9100000 164.3954774  20.0358728  43.8184827
 166.0420000  20.9110000  42.7900000 166.0482867  21.4035147  41.8176374
 166.1360000  21.9810000  43.8810000 165.8486179  21.4901397  44.8108209
 167.1481514  22.3742023  43.9760870 165.1890000  23.1370000  43.6310000
 164.4770000  23.1470000  42.6350000 165.2310000  24.1500000  44.4970000
 164.6184007  24.9431775  44.3717350 165.8752203  24.1195024  45.2742715
 167.2540000  20.0000000  42.8410000 167.2130000  18.9230000  43.4410000
 168.3410000  20.4490000  42.2030000 168.3169605  21.3841969  41.8223055
 169.5520000  19.6550000  42.0130000 169.5947120  18.8244069  42.7175495
 169.6570000  19.0920000  40.5800000 170.5580943  18.4845753  40.4953619
 168.4090000  18.2150000  40.2670000 167.5074854  18.8218922  40.3509899
 168.4870092  17.8193948  39.2543245 168.3576441  17.3889265  40.9762720
 169.8020000  20.2360000  39.5330000 170.7023266  20.8122876  39.7460883
 169.8736710  19.8074175  38.5333601 168.9316200  20.8900269  39.5858038
 170.7510000  20.5440000  42.2980000 170.6380000  21.7710000  42.3690000
 171.9190000  19.9060000  42.4610000 171.9314064  18.9032625  42.5812623
 173.1820000  20.6220000  42.5160000 173.0187005  21.6726275  42.7560297
 174.1110000  20.0150000  43.5770000 174.2912524  18.9653068  43.3451523
 175.0587129  20.5534404  43.5817445 173.6435157  20.0946996  44.5584304
 173.8280000  20.5710000  41.1280000 173.9310000  19.5000000  40.5300000
 174.2340000  21.7320000  40.6180000 174.0971507  22.5615565  41.1776496
 174.8350000  21.8810000  39.2920000 174.9048439  20.9072915  38.8071157
 173.9830000  22.8030000  38.4170000 173.1030254  22.1838320  38.2427161
 173.7040972  23.6691993  39.0170101 174.5490000  23.2730000  37.0760000
 175.4993841  23.7729798  37.2627916 174.7660000  22.1160000  36.1150000
 173.8159115  21.6157817  35.9273503 175.1687576  22.4941106  35.1753620
 175.4692026  21.4070303  36.5519995 173.6200000  24.3380000  36.4850000
 173.5525450  25.1828525  37.1704002 174.0176971  24.6775344  35.5286242
 172.6277777  23.9125032  36.3348457 176.2320000  22.4460000  39.4830000
 176.3700000  23.6110000  39.8650000 177.2530000  21.6140000  39.2550000
 177.0457950  20.6781106  38.9367604 178.6530000  21.9830000  39.4580000
 178.7019456  22.9049208  40.0374528 179.4170000  20.8930000  40.2090000
 178.8609219  20.6714857  41.1199379 179.4369444  20.0087220  39.5720112
 180.8270000  21.2870000  40.5650000 181.4187269  21.3256663  39.6504154
 180.8063105  22.2746066  41.0257681 181.4460000  20.2980000  41.5230000
 180.7258309  20.0657447  42.3075463 181.6968319  19.3870672  40.9795074
 182.6890000  20.8710000  42.1390000 182.6571249  21.9596562  42.0952699
 182.7694749  20.5518332  43.1781129 183.8720000  20.3770000  41.3740000
 183.7978393  20.6730065  40.4112020 184.7164950  20.7555360  41.7785228
 183.9019616  19.3682679  41.4147541 179.3280000  22.2180000  38.1180000
 179.2210000  21.3810000  37.2140000 180.0280000  23.3390000  38.0030000
 180.1937308  23.9269108  38.8073591 180.5320000  23.7800000  36.7100000
 180.4732496  23.0480433  35.9044648 179.8660000  25.0940000  36.2340000
 180.1980086  25.3060415  35.2176792 178.3310000  24.9760000  36.2580000
 177.9981849  24.7644070  37.2741513 177.8887169  25.9127934  35.9190247
 178.0178891  24.1671430  35.5978382 180.4080000  26.3240000  36.9760000
 181.4811398  26.4085840  36.8047735 179.9099003  27.2204429  36.6066945
 180.2183012  26.2174487  38.0440646 182.0440000  23.9640000  36.7960000
 182.6170000  24.3030000  37.8350000 182.6950000  23.7770000  35.6630000
 182.2106786  23.4278087  34.8483850 184.1210000  24.0210000  35.5630000
 184.4607032  24.6016574  36.4206350 184.8820000  22.6930000  35.5390000
 184.6172611  22.1709140  36.4584774 184.5007443  22.1362316  34.6829900
 186.3880000  22.8040000  35.4380000 186.6605752  23.4695049  34.6189110
 186.7365134  23.2267670  36.3802874 187.0340000  21.4460000  35.2230000
 187.6010000  20.8870000  36.1900000 186.9350000  20.9220000  34.0830000
 184.3260000  24.8290000  34.2960000 183.7460000  24.4930000  33.2610000
 185.0670000  25.9310000  34.3990000 185.4525756  26.2205753  35.2864553
 185.3110000  26.7710000  33.2320000 184.3625908  27.1386597  32.8402788
 186.1870000  27.9720000  33.6000000 185.8522982  28.3658358  34.5596704
 187.2202257  27.6356967  33.6862828 186.1020000  28.9910000  32.6150000
 186.6592680  29.7299038  32.8700949 185.9840000  25.9660000  32.1320000
 186.9030000  25.1870000  32.3910000 185.5060000  26.1500000  30.8980000
 184.7025577  26.7404029  30.7367417 186.0940000  25.4560000  29.7580000
 186.1201849  24.3923356  29.9947099 185.2410000  25.6570000  28.5020000
 185.2127589  26.7163880  28.2470500 185.6745745  25.0960183  27.6741033
 184.2277125  25.3018525  28.6896643 187.5190000  25.9070000  29.4800000
 188.2600000  25.1800000  28.8110000 187.9220000  27.0770000  29.9740000
 187.2420297  27.6961338  30.3916280 189.3010000  27.5310000  29.8780000
 189.8215213  26.9564703  29.1117935 189.3660000  29.0170000  29.5050000
 188.4844187  29.4823421  29.9458746 190.2623718  29.4135888  29.9817965
 189.4080000  29.3220000  28.0100000 189.7983895  30.3280081  27.8562319
 190.0638827  28.6000165  27.5235231 188.0470000  29.2340000  27.3810000
 187.0450000  29.5930000  27.9990000 187.9950000  28.7630000  26.1400000
 187.1044135  28.6831076  25.6703467 188.8462889  28.4869510  25.6718061
 190.0960000  27.3060000  31.1480000 191.2220000  27.7940000  31.2440000
 189.5390000  26.5880000  32.1450000 188.6733133  26.1207012  32.3737307
 190.5710000  26.6720000  33.1710000 191.1568371  27.5808427  33.0335260
 189.9380000  26.7050000  34.5600000 190.7554860  26.9176391  35.2489125
 189.2466107  27.5475519  34.5463175 189.2120000  25.4690000  35.0110000
 188.4279376  25.7098517  35.7288700 188.7655994  25.0232625  34.1220980
 190.1480000  24.4620000  35.6380000 191.2010000  24.8290000  36.1800000
 189.7500000  23.1930000  35.6230000 190.3369181  22.4780432  36.0285433
 188.8626767  22.9501340  35.2061369 191.5650000  25.5180000  33.0320000
 191.1960000  24.4150000  32.6100000 192.8360000  25.7760000  33.3590000
 193.3670000  26.9980000  33.9910000 193.3140009  26.9039613  35.0756419
 192.7818999  27.8607761  33.6726069 194.7790000  27.0460000  33.4850000
 195.4152726  27.5801145  34.1906755 194.8159329  27.5426145  32.5154066
 195.1820000  25.6080000  33.3650000 195.4833829  25.1959645  34.3280650
 195.9906073  25.4780485  32.6457181 193.9160000  24.8950000  32.8650000
 193.8559258  24.9012865  31.7766757 193.8460000  23.4630000  33.3670000
 193.8850000  22.5240000  32.5600000 193.7610000  23.2700000  34.6840000
 193.7281297  24.0763425  35.2913143 193.7560000  21.9410000  35.2950000
 194.3006768  21.2425960  34.6596589 194.4230000  21.9750000  36.6650000
 194.3872727  23.0075640  37.0123246 193.8252435  21.3486012  37.3271267
 195.8550000  21.4910000  36.6710000 195.8565057  20.4069850  36.5569385
 196.3793893  21.9450178  35.8301755 196.5550000  21.8640000  37.9640000
 196.7604323  22.9344441  37.9572152 195.8988680  21.6257841  38.8011639
 197.8600000  21.0990000  38.1100000 198.4175044  21.5244677  38.9444260
 197.6261549  20.0561211  38.3240542 198.6860000  21.1790000  36.8670000
 198.9031582  22.1452425  36.6687138 199.5432531  20.6614033  36.9985703
 198.1697526  20.7844145  36.0937666 192.3130000  21.4720000  35.3990000
 191.5700000  21.9140000  36.2750000 191.9200000  20.5540000  34.5270000
 192.6050467  20.1284552  33.9189523 190.5250000  20.1690000  34.3710000
 189.8798275  20.8973852  34.8622298 190.1600000  20.1140000  32.8930000
 190.9205330  19.5294387  32.3753352 189.1941585  19.6177152  32.7983871
 190.0800000  21.4920000  32.2790000 189.9321726  22.1904883  33.1026273
 191.0116540  21.7288756  31.7651782 188.9420000  21.6470000  31.3070000
 188.3260000  20.6660000  30.8890000 188.6830000  22.8860000  30.9010000
 187.9305686  23.0533816  30.2483655 189.2398324  23.6543142  31.2470235
 190.3010000  18.8240000  35.0490000 190.7260000  17.7840000  34.5380000
 189.6230000  18.8430000  36.1920000 189.3011830  19.7226289  36.5698706
 189.4200000  17.6380000  36.9810000 189.9233913  16.7940371  36.5093825
 189.9700000  17.8020000  38.4160000 189.7633263  16.8939700  38.9824509
 191.4740000  18.0480000  38.3820000 191.6814381  18.9561824  37.8160715
 191.8472161  18.1615376  39.3998013 191.9703159  17.2024321  37.9057784
 189.2860000  18.9690000  39.1180000 188.2128982  18.7846646  39.1687457
 189.6847830  19.0707419  40.1273167 189.4704045  19.8874530  38.5607390
 187.9710000  17.1900000  37.0180000 187.7110000  16.0450000  37.4300000
 187.0250000  18.0330000  36.5820000 187.2715660  18.9560483  36.2544541
 185.6090000  17.6660000  36.6210000 185.2901262  17.5295471  37.6543437
 184.7540000  18.7690000  35.9860000 185.4859510  19.5751752  35.9367202
 184.5216094  18.4277811  34.9772065 183.4720000  19.2820000  36.6610000
 183.5437121  20.3634797  36.7765851 182.2520000  18.9430000  35.8270000
 182.1793537  17.8615895  35.7113601 181.3564162  19.3157030  36.3241147
 182.3419246  19.4076534  34.8451084 183.3060000  18.7560000  38.0800000
 184.1534811  19.0738421  38.6873316 182.3844692  19.1499407  38.5085941
 183.2610319  17.6670861  38.0614678 185.3540000  16.3420000  35.9180000
 184.4910000  15.5730000  36.3410000 186.1110000  16.0460000  34.8550000
 186.7718005  16.7100672  34.4775655 185.9480000  14.7720000  34.1730000
 184.9125793  14.6887310  33.8427433 186.8630000  14.7120000  32.9400000
 186.6275116  15.5401098  32.2715102 187.9038159  14.7850183  33.2553896
 186.6451268  13.3914048  32.2091211 186.8808730  12.5627758  32.8768775
 185.6045699  13.3178671  31.8929954 187.5532254  13.3318558  30.9854235
 187.3177391  14.1599662  30.3169339 188.5940407  13.4048723  31.3008144
 187.3353498  12.0112608  30.2545439 187.5710948  11.1826312  30.9222998
 186.2947945  11.9377263  29.9384168 188.2106988  11.9538592  29.0749812
 189.1749686  12.0215490  29.3677296 188.0664007  11.0792365  28.5909221
 187.9921242  12.7213554  28.4558901 186.2290000  13.5940000  35.0980000
 185.5130000  12.5900000  35.0670000 187.2850000  13.6670000  35.9050000
 187.9531084  14.4235548  35.8681863 187.5590000  12.5440000  36.7980000
 187.4101370  11.5985644  36.2763770 189.0150000  12.6180000  37.2720000
 189.6118111  12.4340922  36.3786391 189.1539964  13.6496756  37.5951495
 189.4580000  11.6770000  38.3790000 189.0348387  10.6964680  38.1608431
 190.5458032  11.6193833  38.3407048 188.9560000  12.1810000  40.0100000
 189.7100000  13.8150000  40.0650000 189.3028435  14.4307816  39.2630426
 189.4955351  14.2825233  41.0260034 190.7887570  13.7223510  39.9392988
 186.5510000  12.5040000  37.9450000 186.1610000  11.4180000  38.3940000
 186.0820000  13.6680000  38.3910000 186.4439641  14.5434971  38.0408769
 185.0400000  13.7090000  39.4160000 185.3956618  13.2504870  40.3386969
 184.6760000  15.1570000  39.7020000 184.5301035  15.6314062  38.7315608
 183.7282165  15.1319386  40.2397531 185.6760000  15.9370000  40.4920000
 185.8447583  15.4340308  41.4441782 186.6094331  15.9731079  39.9303079
 185.1840000  17.3510000  40.7470000 184.2250000  17.5030000  41.5240000
 185.7480000  18.3050000  40.1840000 183.8010000  12.9520000  38.9580000
 183.2000000  12.1830000  39.7230000 183.3920000  13.1830000  37.7080000
 183.8374669  13.8968668  37.1493831 182.2530000  12.4680000  37.1380000
 181.3556006  12.5406381  37.7524080 181.9320000  13.0120000  35.7300000
 182.8371044  12.9840546  35.1232840 180.8560000  12.1710000  35.0710000
 179.9503741  12.1988345  35.6769439 180.6409663  12.5676029  34.0787464
 181.2020994  11.1411649  34.9829288 181.5230000  14.4670000  35.7690000
 182.3344393  15.0619381  36.1881860 181.3057082  14.8111017  34.7578235
 180.6335646  14.5784355  36.3891514 182.5360000  10.9710000  37.1010000
 181.6710000  10.1510000  37.4280000 183.7580000  10.5860000  36.7010000
 184.4567293  11.2518879  36.4035610 184.0720000   9.1630000  36.6040000
 183.3221546   8.6905741  35.9694570 185.4460000   8.9730000  35.9610000
 186.2085900   9.4329168  36.5895165 185.6550663   7.9082823  35.8572319
 185.4553278   9.4421486  34.9771749 183.9990000   8.4790000  37.9660000
 183.4580000   7.3700000  38.0840000 184.5150000   9.1360000  39.0160000
 185.0257606   9.9992596  38.8976540 184.4090000   8.5720000  40.3610000
 184.7259317   7.5298027  40.3994494 185.2720000   9.3840000  41.3390000
 184.9878882  10.4341713  41.2717693 185.0720000   8.8940000  42.7700000
 185.3563623   7.8439534  42.8381263 185.6922307   9.4824524  43.4461200
 184.0243189   9.0050333  43.0495310 186.7360000   9.2900000  40.9300000
 186.8587586   9.6886106  39.9229538 187.3458037   9.8668182  41.6253559
 187.0527292   8.2471963  40.9485448 182.9510000   8.5350000  40.8030000
 182.4720000   7.5370000  41.3620000 182.2210000   9.6160000  40.5580000
 182.6161054  10.4530163  40.1537787 180.8130000   9.6380000  40.9630000
 180.7271088   9.3929008  42.0216068 180.2170000  11.0300000  40.7330000
 180.8644353  11.6926071  41.3073506 180.3195061  11.2534730  39.6710902
 178.7610000  11.2420000  41.1610000 178.1356683  10.4996604  40.6650232
 178.6190000  11.1000000  42.6590000 179.2437287  11.8423655  43.1556954
 177.5777371  11.2541871  42.9420170 178.9329813  10.1008928  42.9611604
 178.2680000  12.6160000  40.7180000 178.3322944  12.6931006  39.6326332
 177.2322610  12.7490850  41.0304649 178.8866875  13.3889562  41.1739205
 180.0190000   8.5610000  40.2260000 179.1810000   7.8790000  40.8200000
 180.2860000   8.3650000  38.9380000 180.8818359   8.9796972  38.4020650
 179.6330000   7.2600000  38.2470000 178.5537577   7.3232289  38.3860592
 179.9350000   7.3120000  36.7570000 180.9902047   7.5663908  36.6573628
 179.7649840   6.3091787  36.3651531 179.1110000   8.2940000  35.9870000
 178.0513672   8.0829124  36.1309483 179.3283929   9.3070379  36.3255212
 179.4590000   8.1670000  34.5020000 180.5448920   8.1537407  34.4083958
 179.0519236   7.2236309  34.1380729 178.8930000   9.3150000  33.6780000
 177.8594554   9.0730057  33.4303614 178.9176073  10.2142472  34.2935064
 179.6750000   9.5550000  32.4020000 179.6519607   8.7219981  31.8313191
 179.2614750  10.3232473  31.8931846 180.6326327   9.7796724  32.6312620
 180.0480000   5.9160000  38.8340000 179.2100000   5.0130000  38.9920000
 181.3410000   5.7660000  39.1700000 182.0144486   6.5006104  39.0059454
 181.8170000   4.5020000  39.7150000 181.5458953   3.6863757  39.0446580
 183.3380000   4.5220000  39.8700000 183.6050733   5.5040993  40.2601950
 183.5929356   3.7581385  40.6045907 184.1070000   4.2620000  38.5790000
 183.8431581   3.2758810  38.1968252 183.8388889   5.0199982  37.8430263
 185.5980000   4.3190000  38.8420000 185.7696505   4.9410662  39.7204468
 185.9523006   3.3072038  39.0390761 186.3530000   4.8980000  37.6560000
 185.7516706   5.6916438  37.2125667 187.2963897   5.3128413  38.0109955
 186.6220000   3.8640000  36.6450000 185.7479461   3.4797715  36.3156096
 187.1231941   4.2735780  35.8696611 187.1795547   3.1287046  37.0555757
 181.1510000   4.1880000  41.0390000 180.9550000   3.0140000  41.3700000
 180.7690000   5.2160000  41.7930000 180.9014994   6.1599638  41.4591203
 180.1960000   5.0270000  43.1140000 180.5639434   4.1002990  43.5543885
 180.5950000   6.1910000  44.0210000 180.5804366   7.0743140  43.3825303
 179.8920762   6.3259036  44.8430701 182.0070000   5.9910000  44.5840000
 182.6897125   5.6625236  43.8003497 182.4620000   7.3140000  45.1200000
 181.7799919   7.6429315  45.9040714 183.4664556   7.2139597  45.5312927
 182.4710497   8.0490039  44.3151473 182.0830000   4.8840000  45.6430000
 181.7666431   3.9379190  45.2037409 183.1084479   4.7928414  46.0011172
 181.4279930   5.1334544  46.4777678 178.6730000   4.9140000  43.0870000
 178.0600000   4.7420000  44.1410000 178.0360000   5.0220000  41.9190000
 178.5121327   5.1896871  41.0441983 176.5780000   4.9580000  41.9120000
 176.1748212   5.7225605  42.5760733 176.0290000   5.1950000  40.5030000
 176.5150360   4.4770774  39.8423524 174.9586534   4.9914941  40.5353049
 176.2590000   6.5900000  39.9840000 177.3282512   6.7945123  39.9294338
 175.8242898   6.6631068  38.9871126 175.6130000   7.6300000  40.8700000
 174.3830000   7.7620000  40.8910000 176.4340000   8.3640000  41.6230000
 176.0550889   9.0736102  42.2337218 177.4307038   8.2067154  41.5789038
 176.1070000   3.6130000  42.4530000 176.5970000   2.5600000  42.0410000
 175.1430000   3.6540000  43.3680000 174.7257335   4.5436939  43.6013084
 174.6650000   2.4780000  44.0450000 173.5772209   2.5380557  44.0800583
 174.9616839   1.6133605  43.4513026 175.1940000   2.3140000  45.4510000
 174.6470000   1.5100000  46.2110000 176.2560000   3.0380000  45.8030000
 176.7177344   3.6040348  45.1055007 176.7760000   3.0570000  47.1610000
 176.7452646   2.0523037  47.5825922 178.2290000   3.5490000  47.1720000
 178.2066984   4.5759351  46.8073000 178.5464477   3.5411045  48.2147198
 179.2010000   2.7420000  46.3440000 178.6783965   2.3832175  45.4572861
 180.0188494   3.3967214  46.0430611 179.7420000   1.5930000  47.0940000
 179.9827316   1.9072394  48.1095791 178.9943522   0.8005158  47.1270301
 181.0000000   1.0750000  46.4120000 181.4022760   1.8580389  45.7692523
 181.7355357   0.8176887  47.1741531 180.6920000  -0.1310000  45.5920000
 180.0107738   0.1073209  44.8854353 181.5369051  -0.4606183  45.1474922
 180.3196289  -0.8568515  46.1874650 175.9590000   3.9940000  48.0400000
 175.3940000   4.9970000  47.5840000 175.9200000   3.6820000  49.3240000
 176.2666884   2.7953111  49.6611784 175.3510000   4.6120000  50.2880000
 174.3675829   4.9335990  49.9451238 175.2000000   3.9600000  51.6630000
 176.1933758   3.7104326  52.0358537 174.7395259   4.6961461  52.3219025
 174.3490000   2.7150000  51.6280000 173.3490000   2.7040000  50.8850000
 174.6880000   1.7410000  52.3350000 176.2510000   5.8390000  50.4080000
 177.4460000   5.7990000  50.0780000 175.6760000   6.9400000  50.8890000
 174.6768638   6.9614528  51.0351712 176.4410000   8.1610000  51.1450000
 175.7767246   8.9125960  51.5715454 177.6090000   7.9210000  52.1260000
 178.3842463   7.3606214  51.6034406 178.0256178   8.8576497  52.4964281
 177.2350000   7.1150000  53.3270000 176.3610000   7.5680000  54.2870000
 176.2110000   6.6460000  55.2180000 175.5766681   6.8241687  56.0863190
 176.9310000   5.5940000  54.8720000 176.9916543   4.7250140  55.3831596
 177.5900000   5.8650000  53.7010000 178.2501846   5.1172628  53.2615155
 176.9870000   8.7960000  49.8670000 177.9080000   9.6020000  49.9300000
 176.4660000   8.4340000  48.6980000 175.7708501   7.7021672  48.6621288
 176.9050000   9.0300000  47.4460000 177.6431923   9.8174698  47.5978636
 177.5190000   7.9490000  46.5440000 176.8059350   7.1331897  46.4252943
 177.8450000   8.5260000  45.2010000 178.5584188   9.3416251  45.3188567
 178.2798445   7.7521935  44.5683593 176.9343432   8.9047355  44.7369254
 178.7800000   7.3770000  47.2520000 178.4941434   6.9441677  48.2106680
 179.2307541   6.6067917  46.6261409 179.5001776   8.1785655  47.4161278
 175.7150000   9.7050000  46.7780000 174.6200000   9.1360000  46.7440000
 175.9180000  10.9300000  46.2680000 176.8032706  11.4022776  46.3835387
 174.8570000  11.6150000  45.5250000 173.9686795  11.7017035  46.1506743
 175.3020000  13.0170000  45.1120000 176.2088172  12.9662927  44.5093305
 174.5157999  13.5137086  44.5434316 175.6750000  14.0860000  46.4700000
 176.0015036  15.1418892  45.7301407 174.4780000  10.8630000  44.2550000
 175.3300000  10.2730000  43.5680000 173.1900000  10.9160000  43.9080000
 172.4766034  11.2759168  44.5257577 172.7860000  10.4210000  42.6050000
 173.0934949   9.3814808  42.4912195 171.2690000  10.5000000  42.4560000
 170.9803472  11.5029455  42.7704504 171.0569575  10.3776814  41.3938436
 170.4810000   9.4750000  43.2500000 171.0494413   8.5463995  43.3017351
 170.3123922   9.8538226  44.2580510 169.1330000   9.2110000  42.5720000
 169.2379189   8.3630819  41.8951500 168.3929246   8.9753539  43.3367606
 168.6660000  10.3630000  41.8090000 168.7315272  10.2957404  40.8033750
 168.1880000  11.4890000  42.3420000 168.0680000  11.6270000  43.6470000
 168.3408218  10.8711615  44.2588632 167.7037584  12.4879682  44.0293107
 167.8090000  12.4670000  41.5350000 167.8854193  12.3504001  40.5346677
 167.4450843  13.3254825  41.9231648 173.4410000  11.2310000  41.4920000
 173.4820000  12.4650000  41.5340000 173.9430000  10.5180000  40.4760000
 174.0339775   9.5147944  40.5494910 174.3890000  11.1600000  39.2580000
 174.8889232  12.0993457  39.4942322 175.3690000  10.2600000  38.5180000
 176.3006371  10.1888140  39.0793235 174.9453741   9.2638480  38.3902409
 175.7340000  10.7570000  37.1330000 175.1270000  10.2180000  36.0010000
 174.3908409   9.4219303  36.1125467 175.4540000  10.6880000  34.7380000
 174.9659218  10.2769589  33.8543001 176.4110000  11.6900000  34.6020000
 176.6710097  12.0581426  33.6095455 177.0250000  12.2130000  35.7090000
 177.7811377  12.9904903  35.6000748 176.6840000  11.7530000  36.9650000
 177.1643568  12.1736115  37.8484270 173.1620000  11.4420000  38.4000000
 172.3710000  10.5300000  38.1170000 172.9930000  12.6930000  37.9790000
 173.6328303  13.4135028  38.2816420 171.8330000  13.0870000  37.1750000
 171.1281117  12.2630728  37.0637542 171.1160000  14.2950000  37.8300000
 171.8527623  15.0786687  38.0064800 169.9900000  14.8420000  36.9310000
 169.2525648  14.0589817  36.7544434 169.5101524  15.6880306  37.4230154
 170.4097930  15.1663989  35.9788244 170.5820000  13.8510000  39.1720000
 169.7927507  13.1219508  38.9884963 171.3997866  13.3724983  39.7108513
 170.0380000  14.9790000  39.9910000 169.2198109  15.4577301  39.4529628
 169.6705102  14.5938381  40.9421576 170.8268470  15.7082791  40.1753158
 172.2020000  13.3680000  35.7250000 171.4790000  12.9520000  34.8050000
 173.3160000  14.0450000  35.4850000 173.8847029  14.4242849  36.2285182
 173.7470000  14.2570000  34.1080000 173.8528711  13.2929627  33.6104836
 173.0014100  14.8554843  33.5845389 175.0750000  14.9800000  34.0680000
 175.5720000  15.4630000  35.0830000 175.6450000  15.0500000  32.8600000
 175.2745316  14.5490990  32.0650468 176.8530000  15.8390000  32.6760000
 176.7812762  16.7422052  33.2819499 178.1130000  15.0730000  33.0870000
 178.9928674  15.7069347  32.9771845 178.0320805  14.7407689  34.1219756
 178.4390000  13.5900000  32.1090000 179.5515803  13.2427441  32.7496846
 176.9440000  16.2380000  31.2130000 176.2780000  15.6630000  30.3500000
 177.7820000  17.2290000  30.9450000 178.3422250  17.6553747  31.6691905
 177.9140000  17.7280000  29.5910000 177.9719170  16.8882845  28.8984520
 177.0482590  18.3426333  29.3443874 179.1620000  18.5620000  29.4560000
 179.5800000  19.2490000  30.3970000 179.7730000  18.4790000  28.2750000
 179.4309188  17.8057128  27.6043554 180.9250000  19.2860000  27.9140000
 181.2263506  19.9399794  28.7322897 182.1190000  18.4090000  27.5230000
 182.4219492  17.8045855  28.3779878 181.8354440  17.7548605  26.6985016
 183.2815001  19.2963493  27.0907626 182.9794335  19.9007710  26.2354667
 183.5659414  19.9504946  27.9149526 184.4698868  18.4234728  26.7015986
 184.7728356  17.8190565  27.5565851 184.1863302  17.7693352  25.8770993
 185.6196939  19.2522134  26.2755308 185.5179161  20.2570552  26.2813261
 186.7808701  18.7341991  25.8853622 186.9908687  17.4213347  25.8508921
 186.2542972  16.7877755  26.1268726 187.8859478  17.0639398  25.5488955
 187.7480240  19.5720960  25.5228113 187.5852734  20.5685221  25.5501494
 188.6407844  19.2081181  25.2218169 180.5070000  20.1770000  26.7580000
 179.9750000  19.6880000  25.7580000 180.7140000  21.4810000  26.9070000
 181.0513429  21.8394237  27.7889476 180.3320000  22.4330000  25.8770000
 180.3219794  21.9409294  24.9044439 178.9280000  22.9950000  26.1580000
 178.4756436  23.3688401  25.2394596 178.3366020  22.1635129  26.5413768
 178.9240000  24.1080000  27.1880000 179.3200000  25.2390000  26.9150000
 178.4190000  23.7970000  28.3730000 178.3870215  24.4937149  29.1035241
 178.0684007  22.8646784  28.5402045 181.4220000  23.4940000  25.7480000
 182.4920000  23.4060000  26.3640000 181.1690000  24.4810000  24.8870000
 180.2696383  24.5620679  24.4345888 182.2180000  25.4230000  24.5140000
 183.1132290  24.8471094  24.2794490 181.7960000  26.2070000  23.2610000
 181.5775596  25.5098927  22.4520349 180.9059323  26.7957923  23.4828180
 182.9169328  27.1280556  22.8423516 183.1356421  27.8258046  23.6506916
 183.8072683  26.5399060  22.6199064 182.4977118  27.9068941  21.5976059
 181.9166620  29.0103984  21.7772184 182.7625221  27.3909049  20.4790217
 182.5760000  26.3760000  25.6480000 183.7050000  26.8840000  25.6810000
 181.6510000  26.6130000  26.5810000 180.7625954  26.1366924  26.5180108
 181.8430000  27.5790000  27.6570000 182.6716233  28.2266541  27.3705968
 180.5870000  28.4360000  27.8210000 180.3547485  28.9258755  26.8753888
 179.7505000  27.8027742  28.1166228 180.8287926  29.4920629  28.8942623
 181.0606663  29.0029050  29.8403384 181.6649128  30.1260085  28.5991046
 179.5763567  30.3466300  29.0577989 179.3441032  30.8365046  28.1121878
 178.7398581  29.7134036  29.3534233 179.8181511  31.4026943  30.1310601
 180.0500258  30.9135374  31.0771363 180.6542686  32.0366399  29.8358998
 178.6108843  32.2264391  30.2886996 177.8360982  31.6392644  30.5626196
 178.7710232  32.9258662  30.9995141 178.3960951  32.6801286  29.4122690
 182.1950000  26.9330000  28.9900000 183.0120000  27.4840000  29.7390000
 181.6220000  25.7750000  29.3100000 180.9392869  25.3252299  28.7169494
 181.9480000  25.1500000  30.5850000 183.0172861  25.2545082  30.7688600
 181.1830000  25.7920000  31.7550000 181.3234624  25.1798533  32.6458681
 181.5409401  26.8030385  31.9493712 179.6990000  25.8960000  31.5340000
 178.8580000  24.8320000  31.8490000 179.2864509  23.9207710  32.2663625
 177.4990000  24.9210000  31.6390000 176.8575318  24.0794535  31.9005697
 176.9470000  26.0710000  31.0990000 175.8713010  26.1422788  30.9380932
 177.7720000  27.1370000  30.7620000 177.3510818  28.0426121  30.3251994
 179.1430000  27.0440000  30.9850000 179.7948496  27.8789280  30.7279258
 181.6420000  23.6630000  30.5290000 180.9110000  23.1860000  29.6560000
 182.2470000  22.9350000  31.4590000 182.9972994  23.3585948  31.9859892
 181.8950000  21.5580000  31.7490000 181.3788281  21.1307113  30.8892965
 183.1330000  20.7100000  32.0470000 183.6266243  21.1293966  32.9236646
 182.8261657  19.6857224  32.2586793 184.1200000  20.6920000  30.8980000
 183.7310000  20.5640000  29.7320000 185.4120000  20.8040000  31.2200000
 186.1128966  20.7978080  30.4928099 185.6817678  20.8943377  32.1891054
 180.9700000  21.5600000  32.9560000 181.0200000  22.4700000  33.7880000
 180.1180000  20.5440000  33.0490000 180.0305962  19.8400033  32.3300782
 179.2240000  20.4730000  34.1980000 179.7354707  20.8546271  35.0816615
 177.9620000  21.3070000  33.9650000 177.4519413  21.3799806  34.9255276
 178.2801594  22.2997850  33.6467980 177.0150000  20.7250000  32.9330000
 177.1170000  21.0690000  31.5890000 177.8955369  21.7637721  31.2739262
 176.2380000  20.5360000  30.6500000 176.3168864  20.7988212  29.5951048
 175.2570000  19.6390000  31.0740000 174.3760000  19.1110000  30.1350000
 174.5391424  19.4324650  29.2452560 175.1480000  19.2930000  32.4050000
 174.3798306  18.5921793  32.7319047 176.0110000  19.8350000  33.3160000
 175.9243491  19.5744509  34.3708488 178.8380000  19.0420000  34.5320000
 178.8940000  18.1320000  33.6980000 178.3910000  18.8970000  35.7790000
 178.4746887  19.6794364  36.4121578 177.8170000  17.6340000  36.2960000
 177.4463579  16.9876058  35.5004510 178.8060000  16.8340000  37.1580000
 179.6996757  16.6273030  36.5691713 179.1880000  17.6130000  38.3970000
 178.2948384  17.8196861  38.9866135 179.8887739  17.0281852  38.9928255
 179.6560579  18.5532975  38.1056858 178.2620000  15.4710000  37.5010000
 178.0741857  14.9128259  36.5837926 178.9872938  14.9327603  38.1112021
 177.3305130  15.5802309  38.0564290 176.5760000  18.0210000  37.1040000
 176.5970000  19.0320000  37.7570000 175.5220000  17.2410000  36.9750000
 175.5289624  16.4516982  36.3448782 174.2920000  17.5060000  37.7540000
 174.3618029  18.4258783  38.3345607 173.0470000  17.5840000  36.8590000
 172.8613092  16.6050876  36.4170173 171.8450000  18.0040000  37.6770000
 172.0297718  18.9830995  38.1189553 170.9670405  18.0563993  37.0331507
 171.6712265  17.2754322  38.4688923 173.2590000  18.5120000  35.6810000
 174.0916918  18.1500392  35.0779156 172.3552162  18.5396092  35.0723028
 173.4828879  19.5151791  36.0437766 174.1830000  16.3420000  38.7210000
 174.3330000  15.2260000  38.3060000 173.9290000  16.6400000  39.9800000
 173.7476269  17.5835655  40.2912672 173.8770000  15.5570000  40.9720000
 173.6443247  14.6135291  40.4782145 175.2280000  15.4180000  41.6820000
 175.1204190  14.6707806  42.4682498 175.9591515  15.0728043  40.9510025
 175.6890000  16.6980000  42.2760000 175.6457220  17.4443178  41.4827550
 174.9732787  16.9561855  43.0565032 177.3650000  16.6750000  42.9850000
 177.6920000  18.4220000  42.9020000 176.9512144  18.9593628  43.4940954
 178.6878750  18.6248818  43.2959195 177.6375182  18.7535050  41.8650634
 172.8210000  15.9030000  42.0120000 172.3940000  17.0120000  42.0860000
 172.4760000  14.9000000  42.7760000 172.8665874  13.9809932  42.6244502
 171.4930000  15.0690000  43.8510000 170.5113960  15.3247509  43.4520710
 171.3880000  13.7490000  44.5850000 171.1030966  12.9848981  43.8617589
 172.3706850  13.5134262  44.9935771 170.3770000  13.7860000  45.7000000
 170.6504066  14.5414933  46.4365999 169.3854895  14.0067815  45.3046969
 170.3360000  12.4520000  46.3760000 171.0870000  11.5530000  46.0650000
 169.4360000  12.3390000  47.3180000 169.3443476  11.4690696  47.8228984
 168.8367559  13.1221845  47.5362428 171.9310000  16.1940000  44.7900000
 173.0570000  16.2330000  45.1970000 170.9990000  17.0520000  45.1400000
 170.0662897  16.9737019  44.7604999 171.2810000  18.1510000  46.0760000
 172.2791545  18.5500054  45.8954968 170.2600000  19.2780000  45.8800000
 170.4047453  19.5534866  44.8353684 169.2867121  18.8016993  45.9981032
 170.3220000  20.5360000  46.7530000 170.3436413  20.2423599  47.8024799
 171.5900000  21.3520000  46.4210000 171.5688490  21.6464128  45.3717276
 171.6233718  22.2434412  47.0473543 172.4742148  20.7430306  46.6092042
 169.0630000  21.3550000  46.5010000 168.1855988  20.7627566  46.7608353
 169.0866575  22.2563848  47.1134109 169.0143689  21.6328673  45.4481354
 171.2150000  17.6730000  47.5170000 170.2550000  17.0250000  47.9000000
 172.2130000  18.0250000  48.3290000 172.9973279  18.5555384  47.9776340
 172.2240000  17.6210000  49.7280000 171.3917191  16.9447075  49.9230285
 173.5230000  16.9040000  50.0670000 174.3400764  17.5982024  49.8706116
 173.4967821  16.6660143  51.1303793 173.7460000  15.5860000  49.2410000
 173.8177942  15.9028607  48.2005454 174.6808357  15.1128354  49.5414988
 172.6350000  14.5760000  49.3610000 171.7750000  14.6680000  50.2340000
 172.6780000  13.5470000  48.5000000 171.9607528  12.8365646  48.5306511
 173.4274028  13.4879108  47.8254592 172.0430000  18.8730000  50.5950000
 171.9330000  19.9960000  50.0830000 172.0340000  18.6650000  51.9070000
 172.2340735  17.7406951  52.2615849 171.7450000  19.7240000  52.8640000
 171.3017586  20.5496398  52.3072639 171.0148652  19.3295903  53.5707132
 172.9500000  20.2370000  53.6330000 174.0020000  20.5200000  53.0640000
 172.7840000  20.3510000  54.9550000 171.9618804  19.9721133  55.4029549
 173.7720000  21.0330000  55.7850000 174.0350844  21.9999007  55.3560609
 173.1730000  21.2600000  57.1640000 172.9860556  20.2823546  57.6082527
 173.9115245  21.7947099  57.7612997 171.8700000  22.0610000  57.1280000
 172.1145726  23.1216828  57.0711044 171.3068454  21.7704386  56.2411330
 171.0190000  21.7970000  58.3860000 171.6494709  21.9736179  59.2574422
 170.1936768  22.5089973  58.3849939 170.4640000  20.4280000  58.4720000
 170.7338306  19.7723253  57.7527077 169.6210000  20.0200000  59.4210000
 169.2720000  20.8610000  60.3910000 169.6468644  21.7988017  60.4012328
 168.6337917  20.5577935  61.1127033 169.1360000  18.7690000  59.4270000
 169.4105843  18.1207215  58.7028187 168.4985378  18.4812804  60.1556687
 175.0620000  20.2260000  55.9290000 175.0180000  19.0160000  56.1870000
 176.2220000  20.9170000  55.8460000 176.2846065  21.8965154  55.6078208
 177.4620000  20.1510000  55.9610000 177.2566255  19.1141173  55.6949272
 178.5900000  20.6870000  55.0360000 179.3695891  19.9515080  54.8375270
 178.0498065  20.9009741  54.1137711 179.2620000  22.0030000  55.5370000
 179.7700000  22.0570000  56.6500000 179.3790000  22.9880000  54.6540000
 179.8070150  23.8604882  54.9290769 179.0394305  22.8601084  53.7114306
 177.8930000  20.0660000  57.4330000 177.4310000  20.8290000  58.2930000
 178.7630000  19.0900000  57.7260000 179.1916129  18.5449876  56.9915942
 179.0870000  18.7650000  59.1020000 178.1686605  18.6457670  59.6769220
 179.8860000  17.4580000  59.1780000 180.7549845  17.6092429  58.5376168
 180.2162883  17.2747470  60.2004618 179.0730000  16.2320000  58.6680000
 178.9007986  16.3060005  57.5942349 179.9020000  14.9820000  58.9660000
 180.0742303  14.9070642  60.0396946 179.3643364  14.0983415  58.6222467
 180.8591671  15.0483562  58.4487686 177.6910000  16.1630000  59.3070000
 177.1328359  17.0675218  59.0653544 177.1562630  15.2936152  58.9244721
 177.7941485  16.0784477  60.3888088 179.8860000  19.8610000  59.7760000
 179.7940000  20.0050000  60.9970000 180.6830000  20.6270000  59.0210000
 180.8041002  20.4841818  58.0285097 181.4550000  21.6940000  59.6700000
 181.9602485  21.3029964  60.5531417 182.5110000  22.2670000  58.7140000
 182.0195791  22.6706342  57.8287402 183.0636180  23.0611411  59.2160493
 183.2005447  21.4765882  58.4175602 180.5150000  22.7810000  60.1330000
 180.6070000  23.2400000  61.2770000 179.5580000  23.1600000  59.2770000
 179.5233748  22.7984400  58.3345698 178.5530000  24.1390000  59.6800000
 179.0548415  25.0406167  60.0312003 177.6300000  24.5130000  58.5300000
 177.3052930  23.5793662  58.0706607 176.7647891  25.0388819  58.9336810
 178.3080000  25.3820000  57.4850000 179.3530000  25.9760000  57.8000000
 177.7840000  25.4900000  56.3540000 177.7100000  23.6100000  60.8250000
 177.3740000  24.3620000  61.7460000 177.3250000  22.3270000  60.7740000
 177.5075668  21.7354223  59.9759997 176.5500000  21.7730000  61.8860000
 175.6854355  22.4121992  62.0650303 176.0540000  20.3420000  61.6020000
 176.9216062  19.8351450  61.1795587 175.7599814  19.8473840  62.5277474
 174.8870000  20.2860000  60.5970000 175.0782411  20.9752113  59.7744944
 174.7600000  18.8350000  60.0400000 174.5682786  18.1452302  60.8619242
 173.9357254  18.7893295  59.3282512 175.6871005  18.5547776  59.5399395
 173.5550000  20.7670000  61.2070000 173.6594088  21.7994102  61.5406576
 172.7677751  20.7064202  60.4555292 173.2949050  20.1356657  62.0566273
 177.3530000  21.7800000  63.1760000 176.8010000  22.0590000  64.2550000
 178.6350000  21.4380000  63.1080000 179.0973621  21.1537680  62.2562179
 179.4150000  21.4430000  64.3580000 178.9197128  20.8123852  65.0963189
 180.8220000  20.9140000  64.1330000 180.7509554  19.9135983  63.7060945
 181.3307666  21.5732893  63.4297261 181.6010000  20.8560000  65.4190000
 181.5485645  21.8396528  65.8856675 181.1222646  20.1212989  66.0664015
 183.0630000  20.4710000  65.2070000 183.5312877  20.3236983  66.1801946
 183.1017893  19.5402235  64.6410936 183.8110000  21.4950000  64.4770000
 183.9657874  21.2757859  63.5033032 184.3000000  22.6380000  64.9570000
 184.1360000  23.0130000  66.2390000 183.6254212  22.4171328  66.8748864
 184.5242379  23.8886060  66.5594453 184.9600000  23.4280000  64.1120000
 185.0724150  23.1489894  63.1478340 185.3450788  24.3024925  64.4392247
 179.5080000  22.8390000  64.9470000 179.3300000  23.0410000  66.1580000
 179.8030000  23.8150000  64.1020000 179.9849318  23.6140811  63.1290500
 179.9460000  25.1940000  64.5630000 180.6275525  25.2500700  65.4117883
 180.5220000  26.0300000  63.4170000 179.9709321  25.7968733  62.5059153
 180.3940867  27.0852019  63.6584275 182.0240000  25.7290000  63.2020000
 182.5151319  25.7797112  64.1737606 182.1063612  24.7167288  62.8062405
 182.6950000  26.7060000  62.2420000 182.5917901  27.7242872  62.6168839
 183.7525460  26.4613186  62.1428697 182.0700000  26.6270000  60.9220000
 181.1523488  27.0379583  60.8264550 182.6260000  26.0590000  59.8540000
 183.8400000  25.5190000  59.9410000 184.3376461  25.5416456  60.8195987
 184.2576347  25.0892301  59.1279940 181.9660000  26.0270000  58.6930000
 181.0443150  26.4349133  58.6281656 182.3917017  25.5950379  57.8853580
 178.6340000  25.7720000  65.0610000 178.6390000  26.7150000  65.8640000
 177.5050000  25.2530000  64.6000000 177.4704282  24.5713899  63.8554788
 176.2520000  25.7590000  65.1280000 176.3168847  26.8351516  65.2885827
 175.1280000  25.4810000  64.1310000 174.3552808  26.2403905  64.2507100
 175.5331551  25.5318113  63.1203727 174.5720000  24.2090000  64.3490000
 173.8691139  24.0538786  63.7137927 175.9340000  25.1800000  66.5020000
 175.0430000  25.6970000  67.1870000 176.6710000  24.1740000  66.9470000
 177.3530059  23.7269555  66.3510819 176.4720000  23.6440000  68.2820000
 175.4081005  23.4979920  68.4688119 177.1790000  22.3060000  68.4280000
 178.2077644  22.4263430  68.0884994 177.1747756  22.0326945  69.4831712
 176.4980000  21.2020000  67.6120000 176.4078217  21.4999558  66.5673991
 177.0980753  20.2945894  67.6799540 175.1110000  20.9080000  68.1540000
 174.9640000  20.5760000  69.3230000 174.0930000  21.0480000  67.3210000
 173.1532454  20.8624032  67.6411820 174.2601834  21.3398459  66.3686466
 176.9650000  24.6390000  69.3370000 177.8930000  25.4150000  69.0860000
 176.3480000  24.6460000  70.5230000 175.3080000  23.7310000  71.0250000
 175.7710759  22.8026982  71.3595397 174.5976453  23.5150610  70.2269615
 174.6860000  24.5030000  72.1510000 174.3146941  23.8119061  72.9077168
 173.8593075  25.1031247  71.7708272 175.7570000  25.3620000  72.6860000
 176.3653622  24.8280911  73.4160245 175.3421165  26.2588861  73.1459637
 176.6150000  25.7450000  71.4720000 176.2602569  26.6602218  70.9980541
 178.0740000  25.9130000  71.8690000 178.5220000  27.0520000  72.0880000
 178.8040000  24.8110000  72.0300000 178.3309899  23.9232936  71.9386861
 180.2220000  24.8070000  72.3700000 180.5427964  25.8147288  72.6339535
 180.4800000  23.8840000  73.5620000 180.0346179  22.9139037  73.3414388
 181.5581827  23.7708991  73.6752708 179.8830000  24.4370000  74.8670000
 180.0228893  25.5179029  74.8804409 178.8172731  24.2088514  74.8836237
 180.5540000  23.8220000  76.0930000 181.6257649  23.7514175  75.9074275
 180.3763175  24.4696370  76.9515422 180.0420000  22.4850000  76.4000000
 179.0958909  22.4290150  76.7490596 180.7340000  21.3570000  76.2570000
 181.9800000  21.3910000  75.7920000 182.4004581  22.2761180  75.5472936
 182.4997610  20.5315386  75.6858199 180.1750000  20.1920000  76.5740000
 179.2271806  20.1682654  76.9221021 180.7010384  19.3367106  76.4650851
 181.0880000  24.3690000  71.1900000 182.2430000  23.9750000  71.3770000
 180.5340000  24.3770000  69.9880000 179.5958657  24.7079093  69.8133504
 181.3120000  23.8860000  68.8630000 180.7138350  24.0479886  67.9663075
 182.2158158  24.4930327  68.8107730 181.7030000  22.4260000  68.9370000
 182.6850000  22.0250000  68.3020000 180.9770000  21.6100000  69.7040000
 180.2274014  21.9922236  70.2626649 181.2340000  20.1720000  69.7790000
 181.9368787  19.8939958  68.9936501 181.8100000  19.7490000  71.1170000
 181.9089114  18.6636325  71.1341522 183.1540000  20.3760000  71.3290000
 183.0558120  21.4614420  71.3124373 183.5536931  20.0625317  72.2934077
 183.8317416  20.0608635  70.5356174 180.9120000  20.1620000  72.1570000
 181.2669757  19.8991260  73.0093437 179.9430000  19.4000000  69.5580000
 178.8530000  19.8880000  69.8570000 180.0780000  18.1850000  69.0360000
 180.9790936  17.9150793  68.6682060 178.9940000  17.2130000  68.9900000
 178.0442803  17.7478208  68.9800775 179.0620000  16.3130000  67.7520000
 180.0779681  15.9217987  67.6984315 178.3566286  15.4840489  67.8102347
 178.7980000  17.0150000  66.4360000 177.6900000  17.8370000  66.2700000
 177.0114595  17.9936632  67.1085340 177.4400000  18.4630000  65.0380000
 176.5763710  19.1199017  64.9344344 178.2880000  18.2490000  63.9510000
 178.0994041  18.7273273  62.9898889 179.3940000  17.4060000  64.1080000
 180.0677440  17.2275714  63.2699473 179.6330000  16.7960000  65.3340000
 180.4869857  16.1293148  65.4537460 179.0690000  16.3000000  70.2000000
 180.1420000  16.0570000  70.7660000 177.9160000  15.7690000  70.5850000
 177.0316006  16.0694060  70.2006911 177.9080000  14.7310000  71.6070000
 178.4477049  15.0754226  72.4891513 176.4790000  14.3590000  72.0210000
 176.5191364  13.5863432  72.7887830 175.7580000  15.5770000  72.5670000
 175.7170575  16.3499701  71.7995753 174.7445684  15.3000765  72.8574634
 176.2936053  15.9573248  73.4368164 175.7520000  13.8400000  70.8830000
 174.8594130  13.6100194  71.1513239 178.6080000  13.4920000  71.0800000
 178.7710000  13.3070000  69.8780000 179.0270000  12.6330000  71.9960000
 178.9851183  12.8128254  72.9889794 179.6840000  11.4190000  71.5430000
 180.5116263  11.6459808  70.8709780 180.2400000  10.7010000  72.7810000
 180.7362988  11.4468597  73.4018703 179.3107102  10.3911912  73.2590575
 181.1370000   9.5120000  72.6160000 180.6464501   8.7303418  72.0359379
 182.3690000  10.0020000  71.8670000 182.8603780  10.7834052  72.4467003
 183.0592524   9.1714422  71.7192632 182.0704719  10.4023878  70.8981496
 181.5240000   9.1700000  74.0330000 180.6280728   8.9387479  74.6091392
 182.1870289   8.3048485  74.0303742 182.0369894  10.0188810  74.4850420
 178.7210000  10.5680000  70.7070000 179.1300000   9.9410000  69.7150000
 177.4200000  10.6120000  71.0270000 177.0990810  11.1216191  71.8378013
 176.4360000   9.8690000  70.2410000 176.6894791   8.8088854  70.2431292
 175.0380000  10.0370000  70.8270000 174.9908708   9.5591286  71.8055280
 174.8086663  11.0976333  70.9297771 174.0930000   9.4310000  69.9590000
 173.2110895   9.5342787  70.3239209 176.4380000  10.3020000  68.7750000
 176.4620000   9.4580000  67.8800000 176.3790000  11.6150000  68.5200000
 176.2168506  12.2749934  69.2671383 176.4380000  12.1180000  67.1560000
 175.8013706  11.5692670  66.4619580 176.0450000  13.6050000  67.1130000
 176.5402238  14.1026024  67.9468138 176.4430000  14.2980000  65.7900000
 175.9477627  13.8012053  64.9557131 176.1389449  15.3442590  65.8214921
 177.5233673  14.2379413  65.6584704 174.6320000  13.7410000  67.3670000
 174.3898688  14.6695572  67.3395344 177.8000000  11.8840000  66.5210000
 177.8700000  11.4590000  65.3650000 178.8860000  12.1300000  67.2660000
 178.8126356  12.4952909  68.2047649 180.2180000  11.8870000  66.7200000
 180.4183468  12.5078486  65.8467833 181.2660000  12.1940000  67.7880000
 181.0828339  11.5757418  68.6668101 182.6870000  11.8860000  67.2230000
 182.8710819  12.5042611  66.3443836 183.4363024  12.1045093  67.9838539
 182.7479606  10.8337057  66.9454011 181.1890000  13.5690000  68.2130000
 181.8566109  13.7348079  68.8826296 180.3910000  10.4340000  66.2560000
 180.8940000  10.1670000  65.1500000 180.0270000   9.4820000  67.1200000
 179.5976721   9.6978166  68.0083693 180.2830000   8.0780000  66.7960000
 181.3280651   7.9503333  66.5137957 179.9880000   7.1790000  68.0080000
 179.0033428   7.4857830  68.3607513 179.9524445   6.1354456  67.6952221
 181.0080000   7.3380000  69.1400000 181.0896628   8.3953651  69.3918155
 180.5810000   6.5560000  70.3710000 180.4995656   5.4984087  70.1200661
 181.3221393   6.6857432  71.1596571 179.6145756   6.9221296  70.7175159
 182.4150000   6.8900000  68.6860000 182.7351766   7.4982073  67.8400271
 183.1192573   7.0134040  69.5087359 182.3847345   5.8418376  68.3884457
 179.4280000   7.6480000  65.6210000 179.8970000   6.9200000  64.7330000
 178.1710000   8.1130000  65.5810000 177.7757924   8.6759233  66.3206131
 177.2990000   7.6930000  64.4910000 177.4308448   6.6272850  64.3040033
 175.8250000   7.9510000  64.8460000 175.7029253   8.9745422  65.2003421
 175.1993614   7.7942050  63.9673125 175.4070000   6.9750000  65.9510000
 175.5376023   5.9585819  65.5795999 176.0557816   7.1326158  66.8125926
 173.9810000   7.1780000  66.3570000 173.3595213   7.1778956  65.4615319
 173.6821413   6.3549600  67.0061440 173.7750000   8.4280000  67.0660000
 174.3651394   8.6073141  67.8658008 172.8830000   9.3490000  66.7170000
 172.1100000   9.1500000  65.6560000 172.2035859   8.2996020  65.1191900
 171.4319528   9.8499350  65.3905898 172.7500000  10.4580000  67.4450000
 173.3288330  10.5950305  68.2612567 172.0710222  11.1560055  67.1769027
 177.6870000   8.3440000  63.1700000 177.6270000   7.6850000  62.1160000
 178.1160000   9.6220000  63.1990000 177.9892842  10.2075083  64.0121558
 178.7260000  10.2110000  62.0100000 178.0352841  10.1528334  61.1687941
 179.0640000  11.6890000  62.2670000 179.5425887  11.6723217  63.2461700
 179.7692514  12.0629451  61.5247834 177.8320000  12.6110000  62.3140000
 177.1488755  12.2540161  63.0847167 178.2630000  14.0730000  62.6390000
 178.9458190  14.4308605  61.8684204 177.3818640  14.7139332  62.6690796
 178.7631901  14.0981890  63.6071301 177.0030000  12.5310000  60.9890000
 176.6611756  11.5075210  60.8349020 176.1412069  13.1947801  61.0583539
 177.6284147  12.8349007  60.1495956 179.9860000   9.4370000  61.5860000
 180.1870000   9.1680000  60.3930000 180.8610000   9.0990000  62.5430000
 180.7124844   9.3247887  63.5161711 182.0750000   8.3790000  62.1780000
 182.6784613   9.0273642  61.5427383 182.6249402   8.1520716  63.0913283
 181.7920000   7.0800000  61.4340000 182.4690000   6.7490000  60.4440000
 180.7840000   6.3320000  61.8840000 180.2904964   6.5812150  62.7292488
 180.3890000   5.1120000  61.1860000 181.2037942   4.3880875  61.1986590
 179.1740000   4.4940000  61.8860000 178.4066604   5.2647221  61.9586404
 178.8111165   3.6785667  61.2603130 179.4920000   3.9640000  63.2740000
 180.3572194   3.3066663  63.1879265 179.7451591   4.8162734  63.9045891
 178.3270000   3.1940000  63.9010000 178.7545379   2.3849189  64.4931976
 177.7983910   3.8844827  64.5581952 177.3680000   2.6260000  62.8980000
 176.9799655   3.4268764  62.2686140 177.8809045   1.8921496  62.2763154
 176.2290000   1.9610000  63.6220000 175.7533322   2.6409272  64.1977941
 175.5808104   1.5771125  62.9492589 176.5883021   1.2185787  64.2049337
 180.0580000   5.4060000  59.7210000 180.4790000   4.6720000  58.8100000
 179.2810000   6.4710000  59.4760000 178.9276045   7.0501299  60.2242108
 178.8790000   6.7880000  58.1030000 178.5043324   5.8941337  57.6042751
 177.7660000   7.8410000  58.1220000 178.1224734   8.7393698  58.6259421
 177.4799909   8.0878207  57.0995625 176.5810000   7.2970000  58.8530000
 176.4353355   6.2583057  58.5563574 176.7262857   7.3492027  59.9320130
 175.3620000   8.0660000  58.5010000 175.2290000   8.5340000  57.3610000
 174.4760000   8.2390000  59.4600000 173.6283428   8.7553657  59.2730637
 174.6483205   7.8544986  60.3779138 180.0450000   7.2820000  57.2630000
 180.1840000   6.8940000  56.0940000 180.8960000   8.1300000  57.8380000
 180.7440205   8.4805976  58.7729240 182.0360000   8.6350000  57.0890000
 181.7190122   9.0120146  56.1166431 182.7350000   9.7590000  57.8710000
 183.0132393   9.3960786  58.8604298 184.0000000  10.2000000  57.1120000
 183.7224956  10.5635059  56.1225783 184.4969090  10.9970043  57.6651421
 184.6773802   9.3521242  57.0102068 181.7610000  10.9340000  58.0540000
 181.8002923  11.5214369  57.1366807 180.7659568  10.5035931  58.1668648
 182.0770000  11.8750000  59.3010000 183.0717679  12.3061667  59.1886081
 181.3382131  12.6749562  59.3496124 182.0374346  11.2883219  60.2187926
 182.9880000   7.4900000  56.7740000 183.5180000   7.4040000  55.6720000
 183.2040000   6.5840000  57.7380000 182.8683252   6.7225278  58.6804605
 184.0170000   5.3960000  57.4570000 185.0186735   5.6845908  57.1384649
 184.1320000   4.5570000  58.7340000 184.6678358   5.1947787  59.4370061
 183.1350653   4.3472711  59.1216015 184.8980000   3.2390000  58.5530000
 184.3618670   2.6457262  57.8122649 186.3380000   3.4380000  58.0980000
 186.8749313   4.0308375  58.8385048 186.8226300   2.4677292  57.9893303
 186.3483473   3.9580386  57.1401100 184.8550000   2.4810000  59.8550000
 183.8184475   2.2758195  60.1225057 185.3946965   1.5402456  59.7463255
 185.3207135   3.0779692  60.6391159 183.4420000   4.5830000  56.2980000
 184.1760000   4.1300000  55.4090000 182.1200000   4.4040000  56.2660000
 181.5288444   4.7200193  57.0214907 181.4990000   3.7070000  55.1490000
 181.9012188   2.6971788  55.0678808 179.9850000   3.6150000  55.3670000
 179.6373563   4.5910973  55.7053448 179.5242530   3.3781766  54.4079761
 179.6010000   2.5630000  56.3840000 179.8860331   1.5945431  55.9729668
 180.1631941   2.7483613  57.2992476 178.1080000   2.5630000  56.6960000
 177.3710000   3.4240000  56.1640000 177.6860000   1.7040000  57.4850000
 181.7780000   4.3980000  53.8270000 182.0450000   3.7340000  52.8000000
 181.6670000   5.7310000  53.8220000 181.3760472   6.2159346  54.6588299
 181.9400000   6.5190000  52.6260000 181.2644518   6.2294491  51.8210813
 181.7300000   8.0000000  52.9300000 182.4092994   8.2871002  53.7326363
 181.9653620   8.5730037  52.0331324 180.4070000   8.2640000  53.3200000
 180.3084188   9.2011472  53.5034033 183.3610000   6.3020000  52.1490000
 183.6130000   6.1170000  50.9580000 184.3100000   6.3850000  53.0730000
 184.0770835   6.5845711  54.0352997 185.7250000   6.2660000  52.7110000
 185.9934910   6.9363186  51.8944923 186.5930000   6.5790000  53.9350000
 186.2229626   6.0166237  54.7922663 188.0860000   6.1760000  53.6490000
 188.4569058   6.7383470  52.7920897 188.6974121   6.4010708  54.5228530
 188.1399447   5.1088684  53.4335488 186.4490000   8.0540000  54.2590000
 186.8825958   8.6171981  53.4326203 185.3837151   8.2740589  54.3285820
 187.1340000   8.4510000  55.5570000 188.1994696   8.2316528  55.4879979
 186.9937251   9.5178523  55.7309206 186.7005900   7.8885114  56.3839596
 186.0210000   4.8910000  52.1550000 186.7390000   4.7640000  51.1570000
 185.4850000   3.8440000  52.8010000 184.9762365   3.9587668  53.6659206
 185.6820000   2.4890000  52.2870000 186.7470579   2.2866846  52.1737775
 185.0870000   1.4580000  53.2580000 185.4191121   1.7246686  54.2613388
 184.0018752   1.5433287  53.2003534 185.5070000   0.0010000  52.9460000
 185.1518874  -0.2234315  51.9402036 186.5952688  -0.0564129  52.9677687
 184.9250000  -1.0110000  53.9280000 184.2370000  -0.5880000  54.8880000
 185.1710000  -2.2300000  53.7500000 185.0610000   2.3420000  50.9070000
 185.6080000   1.6230000  50.0570000 183.9560000   3.0550000  50.6490000
 183.5239806   3.6200568  51.3660561 183.3020000   2.9710000  49.3460000
 183.1210384   1.9196233  49.1224845 181.9500000   3.7060000  49.3820000
 182.1154886   4.7619429  49.5957710 181.4548994   3.6045885  48.4162405
 181.3208764   3.2726759  50.1595171 184.1900000   3.5230000  48.2340000
 184.3870000   2.8610000  47.2110000 184.7190000   4.7430000  48.4000000
 184.4796460   5.3289907  49.1870349 185.5580000   5.3100000  47.3420000
 185.1696497   5.1657613  46.3337945 185.8380000   6.8170000  47.5770000
 184.8812936   7.3373563  47.6221942 186.6220000   7.0660000  48.8860000
 187.5790890   6.5462998  48.8413579 186.7950746   8.1351549  49.0086934
 186.0453774   6.6923496  49.7321624 186.5050000   7.4260000  46.3140000
 187.4667341   6.9240003  46.2083371 185.8625300   7.1595868  45.4747409
 186.7250000   8.9770000  46.3310000 187.3677998   9.2441435  47.1697745
 187.1968897   9.2877960  45.3988921 185.7635951   9.4797301  46.4361807
 186.8330000   4.4950000  47.1720000 187.2660000   4.2310000  46.0400000
 187.4130000   4.0060000  48.2760000 187.0863529   4.2495750  49.2001603
 188.5730000   3.1220000  48.1610000 189.3611769   3.6242032  47.6000471
 189.1140000   2.7530000  49.5370000 188.3277315   2.3524779  50.1768930
 189.8994445   2.0068182  49.4170429 189.7270000   3.9070000  50.2800000
 190.1520000   3.7990000  51.5840000 190.6400000   4.9640000  51.9880000
 191.0426106   5.0753413  52.9947804 190.5290000   5.8310000  50.9990000
 190.8086648   6.8013285  51.0177094 189.9590000   5.1900000  49.9130000
 189.7830554   5.7380450  48.9873697 188.2300000   1.8420000  47.4060000
 189.0490000   1.3270000  46.6220000 187.0290000   1.3040000  47.6260000
 186.3883032   1.7009172  48.2983568 186.6340000   0.0730000  46.9310000
 187.3845057  -0.7018296  47.0874594 185.2950000  -0.4270000  47.4740000
 185.2193020  -1.4965316  47.2778591 185.2706438  -0.2527929  48.5497131
 184.2020000   0.2460000  46.8600000 183.3772947  -0.0882692  47.2201737
 186.5370000   0.2420000  45.4190000 186.6370000  -0.7570000  44.6880000
 186.3380000   1.4600000  44.9170000 186.0903370   2.2282154  45.5241305
 186.3300000   1.6870000  43.4760000 186.2267792   0.7391568  42.9477596
 185.1840000   2.6170000  43.0450000 185.1422981   2.6586040  41.9565932
 183.8700000   2.0910000  43.5800000 183.9107763   2.0495439  44.6684483
 183.0606643   2.7530700  43.2722021 183.6906441   1.0909285  43.1852974
 185.4030000   4.0500000  43.5500000 186.3357164   4.4406179  43.1431097
 184.5742730   4.6801742  43.2272127 185.4547385   4.0481718  44.6387702
 187.6830000   2.1820000  42.9660000 187.7880000   2.6070000  41.8150000
 188.7330000   2.0930000  43.7780000 188.6368242   1.8301142  44.7484332
 190.0600000   2.3780000  43.2720000 190.7366207   1.6894080  43.7780877
 190.0388131   2.1485009  42.2066453 190.5640000   3.7910000  43.4610000
 191.6150000   4.1350000  42.9060000 189.8810000   4.6200000  44.2550000
 189.0561491   4.3121225  44.7499058 190.2880000   6.0050000  44.3920000
 191.2507451   6.1446297  43.9003451 189.2520000   6.9820000  43.7480000
 188.2551857   6.6461505  44.0337721 189.3918987   8.0150785  44.0662408
 189.2900000   6.9860000  42.2490000 188.8080000   5.9120000  41.5350000
 188.3899199   5.0605084  42.0719087 188.8500000   5.9050000  40.1450000
 188.4315574   5.0615431  39.5958306 189.4200000   6.9630000  39.4590000
 189.4669617   6.9542711  38.3700471 189.9310000   8.0340000  40.1630000
 190.3828880   8.8741653  39.6357242 189.8670000   8.0380000  41.5600000
 190.2751883   8.8781105  42.1218689 190.4790000   6.3940000  45.8520000
 189.7640000   5.9160000  46.7490000 191.4440000   7.2830000  46.0660000
 192.0977673   7.4625231  45.3173618 191.6070000   8.0130000  47.3140000
 191.2278632   7.4268963  48.1511600 193.0940000   8.2870000  47.5430000
 193.3824076   8.9296004  46.7111436 193.2448974   8.8194678  48.4820463
 193.9550000   7.0190000  47.5310000 193.7917649   6.5075190  46.5823998
 195.4460000   7.3300000  47.6930000 195.6100946   7.8411080  48.6416519
 196.0152302   6.4005565  47.6784193 195.7752347   7.9699706  46.8743777
 193.4760000   6.0650000  48.6120000 192.4359204   5.7971095  48.4260737
 194.0901504   5.1645579  48.6008392 193.5577766   6.5479027  49.5857641
 190.8490000   9.3280000  47.2120000 190.8100000   9.9420000  46.1480000
 190.2410000   9.7640000  48.3200000 190.1714166   9.1957112  49.1520489
 189.5700000  11.0590000  48.3090000 189.0756889  11.2166378  47.3504041
 188.5050000  11.1090000  49.4280000 187.8427061  10.2467000  49.3511577
 188.9999575  11.1009263  50.3991086 187.6330000  12.3210000  49.4030000
 188.0670000  13.5630000  49.8200000 187.0840000  14.4360000  49.6690000
 187.2459714  15.4888033  49.9002347 186.0110000  13.7990000  49.2300000
 185.0981503  14.2025983  49.0753593 186.3370000  12.4830000  49.0140000
 185.5961072  11.7987910  48.6004336 190.5760000  12.2000000  48.4300000
 190.5640000  13.1510000  47.6320000 191.4670000  12.0930000  49.4140000
 191.2486371  11.3565381  50.0697750 192.5960000  12.9700000  49.7090000
 193.1585374  12.5532992  50.5444707 193.5430000  13.1240000  48.5070000
 192.9982502  13.5849724  47.6830756 194.3778819  13.7637777  48.7929313
 194.0650000  11.7840000  48.0740000 194.2569079  11.1826493  48.9626222
 193.3052394  11.2964650  47.4631191 195.3310000  11.9220000  47.2810000
 196.0717420  12.4631212  47.8697173 195.7157040  10.9322814  47.0349121
 195.0950000  12.6520000  46.0430000 194.1386705  12.8532832  45.7880129
 196.0680000  13.0670000  45.2360000 197.3500000  12.8240000  45.5400000
 197.5788444  12.3229578  46.3865737 198.0817553  13.1429643  44.9212144
 195.7580000  13.7220000  44.1260000 194.7893588  13.9002890  43.9022873
 196.4918750  14.0397454  43.5091013 192.1940000  14.3380000  50.2580000
 193.0800000  15.1380000  50.5820000 190.9070000  14.6270000  50.4170000
 190.1947474  14.0501800  49.9926484 190.4910000  15.8540000  51.1000000
 191.2879360  16.1818708  51.7674526 190.1940000  16.9730000  50.1100000
 190.9327240  16.9252943  49.3099311 189.1986030  16.8157721  49.6945916
 190.2560000  18.3550000  50.7830000 190.8050000  18.4420000  51.8940000
 189.7600000  19.3530000  50.2200000 189.3160000  15.6000000  52.0350000
 188.3100000  16.3180000  52.0290000 189.4510000  14.5860000  52.8930000
 190.2904593  14.0247640  52.8724687 188.4000000  14.2250000  53.8400000
 187.3998672  14.2478122  53.4072030 188.6740000  12.8310000  54.4210000
 189.7256557  12.7870457  54.7041760 187.8020000  12.5190000  55.6440000
 186.7501416  12.5623116  55.3614779 188.0375616  11.5210636  56.0137761
 187.9978441  13.2516290  56.4269425 188.5310000  11.7090000  53.3660000
 189.1824001  11.9519126  52.5264929 188.8596646  10.7750406  53.8218498
 187.0350000  11.5480000  52.8470000 186.7057740  12.4814802  52.3905739
 186.9902225  10.7474965  52.1085635 186.3830378  11.3046104  53.6859318
 188.3550000  15.2880000  54.9310000 189.3650000  15.5290000  55.5990000
 187.2270000  15.9660000  55.0710000 186.4471089  15.7616883  54.4626202
 187.0820000  17.0500000  56.0460000 187.5255519  16.7465392  56.9942998
 187.7890000  18.3420000  55.5590000 187.7494176  19.0595443  56.3785503
 188.8276311  18.0830834  55.3533115 187.1610000  18.9610000  54.3090000
 187.0599304  18.1921837  53.5429666 186.1758326  19.3528917  54.5619192
 188.0460000  20.1030000  53.7760000 188.1924304  20.8390637  54.5664855
 189.0115186  19.6954952  53.4763116 187.3990000  20.7540000  52.6070000
 187.2645790  20.0383040  51.7959447 186.4315188  21.1704271  52.8874778
 188.3100000  21.8640000  52.1510000 189.2064056  21.4782883  51.8906481
 187.8999182  22.3302630  51.3544250 188.4343465  22.5275133  52.9022571
 185.6070000  17.2810000  56.2740000 184.7630000  16.8910000  55.4390000
 185.2350000  17.9400000  57.3620000 186.0660000  18.4920000  58.4540000
 186.7995908  19.1870518  58.0455299 186.5815616  17.6830866  58.9716431
 185.0230000  19.1900000  59.3470000 184.8809407  20.2245820  59.0346569
 185.3344313  19.1657837  60.3912823 183.7490000  18.3610000  59.1360000
 182.8230409  18.8956799  59.3476983 183.8084617  17.4743964  59.7672670
 183.7900000  17.9540000  57.6560000 183.4566697  16.9166227  57.6270614
 182.9480000  18.7800000  56.7090000 181.7860000  18.3980000  56.4820000
 183.4940000  19.8140000  56.0630000 184.4175854  20.1760785  56.2527063
 182.6650000  20.5120000  55.0890000 181.6661640  20.6814803  55.4911222
 183.3000000  21.8690000  54.7670000 182.6014610  22.4463273  54.1613304
 183.4907911  22.3957542  55.7020020 184.5380000  21.7050000  54.0470000
 184.9148012  22.5674544  53.8578093 182.4350000  19.6880000  53.8100000
 181.5620000  20.0520000  53.0070000 183.1580000  18.5830000  53.6110000
 183.9538899  18.3835360  54.1999590 182.8900000  17.6880000  52.4730000
 182.3727552  18.2419807  51.6896339 184.1950000  17.1200000  51.8930000
 184.8525894  16.8955341  52.7328157 183.9990722  16.2066004  51.3313831
 184.8950000  18.1100000  50.9800000 184.2400000  18.9920000  50.4340000
 186.2280000  17.9490000  50.7710000 186.7228099  18.5912286  50.1686667
 186.7179771  17.1878290  51.2189307 181.9220000  16.5480000  52.7940000
 181.8270000  15.5850000  52.0100000 181.1950000  16.6350000  53.9100000
 181.4415643  17.3322685  54.5978386 180.1080000  15.7150000  54.2180000
 179.9021066  15.0802311  53.3561557 180.4920000  14.8210000  55.4050000
 180.9017221  15.3195792  56.2834337 179.5801622  14.2912777  55.6807646
 181.4850000  13.7810000  55.0020000 181.0750000  12.5760000  54.4920000
 180.0090178  12.3529160  54.4471080 182.0090000  11.6350000  54.0310000
 181.6740871  10.6719959  53.6455689 183.3510000  11.9320000  54.0670000
 184.0789496  11.2074293  53.7020526 183.7920000  13.1910000  54.5830000
 184.8530222  13.4345066  54.6381054 182.8530000  14.1020000  55.0140000
 183.1683387  15.0831521  55.3689677 178.8640000  16.5300000  54.4750000
 178.8990000  17.4740000  55.2540000 177.7700000  16.1820000  53.8040000
 177.7850595  15.4358089  53.1235065 176.5210000  16.9150000  54.0010000
 176.6386128  17.5967237  54.8433297 176.1720000  17.7430000  52.7390000
 176.0421501  17.0732966  51.8888610 175.2480166  18.2952987  52.9102337
 176.9799318  18.4438032  52.5287138 175.3860000  15.9710000  54.3320000
 175.2870000  14.8790000  53.7620000 174.5340000  16.3820000  55.2720000
 174.6509553  17.2778623  55.7234992 173.3960000  15.5560000  55.6590000
 173.7158788  14.5255439  55.8137156 172.7920000  16.0820000  56.9640000
 172.5431316  17.1331436  56.8181888 171.8809184  15.5176493  57.1628432
 173.7480000  15.9440000  58.1540000 174.6215126  16.5560216  57.9292642
 173.2317412  16.3534996  59.0222678 174.2790000  14.2700000  58.5190000
 172.7130000  13.3630000  58.7210000 172.1359440  13.4233360  57.7982514
 172.9244064  12.3183013  58.9490627 172.1399182  13.8036679  59.5367759
 172.3380000  15.6220000  54.5750000 172.2270000  16.6260000  53.8730000
 171.5510000  14.5480000  54.4590000 171.6965791  13.7440407  55.0527639
 170.4700000  14.5000000  53.4850000 170.8897765  14.6984826  52.4988502
 170.0397878  13.4986261  53.5013452 169.3630000  15.5240000  53.7720000
 169.3040000  16.1860000  54.8120000 168.4460000  15.6450000  52.8090000
 168.5108051  15.1250610  51.9455400 167.3570000  16.6070000  52.9580000
 167.2184113  16.8464570  54.0123020 167.6730000  17.8980000  52.2010000
 166.8148985  18.5608461  52.3123375 168.5444550  18.3499742  52.6746935
 167.9570000  17.6790000  50.7180000 168.6488737  16.8455804  50.5962484
 167.0265615  17.4574688  50.1952092 168.5830000  18.9540000  50.1310000
 169.4118823  19.2345211  50.7808930 168.9667105  18.6990803  49.1431328
 167.6780000  20.1010000  50.0020000 166.6860169  19.9219279  50.0652624
 168.0930000  21.3710000  49.8910000 167.2040000  22.3460000  49.8070000
 166.2177624  22.1291122  49.8268773 167.5152179  23.3032063  49.7233394
 169.3990000  21.6860000  49.9510000 170.0856633  20.9570070  50.0820069
 169.6872687  22.6501405  49.8647852 166.0250000  16.0330000  52.4960000
 165.1430000  16.7770000  52.0420000 165.8560000  14.7240000  52.6170000
 166.6220240  14.1715638  52.9749397 164.6250000  14.0420000  52.2550000
 163.8512188  14.7825005  52.0524638 164.8070000  13.1650000  51.0020000
 165.5078068  12.4126963  51.3639506 163.8495321  12.6928594  50.7819124
 165.3600000  13.8060000  49.7350000 166.2364376  14.4110550  49.9670916
 165.7530000  12.6910000  48.7890000 164.8769241  12.0857468  48.5560655
 166.1537607  13.1181030  47.8697206 166.5116326  12.0653351  49.2592344
 164.3430000  14.7900000  49.1200000 164.1183362  15.5777601  49.8390686
 164.7646569  15.2321790  48.2173459 163.4265477  14.2561748  48.8685150
 164.2160000  13.1700000  53.4260000 165.0610000  12.7950000  54.2430000
 162.9370000  12.7960000  53.5220000 161.7770000  13.3400000  52.7850000
 161.8271898  13.0123176  51.7466333 161.8071701  14.4288949  52.8236855
 160.5660000  12.7620000  53.5270000 159.7839248  12.5102722  52.8106966
 160.1857759  13.4977349  54.2356784 161.0690000  11.5420000  54.2400000
 160.9980515  10.6692990  53.5908018 160.5146961  11.3559102  55.1599008
 162.5450000  11.8330000  54.5660000 162.6519056  12.3347049  55.5277493
 163.3670000  10.5700000  54.5650000 163.6290000   9.9910000  55.6370000
 163.8230000  10.1280000  53.3920000 163.5951294  10.6066208  52.5322928
 164.5960000   8.9020000  53.3130000 164.2775753   8.2015183  54.0850300
 164.3760000   8.2520000  51.9400000 164.9929007   7.3563491  51.8669095
 163.3257053   7.9783204  51.8395978 164.7310000   9.1580000  50.9020000
 164.5889046   8.7396914  50.0496933 166.0830000   9.0950000  53.5660000
 166.8020000   8.1010000  53.6780000 166.5660000  10.3300000  53.6660000
 165.9334463  11.1164771  53.7038013 168.0060000  10.5940000  53.7150000
 168.5808523   9.6888316  53.9107399 168.4940000  11.2090000  52.3990000
 169.5704307  11.3611219  52.4780953 168.1920000  10.3210000  51.1890000
 167.1156492  10.1688010  51.1089752 168.5585385  10.8035879  50.2829881
 168.6864905   9.3574805  51.3123287 167.8860000  12.5050000  52.2470000
 168.1828029  12.9033252  51.4255103 168.4340000  11.5470000  54.8200000
 169.6330000  11.7930000  54.9450000 167.5040000  12.1090000  55.5940000
 166.5242596  11.8694016  55.5410791 167.9060000  13.1900000  56.4940000
 168.5390146  13.8979896  55.9590773 166.6720000  13.9390000  57.0270000
 167.1248342  14.8273293  57.4673538 166.0102781  14.2347028  56.2128845
 165.8800000  13.2080000  58.0760000 164.9690000  12.2140000  57.7210000
 164.8597236  11.9499150  56.6691363 164.2160000  11.5710000  58.6720000
 163.5340998  10.7696674  58.3874301 164.3320000  11.9410000  59.9980000
 163.5820000  11.3070000  60.9640000 163.0110482  10.6229488  60.6066659
 165.1870000  12.9450000  60.3670000 165.2722387  13.2369293  61.4137149
 165.9390000  13.5850000  59.4120000 166.5978208  14.4053973  59.6966114
 168.7720000  12.7060000  57.6450000 169.3620000  13.5460000  58.3270000
 168.8550000  11.3980000  57.8930000 168.2331372  10.7318959  57.4574642
 169.7840000  10.9160000  58.9020000 170.1741618  11.7506952  59.4843718
 169.0610000   9.9530000  59.8500000 168.5429218   9.1870844  59.2728800
 169.7827768   9.4795839  60.5155940 168.0390000  10.7460000  60.6830000
 168.6047836  11.4555172  61.2868005 167.4098632  11.2899172  59.9784128
 167.1660000   9.8950000  61.5880000 166.5454648  10.5643161  62.1838616
 166.5289713   9.2758557  60.9563718 167.9150000   9.0280000  62.4880000
 168.0340520   8.0729100  62.1818480 168.4380000   9.3900000  63.6570000
 168.3150000  10.6340000  64.1030000 167.8184069  11.3184427  63.5507016
 168.7185610  10.8904816  64.9926378 169.0950000   8.4920000  64.3820000
 169.1919372   7.5459644  64.0418236 169.4947007   8.7592180  65.2702188
 171.0270000  10.2880000  58.3020000 171.7680000   9.5950000  59.0150000
 171.2790000  10.5380000  57.0170000 170.6462442  11.1508482  56.5228983
 172.4150000   9.9930000  56.2940000 172.9668546   9.3002716  56.9293606
 171.9330000   9.2460000  55.0680000 171.1487419   9.8225270  54.5774339
 172.7654919   9.1058117  54.3785042 171.3740000   7.8690000  55.4860000
 172.2204192   7.1925002  55.6044204 170.8730946   7.9948817  56.4458696
 170.4120000   7.2950000  54.4930000 169.7737919   6.5857354  55.0200039
 169.8039129   8.1134685  54.1077222 171.0940000   6.6020000  53.3550000
 171.4808551   7.3569124  52.6704922 171.9215565   6.0142479  53.7522366
 170.1470000   5.6990000  52.6200000 169.3803152   6.2434953  52.2514636
 170.6346742   5.2467040  51.8599328 169.7887452   4.9991455  53.2540002
 173.3060000  11.1490000  55.8610000 172.8280000  12.2280000  55.4940000
 174.6170000  10.9860000  55.9470000 175.0591062  10.2125731  56.4228700
 175.4640000  12.0230000  55.3840000 174.8304917  12.8675189  55.1127911
 176.5610000  12.5190000  56.3420000 177.0644316  13.3880437  55.9184213
 176.1258307  12.7854903  57.3051774 177.8540000  11.3150000  56.6940000
 178.5551288  12.0981678  57.5088404 176.0940000  11.5170000  54.0980000
 176.2670000  10.3150000  53.8900000 176.4440000  12.4790000  53.2540000
 176.3328621  13.4256720  53.5880056 176.8980000  12.2780000  51.8790000
 176.9978098  11.2117418  51.6759465 175.8930000  12.8730000  50.8880000
 175.7036613  13.8868715  51.2405830 176.2559487  12.9079424  49.8607964
 174.6170000  12.0770000  50.9420000 173.6830000  12.2950000  51.9490000
 173.8558032  13.0944484  52.6695003 172.5510000  11.5160000  52.0430000
 171.8268313  11.6703556  52.8429099 172.3690000  10.4950000  51.1370000
 171.2350000   9.7430000  51.2240000 170.6571665  10.0170869  51.9399500
 173.2690000  10.2510000  50.1250000 173.0997099   9.4570883  49.3975761
 174.4050000  11.0350000  50.0410000 175.1450916  10.8407267  49.2647124
 178.2890000  12.8650000  51.6500000 178.5450000  14.0170000  51.9790000
 179.1400000  12.0810000  51.0070000 178.8457818  11.1496516  50.7498520
 180.5030000  12.4930000  50.6770000 180.9337827  13.0751893  51.4916049
 181.3590000  11.2520000  50.4600000 181.3754460  10.7128847  51.4071977
 180.8511536  10.6484072  49.7077582 182.8090000  11.5330000  50.0020000
 182.8046745  12.1426392  49.0984391 183.3556961  12.0535598  50.7882843
 183.6250000   9.9600000  49.6530000 184.3110000   9.5740000  51.2480000
 183.5074002   9.4944525  51.9801192 184.8474796   8.6267153  51.1937602
 184.9991160  10.3639487  51.5489630 180.5190000  13.3650000  49.4290000
 179.9580000  12.9910000  48.3890000 181.1850000  14.5110000  49.5080000
 181.6590516  14.7449830  50.3685965 181.2500000  15.4590000  48.4040000
 180.6962464  15.0661858  47.5512672 180.6420000  16.8030000  48.8040000
 181.3651135  17.2358461  49.4952672 180.5912011  17.4137570  47.9026147
 179.2780000  16.7600000  49.4620000 179.2754873  15.9993002  50.2426602
 178.9600000  18.1380000  50.0850000 178.9618778  18.8991948  49.3048220
 177.9785139  18.1056924  50.5580138 179.7149931  18.3824509  50.8322145
 178.2540000  16.3820000  48.4270000 178.4969987  15.4023147  48.0155783
 177.2667241  16.3473436  48.8876370 178.2552043  17.1220428  47.6267287
 182.6940000  15.6780000  47.9820000 183.6250000  15.3160000  48.7090000
 182.8340000  16.3090000  46.7970000 182.0140392  16.2917400  46.2075378
 184.0610000  16.9060000  46.2630000 183.8609685  17.3201029  45.2747665
 184.5770000  18.0310000  47.1710000 183.7180881  18.5347981  47.6143476
 185.1823206  17.5840351  47.9596123 185.4230000  19.0510000  46.3920000
 185.7770000  18.7420000  45.2290000 185.7320000  20.1340000  46.9150000
 185.1920000  15.9250000  45.9860000 186.1120000  15.7850000  46.8010000
 185.0920000  15.1870000  44.8610000 184.2319485  15.2169597  44.3323099
 186.1550000  14.3010000  44.4020000 186.6678738  13.8616191  45.2575724
 185.5690000  13.1670000  43.5450000 185.1371503  13.5526023  42.6214655
 186.3669976  12.4638580  43.3064810 184.4860000  12.3740000  44.2290000
 184.5550000  12.0930000  45.5970000 185.4058439  12.4488062  46.1780047
 183.5390000  11.3590000  46.2210000 183.6099290  11.1254386  47.2833177
 182.4500000  10.9320000  45.4930000 181.6448735  10.3744372  45.9715342
 182.3840000  11.2220000  44.1210000 181.5328878  10.8744851  43.5353878
 183.3800000  11.9360000  43.5200000 183.3157539  12.1736965  42.4581748
 187.2420000  15.0470000  43.5980000 188.0130000  14.4030000  42.8810000
 187.3140000  16.3740000  43.7030000 186.7032547  16.8658570  44.3395267
 188.2660000  17.1550000  42.9120000 188.0678404  16.9341459  41.8631647
 188.0571956  18.2068900  43.1070063 189.7340000  16.8780000  43.2080000
 190.5990000  17.1280000  42.3550000 190.0490000  16.3680000  44.3910000
 189.3529393  16.2497653  45.1132322 191.4310000  16.0480000  44.7070000
 192.0932646  16.4640499  43.9477852 191.8100000  16.6420000  46.0650000
 190.9936830  16.3439848  46.7229610 192.7372253  16.1812122  46.4056286
 191.9570000  18.1620000  46.0930000 190.9719858  18.6138272  45.9759530
 192.5740000  18.6210000  47.4140000 193.5592954  18.1699176  47.5315437
 192.6698341  19.7067788  47.4129822 191.9334804  18.3140821  48.2408231
 192.7930000  18.6450000  44.9120000 192.3075141  18.3555611  43.9799978
 192.8852219  19.7303842  44.9512118 193.7844783  18.1946733  44.9597047
 191.6830000  14.5530000  44.6740000 192.7670000  14.1070000  45.0650000
 190.7170000  13.7710000  44.1910000 189.8671003  14.1823137  43.8324043
 190.8310000  12.3200000  44.2000000 191.0843619  11.9959677  45.2094107
 189.5100000  11.6620000  43.7920000 189.2476064  11.9697273  42.7797977
 189.6180522  10.5778739  43.8250984 188.7226157  11.9693187  44.4802444
 191.9370000  11.8490000  43.2640000 192.3000000  12.5310000  42.3080000
 192.5040000  10.6860000  43.5910000 192.1951304  10.2060113  44.4242525
 193.5480000  10.0680000  42.7850000 193.5382136  10.4986599  41.7837331
 194.9350000  10.3000000  43.4060000 195.1663178  11.3584336  43.2863768
 194.8542187  10.0639398  44.4670608 196.0610000   9.4530000  42.7750000
 195.9568128   8.4218211  43.1125143 195.9640338   9.4911736  41.6899920
 197.4530000   9.9930000  43.1880000 197.5934364  10.9720966  42.7300192
 197.4765218  10.0932903  44.2731212 198.5490000   9.1220000  42.7750000
 198.9761600   8.5384495  43.4800550 199.0270000   9.0720000  41.5350000
 198.4810000   9.8240000  40.5900000 197.7056534  10.4303332  40.8164901
 198.8427874   9.7872541  39.6477372 200.0360000   8.2550000  41.2260000
 200.4426653   7.6673706  41.9397332 200.3883305   8.2280630  40.2798307
 193.2730000   8.5770000  42.7320000 193.0130000   7.9590000  43.7700000
 193.3450000   7.9900000  41.5370000 193.4038436   8.5222000  40.6806123
 193.2900000   6.5390000  41.4450000 192.4528079   6.1601449  42.0312400
 193.1010000   6.1110000  39.9910000 192.4084918   6.8140629  39.5281456
 194.0710519   6.1799007  39.4987074 192.5660000   4.7150000  39.8490000
 193.2010350   3.9900296  40.3581652 191.5770769   4.7161973  40.3074012
 192.4280000   4.3060000  38.4130000 192.1720000   5.1430000  37.5420000
 192.6600000   3.0280000  38.1400000 192.5819288   2.6955797  37.1894722
 192.9135483   2.3937937  38.8840410 194.5600000   5.9250000  42.0200000
 195.6660000   6.3280000  41.6600000 194.4060000   4.9520000  42.9170000
 193.4836845   4.6983629  43.2411940 195.5610000   4.2900000  43.5240000
 196.4749008   4.8059067  43.2295094 195.4590000   4.3080000  45.0610000
 196.4466744   4.0844413  45.4642618 195.1789981   5.3263265  45.3306482
 194.4440000   3.3340000  45.6380000 193.0930000   3.6880000  45.7410000
 192.7804162   4.6756991  45.4021174 192.1700000   2.8170000  46.2570000
 191.1267967   3.1181668  46.3525371 192.5640000   1.5610000  46.6620000
 191.6220000   0.6860000  47.1560000 190.7366295   1.0568270  47.1703569
 193.8900000   1.1800000  46.5670000 194.2032017   0.1886614  46.8944950
 194.8190000   2.0630000  46.0540000 195.8645973   1.7665704  45.9705981
 195.7440000   2.8690000  43.0210000 196.6720000   2.1850000  43.4580000
 194.8810000   2.4110000  42.1260000 194.0555632   2.9518395  41.9109509
 195.0660000   1.1380000  41.4500000 195.7846829   0.5487656  42.0195585
 193.7540000   0.3640000  41.3720000 193.8894170  -0.5219398  40.7516186
 193.3310000  -0.0590000  42.7780000 193.1949302   0.8264903  43.3988796
 192.3934468  -0.6124152  42.7248516 194.1024424  -0.6932566  43.2146872
 192.7340000   1.2140000  40.8290000 191.9068566   0.7293277  40.7787319
 195.5960000   1.3830000  40.0440000 195.4230000   2.4620000  39.4690000
 196.2660000   0.3660000  39.5010000 196.5906872  -0.3931367  40.0827122
 196.6110000   0.3480000  38.0860000 196.6649482   1.3696093  37.7098310
 197.9710000  -0.3300000  37.8620000 198.1930790  -0.3494300  36.7950405
 198.7250070   0.2637293  38.3787775 198.0240000  -1.7630000  38.3990000
 197.0710000  -2.5300000  38.2660000 199.1590000  -2.1290000  38.9910000
 199.2518464  -3.0627703  39.3645671 199.9219510  -1.4711958  39.0638032
 195.5280000  -0.3450000  37.2680000 195.1100000   0.1740000  36.2270000
 195.0680000  -1.5080000  37.7350000 195.4392609  -1.8504319  38.6096457
 194.0780000  -2.3260000  37.0340000 193.1836071  -1.7176268  36.8996772
 194.5710000  -2.8020000  35.6350000 195.4680087  -3.4082568  35.7612077
 193.4960000  -3.6260000  34.9480000 192.5987757  -3.0202245  34.8210188
 193.8552733  -3.9513566  33.9716984 193.2613240  -4.4986450  35.5575231
 194.8490000  -1.6690000  34.8040000 195.1521025  -1.9695398  33.9441134
 193.7450000  -3.5490000  37.8930000 194.3140000  -4.6320000  37.7120000
 192.9222698  -3.4672471  38.8023245 196.3880000  -3.9180000  40.3660000
 197.3280731  -3.5621999  40.2671577 195.8286167  -3.5747616  39.5982904
 196.4341750  -4.9093682  40.5535007 195.8030000  -3.3260000  41.5640000
 194.9072201  -2.7612376  41.3056959 195.4150000  -4.4370000  42.5550000
 194.9263561  -3.9290251  43.3864372 194.7083874  -5.1174145  42.0797793
 196.6060000  -5.2250000  43.0730000 197.7410000  -4.9900000  42.6060000
 196.3900000  -6.1190000  43.9210000 196.7280000  -2.2310000  42.1510000
 196.9560000  -1.2500000  41.4490000 197.2740000  -2.3540000  43.3700000
 197.2255069  -3.2122509  43.9002387 197.8590000  -1.1690000  44.0140000
 197.0913343  -0.3962882  44.0552917 198.3310000  -1.4660000  45.4390000
 199.1819296  -2.1465975  45.4106234 198.7480000  -0.1580000  46.1070000
 197.8974056   0.5229844  46.1361629 199.0859701  -0.3601129  47.1233794
 199.5587588   0.2982842  45.5390419 197.1920000  -2.0700000  46.2320000
 196.8682382  -2.9957583  45.7563406 197.5275981  -2.2817929  47.2471932
 196.3587570  -1.3680308  46.2643451 198.9770000  -0.5860000  43.1620000
 199.9790000  -1.2480000  42.8630000 198.7960000   0.6740000  42.7850000
 197.9928177   1.1509930  43.1690250 199.6600000   1.4040000  41.8760000
 199.8193475   0.8444554  40.9542530 198.9770000   2.7240000  41.5330000
 197.9839024   2.4406857  41.1843033 198.8914592   3.2482178  42.4848290
 199.6210000   3.6220000  40.5260000 200.5881589   3.9734373  40.8854389
 199.7533578   3.1039240  39.5761681 198.6910000   4.8100000  40.3300000
 197.7202781   4.4471486  39.9921586 198.5735259   5.3278800  41.2818926
 199.2050000   5.7530000  39.3460000 200.0942639   5.5420541  38.9161036
 198.5800000   6.8660000  38.9920000 197.4160000   7.1790000  39.5500000
 197.0108607   6.5663950  40.2433090 196.9413852   8.0281694  39.2784273
 199.1190000   7.6590000  38.0740000 200.0016170   7.4096567  37.6510163
 198.6440087   8.5080578  37.8027383 201.0080000   1.6800000  42.5330000
 201.0710000   1.9090000  43.7400000 202.0990000   1.6830000  41.7630000
 202.2020000   1.3590000  40.3300000 201.3537360   1.7860916  39.7950783
 202.2069581   0.2770814  40.1976125 203.5060000   1.9890000  39.9390000
 203.3360220   3.0215711  39.6340354 203.9461485   1.4338155  39.1106638
 204.3680000   1.9150000  41.1430000 205.0391669   2.7733743  41.1142325
 204.9528354   1.0002154  41.2391052 203.4010000   2.0470000  42.3320000
 203.6361503   1.3646926  43.1488594 203.3680000   3.4690000  42.8560000
 202.9330000   4.3880000  42.1470000 203.8110000   3.6880000  44.0910000
 204.1750000   2.6770000  45.0990000 204.9469560   2.0204866  44.6975347
 203.2965548   2.0868360  45.3600355 204.6700000   3.5160000  46.2550000
 205.7446117   3.6743407  46.1642426 204.4559175   3.0113245  47.1971108
 203.9260000   4.7910000  46.1580000 204.5040879   5.5865938  46.6280467
 202.9289145   4.7589370  46.5971948 203.8250000   5.0420000  44.6490000
 202.8974263   5.5345810  44.3573336 205.0090000   5.8630000  44.1620000
 206.0970000   5.3450000  43.9020000 204.7830000   7.1700000  44.0490000
 203.8516304   7.5520067  44.1309812 205.8810000   8.0830000  43.7650000
 206.4754419   7.6907512  42.9398462 205.3590000   9.4740000  43.3760000
 204.7356746   9.8176143  44.2015264 206.2305138  10.1223129  43.2851483
 204.5580000   9.5180000  42.0840000 205.2467272   9.4302744  41.2437263
 203.8651504   8.6765887  42.0745932 203.7850000  10.8060000  41.9670000
 204.3767718  11.6191469  42.3873536 203.5840104  11.0096414  40.9152240
 202.5100000  10.7350000  42.6830000 202.2253123   9.8344159  43.0407717
 201.7130000  11.7770000  42.8840000 202.0620000  12.9710000  42.4190000
 202.9309039  13.0792755  41.9156288 201.4569148  13.7652969  42.5708684
 200.5730000  11.6270000  43.5500000 200.3141175  10.7169360  43.9033601
 199.9706155  12.4237382  43.6997993 206.7860000   8.1930000  44.9870000
 206.3290000   8.1410000  46.1380000 208.0870000   8.3500000  44.7280000
 208.4494222   8.3173815  43.7858294 209.0340000   8.4960000  45.8290000
 209.0033941   7.5978240  46.4458001 210.4560000   8.6670000  45.2830000
 210.7193325   7.8007404  44.6760819 210.5047914   9.5673974  44.6706243
 211.4659435   8.7931434  46.4146307 211.0979881   8.7520795  47.5865368
 212.7439512   8.9472525  46.0608359 213.4547326   9.0357677  46.7729136
 212.9942021   8.9746224  45.0827121 208.6390000   9.6660000  46.7260000
 208.5960000   9.5350000  47.9550000 208.3210000  10.8140000  46.1280000
 208.4169135  10.8958290  45.1259002 207.8840000  11.9860000  46.8790000
 207.4439463  11.6890245  47.8309755 209.0480000  12.9680000  47.1570000
 209.4599529  13.3192596  46.2109499 208.5410000  14.1390000  47.9470000
 208.1292842  13.7885527  48.8934554 209.3617764  14.8292773  48.1417918
 207.7631880  14.6508559  47.3803311 210.2100000  12.3040000  47.9140000
 210.6031746  11.4763966  47.3235862 210.9995412  13.0361616  48.0833034
 209.8521979  11.9280580  48.8725125 206.7740000  12.6690000  46.0810000
 206.9550000  12.9840000  44.9000000 205.6310000  12.9100000  46.7210000
 205.5848179  12.7179652  47.7114995 204.4340000  13.4150000  46.0580000
 204.6554298  13.6261415  45.0118225 203.2830000  12.3940000  46.1210000
 203.0436577  12.1793217  47.1625030 202.4042879  12.8051766  45.6241105
 203.5851597  11.4737585  45.6210456 203.9880000  14.7130000  46.7150000
 204.0570000  14.8530000  47.9380000 203.4990000  15.6490000  45.9030000
 203.4140667  15.4902673  44.9091742 203.0730000  16.9310000  46.4340000
 203.8378818  17.2920272  47.1215423 202.9700874  17.6316510  45.6053888
 201.7480000  16.8400000  47.1720000 200.8590000  16.0580000  46.8230000
 201.6160000  17.6720000  48.2020000 202.3907610  18.2730218  48.4441106
 200.4140000  17.7260000  49.0280000 199.8076785  16.8352947  48.8633261
 200.7970000  17.7900000  50.5080000 201.1121411  16.8047121  50.8515011
 201.6085883  18.5024603  50.6557320 199.6810000  18.2200000  51.4070000
 198.5920000  17.4110000  51.6210000 198.5302455  16.4395089  51.1306008
 197.5660000  17.8320000  52.4650000 196.7144892  17.1737964  52.6376214
 197.6190000  19.0560000  53.0740000 196.8037173  19.3838361  53.7189322
 198.6850000  19.8580000  52.8740000 198.7331635  20.8288430  53.3671981
 199.7210000  19.4490000  52.0410000 200.5802747  20.1000299  51.8800434
 199.5800000  18.9370000  48.6320000 200.1020000  20.0530000  48.5640000
 198.2880000  18.7230000  48.3570000 197.8962849  17.7921122  48.3673184
 197.4260000  19.8320000  47.9610000 197.9093178  20.7784273  48.2034427
 197.1530000  19.7930000  46.4480000 197.7967692  19.0234176  46.0220853
 196.1094620  19.5080717  46.3140434 197.4120000  21.1200000  45.7420000
 196.7682163  21.8900261  46.1670919 198.4555234  21.4053718  45.8751308
 197.1118568  20.9713039  44.2542404 197.7556241  20.2017204  43.8283251
 196.0683184  20.6863774  44.1202851 197.3524608  22.2422196  43.5350158
 197.6733232  23.0413558  44.0627734 197.1654593  22.3800717  42.2254632
 196.7447396  21.3741661  41.4638535 196.5580280  20.4732075  41.8804018
 196.6138925  21.5158631  40.4724401 197.4125280  23.5681483  41.6810995
 197.7319079  24.3299314  42.2622906 197.2796349  23.7031305  40.6890219
 196.0910000  19.9030000  48.6890000 195.2810000  20.7730000  48.3540000
 195.8320000  19.0280000  49.6700000 196.5327306  18.3468109  49.9250637
 194.5700000  19.0200000  50.3890000 193.7698340  19.2227808  49.6771619
 194.4289779  18.0291710  50.8208217 194.5180000  20.0510000  51.4950000
 195.2240000  21.0670000  51.4720000 193.6950000  19.7770000  52.5020000
 193.1958959  18.8991614  52.5218470 193.4340000  20.7440000  53.5600000
 193.6519247  21.7674586  53.2548106 191.9630000  20.6560000  53.9560000
 191.7867618  19.6551393  54.3501042 191.5540000  21.7060000  55.0150000
 191.7295296  22.7071882  54.6214124 190.4966542  21.5899419  55.2530117
 192.1471139  21.5620439  55.9181020 191.1830000  20.8150000  52.7610000
 190.2494850  20.7640208  52.9790623 194.3670000  20.4720000  54.7290000
 194.4230000  19.3420000  55.2380000 195.0750000  21.5180000  55.1650000
 194.8975134  22.4453814  54.8064451 196.1770000  21.3390000  56.1090000
 196.9037636  20.6158405  55.7389269 196.8940000  22.6830000  56.3410000
 196.1413252  23.4564737  56.4937032 197.8050000  22.6190000  57.5510000
 198.5582789  21.8460086  57.3988285 198.2962265  23.5823470  57.6879659
 197.2164525  22.3825596  58.4374589 197.7010000  23.0460000  55.1070000
 197.0343732  23.1335486  54.2490688 198.2083686  23.9967183  55.2707421
 198.4403661  22.2686712  54.9141309 195.6720000  20.7410000  57.4150000
 196.2720000  19.7990000  57.9560000 194.5500000  21.2580000  57.9230000
 193.9946444  21.9142347  57.3928722 194.1070000  20.9070000  59.2820000
 194.8688056  21.2229241  59.9947014 192.7850000  21.5780000  59.6510000
 192.7999640  22.6186122  59.3269606 191.9615590  21.0575264  59.1619682
 192.5980000  21.5200000  61.1500000 192.7220187  20.4827631  61.4612232
 193.3763535  22.1313493  61.6066398 191.2590000  22.0130000  61.5860000
 190.4681610  21.4108014  61.1387535 191.1747129  21.9738140  62.6720293
 191.0970000  23.3710000  61.1620000 191.8937144  23.8299082  60.7439703
 189.9650000  24.0550000  61.2870000 188.8890000  23.5020000  61.8550000
 188.9332196  22.5519192  62.1948398 188.0365566  24.0367008  61.9418043
 189.9210000  25.2930000  60.8400000 190.7397553  25.7017382  60.4125974
 189.0687060  25.8279604  60.9266664 193.9230000  19.4090000  59.4660000
 194.2720000  18.8720000  60.5230000 193.3620000  18.7300000  58.4730000
 193.0889971  19.2241305  57.6355014 193.0430000  17.3030000  58.5730000
 193.0550900  16.9787520  59.6135846 191.6260000  17.0670000  57.9980000
 191.6262853  17.2498260  56.9234425 191.3287458  16.0361455  58.1905591
 190.6310000  18.0240000  58.6810000 190.1340000  17.7440000  59.9580000
 190.4309653  16.8116287  60.4382029 189.2770000  18.6260000  60.6170000
 188.9124506  18.4094400  61.6211451 188.8480000  19.7550000  59.9580000
 187.9780000  20.6540000  60.5610000 187.7295424  20.3956650  61.4515793
 189.3220000  20.0560000  58.6820000 188.9975123  20.9669879  58.1790991
 190.2070000  19.1950000  58.0530000 190.5799398  19.4295523  57.0560039
 194.0580000  16.3960000  57.8910000 193.8600000  15.1820000  57.8680000
 195.1550000  16.9230000  57.3910000 195.3641828  17.9059760  57.4914987
 196.0940000  16.0850000  56.6330000 195.5336227  15.4397619  55.9564320
 197.0040000  16.9940000  55.8010000 197.5784438  17.6398828  56.4650405
 197.6860419  16.3830980  55.2096305 196.3959480  17.6067403  55.1354767
 196.9500000  15.1920000  57.5310000 197.4220000  15.6160000  58.5880000
 197.2380000  13.9680000  57.0890000 196.8473571  13.5769838  56.2436576
 198.1240000  13.1320000  57.8930000 197.8075551  13.1520405  58.9358615
 198.0830000  11.6750000  57.3940000 198.4524091  11.0177910  58.1812182
 197.0537398  11.4093493  57.1528501 198.8850000  11.5300000  56.2480000
 198.8512722  10.6190290  55.9470114 199.5610000  13.6330000  57.8730000
 199.9620000  14.4360000  57.0120000 200.3720000  13.1170000  58.8130000
 200.0134415  12.5740228  59.5854707 201.8030000  13.4160000  58.7810000
 201.9632164  14.4923157  58.8440420 202.5280000  12.7410000  59.9590000
 202.3424404  11.6678783  59.9134285 204.0260000  12.9990000  59.9030000
 204.2123818  14.0719619  59.9489944 204.5112682  12.5099197  60.7476394
 204.4293352  12.6002631  58.9721771 201.9950000  13.2670000  61.2710000
 200.9279843  13.0556874  61.3411890 202.5160459  12.7815988  62.0962251
 202.1558408  14.3437848  61.3235879 202.3960000  13.0010000  57.4450000
 203.1840000  13.7430000  56.8420000 201.9920000  11.8230000  56.9410000
 201.3393202  11.2379734  57.4428489 202.5290000  11.3320000  55.6680000
 203.6104133  11.2287382  55.7573391 201.9370000   9.9710000  55.2720000
 200.8961249  10.1678882  55.0152641 202.4538941   9.5626392  54.4035750
 201.9750000   8.9480000  56.3810000 203.0700000   8.6160000  56.9030000
 200.7830000   8.3710000  56.7210000 200.7516926   7.6798640  57.4568334
 199.9390983   8.6384833  56.2348072 202.2820000  12.3140000  54.5320000
 203.1690000  12.5480000  53.6990000 201.0760000  12.8740000  54.4720000
 200.3352033  12.5688943  55.0870041 200.7690000  13.8860000  53.4700000
 200.9888081  13.4876633  52.4794893 199.2830000  14.2540000  53.5310000
 199.0494727  14.6628852  54.5140452 199.0607997  14.9983207  52.7663341
 198.6800236  13.3629769  53.3560813 201.6530000  15.1120000  53.6620000
 202.1230000  15.7100000  52.6820000 201.9500000  15.4520000  54.9090000
 201.6179597  14.9063695  55.6913912 202.8120000  16.6250000  55.1860000
 202.4149558  17.4886436  54.6525445 202.8760000  16.9570000  56.6690000
 202.7645029  16.0428579  57.2521053 203.8062767  17.4528914  56.9460867
 201.7810000  17.8550000  57.0790000 201.8030000  19.1970000  56.8540000
 200.7080000  19.7170000  57.3300000 200.5388063  20.7924484  57.2763044
 199.9660000  18.7520000  57.8210000 199.0545757  18.8606494  58.2424273
 200.6130000  17.5840000  57.6750000 200.1535353  16.6591450  58.0237643
 204.2350000  16.3240000  54.7440000 204.8180000  17.1950000  54.1490000
 204.6820000  15.0740000  54.9000000 204.0421524  14.3885673  55.2753350
 206.0760000  14.6440000  54.5880000 206.7642729  15.4667133  54.7817071
 206.4850000  13.4520000  55.4510000 205.6428982  12.7603958  55.4255539
 207.3413316  12.9995364  54.9509270 206.8460000  13.7580000  56.8970000
 207.6883804  14.4492355  56.9232588 205.9899473  14.2100926  57.3978874
 207.2273494  12.4651312  57.6102236 206.3852490  11.7735256  57.5847765
 208.0836819  12.0126696  57.1101510 207.5891847  12.7718418  59.0595786
 208.4315643  13.4630780  59.0858384 206.7331311  13.2239311  59.5604645
 207.9567823  11.5256013  59.7470781 208.7502729  11.1067477  59.2833605
 208.1964229  11.7287333  60.7069791 207.1762043  10.8851106  59.7232312
 206.2380000  14.2670000  53.1140000 207.2360000  13.6900000  52.7840000
 205.2420000  14.5600000  52.2940000 204.3516009  14.7641454  52.7248289
 205.2780000  14.3340000  50.8440000 204.2911501  14.4961463  50.4104853
 206.2590000  15.3120000  50.2030000 207.1552808  15.3429956  50.8225314
 206.5317014  15.0379938  49.1838560 205.6400000  16.6850000  50.1830000
 206.0530000  17.5810000  50.8980000 204.5950000  16.8500000  49.4050000
 204.1432538  17.7520018  49.3558279 204.2478955  16.0741325  48.8594279
 205.3950000  12.8500000  50.5130000 205.7790000  12.6280000  49.3720000
 204.9000000  12.1520000  51.2670000 204.5609923  12.4335440  52.1757938
 204.7860000  10.7510000  50.8920000 205.6712261  10.4450780  50.3344288
 204.6640000   9.8700000  52.1380000 204.0179466  10.3895132  52.8456866
 204.1922362   8.9353946  51.8345996 206.0040000   9.5710000  52.7990000
 206.3225758   8.5794788  52.4772922 206.7223080  10.3134555  52.4512996
 205.9290000   9.6110000  54.3140000 205.1620548  10.3183637  54.6294848
 205.6898366   8.6202635  54.7004473 207.2120000  10.0330000  54.8700000
 207.5176167  10.9701310  54.6498107 207.9940000   9.2730000  55.6300000
 207.6190000   8.0430000  55.9510000 206.7363134   7.6839090  55.6163090
 208.2176420   7.4704302  56.5288332 209.1500000   9.7490000  56.0740000
 209.4319907  10.6883127  55.8326022 209.7427545   9.1698764  56.6513704
 203.5690000  10.5640000  49.9950000 202.5760000  11.2910000  50.1040000
 203.6570000   9.5960000  49.0820000 204.5158303   9.0928221  48.9107638
 202.4860000   9.2550000  48.2850000 202.1748041  10.1297789  47.7140200
 202.7740000   8.1210000  47.3170000 203.5996458   8.4232162  46.6727379
 203.0668885   7.2445370  47.8950389 201.5460000   7.7780000  46.4510000
 201.6959210   6.7824610  46.0332362 200.6796998   7.7672160  47.1124430
 201.3090000   8.7740000  45.3190000 202.0880000   8.7280000  44.3380000
 200.3600000   9.5850000  45.3910000 201.3600000   8.8440000  49.2220000
 201.5540000   8.0380000  50.1400000 200.1850000   9.4110000  49.0130000
 200.0098249  10.0434736  48.2452825 199.1200000   9.1780000  49.9680000
 199.5280428   9.1422311  50.9781093 198.0910000  10.3040000  49.8970000
 197.9737944  10.5904953  48.8518768 197.1435664   9.9216389  50.2768285
 198.5060000  11.5060000  50.7030000 198.4668957  11.2796063  51.7685128
 199.5169995  11.8119366  50.4339555 197.3730000  12.8410000  50.3440000
 196.1520000  12.5850000  51.6660000 196.6424821  12.6697803  52.6357106
 195.3684731  13.3387858  51.5885840 195.7118220  11.5927008  51.5675782
 198.4780000   7.8180000  49.7180000 198.4520000   7.3090000  48.5940000
 198.0150000   7.2040000  50.8030000 198.0906572   7.6684587  51.6966741
 197.4070000   5.8990000  50.7610000 197.3444027   5.5488788  49.7306622
 197.9946994   5.1938287  51.3487433 196.0100000   5.9790000  51.3400000
 195.5320000   7.0490000  51.7650000 195.3590000   4.8170000  51.3520000
 195.7524134   3.9956750  50.9152502 194.0470000   4.7100000  51.9620000
 193.3444503   5.3848401  51.4730072 193.5350000   3.2780000  51.8100000
 194.3063118   2.6056067  52.1855858 192.6374367   3.1773945  52.4202121
 193.2110000   2.9220000  50.3730000 192.3016296   3.4483707  50.0830341
 194.0367342   3.2491858  49.7411657 193.0090000   1.4490000  50.2060000
 192.5021838   1.0399026  51.0799998 192.4121832   1.2523077  49.3153702
 194.2920000   0.7880000  50.0610000 195.1342717   1.3189911  50.2304883
 194.4060000  -0.5040000  49.7490000 193.3100000  -1.2280000  49.5120000
 192.3996924  -0.7943215  49.5699912 193.3959878  -2.2062106  49.2757592
 195.5980000  -1.0500000  49.6390000 196.4234136  -0.4882393  49.7913724
 195.6820882  -2.0283599  49.4026955 194.1130000   5.0980000  53.4280000
 193.1540000   5.6590000  53.9740000 195.2500000   4.8230000  54.0740000
 196.0087507   4.3208926  53.6354971 195.3650000   5.1500000  55.4830000
 194.4842631   4.7878848  56.0133529 196.6160000   4.4990000  56.1040000
 196.6800656   4.6457768  57.1821704 196.5330081   3.4340239  55.8871169
 197.9200000   4.9510000  55.5330000 198.1280000   5.1420000  54.1820000
 199.3870000   5.5010000  53.9800000 199.7492791   5.7105729  52.9735548
 200.0050000   5.5350000  55.1500000 200.9710879   5.7848697  55.3060100
 199.1170000   5.1730000  56.1320000 199.4461492   5.1133289  57.1694013
 195.3460000   6.6540000  55.7140000 194.9200000   7.0880000  56.7770000
 195.7600000   7.4650000  54.7340000 196.1369480   7.1259437  53.8604725
 195.7640000   8.9090000  54.9780000 196.1157423   9.1266148  55.9864743
 196.7040000   9.5750000  53.9800000 196.3920733   9.3617859  52.9575810
 196.6340488  10.6469767  54.1645885 198.1320000   9.1230000  54.1750000
 198.6020000   9.1440000  55.3310000 198.7880000   8.6940000  53.1990000
 194.3590000   9.5050000  54.9300000 194.0670000  10.4700000  55.6610000
 193.4390000   8.9190000  54.1420000 193.6657362   8.2445267  53.4252185
 192.0410000   9.3270000  54.2940000 191.9698200  10.4092716  54.1857375
 191.1430000   8.6710000  53.2450000 191.4811833   7.6348218  53.2368724
 190.0937889   8.7079242  53.5380744 191.3020000   9.2670000  51.8540000
 191.7150000  10.4300000  51.7490000 190.9100000   8.5810000  50.8720000
 191.5200000   8.9990000  55.6830000 190.7280000   9.7740000  56.2530000
 191.9210000   7.8420000  56.2440000 192.4836497   7.1701819  55.7418196
 191.4600000   7.4940000  57.5870000 190.3903855   7.6889007  57.6647026
 191.7140000   6.0010000  57.8980000 192.7889595   5.8419563  57.8127573
 191.3967049   5.7950694  58.9202605 190.9820000   5.0610000  56.9380000
 191.1433130   5.4230608  55.9226228 191.4640000   3.6490000  57.0460000
 191.3025831   3.2860665  58.0610481 190.9135057   3.0219675  56.3446534
 192.5276241   3.6086404  56.8111059 189.4830000   5.1010000  57.2300000
 189.1130850   6.1174361  57.0953899 188.9611325   4.4314532  56.5462876
 189.3037379   4.7826915  58.2569585 192.0980000   8.3770000  58.6600000
 191.4870000   8.6180000  59.7030000 193.3240000   8.8620000  58.4560000
 193.9002192   8.5564517  57.6848249 193.8700000   9.8460000  59.3770000
 193.9321171   9.4373139  60.3855714 195.2810000  10.2210000  58.9130000
 195.3733339  10.1250569  57.8311642 195.4685282  11.2548810  59.2028676
 196.3930000   9.3940000  59.5170000 197.2020000   8.4990000  58.8870000
 197.0121220   8.3279151  57.8273887 198.1430000   7.9740000  59.7890000
 198.8428590   7.2695081  59.6046415 197.9030000   8.5640000  61.0130000
 198.5340000   8.3620000  62.2510000 199.3638697   7.6580954  62.3137151
 198.0470000   9.0880000  63.3320000 198.5093397   8.9491353  64.3092709
 196.9910000   9.9840000  63.2070000 196.6359099  10.5563369  64.0639953
 196.3490000  10.1790000  61.9710000 195.5335395  10.8998721  61.9121071
 196.8040000   9.4460000  60.8620000 192.9830000  11.0870000  59.4210000
 192.7650000  11.6850000  60.4860000 192.5280000  11.5470000  58.2520000
 192.7815198  11.1216308  57.3717227 191.6720000  12.7350000  58.2280000
 192.1820486  13.5767253  58.6964529 191.3480000  13.1040000  56.7830000
 190.8777109  12.2585791  56.2808138 190.6735376  13.9599904  56.7610715
 192.5600000  13.4380000  56.1150000 192.3690840  13.6722917  55.2038149
 190.3960000  12.4770000  59.0210000 189.9590000  13.3410000  59.7930000
 189.8160000  11.2780000  58.8800000 190.1509864  10.6236869  58.1873544
 188.6470000  10.9080000  59.6740000 187.8330711  11.6148021  59.5126008
 188.1750000   9.5040000  59.2380000 187.7447736   9.6725815  58.2507894
 189.0069135   8.8044351  59.1565815 187.1080000   8.9210000  60.1660000
 187.5163678   8.8873353  61.1760511 185.8040000   9.7710000  60.1620000
 185.3947666   9.8047419  59.1523028 185.0739800   9.3205360  60.8344981
 186.0288230  10.7837863  60.4963935 186.8490000   7.4660000  59.7930000
 187.7712267   6.8942133  59.8962343 186.0886230   7.0506465  60.4543695
 186.5016710   7.4111582  58.7612763 188.9530000  10.9490000  61.1600000
 188.1890000  11.5240000  61.9540000 190.0800000  10.3490000  61.5660000
 190.6517450   9.8276025  60.9168840 190.4870000  10.3900000  62.9710000
 189.7738949   9.8473864  63.5916052 191.8620000   9.7280000  63.1120000
 191.8444876   8.6854461  62.7943934 192.5676665  10.2836182  62.4944053
 192.4060000   9.7420000  64.4980000 192.0580000   8.7320000  65.3890000
 191.3837245   7.9387230  65.0662555 192.5640000   8.7300000  66.6830000
 192.2754060   7.9486327  67.3860501 193.4510000   9.7410000  67.0830000
 193.8594976   9.7434722  68.0935560 193.8130000  10.7540000  66.1750000
 194.4912074  11.5559002  66.4667037 193.2910000  10.7200000  64.8900000
 193.5803150  11.4797604  64.1639416 190.5220000  11.8200000  63.4880000
 189.9640000  12.1280000  64.5400000 191.1950000  12.6980000  62.7570000
 191.6863873  12.4132530  61.9218012 191.3010000  14.1050000  63.1850000
 191.6936755  14.1609627  64.2002701 192.2460000  14.8540000  62.2560000
 191.9090532  14.5685503  61.2594637 192.0982260  15.9248128  62.3960817
 193.7250000  14.5220000  62.4060000 194.2800000  14.2190000  63.6580000
 193.6356332  14.1954903  64.5368278 195.6440000  13.9490000  63.7850000
 196.0660835  13.6633612  64.7485133 196.4640000  14.0200000  62.6570000
 197.7990000  13.8010000  62.7520000 198.0838318  13.6027279  63.6470747
 195.9190000  14.3450000  61.4260000 196.5660145  14.4145894  60.5515687
 194.5890000  14.5760000  61.3050000 194.1633344  14.8119525  60.3296871
 189.9240000  14.7620000  63.2200000 189.6060000  15.5040000  64.1580000
 189.0730000  14.4590000  62.2340000 189.3504357  13.8544911  61.4739357
 187.7230000  15.0220000  62.2150000 187.7762980  16.1104170  62.1903654
 186.9610000  14.5410000  60.9760000 187.1100271  13.4640505  60.8980896
 185.9039686  14.7500331  61.1405902 187.4030000  15.1920000  59.7220000
 187.3587887  16.2752093  59.8351542 188.4258340  14.8925331  59.4934565
 186.3270000  14.6950000  58.3730000 184.7240000  14.7770000  59.1520000
 184.5397052  15.7936981  59.4990725 183.9551575  14.4941021  58.4330072
 184.6964129  14.0933660  60.0005191 186.9450000  14.6330000  63.4600000
 186.2690000  15.4720000  64.0820000 187.0200000  13.3590000  63.8390000
 187.5840605  12.6872802  63.3382729 186.2230000  12.8900000  64.9600000
 185.1988129  13.2508335  64.8654531 186.2020000  11.3730000  64.9880000
 187.2292496  11.0177698  65.0696641 185.6498145  11.0959124  65.8860054
 185.5460000  10.7440000  63.7790000 186.1478701  10.9013807  62.8839667
 185.4410000   9.2090000  64.0740000 184.8388456   9.0507915  64.9686949
 184.9721048   8.7070763  63.2276486 186.4388908   8.7996077  64.2312012
 184.1270000  11.2890000  63.5340000 184.1739882  12.3655852  63.3701224
 183.6986309  10.8066207  62.6554151 183.5023855  11.0811707  64.4027708
 186.7330000  13.4340000  66.2700000 185.9320000  13.7380000  67.1560000
 188.0630000  13.5820000  66.4250000 188.7264457  13.1973894  65.7677224
 188.5770000  14.2560000  67.6120000 188.2140204  13.8430559  68.5531813
 190.1280000  14.2330000  67.6260000 190.4944731  14.5230580  66.6412853
 190.6750000  15.2060000  68.6830000 190.3093047  14.9162903  69.6681072
 191.7645415  15.1749768  68.6768908 190.3395548  16.2176237  68.4545362
 190.6480000  12.7760000  67.8180000 190.2913432  12.1514814  66.9989307
 191.7379727  12.7767244  67.8256579 190.2787922  12.3795799  68.7638528
 188.0470000  15.6820000  67.6680000 187.5630000  16.1380000  68.7050000
 188.0700000  16.3900000  66.5350000 188.4535986  16.0282989  65.6735340
 187.5770000  17.7640000  66.5500000 188.0688902  18.3428209  67.3317350
 187.8870000  18.4040000  65.2020000 188.9389501  18.2129990  64.9898238
 187.2696148  17.9009495  64.4577717 187.6200000  19.9210000  65.1500000
 186.5841782  20.1084124  65.4329321 188.2847763  20.4086688  65.8629872
 187.8740000  20.4790000  63.7560000 187.2210000  20.0500000  62.7730000
 188.7270000  21.3630000  63.6280000 186.0860000  17.8210000  66.8530000
 185.6410000  18.7120000  67.5940000 185.3140000  16.8570000  66.3450000
 185.7008397  16.1358384  65.7530707 183.8770000  16.8070000  66.6570000
 183.3806783  17.6921293  66.2591179 183.2400000  15.5680000  66.0320000
 183.9188784  14.7269330  66.1728179 182.2862714  15.3487539  66.5120342
 182.9640000  15.6600000  64.5350000 183.1910000  16.8410000  63.8280000
 183.6038403  17.7068371  64.3456765 182.8910000  16.9190000  62.4570000
 183.0509759  17.8466696  61.9075116 182.3820000  15.7910000  61.7960000
 182.1278405  15.8446412  60.7374040 182.2030000  14.6090000  62.4910000
 181.8671523  13.7138179  61.9675924 182.4560000  14.5620000  63.8820000
 182.2481121  13.6510399  64.4432791 183.6600000  16.7260000  68.1660000
 182.8100000  17.4240000  68.7340000 184.4070000  15.8530000  68.8260000
 185.1486527  15.3526920  68.3572330 184.1320000  15.5330000  70.2270000
 183.0580786  15.6122134  70.3958702 184.5660000  14.0920000  70.5060000
 185.6407600  13.9990164  70.3499711 184.3252708  13.8326389  71.5369615
 184.0414821  13.4166799  69.8300392 184.8170000  16.5090000  71.1960000
 184.2130000  16.8770000  72.2290000 186.0360000  16.9560000  70.8750000
 186.4369580  16.6422601  70.0027046 186.8410000  17.8350000  71.7360000
 186.5439104  17.8167108  72.7845716 188.3460000  17.4840000  71.6420000
 188.6625869  17.5561739  70.6014891 189.1780000  18.4500000  72.4980000
 188.8622800  18.3780509  73.5387907 190.2333033  18.1885364  72.4200762
 189.0298202  19.4700705  72.1435983 188.6230000  16.0560000  71.9940000
 188.0821656  15.4013119  71.3106379 189.6924658  15.8619591  71.9122034
 188.2963959  15.8632111  73.0158919 186.6350000  19.2950000  71.3690000
 186.6790000  20.1840000  72.2320000 186.3730000  19.5350000  70.0900000
 186.4345043  18.7705546  69.4327788 185.9960000  20.8650000  69.5810000
 185.2052998  20.7150969  68.8458664 185.6038719  21.4324270  70.4250151
 187.1160000  21.6450000  68.9440000 186.8630000  22.7260000  68.4210000
 188.3180000  21.1070000  69.0070000 188.4820380  20.2222250  69.4656547
 189.4630000  21.7960000  68.3900000 189.1645630  22.2018596  67.4234016
 189.9540000  22.9370000  69.2650000 190.8839463  23.3081548  68.8342528
 189.2009195  23.7244748  69.2357908 190.1930000  22.5230000  70.6960000
 189.2342519  22.3073727  71.1676013 190.8028009  21.6196157  70.6840924
 190.9040000  23.5730000  71.5090000 191.2370000  23.3670000  72.6680000
 191.1570000  24.7100000  70.8980000 191.6316813  25.4512306  71.3933345
 190.8754158  24.8365522  69.9363367 190.6070000  20.7980000  68.2070000
 190.5310000  19.7390000  68.7540000 191.5530000  21.1470000  67.3570000
 191.4307521  21.9686116  66.7824488 192.7740000  20.3450000  67.1770000
 192.7339056  19.4630816  67.8163056 192.9060000  19.8900000  65.7260000
 192.7866920  20.7872680  65.1187316 193.9077088  19.4850625  65.5821071
 191.8750000  18.8530000  65.3060000 190.8989332  19.1448135  65.6936071
 191.8100000  18.7560000  63.8060000 192.7856500  18.4637574  63.4176700
 191.0679509  18.0100161  63.5214443 191.5292419  19.7238536  63.3906270
 192.1980000  17.4860000  65.8830000 192.2070825  17.5433885  66.9714501
 191.4421021  16.7684804  65.5638052 193.1769940  17.1635068  65.5285034
 193.9440000  21.2120000  67.6130000 193.8710000  22.3990000  67.4640000
 195.0490000  20.6490000  68.0980000 195.2650000  19.2210000  68.2440000
 195.5824569  18.7803210  67.2989479 194.3563215  18.7267536  68.5876900
 196.3550000  19.2070000  69.2840000 196.9423046  18.2937959  69.1879235
 195.9130881  19.2511261  70.2794236 197.1770000  20.4090000  69.0170000
 197.9260250  20.2775897  68.2361083 197.6651516  20.7275022  69.9380667
 196.1510000  21.4550000  68.5820000 195.7495933  22.0070400  69.4318369
 196.8060000  22.4340000  67.6010000 197.3220000  23.4180000  68.0630000
 196.7990000  22.1130000  66.3090000 196.3945089  21.2323980  66.0243486
 197.3960000  22.9680000  65.2800000 198.1203102  23.6511915  65.7235351
 198.1150000  22.0900000  64.2600000 198.2970306  22.6768840  63.3597049
 199.0564094  21.6731170  64.6178505 197.2280000  20.8850000  63.8340000
 196.2630000  20.8540000  62.8260000 196.1067908  21.7499247  62.2251527
 195.6790000  19.5960000  62.8180000 194.9553391  19.2931101  62.1818615
 196.2470000  18.8310000  63.7930000 196.0030000  17.5110000  64.1400000
 195.2408226  16.9679238  63.5812044 196.7300000  16.9720000  65.1580000
 196.5416980  15.9400708  65.4542505 197.7000000  17.6950000  65.8270000
 198.2931329  17.2622223  66.6326031 197.9440000  19.0270000  65.4740000
 198.7508388  19.5482247  65.9892054 197.2050000  19.6020000  64.4550000
 196.3830000  23.8590000  64.5500000 196.7210000  24.4280000  63.5080000
 195.1730000  24.0040000  65.0690000 194.9490221  23.5993255  65.9668707
 194.1230000  24.7300000  64.3540000 193.9206064  24.2723093  63.3856740
 192.8590000  24.6710000  65.1920000 192.7363786  23.6123744  65.4208559
 193.1141050  25.2120086  66.1032251 191.5650000  25.2180000  64.6260000
 191.6213310  25.1688804  63.5385650 190.7471495  24.5880076  64.9757602
 191.3260000  26.6020000  65.0400000 191.3132406  26.6668437  66.1279942
 192.1114966  27.2476327  64.6472495 190.0180000  27.0740000  64.5200000
 189.2338765  27.0929886  65.1563090 189.8290000  27.4730000  63.2740000
 190.8830000  27.4700000  62.4770000 191.7799789  27.1709805  62.8321286
 190.7867539  27.7667420  61.5163853 188.6280000  27.8640000  62.8140000
 187.8282790  27.8589037  63.4308634 188.5307795  28.1611043  61.8535960
 194.5280000  26.1860000  64.1080000 194.2060000  26.7490000  63.0580000
 195.2710000  26.7880000  65.0350000 195.5524500  26.2741499  65.8577048
 195.6160000  28.2240000  64.9530000 194.8888293  28.7530342  64.3370091
 195.6030000  28.8350000  66.3610000 196.3320743  28.3079535  66.9764445
 195.8824010  29.8860148  66.2874953 194.2250000  28.7200000  66.9970000
 193.4962110  28.9461356  66.2186491 194.1072433  27.6838792  67.3143155
 194.0040000  29.6260000  68.1640000 194.3798064  30.6137279  67.8970502
 192.9306808  29.6829680  68.3452183 194.7030000  29.1420000  69.4190000
 194.2780775  28.1831369  69.7158551 195.7655728  29.0187291  69.2096138
 194.5220000  30.1470000  70.5460000 193.5374826  30.2610480  70.7404694
 194.9922617  29.8118905  71.3746468 194.9160573  31.0354568  70.2712957
 196.9440000  28.4910000  64.2510000 197.3630000  29.6590000  64.1540000
 197.6040000  27.4520000  63.7490000 197.2658651  26.5252104  63.9653914
 198.8130000  27.5760000  62.9460000 199.1984357  28.5941886  62.9992019
 199.8960000  26.5930000  63.4200000 199.4534904  25.5993425  63.4902170
 201.0730000  26.5560000  62.4610000 201.5163485  27.5492716  62.3906125
 201.8189866  25.8508562  62.8275746 200.7296361  26.2412800  61.4755297
 200.3750000  26.9860000  64.8120000 201.4605117  26.8899014  64.8350267
 200.0991951  28.0266486  64.9825333 199.7860000  26.1440000  65.8650000
 200.0617728  25.1031920  65.6953889 200.1587904  26.4641890  66.8379366
 198.7004554  26.2399376  65.8428938 198.4220000  27.3240000  61.4950000
 197.9230000  26.2460000  61.1480000 198.6140000  28.3310000  60.6470000
 199.0029246  29.2054676  60.9697125 198.2180000  28.2250000  59.2470000
 197.5116054  27.4053045  59.1158315 197.5420000  29.5320000  58.8020000
 198.0649845  30.3488990  59.2992549 197.6818465  29.6144547  57.7241576
 196.0520000  29.6080000  59.1290000 195.9484995  29.5498945  60.2125185
 195.6865580  30.5741227  58.7809180 195.2400000  28.4960000  58.4820000
 195.7624998  27.5503216  58.6261713 194.2635950  28.4482093  58.9641295
 195.0580000  28.7530000  56.9920000 195.0871915  29.8287613  56.8188353
 195.8779294  28.2766171  56.4545298 193.7590000  28.2060000  56.5030000
 192.9990850  28.6476099  57.0006038 193.6666271  28.3909773  55.5143895
 193.7319217  27.2091181  56.6629759 199.3810000  27.9100000  58.3100000
 199.1410000  27.4680000  57.1810000 200.6190000  28.1220000  58.7580000
 200.7404991  28.6973650  59.5791531 201.8110000  27.5850000  58.1060000
 201.9259063  28.0053388  57.1068949 203.0270000  27.9590000  58.9320000
 202.8747540  28.9233990  59.4166184 203.1000807  27.1794200  59.6902970
 204.2940000  27.9970000  58.1310000 204.5090000  27.0780000  57.3130000
 205.0470000  28.9890000  58.2740000 201.8080000  26.0710000  57.9210000
 202.0160000  25.3370000  58.8860000 201.6870000  25.6060000  56.6730000
 201.6108390  26.2312792  55.8834908 201.6030000  24.1660000  56.4280000
 200.7397042  23.7397389  56.9390001 201.4480000  23.9280000  54.9250000
 200.5016454  24.3757163  54.6215823 202.2694370  24.4444498  54.4283907
 201.4620000  22.4830000  54.5390000 202.4653806  22.0723038  54.6515026
 200.7673708  21.9194988  55.1619436 201.0340000  22.3820000  53.0850000
 200.2502228  21.6278243  53.0142092 200.6347821  23.3497554  52.7813983
 202.1840000  22.0020000  52.1740000 202.8625907  22.8508017  52.0894365
 202.7145179  21.1553634  52.6097252 201.6780000  21.6270000  50.8080000
 201.1867494  22.4115200  50.4038949 202.4579969  21.3774721  50.2168650
 201.0495169  20.8402278  50.8860868 202.8270000  23.4250000  56.9690000
 202.7100000  22.3240000  57.5430000 204.0160000  23.9870000  56.7560000
 204.1181045  24.8559699  56.2514553 205.2190000  23.2980000  57.1920000
 205.2091377  22.2691182  56.8322722 206.4650000  24.0010000  56.6340000
 206.2880556  24.2371545  55.5847045 206.6204727  24.9240891  57.1924216
 207.6990000  23.1230000  56.7540000 207.7229196  22.7545008  57.7795423
 207.5829981  22.2829214  56.0692295 208.9980000  23.8510000  56.4470000
 208.9650000  24.9620000  55.8630000 210.0600000  23.2890000  56.7840000
 205.2760000  23.2070000  58.7120000 205.6470000  22.1650000  59.2610000
 204.9040000  24.2900000  59.4050000 204.6665973  25.1488115  58.9294139
 204.8370000  24.2650000  60.8630000 205.8200048  24.0383653  61.2758408
 204.3850000  25.6240000  61.3960000 203.5416841  25.9035649  60.7645247
 204.0302040  25.4220035  62.4066519 205.3990000  26.7720000  61.4310000
 205.7139711  26.9782516  60.4080854 204.8942808  27.6478239  61.8387905
 206.6270000  26.4890000  62.2670000 207.7510000  26.5540000  61.7760000
 206.4220000  26.1780000  63.5400000 207.2089441  25.9800060  64.1413475
 205.4798988  26.1406103  63.9021445 203.8560000  23.2050000  61.3360000
 204.1390000  22.4440000  62.2700000 202.6860000  23.1430000  60.6970000
 202.4670732  23.7714178  59.9372227 201.6620000  22.1960000  61.1290000
 201.4333343  22.3174363  62.1878033 200.3720000  22.4050000  60.3210000
 200.6041620  22.4472742  59.2568511 199.4050000  21.2030000  60.5970000
 199.1719988  21.1603555  61.6609515 198.4845426  21.3387214  60.0291634
 199.8849402  20.2727222  60.2931212 199.7170000  23.6690000  60.6710000
 200.3923533  24.4987412  60.4623629 198.8081371  23.7836010  60.0802932
 199.4628207  23.6657915  61.7309450 202.1810000  20.7720000  60.9800000
 201.9520000  19.9130000  61.8410000 202.9050000  20.5040000  59.8880000
 203.0512588  21.2019119  59.1727192 203.5040000  19.1900000  59.7030000
 202.6999040  18.4544631  59.6803205 204.0233161  19.1894858  58.7446630
 204.4870000  18.8140000  60.7980000 204.4470000  17.6850000  61.3120000
 205.3370000  19.7590000  61.2110000 205.3916126  20.6586651  60.7552375
 206.2680000  19.4770000  62.3000000 206.7789990  18.5354982  62.0986208
 207.3180000  20.5810000  62.4510000 206.8191887  21.4240787  62.9290217
 208.0887850  20.1910401  63.1157720 207.9420000  21.0310000  61.1800000
 208.3041050  20.1722236  60.6147709 207.2170623  21.5808587  60.5798144
 209.3290000  22.1110000  61.5690000 208.4760000  23.6750000  61.6880000
 207.7227780  23.6197673  62.4739421 209.1912789  24.4623988  61.9256550
 207.9924558  23.8989940  60.7371515 205.5330000  19.2800000  63.6110000
 205.9060000  18.4040000  64.4020000 204.4830000  20.0790000  63.8600000
 204.2569611  20.8630570  63.2648023 203.6990000  19.8840000  65.0740000
 204.3134808  19.8779074  65.9742641 202.6080000  20.9700000  65.2030000
 202.1008536  21.0739634  64.2437844 201.5710000  20.5870000  66.2990000
 202.0773634  20.4833058  67.2586584 200.8129935  21.3669501  66.3711439
 201.0954978  19.6421834  66.0357161 203.2290000  22.3370000  65.4650000
 203.4383295  22.4091458  66.5322755 204.1640424  22.3908893  64.9074239
 202.2960000  23.5200000  65.0350000 201.3608770  23.4670425  65.5925305
 202.7905372  24.4683352  65.2452199 202.0865880  23.4487845  63.9676787
 203.1140000  18.4800000  65.1010000 203.1730000  17.7920000  66.1240000
 202.5110000  18.0400000  63.9840000 202.4353280  18.6069171  63.1515470
 201.8870000  16.7100000  63.9800000 201.2020054  16.6266475  64.8237618
 201.1070000  16.4760000  62.6960000 201.7812051  16.6912897  61.8670265
 200.8316422  15.4215579  62.6752629 199.8420000  17.3380000  62.5640000
 199.0369027  16.9015464  63.1551239 200.0469479  18.3477508  62.9196707
 199.4300000  17.3900000  61.1160000 200.1524417  17.9966461  60.5699620
 199.4323844  16.3758011  60.7166327 198.0110000  18.0060000  60.9570000
 197.3141612  17.3443021  61.4714630 198.0244330  18.9759724  61.4540637
 197.5740000  18.1810000  59.5290000 197.5610708  17.2822599  59.0683495
 196.6480660  18.5838317  59.5072560 198.2193358  18.7944531  59.0522233
 202.9200000  15.6180000  64.1550000 202.6550000  14.6090000  64.8190000
 204.0860000  15.7930000  63.5360000 204.2377561  16.6013774  62.9498298
 205.1550000  14.8090000  63.6460000 204.8134119  13.8370227  63.2900831
 206.3400000  15.2510000  62.7940000 205.9353746  15.6292858  61.8552362
 206.8337641  16.0620436  63.3292619 207.3400000  14.1560000  62.5060000
 207.5716300  13.6818625  63.4597515 206.8951197  13.4217553  61.8343860
 208.6140000  14.6980000  61.8890000 209.4530000  15.2690000  62.6300000
 208.7530000  14.5780000  60.6540000 205.5850000  14.6240000  65.0960000
 205.8870000  13.5030000  65.5250000 205.6460000  15.7170000  65.8560000
 205.3939848  16.6109594  65.4592326 206.0920000  15.6780000  67.2380000
 206.8124249  14.8718885  67.3768212 206.7640000  17.0030000  67.6050000
 206.0212584  17.7880026  67.4628558 207.0320197  16.9438235  68.6598761
 208.0000000  17.3230000  66.7870000 207.7399885  17.2598997  65.7303481
 208.3159423  18.3392009  67.0228351 209.1280000  16.3630000  67.0860000
 209.3263777  16.3535653  68.1577538 208.8518621  15.3604475  66.7592956
 210.3780000  16.8120000  66.3430000 210.1136117  16.9252980  65.2916376
 210.6731577  17.7794695  66.7491821 211.4930000  15.8700000  66.4670000
 211.2198517  14.9735756  66.0902866 212.2894292  16.2217875  65.9550956
 211.7384247  15.7652003  67.4411062 204.9600000  15.4220000  68.2250000
 205.2320000  15.1520000  69.3890000 203.7120000  15.5530000  67.8100000
 203.4957423  15.7041088  66.8350651 202.6120000  15.5280000  68.7660000
 202.8682629  16.1337909  69.6351639 201.3230000  16.0930000  68.1340000
 201.6105679  16.9771641  67.5650907 200.8766394  15.3591240  67.4629648
 200.3150000  16.4830000  69.1990000 200.4460000  17.6700000  69.8920000
 201.2773799  18.3260321  69.6340681 199.5600000  18.0360000  70.8880000
 199.6635916  18.9985974  71.3887763 198.5040000  17.2040000  71.2030000
 197.6630000  17.5850000  72.2340000 197.9151736  18.4201872  72.6345876
 198.3500000  16.0010000  70.5380000 197.5213013  15.3417989  70.7964816
 199.2540000  15.6290000  69.5360000 199.1330645  14.6771270  69.0188806
 202.3500000  14.1190000  69.2740000 202.3000000  13.1640000  68.4960000
 202.1090000  14.0090000  70.5740000 202.2423912  14.8002522  71.1873727
 201.6890000  12.7320000  71.1660000 202.2199818  11.9119571  70.6825879
 201.9980000  12.6990000  72.6630000 203.0793187  12.7727616  72.7787939
 201.5242596  13.5692009  73.1173353 201.4900000  11.4100000  73.3620000
 202.0294380  11.4077089  74.3091548 200.4173416  11.4198231  73.5554082
 201.8450000  10.1820000  72.5830000 203.0530000   9.8810000  72.5330000
 200.9480000   9.5760000  71.9200000 200.2010000  12.5440000  70.9160000
 199.3570000  13.0580000  71.6630000 199.8650000  11.7830000  69.8630000
 200.5556745  11.3047912  69.3023001 198.4670000  11.6890000  69.4650000
 198.0412098  12.6825821  69.3250122 198.3780000  10.9340000  68.1520000
 199.0544029  10.0797806  68.1222063 197.3529593  10.5901172  68.0136664
 198.7060000  11.7770000  66.9740000 199.9390000  12.3780000  66.8000000
 199.9070000  13.1080000  65.6970000 200.7824784  13.6764868  65.3832177
 198.7020000  12.9870000  65.1470000 198.3866306  13.4327252  64.2973112
 197.9410000  12.1480000  65.9270000 196.9184146  11.9099241  65.6341856
 197.5950000  11.0170000  70.5330000 196.3620000  11.1930000  70.5170000
 198.2010000  10.2730000  71.4650000 199.1788739  10.0257454  71.4127776
 197.3950000   9.6940000  72.5420000 196.5175954   9.2001957  72.1243665
 198.2140000   8.6600000  73.3220000 199.1506320   9.1191073  73.6382913
 197.6465201   8.3514669  74.1999942 198.5160000   7.4280000  72.4470000
 197.5818170   6.8817059  72.3167476 198.8623004   7.7904910  71.4791269
 199.5760000   6.4930000  73.0530000 200.5142561   7.0187282  73.2301564
 199.2271900   6.0490907  73.9854031 199.8120000   5.4320000  72.0930000
 199.1996344   4.6296217  72.1290113 200.8000000   5.4360000  71.2050000
 201.6740000   6.4280000  71.1850000 201.5891193   7.1851971  71.8479840
 202.4224448   6.4239586  70.5068306 200.8920000   4.4670000  70.3070000
 200.2082128   3.7237187  70.2987542 201.6455271   4.4757394  69.6345275
 196.8290000  10.7920000  73.4360000 195.8150000  10.5680000  74.0950000
 197.4470000  11.9830000  73.4220000 198.3096176  12.1112125  72.9125378
 196.9210000  13.1060000  74.1800000 196.7515574  12.8093679  75.2150835
 197.9200000  14.2730000  74.1610000 198.2795492  14.3653085  73.1361572
 197.3638882  15.1702600  74.4325957 199.1140000  14.1060000  75.1080000
 198.7680388  14.0099351  76.1371663 199.6905946  13.2221737  74.8350682
 200.1910000  15.6020000  74.9660000 201.5320000  15.2230000  76.0810000
 202.0309707  14.3110071  75.7532864 202.2463106  16.0463172  76.0841475
 201.1388948  15.0798728  77.0875208 195.5690000  13.5480000  73.6110000
 194.7220000  14.0760000  74.3400000 195.3630000  13.3250000  72.3170000
 196.1113098  12.9640330  71.7426877 194.0940000  13.6420000  71.6780000
 193.8353422  14.6792379  71.8909153 194.1610000  13.4560000  70.1580000
 194.4353298  12.4042544  70.0763082 193.1820227  13.6118642  69.7047783
 195.1950000  14.3070000  69.4360000 196.1600189  14.1661564  69.9228290
 195.3060000  13.9220000  67.9740000 194.3414180  14.0630273  67.4863611
 196.0532997  14.5494407  67.4882406 195.6032086  12.8763070  67.8946678
 194.9300000  15.8030000  69.6070000 194.9599646  16.0590998  70.6660630
 195.6930622  16.3708629  69.0746758 193.9477753  16.0471109  69.2023477
 192.9570000  12.8210000  72.2130000 191.7980000  13.1960000  72.0130000
 193.2560000  11.6610000  72.8170000 194.2263667  11.4061477  72.9333533
 192.2430000  10.7100000  73.2240000 191.2835970  10.9541656  72.7678988
 192.6590000   9.3170000  72.7670000 193.5642692   9.0960479  73.3324795
 191.8726700   8.6186940  73.0536249 192.9470000   9.1750000  71.2630000
 193.7869141   9.8119828  70.9856949 193.3020000   7.6790000  70.9550000
 192.4623262   7.0414095  71.2316317 193.5083841   7.5657052  69.8907300
 194.1824063   7.3885160  71.5282401 191.7520000   9.6260000  70.3830000
 191.5275092  10.6736289  70.5834419 192.0089759   9.5049170  69.3306676
 190.8785464   9.0168409  70.6156005 191.9580000  10.7460000  74.7260000
 191.1940000   9.9160000  75.2280000 192.4720000  11.7520000  75.4290000
 193.0207503  12.4712438  74.9799333 192.3020000  11.8140000  76.8850000
 192.7255001  10.9231906  77.3489023 193.0200000  13.0450000  77.4440000
 194.0326015  13.0281025  77.0409468 192.4915139  13.9179269  77.0608536
 193.0800000  13.1150000  78.9600000 192.0680854  13.0687429  79.3624798
 193.6590381  12.2716723  79.3363180 193.7440000  14.4260000  79.3970000
 194.7746692  14.4218705  79.0423129 193.2046145  15.2528578  78.9349730
 193.7290000  14.5940000  80.9170000 194.0752752  15.6019591  81.1455006
 192.6995568  14.4784367  81.2561031 194.5960000  13.6010000  81.6140000
 195.5500236  13.7082031  81.3002387 194.5501454  13.7553019  82.6110899
 194.2750406  12.6669477  81.4027407 190.8340000  11.8440000  77.2740000
 190.4460000  11.2350000  78.2790000 190.0040000  12.5300000  76.4910000
 190.3912281  13.0776893  75.7358906 188.5700000  12.6150000  76.7420000
 188.3191462  12.0528774  77.6415497 188.1450000  14.0710000  76.9410000
 188.2904802  14.6295335  76.0163514 187.0990781  14.1329012  77.2415256
 188.9350000  14.7760000  77.9950000 188.7910000  14.5000000  79.3420000
 189.6240000  15.2590000  80.0340000 189.6683242  15.1875383  81.1207509
 190.2950000  16.0200000  79.1870000 190.9981838  16.7022157  79.4323857
 189.8840000  15.7370000  77.9060000 190.3266581  16.2662407  77.0621639
 187.7360000  11.9440000  75.6600000 186.5680000  12.2990000  75.4620000
 188.3250000  10.9910000  74.9310000 189.3161040  10.8637702  75.0780537
 187.6580000  10.1480000  73.9430000 186.6762184  10.5635500  73.7160150
 188.4700000  10.0660000  72.6400000 189.4393941   9.6330160  72.8867778
 187.9356500   9.3979978  71.9644682 188.6750000  11.4190000  71.9610000
 189.0144637  12.1290449  72.7151230 189.4457137  11.3028521  71.1990209
 187.1660000  12.0480000  71.1890000 187.0470000  11.1390000  69.6390000
 186.9838995  10.0709817  69.8474569 186.1552522  11.4564845  69.0985464
 187.9297199  11.3385517  69.0314756 187.4660000   8.7390000  74.4910000
 188.1410000   8.3400000  75.4450000 186.5590000   7.9520000  73.9070000
 185.6020000   8.2510000  72.8190000 186.0877169   8.1348696  71.8501383
 185.2286971   9.2702997  72.9178540 184.5340000   7.2260000  73.0540000
 183.9187110   7.0698785  72.1679162 183.8957136   7.4913642  73.8967774
 185.3610000   6.0110000  73.3690000 185.8115441   5.6360918  72.4500044
 184.8126536   5.2063047  73.8587769 186.4520000   6.5450000  74.3040000
 186.1748677   6.5113955  75.3576445 187.7560000   5.7840000  74.0980000
 188.4440000   5.9520000  73.0890000 188.0720000   4.8880000  75.0420000
 187.4587903   4.6456364  75.8070707 189.4090000   4.2930000  75.0090000
 190.1629812   5.0747394  74.9168313 189.6690000   3.5120000  76.3010000
 190.6397336   3.0207211  76.2345125 189.6688721   4.2025925  77.1443161
 188.6710000   2.5490000  76.4870000 188.8411259   2.0644002  77.2980611
 189.6230000   3.3970000  73.7890000 190.7730000   3.1660000  73.3920000
 188.5420000   2.9190000  73.1740000 187.6249066   3.0821601  73.5644073
 188.6430000   2.1270000  71.9540000 189.2339364   1.2275221  72.1267221
 187.2300000   1.7100000  71.5190000 186.5779578   2.5730421  71.6535305
 187.2760473   1.4514683  70.4611054 186.6910000   0.5580000  72.2870000
 186.7815517   0.7561466  73.3550071 185.6372920   0.4696038  72.0224538
 187.4020000  -0.7280000  71.9530000 187.0880000  -1.3000000  70.8840000
 188.2790000  -1.1400000  72.7240000 189.3240000   2.9010000  70.8360000
 189.8500000   2.2900000  69.8920000 189.3100000   4.2370000  70.8950000
 188.8173334   4.7393427  71.6195901 189.9450000   4.9990000  69.8430000
 189.5725908   4.6806494  68.8693145 189.6300000   6.4900000  70.0250000
 189.4791221   6.7524427  71.0721193 190.4479343   7.0834380  69.6164477
 188.3900000   6.9090000  69.2950000 187.1470000   6.4780000  69.6850000
 187.0598326   5.8274632  70.5552320 185.9880000   6.8670000  68.9740000
 185.0046164   6.4885227  69.2529487 186.1180000   7.7540000  67.8950000
 185.2342626   8.0827346  67.3481530 187.3440000   8.2020000  67.5330000
 187.4268500   8.8965352  66.6970234 188.4900000   7.7880000  68.2120000
 189.4694491   8.1497716  67.8991092 191.4470000   4.7570000  69.7870000
 192.0550000   5.0320000  68.7490000 192.0090000   4.2450000  70.8730000
 191.4831518   4.1080224  71.7243637 193.4510000   3.9200000  70.8800000
 194.0198048   4.8061681  70.5984571 193.9140000   3.4620000  72.2460000
 193.1716593   2.8469694  72.7546914 194.8478232   2.9064655  72.1596541
 194.1870000   4.6120000  73.1300000 193.3000000   5.0460000  74.0440000
 193.7960000   6.0670000  74.6730000 193.2427097   6.5476530  75.4798095
 194.9590000   6.3310000  74.1640000 195.5607371   7.0951033  74.4363205
 195.2450000   5.4250000  73.2100000 196.1991993   5.4691490  72.6849708
 193.6720000   2.8640000  69.8270000 194.6590000   2.8840000  69.1360000
 192.6780000   1.9800000  69.6310000 191.8788256   1.9605630  70.2482858
 192.7660000   0.9460000  68.5500000 193.7036834   0.4001521  68.6543992
 191.6070000  -0.0540000  68.6190000 190.7621181   0.6013434  68.4073426
 191.7607052  -0.7307559  67.7784786 191.3180000  -0.8650000  69.8780000
 190.6585643  -0.3013923  70.5379937 190.6430000  -2.1640000  69.4780000
 191.3020670  -2.7284097  68.8183250 190.4308880  -2.7535123  70.3699555
 189.7105345  -1.9444149  68.9580087 192.5350000  -1.1450000  70.7030000
 192.9849602  -0.2037678  71.0187802 192.2533300  -1.7252925  71.5816489
 193.2542734  -1.7101444  70.1102466 192.8350000   1.3980000  67.0510000
 193.6500000   1.1090000  66.1190000 192.0820000   2.4910000  66.8690000
 191.5243855   2.7969503  67.6535762 191.9500000   3.2190000  65.5890000
 191.8085395   2.5252558  64.7602618 190.7200000   4.1330000  65.6790000
 189.8429905   3.5067892  65.8427487 190.8852608   4.7618403  66.5538421
 190.3810000   5.0610000  64.5380000 191.0420000   5.0220000  63.3340000
 191.8527057   4.3044746  63.2074555 190.6990000   5.8670000  62.2960000
 191.2320837   5.8218617  61.3463237 189.6830000   6.7640000  62.4670000
 189.4001317   7.4323814  61.6537646 189.0230000   6.8220000  63.6570000
 188.2296215   7.5567324  63.7941823 189.3510000   5.9610000  64.6840000
 188.7924714   5.9908084  65.6195518 193.2720000   3.9490000  65.3570000
 193.8380000   3.8310000  64.3380000 193.7320000   4.6740000  66.3680000
 193.2255664   4.7697399  67.2365955 195.0100000   5.4140000  66.2130000
 194.9503073   6.1196172  65.3843624 195.2780000   6.1930000  67.4990000
 194.5191908   6.9751395  67.4752158 195.0969090   5.5375937  68.3509089
 196.6580000   6.8280000  67.6310000 197.4102775   6.0407164  67.5823802
 196.9040000   7.8250000  66.5310000 196.1523395   8.6128935  66.5792620
 197.8955142   8.2616488  66.6507422 196.8425846   7.3236442  65.5650958
 196.8220000   7.4640000  68.9770000 196.7071053   6.7075239  69.7533005
 197.8134723   7.9109624  69.0498596 196.0649480   8.2370411  69.1088283
 196.1630000   4.4510000  65.9020000 196.8880000   4.6850000  64.9770000
 196.3000000   3.4190000  66.7170000 195.7125980   3.3121262  67.5316387
 197.4270000   2.4730000  66.5340000 198.3608134   3.0290277  66.4507836
 197.5330000   1.5180000  67.7150000 196.5799938   1.0173077  67.8858378
 198.2877050   0.7792818  67.4451560 197.9590000   2.2360000  68.9780000
 198.5170000   3.3140000  68.8530000 197.6890000   1.7390000  70.0290000
 197.3260000   1.7590000  65.1910000 198.3320000   1.4870000  64.6140000
 196.1110000   1.4860000  64.7430000 195.2688167   1.6705766  65.2690781
 195.9880000   0.8220000  63.4570000 196.6324397  -0.0567515  63.4326599
 194.5470000   0.3770000  63.2190000 194.1867690  -0.3101196  63.9846367
 193.9098256   1.2610726  63.1960988 194.3680000  -0.3110000  61.9110000
 194.9560000  -1.5220000  61.6170000 194.6330000  -1.8760000  60.3870000
 194.9931007  -2.8161897  59.9693042 193.8710000  -0.9340000  59.8670000
 193.4731771  -0.9372645  58.9386541 193.6990000   0.0680000  60.7970000
 193.1077087   0.9486782  60.5462377 196.4600000   1.7150000  62.3210000
 197.2940000   1.2930000  61.5070000 195.9200000   2.9370000  62.2330000
 195.2026589   3.2665829  62.8629970 196.2750000   3.7720000  61.0930000
 196.3338002   3.2192454  60.1553945 195.3270000   4.9720000  60.9220000
 195.6375819   5.5725976  60.0670604 193.8980000   4.4390000  60.6840000
 193.5865244   3.8386456  61.5387854 193.2127186   5.2776122  60.5606317
 193.8842597   3.8238377  59.7842858 195.4330000   5.9710000  62.0820000
 195.2178842   5.4477552  63.0136871 196.4494612   6.3633901  62.1125955
 194.4470000   7.1250000  61.9070000 193.4302203   6.7334064  61.8767801
 194.5445812   7.8169744  62.7435098 194.6617961   7.6490400  60.9756867
 197.7400000   4.1950000  61.1730000 198.4180000   4.2710000  60.1420000
 198.2690000   4.4120000  62.3840000 197.6876232   4.4290763  63.2097171
 199.6910000   4.6710000  62.5370000 199.9621759   5.5575089  61.9637071
 200.0030000   4.9290000  64.0140000 199.7452445   4.0466992  64.5998391
 201.0654490   5.1434525  64.1293799 199.4206815   5.7807346  64.3655004
 200.5380000   3.5100000  62.0230000 201.6870000   3.7200000  61.6140000
 200.0100000   2.2840000  62.0700000 199.0829717   2.1284161  62.4394746
 200.7880000   1.1290000  61.6510000 201.8357941   1.2730702  61.9145724
 200.2740000  -0.1490000  62.3510000 201.0894902  -0.8693819  62.4152257
 199.9376595   0.1087585  63.3552588 199.1950000  -0.7190000  61.6220000
 198.8886938  -1.5106425  62.0704178 200.7940000   0.9040000  60.1490000
 201.5690000   0.0580000  59.6730000 199.9030000   1.5620000  59.4070000
 199.2981039   2.2403216  59.8475449 199.7210000   1.2940000  57.9920000
 199.8942255   0.2361965  57.7941517 198.2860000   1.6510000  57.5460000
 198.1547961   2.7237631  57.6876478 198.2548036   1.4191093  56.4814092
 197.1610000   0.9000000  58.2650000 197.3364023   0.9483446  59.3397082
 195.8250000   1.5100000  57.9480000 195.6486738   1.4616000  56.8734464
 195.0412097   0.9605275  58.4693957 195.8145222   2.5510344  58.2708591
 197.1610000  -0.5150000  57.7690000 198.1233288  -0.9774694  57.9884193
 196.3680223  -1.0745005  58.2652327 196.9916495  -0.5231288  56.6922673
 200.7230000   2.0370000  57.1230000 201.2240000   3.0940000  57.4860000
 200.9970000   1.4700000  55.9440000 200.6951555   0.5247113  55.7558018
 201.7670000   2.1660000  54.9210000 202.0349213   3.1606675  55.2773058
 203.0490000   1.4030000  54.5940000 203.5780725   1.9492260  53.8130911
 203.6638228   1.3693383  55.4934220 202.7670000  -0.0180000  54.1180000
 203.7230000  -0.7290000  53.7220000 201.5920000  -0.4380000  54.1330000
 200.9000000   2.3260000  53.6760000 199.7620000   1.8630000  53.6350000
 201.4700000   2.9470000  52.6380000 202.3842952   3.3662238  52.7297330
 200.7550000   3.1100000  51.3690000 199.8728237   3.7338707  51.5126994
 201.6690000   3.7840000  50.3410000 201.8760838   4.8049068  50.6618814
 202.5840979   3.1942187  50.3944220 201.1580000   3.7970000  48.9100000
 201.3480000   2.7040000  48.0620000 201.8851069   1.8337666  48.4392393
 200.8670000   2.7120000  46.7600000 201.0643358   1.8693668  46.0973314
 200.1610000   3.8010000  46.2980000 199.6770000   3.7890000  45.0070000
 199.8908754   2.9816253  44.5337104 199.9190000   4.8850000  47.1360000
 199.3437587   5.7406469  46.7823529 200.4160000   4.8710000  48.4300000
 200.2280016   5.7137945  49.0951723 200.2120000   1.8050000  50.8140000
 199.1630000   1.7930000  50.1580000 200.8950000   0.7020000  51.0510000
 201.6855045   0.6803217  51.6792770 200.5550000  -0.5130000  50.3290000
 200.1684609  -0.2704293  49.3391282 201.8060000  -1.3720000  50.1670000
 202.1746023  -1.7566692  51.1179265 201.5627029  -2.2056141  49.5082177
 202.9530000  -0.6370000  49.5260000 202.9140000  -0.2990000  48.1830000
 202.0369111  -0.5683386  47.5945515 203.9680000   0.3710000  47.5870000
 203.9442020   0.5898357  46.5194583 205.0530000   0.7630000  48.3490000
 205.8784571   1.3063216  47.8890846 205.0890000   0.4630000  49.7020000
 205.9368426   0.7749955  50.3118539 204.0420000  -0.2360000  50.2780000
 204.0677642  -0.4785802  51.3403516 199.4430000  -1.3190000  50.9900000
 198.6980000  -2.0100000  50.2880000 199.2930000  -1.2340000  52.3100000
 199.8186894  -0.5432523  52.8263503 198.4440000  -2.1610000  53.0580000
 198.3934180  -3.1401603  52.5817797 198.9840000  -2.3360000  54.4810000
 198.9480366  -1.3681067  54.9809894 198.1700000  -3.3520000  55.2800000
 198.2058791  -4.3203231  54.7808380 198.5873973  -3.4449662  56.2826145
 197.1350378  -3.0167446  55.3475110 200.3620000  -2.7440000  54.4160000
 200.7051403  -2.8550513  55.3056756 196.9840000  -1.7120000  53.0930000
 196.6820000  -0.5560000  53.4220000 196.0810000  -2.6380000  52.7730000
 196.3490949  -3.5498066  52.4311912 194.6560000  -2.3320000  52.8870000
 194.4338452  -1.4286369  52.3189494 193.7970000  -3.4720000  52.3460000
 194.1938107  -3.7415175  51.3672249 193.9092344  -4.3150841  53.0276984
 192.3290000  -3.1200000  52.2160000 191.9402640  -2.8845424  53.2067294
 192.2384201  -2.2443881  51.5731928 191.5280000  -4.2780000  51.6160000
 191.9429553  -4.5409008  50.6429665 191.5843794  -5.1408711  52.2796070
 190.0580000  -3.8550000  51.4490000 189.7399791  -3.4150129  52.3941850
 190.0279535  -3.0960637  50.6671995 189.1460000  -4.9700000  51.0910000
 189.1733678  -5.6731571  51.8155142 188.2038332  -4.6179467  50.9989119
 189.4402573  -5.3775639  50.2149844 194.2900000  -2.0770000  54.3420000
 194.6550000  -2.8660000  55.2210000 193.6210000  -0.9660000  54.6540000
 193.4700000   0.2410000  53.8270000 192.6899857   0.0756096  53.0838150
 194.4123254   0.4546671  53.3225515 193.1040000   1.2930000  54.8160000
 192.3999256   1.9852528  54.3543027 194.0039749   1.8331226  55.1099630
 192.4930000   0.5940000  55.9900000 191.4264857   0.4551885  55.8128629
 192.6387024   1.1183249  56.9344331 193.1940000  -0.7650000  56.0340000
 194.0836201  -0.7582964  56.6637852 192.2450000  -1.8480000  56.5120000
 191.5520000  -2.5090000  55.7300000 192.2280000  -2.0350000  57.8260000
 192.9320402  -1.6101972  58.4124890 191.2430000  -2.9130000  58.4520000
 190.9053451  -3.6611378  57.7347984 191.8560000  -3.6300000  59.6530000
 192.8239379  -4.0291638  59.3499096 191.9996407  -2.8856189  60.4361756
 190.9870000  -4.7570000  60.1800000 189.7750000  -4.8370000  59.8800000
 191.5410000  -5.5900000  60.9090000 190.0530000  -2.0320000  58.8180000
 189.8930000  -1.5850000  59.9540000 189.2240000  -1.7410000  57.8000000
 189.4056444  -2.0747222  56.8641933 188.0620000  -0.8870000  58.0160000
 188.3818695   0.0903026  58.3774725 187.2950000  -0.6970000  56.7110000
 186.8473705  -1.6511154  56.4328078 186.5074872   0.0147039  56.9587928
 188.1070000  -0.1660000  55.5540000 188.3220000   1.1850000  55.4060000
 187.8950546   1.8623982  56.1455598 189.0690000   1.6960000  54.3370000
 189.2307079   2.7666844  54.2121507 189.6390000   0.7900000  53.4300000
 190.3780000   1.2640000  52.3700000 190.4358863   2.2220787  52.3517242
 189.4410000  -0.5520000  53.5800000 189.8714035  -1.2442235  52.8563427
 188.7010000  -1.0340000  54.6400000 188.5739559  -2.1084822  54.7720903
 187.1430000  -1.4620000  59.0760000 186.5660000  -0.7190000  59.8780000
 186.9750000  -2.7770000  59.0680000 187.4066734  -3.3445177  58.3526811
 186.1350000  -3.4330000  60.0530000 185.1175329  -3.0460941  59.9967531
 186.1010000  -4.9450000  59.7820000 185.8758378  -5.1161269  58.7293287
 187.0744120  -5.3742768  60.0192563 185.0770000  -5.5770000  60.6070000
 185.0425407  -6.6323676  60.3366064 185.3270156  -5.4811537  61.6636020
 183.7240000  -4.9810000  60.3800000 183.2200000  -4.9950000  59.2500000
 183.1300000  -4.4140000  61.4430000 182.2155022  -3.9969240  61.3437889
 183.6005619  -4.4073218  62.3366601 186.6150000  -3.1800000  61.4770000
 185.7970000  -3.0720000  62.4000000 187.9360000  -3.1720000  61.6930000
 188.5929162  -3.4129443  60.9646414 188.4570000  -2.8690000  63.0220000
 188.0339780  -3.5574297  63.7535847 189.9820000  -3.0150000  63.0370000
 190.1981783  -4.0424196  62.7441261 190.2994289  -2.3373702  62.2444366
 190.7320000  -2.6850000  64.3150000 190.4890447  -1.6637985  64.6086344
 190.3540000  -3.6280000  65.4230000 190.5971007  -4.6494242  65.1302655
 190.9062345  -3.3682256  66.3261363 189.2841898  -3.5510831  65.6171401
 192.2310000  -2.8660000  64.0590000 192.5469484  -2.1964475  63.2590153
 192.7860536  -2.6328877  64.9676668 192.4284288  -3.8976746  63.7678500
 188.0420000  -1.4710000  63.4410000 187.5570000  -1.2700000  64.5580000
 188.1450000  -0.5150000  62.5250000 188.5614770  -0.6783042  61.6194736
 187.7450000   0.8510000  62.8690000 188.1855895   1.1130937  63.8309184
 188.2200000   1.8430000  61.8030000 187.7598787   1.5939541  60.8467757
 187.8140000   3.2900000  62.2130000 188.2741500   3.5399506  63.1689745
 188.1537238   3.9926336  61.4520832 186.7296424   3.3513290  62.3052310
 189.7430000   1.7790000  61.6580000 190.1677752   2.3148560  62.5068375
 190.0256267   0.7277849  61.7142883 190.2700000   2.3740000  60.3720000
 189.9881452   3.4253957  60.3152134 191.3563614   2.2878800  60.3496054
 189.8459945   1.8383256  59.5226637 186.2330000   0.9170000  63.0920000
 185.7560000   1.5680000  64.0330000 185.4500000   0.2330000  62.2530000
 185.8131693  -0.2501170  61.4437996 184.0050000   0.2300000  62.4710000
 183.6257610   1.2517717  62.4548888 183.3040000  -0.5680000  61.3740000
 183.6399895  -0.1490023  60.4255005 183.6602851  -1.5942029  61.4638252
 181.7630000  -0.5530000  61.4250000 181.4090217  -1.2087157  60.6294894
 181.4697089  -0.9636788  62.3911394 181.0170000   1.0840000  61.2230000
 181.3780000   1.4670000  59.5140000 180.9253874   0.7139390  58.8689108
 180.9715506   2.4478204  59.2672392 182.4574249   1.4730296  59.3626498
 183.6700000  -0.3370000  63.8470000 182.8480000   0.2320000  64.5770000
 184.3240000  -1.4370000  64.2360000 184.9260946  -1.9490945  63.6072388
 184.0920000  -1.9860000  65.5820000 183.0227193  -2.1215212  65.7443945
 184.7890000  -3.3460000  65.7410000 185.8642376  -3.2030158  65.6336743
 184.5723629  -3.7362971  66.7354026 184.3290000  -4.2790000  64.7500000
 184.7774990  -5.1193915  64.8691241 184.5160000  -1.0380000  66.7070000
 183.9080000  -1.0660000  67.7800000 185.5330000  -0.1870000  66.4990000
 186.1383163  -0.2608863  65.6938713 185.8230000   0.8470000  67.4920000
 186.0431633   0.4621849  68.4877634 187.0010000   1.7280000  67.0330000
 186.8842120   1.9090812  65.9645107 187.0700000   3.1230000  67.8040000
 187.1872595   2.9427254  68.8725749 187.9196057   3.6994179  67.4379222
 186.1503417   3.6813118  67.6290196 188.2970000   0.9440000  67.1510000
 188.2428013   0.0547873  66.5229353 189.1301606   1.5673052  66.8262943
 188.4491724   0.6466246  68.1885511 184.5900000   1.6850000  67.7380000
 184.2040000   1.9430000  68.8880000 183.9640000   2.1440000  66.6480000
 184.3390649   1.9890239  65.7231173 182.7570000   2.9510000  66.7780000
 182.9399674   3.7831602  67.4578026 182.3390000   3.5170000  65.4090000
 182.0716696   2.7226455  64.7121251 181.4819246   4.1741581  65.5561907
 183.4090000   4.3460000  64.7310000 184.3490000   5.0900000  65.4830000
 184.2722300   5.0903352  66.5702930 185.3700000   5.8210000  64.8500000
 186.1072846   6.3602512  65.4447439 185.4380000   5.8550000  63.4510000
 186.1976325   6.4501782  62.9442247 184.5170000   5.1140000  62.7040000
 184.5770716   5.1220175  61.6156860 183.5050000   4.3520000  63.3560000
 182.7984613   3.7672897  62.7669186 181.6290000   2.1470000  67.4000000
 180.9650000   2.6010000  68.3400000 181.4090000   0.9430000  66.8910000
 181.9286018   0.6009738  66.0953044 180.2970000   0.1420000  67.3860000
 179.3885161   0.7437656  67.4111869 180.0630000  -1.0520000  66.4780000
 181.0169132  -1.5236923  66.2420865 179.4168358  -1.7717116  66.9805805
 179.3980000  -0.5850000  65.1940000 178.4306185  -0.1810998  65.4925609
 180.0028920   0.2087259  64.7555891 179.1950000  -1.6700000  64.1870000
 179.8670000  -2.7140000  64.3200000 178.3920000  -1.4550000  63.2500000
 180.4800000  -0.2510000  68.8430000 179.5390000  -0.1240000  69.6340000
 181.6970000  -0.6490000  69.2400000 182.4503771  -0.8091782  68.5866507
 181.9240000  -0.9620000  70.6500000 181.1410502  -1.6304340  71.0081688
 183.2860000  -1.6520000  70.8430000 184.0463942  -0.9936617  70.4228921
 183.4802686  -1.7991313  71.9054086 183.3700000  -3.0160000  70.1340000
 182.3570000  -3.7180000  69.9910000 184.5790000  -3.4070000  69.7200000
 184.6857576  -4.2943198  69.2495044 185.3804316  -2.8133946  69.8795018
 181.8020000   0.2850000  71.5240000 181.2660000   0.2130000  72.6370000
 182.2830000   1.4410000  71.0430000 182.7830490   1.4933145  70.1670357
 182.1470000   2.6630000  71.8390000 182.6093844   2.5109359  72.8142827
 182.8260000   3.8590000  71.1550000 182.4287429   3.9542982  70.1444535
 182.5962355   4.7612756  71.7217513 184.2390000   3.6830000  71.0950000
 184.6380326   4.4424069  70.6641009 180.6850000   2.9730000  72.1080000
 180.3250000   3.4270000  73.2050000 179.8220000   2.7320000  71.1200000
 180.1093301   2.4247114  70.2017873 178.4110000   3.0040000  71.3460000
 178.2979228   3.9978964  71.7789928 177.6230000   2.9480000  70.0430000
 177.7756888   1.9672326  69.5925773 176.5663893   3.0796738  70.2761004
 178.0720000   4.0450000  69.0520000 177.7900549   5.0046607  69.4851964
 179.1578039   3.9857650  68.9770126 177.3580000   3.9060000  67.4090000
 177.8160000   2.2300000  67.0480000 177.3737427   1.5642586  67.7891449
 177.4545007   1.9596668  66.0558614 178.9014801   2.1351493  67.0769389
 177.8220000   2.0430000  72.3730000 177.0690000   2.4690000  73.2550000
 178.1580000   0.7530000  72.2770000 178.7733033   0.4191539  71.5489560
 177.5890000  -0.2260000  73.2100000 176.5005997  -0.1791102  73.1741481
 178.0290000  -1.6410000  72.8400000 179.1174737  -1.6218476  72.7856172
 177.7180848  -2.2860911  73.6617598 177.4670000  -2.1770000  71.5360000
 176.3783674  -2.1800871  71.5905002 177.7874495  -1.5328498  70.7171687
 177.9700000  -3.6040000  71.2900000 179.0526193  -3.5733999  71.1671259
 177.7204996  -4.2138259  72.1583095 177.3380000  -4.2070000  70.0510000
 177.6272605  -5.2566636  69.9996651 176.2552618  -4.1336027  70.1529319
 177.7670000  -3.5130000  68.8060000 178.7702150  -3.5812658  68.7111364
 177.3231763  -3.9464269  68.0089670 177.4986801  -2.5404377  68.8531815
 177.9830000   0.0670000  74.6520000 177.1480000  -0.0360000  75.5640000
 179.2570000   0.3950000  74.8840000 179.9267899   0.4205537  74.1284685
 179.7200000   0.7180000  76.2310000 179.6605119  -0.1671776  76.8642621
 181.1720000   1.1980000  76.1970000 181.1933384   2.0600299  75.5302554
 181.4120007   1.5176353  77.2110675 182.1850000   0.1840000  75.7380000
 182.1667591  -0.6645663  76.4218884 181.8974919  -0.1478272  74.7403382
 183.5810000   0.7650000  75.6930000 183.7270000   1.9840000  75.4430000
 184.5320000  -0.0070000  75.9210000 178.8800000   1.8080000  76.8680000
 178.7210000   1.8420000  78.0920000 178.3570000   2.7160000  76.0570000
 178.4569758   2.5851357  75.0605168 177.7200000   3.9280000  76.5300000
 177.8940107   4.0676061  77.5969253 178.3220000   5.1070000  75.7810000
 178.6209626   4.7717552  74.7878577 177.5631900   5.8840129  75.6884880
 179.5030000   5.6520000  76.4950000 179.1622003   6.2894137  77.3108800
 180.0863586   4.8250919  76.8999911 180.3590000   6.4560000  75.5550000
 180.2999312   6.0362990  74.5507784 180.0164666   7.4906158  75.5365492
 181.7660000   6.4320000  75.9950000 182.0747587   7.2145301  76.5539401
 182.6230000   5.4450000  75.7580000 182.2670000   4.4270000  74.9890000
 181.3422505   4.4035761  74.5835501 182.9219319   3.6788694  74.8116176
 183.8540000   5.5010000  76.2400000 184.1419322   6.2976664  76.7900161
 184.5000164   4.7468219  76.0556717 176.2110000   3.9070000  76.3950000
 175.5640000   4.8970000  76.7420000 175.6390000   2.7940000  75.9300000
 176.2183726   1.9950766  75.7151788 174.2120000   2.6830000  75.7190000
 173.9826839   1.6231849  75.6080713 173.7216782   3.0686847  76.6128295
 173.6920000   3.4260000  74.5150000 172.4820000   3.5940000  74.3860000
 174.5670000   3.8660000  73.6140000 175.5478585   3.6484867  73.7174598
 174.1600000   4.7140000  72.4970000 173.3946919   5.4335973  72.7878307
 175.3640000   5.4590000  71.9070000 176.1543697   4.7411210  71.6877607
 174.9630000   6.1830000  70.6220000 174.1729350   6.9014274  70.8405406
 175.8275667   6.7071919  70.2147557 174.6021229   5.4574256  69.8930221
 175.9470000   6.4140000  72.9420000 175.3403732   7.3195904  72.9387227
 175.8750474   5.9326349  73.9173000 177.3660000   6.7670000  72.6670000
 177.4386884   7.2488609  71.6919993 177.7269658   7.4492027  73.4366769
 177.9733625   5.8619045  72.6705743 173.4740000   3.8780000  71.4300000
 174.0300000   2.8860000  70.9480000 172.2650000   4.2940000  71.0540000
 171.9081626   5.1310414  71.4923241 171.4190000   3.6050000  70.0920000
 171.7931463   2.5921160  69.9430718 169.9770000   3.5240000  70.6040000
 169.5853910   4.5307921  70.7492999 169.3612248   2.9968509  69.8752785
 169.9571871   2.9866584  71.5521406 171.4480000   4.3140000  68.7410000
 171.5380000   5.5440000  68.6610000 171.3430000   3.5150000  67.6790000
 171.2280163   2.5211756  67.8175318 171.4520000   4.0140000  66.3150000
 172.3528552   4.6168967  66.2006555 171.5320000   2.8240000  65.3480000
 172.2574123   2.1339043  65.7788645 170.5442437   2.3631442  65.3550284
 171.9330000   3.1510000  63.9040000 172.0238717   2.2086858  63.3637342
 171.1257646   3.7413765  63.4704959 173.2430000   3.9260000  63.7980000
 174.3240000   3.3260000  64.0020000 173.1980000   5.1400000  63.5040000
 170.2970000   4.9340000  65.9290000 170.4390000   5.7190000  64.9880000
 169.1650000   4.8780000  66.6290000 169.0649594   4.2159421  67.3851551
 168.0200000   5.7160000  66.2870000 168.1301997   6.0895458  65.2689535
 166.7160000   4.9180000  66.3770000 165.8857778   5.5260652  66.0177131
 166.8263301   4.0412252  65.7388831 166.4010000   4.4520000  67.7960000
 167.1020000   4.7920000  68.7550000 165.3130000   3.6880000  67.9370000
 165.0529770   3.3488443  68.8521291 164.7560387   3.4534662  67.1277480
 167.8980000   6.9660000  67.1550000 166.8450000   7.6110000  67.1390000
 168.9200000   7.2950000  67.9380000 169.7185641   6.6827576  68.0249139
 168.8990000   8.5180000  68.7270000 168.0088750   8.5414030  69.3556724
 170.1380000   8.5830000  69.6290000 170.9729193   8.1738716  69.0601213
 170.3259852   9.6350295  69.8434658 169.9910000   7.8140000  70.9420000
 169.2501370   8.3168567  71.5635770 169.6251708   6.8236536  70.6709241
 171.2910000   7.6790000  71.7140000 171.4680000   6.6070000  72.3360000
 172.1390000   8.6170000  71.6710000 168.8400000   9.7430000  67.8240000
 169.3460000   9.7390000  66.7020000 168.2220000  10.8030000  68.3260000
 167.6880920  10.7546022  69.1819785 168.2920000  12.0790000  67.6270000
 167.8559619  11.9913718  66.6318662 167.5310000  13.1520000  68.4000000
 167.9619181  13.2577606  69.3956025 167.6032802  14.1020464  67.8705779
 166.4833762  12.8638267  68.4868316 169.7410000  12.5100000  67.4680000
 170.5660000  12.3170000  68.3660000 170.0540000  13.0930000  66.3100000
 169.4248197  13.0320391  65.5222721 171.2980000  13.8110000  66.1400000
 172.1144570  13.2377586  66.5791941 171.6010000  14.0350000  64.6510000
 170.6538825  14.2467597  64.1547888 172.2859839  14.8686472  64.4963086
 172.2090000  12.8320000  63.9360000 173.5130000  12.4230000  64.1990000
 174.0895136  12.9698502  64.9451145 174.0860000  11.3380000  63.5310000
 175.1054878  11.0352806  63.7699693 173.3670000  10.6490000  62.5710000
 173.8073830   9.7994237  62.0490970 172.0550000  11.0550000  62.2710000
 171.4765944  10.5271081  61.5127934 171.4870000  12.1510000  62.9560000
 170.4728061  12.4741233  62.7212617 171.1890000  15.1580000  66.8520000
 170.0920000  15.6780000  67.0610000 172.3460000  15.7380000  67.2000000
 173.2263788  15.3126731  66.9467618 172.3720000  16.9640000  68.0080000
 171.9522835  16.7629883  68.9936630 173.8070000  17.4690000  68.1810000
 174.2254214  17.5410505  67.1770919 173.7948321  18.4572075  68.6407804
 174.6450000  16.5480000  69.0040000 174.0600000  15.6800000  69.6800000
 175.8730000  16.7150000  69.0100000 171.5180000  18.0830000  67.4310000
 170.8660000  18.8220000  68.1790000 171.5290000  18.2440000  66.1160000
 172.0743890  17.6171607  65.5417852 170.8050000  19.3320000  65.4600000
 170.9139192  20.2476974  66.0411489 171.3510000  19.5770000  64.0580000
 170.6911522  20.2480377  63.5080832 172.3487292  20.0126264  64.1115353
 171.4720000  18.3270000  63.2380000 170.4980000  17.7230000  62.4890000
 169.5110765  18.1856778  62.4856900 171.0130000  16.6030000  61.8730000
 170.5081995  16.0028092  61.2365670 172.3300000  16.4440000  62.2490000
 173.2530000  15.4510000  61.9040000 172.9397044  14.6519654  61.2320712
 174.5220000  15.5520000  62.4480000 175.2738945  14.8022099  62.2018915
 174.8630000  16.5930000  63.3060000 175.8660483  16.6546639  63.7281270
 173.9470000  17.5810000  63.6520000 174.2357330  18.3216136  64.3978052
 172.6600000  17.5220000  63.0900000 169.3180000  19.0740000  65.3550000
 168.5880000  19.9730000  64.9250000 168.8600000  17.8870000  65.7240000
 169.5035949  17.1554269  65.9898681 167.4350000  17.5790000  65.7000000
 166.9445569  18.1201945  64.8908812 167.2410000  16.0760000  65.4720000
 167.8313112  15.5373319  66.2132614 166.1853478  15.8414862  65.6087541
 167.6860000  15.6480000  64.0450000 166.9674657  16.0549125  63.3335005
 168.6681988  16.0815865  63.8568844 167.7600000  14.1280000  63.8820000
 167.6350000  13.4110000  64.8770000 167.9440000  13.6370000  62.7520000
 166.8080000  18.0470000  67.0120000 167.3580000  17.8160000  68.0930000
 165.6790000  18.7330000  66.9130000 165.2207651  18.8783223  66.0247424
 165.1170000  19.3780000  68.0950000 165.8065023  19.2901091  68.9346195
 164.8790000  20.8660000  67.8100000 164.5849081  21.3170965  68.7576925
 165.8387639  21.2758844  67.4954398 163.8280000  21.1720000  66.7560000
 164.1259612  20.7216488  65.8091612 162.8709592  20.7557399  67.0704876
 163.6930000  22.6770000  66.5810000 163.4450881  23.1104129  67.5499128
 164.6534975  23.0669769  66.2441588 162.6180000  23.0420000  65.5740000
 162.8914582  22.6122092  64.6103605 161.6745708  22.6108935  65.9089444
 162.4670000  24.5230000  65.4340000 163.3409714  24.9226169  65.1232267
 161.7448485  24.7253053  64.7574870 162.2131901  24.9213981  66.3267254
 163.8310000  18.7150000  68.5920000 162.9610000  18.3360000  67.8110000
 163.6542210  18.5182974  69.7922070
