default_name
 48158
  26.0747481  38.4132332  23.0332687  25.5057547  37.6062883  23.2458420
  26.3413700  38.3750946  22.0598425  25.6199484  39.2369261  23.4004020
  27.3486292  38.2946649  23.7950362  28.2025681  38.2729358  23.1179724
  27.5001985  39.4942198  24.7358154  27.5237096  40.4141252  24.1515890
  26.6570485  39.5241761  25.4259609  28.7854225  39.3617005  25.5173129
  28.7624562  38.4421925  26.1021876  29.6291172  39.3321437  24.8278168
  28.9364979  40.5573521  26.4550342  28.4477333  40.4479071  27.6112055
  29.5392252  41.5687351  26.0062309  27.3568424  36.9567890  24.5567406
  26.3327848  36.2479235  24.5217438  28.4530287  36.6474168  25.2558704
  29.2167900  37.3082912  25.2522384  28.6309257  35.3701469  25.9915878
  28.1604037  34.5521562  25.4460610  30.1166037  35.0667157  26.1378053
  30.5737272  35.8887300  26.6886498  30.2154054  34.1456923  26.7123088
  30.8158270  34.9047671  24.7964741  30.5187961  35.7505120  24.1763217
  31.8984461  34.9101706  24.9230001  30.4194833  33.6317172  24.0960653
  29.9515501  32.6800593  24.7080326  30.6482040  33.5886049  22.8055091
  30.4041605  32.7614259  22.2798485  31.0673367  34.3827807  22.3432171
  27.9530112  35.4418921  27.3608524  28.0399141  36.4422597  28.0593268
  27.4020892  34.3122122  27.8609537  27.3919891  32.9932897  27.2024560
  28.3734560  32.7851121  26.7764453  26.6428220  32.9809538  26.4108150
  27.0410000  32.0545655  28.3483969  27.9486918  31.7093072  28.8433628
  26.4830588  31.1963229  27.9739337  26.1897235  32.8875332  29.2763986
  26.2725192  32.4870588  30.2867768  25.1377731  32.9627315  29.0009986
  26.8477069  34.2689565  29.2083877  26.1384093  35.0895162  29.3164476
  27.9460941  34.3986501  30.2747957  29.0915499  34.1749683  29.9963040
  27.5421844  34.6864989  31.4869566  26.5945334  35.0147986  31.6064399
  28.4256900  34.6221007  32.6885837  29.2357360  35.3446441  32.5893078
  27.6399557  34.9440305  33.9471932  26.7603386  34.3003574  33.9395735
  28.2464975  34.7191624  34.8244854  27.1997484  36.4075171  33.9938687
  27.7513842  37.2376257  33.1783905  26.3620654  36.7077031  34.8410933
  29.0801303  33.2430960  32.7814003  28.4981807  32.2230824  32.3381668
  30.2888305  33.1933501  33.2981189  30.7781152  34.0425047  33.5423244
  31.0108078  31.9010758  33.4309678  31.0799301  31.3389489  32.4996598
  32.4136977  32.1502317  33.9800135  32.3418326  32.8080387  34.8461692
  33.0718572  30.8386059  34.3918226  33.1444969  30.1804092  33.5260274
  34.0704568  31.0388090  34.7801760  32.4719632  30.3572686  35.1641831
  33.2586651  32.9363452  32.9768362  33.5346447  32.2440968  32.1813940
  32.6213563  33.7213338  32.5697370  34.4922957  33.5470861  33.5548051
  35.1303620  32.7626145  33.9617149  35.0314043  34.0853285  32.7752178
  34.2170733  34.2398502  34.3500600  30.2133524  30.9147619  34.2821340
  30.2010463  29.7182958  33.9420362  29.5900159  31.3914257  35.3485735
  29.6631333  32.3870131  35.5020630  28.7718574  30.5896774  36.2977801
  28.8542588  29.5321424  36.0469238  29.2474722  30.7885741  37.7331698
  29.1689490  31.8669448  37.8711911  28.5447868  30.2856460  38.3975466
  30.6560415  30.3402588  38.0566325  31.3684906  30.9347842  37.4847439
  30.9142451  30.5275054  39.5301095  30.2024293  29.9328829  40.1026837
  31.9285164  30.2051812  39.7656122  30.7987359  31.5800253  39.7888758
  30.8941055  28.9187635  37.6429845  30.7419767  28.8222984  36.5679725
  31.9163461  28.6337560  37.8917737  30.1972930  28.2654521  38.1680898
  27.3288659  31.0832621  36.2076922  27.1205566  32.3287011  36.1318579
  26.3799344  30.1787195  36.2831152  26.6167786  29.2077175  36.1376529
  24.9537565  30.5313322  36.4916863  24.7323111  31.4435037  35.9376066
  24.0474043  29.4790664  36.0396960  24.3691470  28.5352330  36.4798772
  23.0423487  29.7176969  36.3875734  24.0431256  29.3631400  34.6161045
  23.4389573  28.6647484  34.3537504  24.7227254  30.8555971  37.9541927
  25.0230822  30.0639219  38.8211443  24.1222151  31.9955721  38.2010235
  23.9923200  32.6864541  37.4758279  23.6641015  32.3170358  39.5593247
  24.4787654  32.3141496  40.2834887  22.9895841  33.6930285  39.5864407
  22.3652920  33.8083426  38.7004039  22.1197729  33.8151855  40.8436683
  22.7434865  33.7004320  41.7301861  21.6409975  34.7942508  40.8611515
  21.3557636  33.0378137  40.8344740  24.0240715  34.7782786  39.5228077
  24.5977942  34.6804784  38.6011898  23.5326497  35.7510096  39.5427703
  24.6942401  34.6927356  40.3781773  22.7089225  31.1952640  39.9732067
  21.8048931  30.8005514  39.1966607  22.8797350  30.7391150  41.2140492
  23.6141479  31.1491473  41.7731650  22.0691270  29.6865505  41.8053560
  21.7435856  30.0243001  42.7892499  21.1983436  29.5333594  41.1678860
  22.8011509  28.3846268  41.9534022  22.3031735  27.4868144  42.7066069
  23.8411539  28.1693070  41.1710108  24.1418944  28.8237868  40.4629779
  24.5319347  26.8645463  41.2585181  23.8575591  26.0218798  41.4109320
  25.4157171  26.5945153  40.0479927  25.8946122  25.6247436  40.1832801
  24.6124441  26.5887183  38.7475051  24.1335983  27.5583841  38.6112860
  25.2799564  26.3926356  37.9084106  23.8501623  25.8109971  38.7941454
  26.6004954  27.5441510  40.0032114  26.2694040  28.4494079  39.4943015
  26.8621185  27.7825426  41.0341442  27.8266804  26.9744205  39.2844935
  27.5659384  26.7362047  38.2532968  28.6295445  27.7115802  39.2947022
  28.1586516  26.0693375  39.7931386  25.3198137  26.8111485  42.5791056
  25.7443492  27.8555736  43.1628272  25.6517988  25.5818635  42.9231046
  25.3147627  24.8182175  42.3544651  26.4628780  25.2634905  44.1092640
  26.5973717  26.1204691  44.7692629  25.6535367  24.1968158  44.8513299
  24.6373958  24.5762213  44.7435875  25.7495995  23.2572412  44.3072054
  25.9510394  23.9642293  46.3125707  26.9547017  23.5447099  46.3816093
  25.8732335  25.2268179  47.1467957  24.8696613  25.6466917  47.0786214
  26.0976153  24.9901240  48.1868580  26.5963761  25.9531520  46.7758456
  24.9855605  22.8763374  46.8261025  25.1380213  21.9577002  46.2595684
  25.1786085  22.6876035  47.8821390  23.9568398  23.2138723  46.6999951
  27.8208229  24.7794915  43.6085151  27.8504183  23.8696170  42.7646718
  28.8964688  25.4004791  44.0488983  28.7648910  26.2247640  44.6175291
  30.2886258  24.9985941  43.6982186  30.3242835  24.3715749  42.8073345
  31.1989360  26.2115296  43.4799943  31.1653226  26.8228359  44.3818114
  32.6368384  25.8166854  43.1896122  32.6713129  25.2057014  42.2876084
  33.2380829  26.7140006  43.0432193  33.0342994  25.2466431  44.0293611
  30.6676134  27.1007621  42.3696287  29.6713078  27.4558068  42.6331062
  31.3332520  27.9535798  42.2364868  30.6163526  26.5320944  41.4411405
  30.7745480  24.0984509  44.8323278  30.7428271  24.5319006  45.9854476
  31.1360266  22.8617736  44.4997794  30.9263415  22.5862506  43.5509809
  31.7173939  21.8441733  45.4182383  31.8356634  20.8961662  44.8934582
  33.0831487  22.2983644  45.9164554  33.5606213  22.8399221  45.0998560
  32.9122679  22.9778420  46.7514464  33.9882892  21.1578682  46.3670206
  33.4087082  20.5127814  47.0273612  34.2848828  20.5970970  45.4806403
  35.2164189  21.6400404  47.0890063  35.8396731  22.1340986  46.3436474
  34.8772728  22.3725143  47.8215097  36.0256114  20.5591343  47.7903383
  35.3510666  19.8029641  48.1919557  36.7074452  20.0953125  47.0775472
  36.8043157  21.1636211  48.8967000  36.1726745  21.5930898  49.5575220
  37.3412647  20.4457290  49.3619060  37.4297338  21.8640336  48.5247140
  30.7733305  21.5158798  46.5847522  31.2644435  21.3547259  47.7475279
  29.4565551  21.5433300  46.3319401  29.1636027  21.7909564  45.3976171
  28.4167213  21.2850246  47.3453014  27.4290731  21.4606871  46.9189297
  28.4935657  19.8272477  47.8209351  29.4835753  19.6590409  48.2448298
  27.7385144  19.6807462  48.5932918  28.2557672  18.8481093  46.6910551
  27.3097475  19.0915270  46.2074277  29.0764326  19.0390446  45.9995705
  28.2588584  17.3709728  47.0903037  27.2650413  16.6805040  46.7921472
  29.2886548  16.8925754  47.6508555  28.5657059  22.2437897  48.5310920
  28.1279192  21.8959332  49.6194259  29.1414993  23.4362742  48.3292791
  29.4346069  23.7064422  47.4012723  29.4158463  24.3671158  49.4530249
  28.8108618  24.1100296  50.3225074  30.8780564  24.2545789  49.8305206
  31.0617450  23.2141592  50.0986338  31.4594138  24.5089411  48.9442794
  31.2921387  25.1559476  50.9841892  31.3162436  26.1888788  50.6369531
  30.5630536  25.0605953  51.7888289  32.6528337  24.7664184  51.4923713
  32.5970112  23.8123794  52.0165779  33.3526086  24.6830902  50.6608240
  33.1372500  25.7628221  52.4022727  32.4904746  26.4928483  52.6646518
  34.3529667  25.7810627  52.9206059  35.1609175  24.7413538  52.7045992
  34.8368669  23.9600212  52.1526838  36.0928316  24.7404567  53.0940025
  34.7560870  26.8139720  53.6252066  34.1338093  27.5961217  53.7705077
  35.6864111  26.8211266  54.0183283  29.0790120  25.8295322  49.1512899
  28.5298984  26.4885251  50.0463611  29.5522144  26.3667685  48.0321342
  30.0701586  25.7791679  47.3945146  29.4463915  27.8113474  47.7265830
  29.1752650  28.3648486  48.6255969  30.7763296  28.3318527  47.2201247
  31.1062393  27.7430044  46.3642529  30.7374227  29.3851832  46.9424897
  31.8405009  28.2033436  48.2638478  31.9787420  28.9206870  49.4154453
  31.2227362  29.6797141  49.6165246  33.0915064  28.5078780  50.0972261
  33.4085643  28.8762109  50.9826100  33.7108511  27.5252952  49.3798828
  34.8775840  26.8137609  49.6316036  35.4444833  27.0439593  50.5336749
  35.2427612  25.8603643  48.7210765  36.1468119  25.2828244  48.9140525
  34.5112509  25.6015917  47.5682454  34.7978836  24.8278713  46.8559970
  33.3819346  26.3389858  47.3006417  32.8690927  26.1561086  46.3563695
  32.9569284  27.2982372  48.2246300  28.3161679  28.0765995  46.7551816
  28.3978424  27.6404896  45.5843261  27.2448016  28.6869823  47.2539823
  27.2183186  28.9168166  48.2371274  26.0719726  28.9907664  46.4406919
  25.9959730  28.2508473  45.6439216  24.7795784  28.9702768  47.2495518
  24.6887116  27.9763692  47.6877185  24.8843715  29.7089250  48.0442324
  23.5445900  29.2767428  46.4379964  23.6857079  30.2512065  45.9704420
  23.4549086  28.5131689  45.6653294  22.2811303  29.2971859  47.2772751
  22.1148355  28.3043237  47.6952101  22.4030851  30.0161046  48.0874494
  21.0980842  29.6902111  46.4314636  21.2836301  30.6760905  46.0051831
  20.9844274  28.9628919  45.6276054  19.8668162  29.7279414  47.2359594
  19.9717656  30.4021441  47.9806311  19.0890201  29.9931889  46.6487822
  19.6944725  28.8143910  47.6307029  26.2808579  30.3560654  45.7937795
  26.4210633  31.3318969  46.4749963  26.2889522  30.3799024  44.4706226
  26.1282097  29.5180056  43.9692293  26.5454303  31.6068431  43.6896582
  27.3694872  32.1770903  44.1184326  26.8718742  31.3012645  42.2235156
  26.0164425  30.8001504  41.7705029  27.1753063  32.5849293  41.4543708
  28.0309724  33.0863997  41.9065478  27.4039049  32.3419311  40.4166835
  26.3079570  33.2441217  41.4900388  28.0427310  30.3448288  42.1191461
  27.7962790  29.4113950  42.6251745  28.2553803  30.1432063  41.0692755
  28.9198856  30.7909780  42.5878162  25.2941191  32.4681071  43.7803371
  24.2117913  31.9841340  43.3602364  25.4546767  33.7202477  44.2385359
  26.3823838  34.0269402  44.4942677  24.3194205  34.6572526  44.4489669
  23.3706658  34.1234514  44.3940113  24.4417286  35.2943425  45.8321644
  25.3987442  35.8115302  45.7633373  23.6472092  36.0219359  45.9978354
  24.4789897  34.3141950  46.9899302  25.2924681  33.6060145  46.8323419
  24.7007172  35.0600920  48.3068719  23.8873366  35.7681763  48.4653885
  24.7255171  34.3458315  49.1298650  25.6475208  35.5985342  48.2651185
  23.2494234  33.4435422  47.0238610  23.1802011  32.8753700  46.0962360
  23.3139385  32.7555036  47.8667975  22.3635254  34.0691179  47.1331257
  24.2347036  35.7441984  43.3711702  23.1080673  36.1062391  42.9965167
  25.3521214  36.3747912  43.0800393  26.1949930  36.1937132  43.6062309
  25.3595064  37.4754166  42.1148086  24.8761135  37.1295331  41.2011374
  24.6378114  38.7253427  42.6044768  24.6790603  39.4428386  41.7849663
  23.6024676  38.4321162  42.7782050  25.1900686  39.3491387  43.8378578
  25.0508360  38.7252838  44.7207622  26.2441283  39.6087729  43.7396214
  24.3665065  40.6197206  43.9803395  24.5883002  41.2915376  43.1511420
  23.3059048  40.3684894  43.9700300  24.6649614  41.2879002  45.2008970
  24.2436073  40.9156278  46.0399283  25.4198523  42.3636712  45.3002885
  26.0834822  42.8150831  44.2497441  26.0116124  42.3325988  43.3653552
  26.6592748  43.6403414  44.3364117  25.5283117  42.9633316  46.4734448
  25.0355497  42.5933977  47.2737164  26.1034335  43.7886350  46.5640427
  26.7528124  37.7594145  41.6459372  27.7012038  37.6217066  42.3916076
  26.8225767  38.1453208  40.3961607  26.0078565  38.0498086  39.8069173
  28.0577566  38.6572771  39.7962314  28.8988543  38.0307039  40.0929806
  27.9573941  38.6498652  38.2714644  27.6711461  37.6468218  37.9551336
  27.1817967  39.3576990  37.9790263  29.2688374  39.0342178  37.6091235
  29.4562708  40.0908616  37.8001037  30.0673822  38.4383992  38.0511963
  29.2261327  38.7904117  36.1085499  29.3523337  37.7230194  35.9273156
  28.2538440  39.1096715  35.7332804  30.3202275  39.5569399  35.3924736
  30.6162430  40.4040404  36.0112596  31.1748357  38.8955512  35.2499638
  29.8506074  40.0482163  34.0744427  29.0589784  40.6614339  34.2063040
  30.5963447  40.5543947  33.6186367  29.5766670  39.2634006  33.5007529
  28.2866463  40.0558099  40.3540598  27.3925987  40.9051482  40.2224382
  29.4772661  40.3091924  40.8702949  30.1670397  39.5773654  40.9637875
  29.7973319  41.6519928  41.4165559  29.0099642  42.3929114  41.2780249
  30.1680996  41.5725762  42.9016126  30.4236082  42.5666517  43.2685318
  28.9939084  41.0373505  43.6787280  28.7380878  40.0430403  43.3126627
  29.2532653  40.9791743  44.7358231  28.1395151  41.7019938  43.5508197
  31.4657942  40.8054812  43.1784140  31.3056481  39.7676375  42.8862933
  32.2471989  41.2412005  42.5557946  31.8951303  40.8618314  44.6527881
  31.1143724  40.4258365  45.2760260  32.8200725  40.3002876  44.7841265
  32.0559211  41.8994005  44.9455280  30.9026733  42.3209118  40.6064585
  31.1364073  43.5253049  40.8564016  31.5648369  41.5913467  39.7167999
  31.3923665  40.6045823  39.5877679  32.5970931  42.2388301  38.8770533
  32.2009702  43.1846411  38.5074218  33.4761642  42.4294670  39.4926757
  32.9958368  41.3843948  37.7060633  32.8179139  40.1615973  37.7457585
  33.5655937  42.0279020  36.6882029  33.5724765  43.0367867  36.7351451
  34.1741927  41.3826507  35.5220936  34.2667260  40.3079269  35.6786359
  33.5843556  41.5691154  34.6246403  35.5481747  41.9709902  35.3365537
  35.6379287  43.0154139  34.6927740  36.5057106  41.4580211  36.1098006
  36.2346640  40.7058664  36.7269686  37.9106380  41.9044986  36.1271414
  37.9357313  42.9755009  36.3281979  38.4373713  41.3739962  36.9203744
  38.6074520  41.6331203  34.8029367  37.9284921  41.2813459  33.8143223
  39.9310096  41.8009412  34.7922868  40.3577060  42.0934356  35.6597409
  40.7997862  41.5928658  33.6227289  40.5725121  42.3516175  32.8739021
  41.8401146  41.6897454  33.9332613  40.5923953  40.2182276  33.0120342
  40.3978718  40.1371186  31.7908004  40.6704169  39.1499620  33.8055366
  40.6701484  39.2462155  34.8109393  40.8284871  37.7916935  33.2288170
  40.6028258  37.8127153  32.1626396  42.2696912  37.2986641  33.4153907
  42.4668906  37.3882640  34.4836525  42.4410922  36.2695040  33.0998733
  43.3021353  38.1418417  32.7144486  43.8811162  39.2190544  33.3652044
  43.6101494  39.4261272  34.4004810  44.7967331  40.0300517  32.7129023
  45.2564084  40.8631261  33.2446789  45.1235649  39.7885528  31.4088573
  45.8846653  40.3922901  30.9145625  44.4887743  38.7790360  30.7179574
  44.6812491  38.6414245  29.6539477  43.6024970  37.9359190  31.3788336
  43.1390020  37.1061354  30.8452313  39.8301572  36.8256876  33.8686327
  40.0601957  35.5693043  33.9064397  38.7341436  37.3589617  34.3793810
  38.5809878  38.3569405  34.4054745  37.6885962  36.4750811  34.9348941
  37.3272809  35.8146174  34.1466440  38.1193412  35.8784881  35.7390302
  36.5288126  37.2684515  35.4799541  36.3619325  38.4014889  35.1099983
  35.7246550  36.6265226  36.3085136  35.9383152  35.6600187  36.5093095
  34.5368018  37.2185255  36.9286485  34.5189905  38.2957502  36.7632132
  33.3002421  36.6160996  36.3124267  33.3724310  35.5319707  36.3993317
  32.4356221  36.9683979  36.8749374  33.1407825  37.0006973  34.8367725
  32.9088905  38.0417743  35.0614626  34.0373321  36.9539455  34.2186203
  31.9920150  36.3812003  34.0983088  31.3989053  35.4359334  34.6203428
  31.8958864  36.6634214  32.8826935  34.5740671  36.9574324  38.4251867
  35.2151427  36.0041195  38.8508890  33.9352356  37.8247137  39.1863001
  33.5410202  38.6519822  38.7616587  33.8649762  37.6910215  40.6474764
  34.1456314  36.7045996  41.0166699  34.7130995  38.7543929  41.3419560
  35.7546099  38.5659628  41.0814744  34.3505046  40.1367818  40.9557048
  33.3091911  40.3261210  41.2163148  34.9910168  40.8423093  41.4849266
  34.4839548  40.2611810  39.8810816  34.7125673  38.5843259  42.8612012
  33.7532581  38.9430215  43.2342484  34.8101237  37.5200268  43.0753261
  35.8220892  39.3330503  43.5356564  35.7249273  40.3975514  43.3223564
  35.7675737  39.1723116  44.6123599  36.7817933  38.9745578  43.1634321
  32.4058250  37.7269416  41.0766389  31.6062745  38.5292392  40.4880070
  32.0799872  36.9020780  42.0439288  32.8336706  36.4059095  42.4976662
  30.7083066  36.6668710  42.5147442  30.0460237  37.4149838  42.0790749
  30.2080345  35.2847326  42.1188967  30.9025130  34.5618002  42.5468774
  29.2280034  35.1634910  42.5803504  30.0960912  35.0554477  40.6403490
  31.2139248  34.7835117  39.8555071  32.1903301  34.7115496  40.3346246
  31.0989019  34.6046768  38.4814358  31.9866050  34.4080573  37.8802487
  29.8675510  34.7321316  37.8722928  29.7586240  34.5699501  36.5000939
  30.5979654  34.3728853  36.0778722  28.7377069  34.9658066  38.6450582
  27.7554285  35.0389640  38.1782845  28.8641503  35.1055955  40.0119895
  27.9785121  35.2604888  40.6282307  30.6775863  36.7598677  44.0420627
  31.6793728  36.5026167  44.7125906  29.5366395  37.1878557  44.5449462
  28.8913279  37.6459811  43.9174166  29.1385503  37.0112135  45.9418426
  30.0013571  37.1148164  46.5998168  28.1160892  38.0773851  46.3089587
  28.5527439  39.0535808  46.0980704  27.2796825  37.9003321  45.6328107
  27.6237241  38.0438362  47.7393422  27.9354048  37.0979221  48.4388897
  26.9425630  39.0355343  48.1501163  28.5020989  35.6444726  46.0623206
  27.6334820  35.2813020  45.2071804  29.0374165  34.8137058  46.9355391
  29.8637873  35.1062577  47.4371604  28.5285847  33.4631519  47.1663040
  27.6079219  33.3260474  46.5991342  29.5223117  32.4125974  46.7340692
  30.4464236  32.5312294  47.2997932  29.1079985  31.4216277  46.9196063
  29.7311936  32.5251568  45.6702092  28.1767872  33.3048859  48.6405334
  28.8445989  33.9039855  49.4572439  27.2561450  32.3952516  48.9436729
  26.6717634  32.0106923  48.2151734  27.0325726  31.9351167  50.3487399
  27.3514013  32.7096956  51.0462174  25.5475743  31.6426068  50.5872440
  25.1923089  31.3180196  49.6092211  25.4457815  30.8243614  51.3001344
  24.7162062  32.8382766  51.0609421  24.7488582  33.6248003  50.3070090
  23.2851940  32.4056619  51.2749482  23.2516856  31.6194226  52.0291390
  22.6941831  33.2572219  51.6120721  22.8754087  32.0276556  50.3383118
  25.2510935  33.5123627  52.3158912  26.2605762  33.8790162  52.1298553
  24.6049508  34.3484612  52.5833608  25.2714559  32.7931663  53.1346958
  27.8746239  30.6679212  50.5977063  27.7524170  29.6907918  49.8774463
  28.7553130  30.7276797  51.5849082  28.9265470  31.6198573  52.0262668
  29.5272726  29.5515220  52.0540229  29.7701318  28.9105791  51.2064908
  30.8111715  29.9832956  52.7147733  31.3425519  30.7071545  52.0969041
  30.4468807  30.4745359  53.6170344  31.7461811  28.8659872  53.0947116
  31.2395737  27.7760572  53.3901933  33.0068712  29.0921588  52.9732291
  28.6669900  28.7564922  53.0346848  28.3860407  29.2772098  54.1578631
  28.1643186  27.6250486  52.6183835  28.3453317  27.2800325  51.6865586
  27.1765524  26.8992776  53.4589591  26.5491191  27.6153484  53.9896844
  26.2816330  26.0119249  52.5956734  26.9149879  25.4767680  51.8881651
  25.7817444  25.2963009  53.2484319  25.1900156  26.8555031  51.7981614
  25.6750901  27.1571341  50.8698176  24.3849092  26.1551375  51.5759143
  24.4713271  28.3766950  52.6436411  23.6504248  27.5961804  54.0565153
  24.3878245  27.0635816  54.6570810  23.1700102  28.3612653  54.6663903
  22.8986205  26.8932197  53.6977149  27.8775225  26.1473714  54.5986551
  27.1576044  25.6916650  55.5395126  29.1924762  26.0607142  54.6149102
  29.7417969  26.3737585  53.8272876  29.9054610  25.4635626  55.7821495
  29.3627927  24.5934213  56.1515602  31.3104671  25.0193629  55.3526133
  31.1500713  24.2850460  54.5632141  31.8494452  25.8757663  54.9474271
  32.1259390  24.3907504  56.4708158  32.1500496  25.0694123  57.3234221
  31.5103721  23.0950390  56.8838851  31.4863347  22.4156449  56.0318612
  32.1006034  22.6509834  57.6854725  30.4940644  23.2710440  57.2363641
  33.5596005  24.1838468  56.0394290  34.0034825  25.1447026  55.7789979
  34.1237524  23.7329234  56.8558247  33.5869827  23.5244854  55.1719085
  29.9895422  26.4888858  56.9247942  29.5767912  26.1682826  58.0598771
  30.3896403  27.7104021  56.6319300  30.6424697  27.9073643  55.6741291
  30.6071874  28.7632218  57.6439883  30.6873484  28.3498420  58.6493691
  31.8599483  29.5606461  57.3473360  31.9403390  30.3663596  58.0770369
  33.1101403  28.6781784  57.4216635  33.0306815  27.8724521  56.6918751
  33.9931190  29.2790711  57.2040039  33.1973378  28.2542821  58.4220680
  31.6752672  30.1462781  56.0521259  32.4500680  30.6641361  55.8216764
  29.3655386  29.6489996  57.7783904  29.3590850  30.4497602  58.7237404
  28.4561684  29.5592813  56.8364633  28.6700424  28.9754873  56.0405099
  27.1888992  30.3405330  56.8185864  26.6316275  30.1470939  55.9020010
  26.3279150  29.9152094  58.0147147  26.9503717  29.9975067  58.9057108
  25.5003698  30.6212540  58.0837810  25.7855606  28.5163515  57.9099369
  25.0788148  28.4492753  57.0828263  26.5997814  27.8096307  57.7496486
  25.0712934  28.1815301  59.2179468  25.7840271  28.2109594  60.0421091
  24.2782016  28.9072477  59.3980550  24.4887503  26.8671167  59.1589402
  24.7971229  26.2711794  58.4040466  23.5649227  26.3942927  60.0127698
  23.1227656  27.1455593  61.0132445  23.4827675  28.0812744  61.1354576
  22.4282623  26.7781965  61.6479171  23.1137894  25.1716309  59.8640186
  23.4628463  24.5959382  59.1111327  22.4194633  24.8115774  60.5030581
  27.5197274  31.8221463  56.7889089  27.1591122  32.5975154  57.7207761
  28.3143395  32.2179282  55.8040530  28.6281592  31.5150719  55.1501343
  28.7495016  33.6003213  55.5988426  28.0572817  34.2783974  56.0979855
  30.1628730  33.8267097  56.1747354  30.8155114  33.0828114  55.7178135
  30.4765954  34.8236539  55.8652512  30.2494186  33.7163211  57.6770714
  29.5037040  34.4331409  58.0208444  29.9568179  32.7125180  57.9850704
  31.5954752  34.0581875  58.2835341  32.5342518  34.3183151  57.5050093
  31.7182494  33.9820689  59.5628498  28.7901797  33.8998646  54.1004591
  28.9934061  32.9803905  53.2995824  28.7124403  35.1735414  53.7286297
  28.4461952  35.8798718  54.3996812  28.9498119  35.5901258  52.3279141
  28.5454817  34.8244710  51.6658046  28.2961015  36.9307572  51.9822478
  28.6268281  37.6291322  52.7510076  28.6040407  37.2968012  51.0028167
  26.8035017  36.8546825  52.0161645  26.1557400  37.0035699  53.0582932
  26.2409005  36.5402603  50.8820906  25.2351410  36.4687164  50.8235330
  26.8136787  36.3698238  50.0678564  30.4517508  35.6542632  52.1069887
  31.2172117  36.0726321  53.0185204  30.8728831  35.2342265  50.9190716
  30.1702102  34.8966475  50.2768953  32.2879448  35.1818462  50.4994580
  32.9063201  35.8490657  51.0998990  32.8548697  33.7466957  50.6128347
  33.8930731  33.7481367  50.2808242  32.7837208  33.2584779  52.0518345
  31.7457026  33.2563206  52.3844220  33.1865333  32.2475118  52.1133975
  33.3678738  33.9212851  52.6902337  32.1288683  32.7714229  49.7118826
  32.2264636  33.0922974  48.6747632  32.5625307  31.7780129  49.8266567
  31.0739246  32.7404716  49.9843467  32.3879611  35.6940117  49.0755310
  31.3526714  35.7912726  48.3909073  33.5929223  35.9762443  48.6298997
  34.3511776  35.9718741  49.2970797  33.9012631  36.3026729  47.2189226
  33.0197571  36.6472385  46.6782555  34.9498944  37.3607314  47.1444007
  35.8422485  37.0265208  47.6736525  35.1981064  37.5541424  46.1008092
  34.5767506  38.2758512  47.6042036  34.3974510  35.0357545  46.5357064
  35.1644097  34.2720978  47.1148167  33.9141595  34.8534982  45.3298122
  33.2589645  35.5354333  44.9751527  34.2431824  33.6882055  44.4792012
  35.0363393  33.0963875  44.9360957  32.9998683  32.8056008  44.3261102
  32.8426081  32.3521944  45.3047782  32.1635913  33.4646882  44.0929910
  33.0942407  31.7105657  43.2679202  33.4791855  32.1271397  42.3371224
  33.9908930  30.6835230  43.7421762  33.6063467  30.2661247  44.6727683
  34.0675413  29.8938907  42.9947093  34.9768207  31.1139269  43.9176740
  31.7118662  31.1141689  42.9825560  31.0453797  31.8971846  42.6209185
  31.8009266  30.3351950  42.2253445  31.3045716  30.6852905  43.8981287
  34.7341758  34.2332958  43.1409295  33.9202702  34.8015960  42.3853121
  36.0220813  34.0444952  42.8457538  36.6269526  33.6508558  43.5523499
  36.6062541  34.3990553  41.5512642  36.0123362  35.1808962  41.0778875
  38.0313584  34.9137282  41.7364867  38.5716690  34.1648821  42.3156182
  38.4758840  34.9954868  40.7446135  38.1157112  36.2468376  42.4361702
  37.5213049  36.9609698  41.8662605  37.6860087  36.1293052  43.4309787
  39.5331458  36.7550916  42.5571123  40.1324044  35.9934571  43.0560122
  39.9258163  36.9267956  41.5549013  39.5928807  38.0341848  43.3441870
  38.9099965  38.7563366  42.8966757  39.2857615  37.8320123  44.3702977
  40.9682122  38.5870218  43.3402504  41.2528259  38.7748322  42.3895548
  40.9878021  39.4447146  43.8732413  41.6010770  37.9181884  43.7552721
  36.6039897  33.1584545  40.6587786  36.9180699  32.0951237  41.1520313
  36.3402358  33.3450830  39.3912228  36.0663807  34.2650726  39.0770224
  36.3302755  32.2328087  38.4067856  37.0085588  31.4337329  38.7059658
  34.9353054  31.6342671  38.1847124  35.0114471  30.8268181  37.4564763
  34.3675794  31.0928369  39.4812144  34.2907018  31.8998596  40.2098468
  33.3781387  30.6737667  39.2982177  35.0249580  30.3148832  39.8694708
  34.0063741  32.6644946  37.5698401  34.4082993  32.9901788  36.6104194
  33.0214384  32.2224947  37.4193829  33.9211322  33.5219389  38.2373908
  36.9336238  32.6948039  37.0914392  36.8943684  33.8828823  36.7793836
  37.4358700  31.7341551  36.3823928  37.4989701  30.8284633  36.8249310
  37.9493149  31.8777505  35.0080130  37.5165961  32.7623178  34.5406861
  39.4728530  32.0284416  35.0236567  39.7707732  32.3885736  34.0389497
  39.7140827  32.7816477  35.7737159  40.2156850  30.7478087  35.3381056
  39.6387613  30.5011936  36.2294198  40.1014487  29.9533231  34.6006492
  41.6919883  30.8891347  35.7099446  42.1680762  31.9865719  35.6056858
  42.3487777  29.8597477  35.8536916  37.5241058  30.6493873  34.2118760
  37.4073117  29.5465510  34.7881443  37.2851160  30.8054266  32.9232005
  37.2317476  31.7276767  32.5149039  37.0340785  29.6389062  32.0530314
  36.2254246  29.0448877  32.4788484  36.6498348  30.0455377  30.6710076
  35.6425599  30.4619065  30.6825617  37.3493257  30.7980402  30.3069300
  36.6838584  28.9211414  29.8194330  36.4361445  29.1854531  28.9304016
  38.2918314  28.7490814  32.0159601  39.4034830  29.3016374  31.8988034
  38.1186924  27.4390541  32.0425756  37.1893635  27.0911220  32.2306989
  39.2138647  26.4651852  31.9049204  40.0201538  26.7257601  32.5905572
  38.7226642  25.0838416  32.2431894  37.9210486  24.8050847  31.5592252
  39.5433779  24.3727010  32.1493366  38.3472110  25.0716063  33.2664119
  39.8040367  26.5502001  30.4898679  40.8731076  25.9938822  30.3140047
  39.1067585  27.1880430  29.5371315  38.2561291  27.6512604  29.8234156
  39.4896618  27.2394741  28.0957767  40.2483111  26.4835010  27.8931560
  38.2829791  26.9730475  27.1977290  37.4396467  27.5274266  27.6094977
  38.5212115  27.3584453  26.2063593  37.9204236  25.5054426  27.0950088
  37.2099683  25.4083355  26.2740798  38.7959259  24.8886852  26.8920109
  37.2661863  25.0114906  28.3587599  36.3161419  25.6098179  28.8763670
  37.8112864  23.9363254  28.9031961  37.4224257  23.5516061  29.7522425
  38.6138617  23.5050225  28.4673612  40.0873018  28.5948468  27.6830890
  40.5843318  28.6739356  26.5321359  40.0452479  29.6223396  28.5200963
  39.6536492  29.5122038  29.4445528  40.4409622  30.9912772  28.0780318
  40.0598438  31.1639245  27.0715325  39.8886224  32.0708126  28.9993837
  40.1014550  33.0343180  28.5362867  38.8097527  31.9273242  29.0589766
  40.4741726  32.0399344  30.3810358  40.4642413  31.0538312  30.8453662
  41.5052551  32.3565136  30.2237187  39.8070632  33.0179856  31.3134278
  38.5803544  32.9869527  31.5604975  40.6452441  33.8214456  31.9566414
  40.2850796  34.5092221  32.6026650  41.6393415  33.7413410  31.7970950
  41.9571651  31.0389970  27.9283875  42.6728254  30.2941941  28.5874665
  42.4756242  31.8501565  26.9760728  41.7122631  32.8492031  26.2052318
  41.4307230  33.6563107  26.8815548  40.8131272  32.3669152  25.8217584
  42.6318629  33.3117743  25.1022476  42.5665656  34.3963947  25.0160266
  42.3202381  32.8537736  24.1635109  44.0426496  32.8663639  25.4845205
  44.5963059  33.7228635  25.8691918  44.5767478  32.4409740  24.6348840
  43.8836451  31.8004375  26.5957700  44.0932085  30.7881702  26.2500874
  44.8442297  32.1588380  27.7451095  45.9087099  31.5817406  27.8218985
  44.4964997  33.1566375  28.5446411  43.6539074  33.6815439  28.3586010
  45.3543472  33.5788828  29.6891915  46.2276123  32.9270147  29.7131772
  45.8299793  35.0304268  29.6120097  46.3277057  35.1760565  28.6532815
  44.9561915  35.6794983  29.6694655  46.7948708  35.3753354  30.7434210
  46.2033980  35.3956398  31.6587616  47.5152913  34.5589805  30.7950060
  47.5288356  36.6842932  30.5902891  48.2608427  36.5795859  29.7894764
  46.8076412  37.4569491  30.3238666  48.2341167  37.0733269  31.8694890
  48.6252695  38.0838404  31.7513259  47.5057937  37.0587067  32.6803102
  49.3513102  36.1435566  32.1897654  50.0265162  36.1572790  31.4387605
  49.7964938  36.4352709  33.0481442  48.9890120  35.2072077  32.2997197
  44.5866974  33.3555538  30.9820766  43.5098440  33.9611631  31.1545063
  45.1047403  32.4336772  31.7899146  45.9192163  31.9198472  31.4854366
  44.5086874  32.0899723  33.0932940  43.5624785  32.6144250  33.2264751
  44.2483644  30.5999566  33.1524233  45.1550998  30.0764139  32.8493834
  44.0000463  30.3309832  34.1791129  43.0948854  30.2002819  32.2269839
  42.1775634  30.5224196  32.7197805  43.1888704  30.7084279  31.2672670
  43.0136153  28.7246168  31.9814263  43.2089734  27.9102053  32.8802578
  42.7676532  28.3661700  30.7293078  42.6995555  27.3868833  30.4916910
  42.6494565  29.0739673  30.0185661  45.4542877  32.5451224  34.2063845
  46.6730482  32.3085149  34.0675113  44.9414859  33.2319674  35.1991016
  43.9507999  33.4275602  35.2187010  45.7939496  33.8341867  36.2414444
  46.8242545  33.4801229  36.2762249  45.8043671  35.3701554  36.1700834
  46.3671702  35.7459976  37.0245392  46.4425418  35.8851746  34.8700533
  45.8799701  35.5100985  34.0151077  46.4276138  36.9750574  34.8642983
  47.4732429  35.5361067  34.8075365  44.4250849  35.9561287  36.4496312
  44.0998820  35.6612681  37.4473297  44.4728270  37.0434573  36.3901595
  43.7149331  35.5832332  35.7115701  45.3806906  33.3401089  37.6270455
  46.0175599  33.8024387  38.6249812  44.3554635  32.4739674  37.7684711
  43.8210896  32.1146528  36.9903728  43.9138742  32.1342583  39.1390818
  43.8939682  33.0440657  39.7390431  42.5195234  31.5033843  39.1609209
  42.5053704  30.8012044  38.3273489  42.3878364  30.9590989  40.0960743
  41.3879001  32.5098553  38.9958759  41.4682011  32.9818148  38.0166380
  40.0330475  31.8026171  39.1122264  39.9518158  31.3307759  40.0914435
  39.2309612  32.5309658  38.9927838  39.9515105  31.0424501  38.3353105
  41.4468019  33.6217991  39.9884144  42.3875266  34.1607087  39.8756630
  40.6146536  34.3051382  39.8190682  41.3813288  33.2132413  40.9968254
  44.9634850  31.2442470  39.8192677  45.0058505  31.3023608  41.0541077
  45.8211574  30.5502120  39.0687562  45.7296585  30.5158001  38.0634985
  46.9158989  29.7761555  39.7018602  46.5025293  29.0709318  40.4228903
  47.6937988  28.9930943  38.6430945  46.9801849  28.3262590  38.1591678
  48.0580764  29.7218189  37.9189658  48.8642042  28.1811080  39.1776171
  49.6882565  28.8719792  39.3557622  48.5512271  27.7381971  40.1231208
  49.3158960  27.0924961  38.2384714  48.6188972  26.2589258  38.3247981
  49.2861381  27.4866034  37.2226499  50.7229750  26.6108158  38.5537760
  51.3781875  27.4776535  38.6397379  50.7045076  26.0744716  39.5025084
  51.2268058  25.7173006  37.4939996  51.2444035  26.2142298  36.6148799
  52.1609615  25.4120428  37.7269604  50.6200510  24.9137937  37.4144741
  47.8396323  30.7527157  40.4480402  48.2601535  30.4458139  41.6004078
  48.0767505  31.9250007  39.8787004  47.7179839  32.1086519  38.9526021
  48.9034991  32.9808805  40.5411644  49.8137583  32.5283413  40.9345290
  49.2951285  34.0993064  39.5584585  49.8356611  33.6326790  38.7349401
  48.3711948  34.5391653  39.1829978  50.1546309  35.1822732  40.1767244
  50.3017105  35.9533506  39.4204783  49.5994199  35.5993256  41.0169090
  51.7867719  34.5970169  40.7649375  52.5767088  34.1747163  39.2328083
  52.6370059  35.0591892  38.5986389  53.5814257  33.8019809  39.4320892
  51.9975379  33.4032439  38.7253710  48.1406398  33.5726979  41.7191300
  48.7126228  33.8109466  42.8160074  46.8558603  33.8453144  41.5229900
  46.4607478  33.7372759  40.5997820  45.9856474  34.3513227  42.6013012
  46.3060256  35.3523703  42.8900238  44.5214779  34.4185078  42.1389918
  44.4783217  35.0613235  41.2597735  44.2109497  33.4098203  41.8665552
  43.5880890  34.9643567  43.2133642  42.5759520  34.5760780  43.0997015
  44.0572989  34.5050730  44.0834215  43.5340149  36.4664034  43.4032083
  44.0341308  37.1868406  42.5131991  42.8555597  36.8876556  44.3408127
  46.1235736  33.4487827  43.8231265  46.3378850  33.9738877  44.9430584
  45.9821657  32.1511512  43.6383100  45.8221284  31.7826140  42.7116667
  46.0057726  31.1915220  44.7910201  45.3644776  31.4870768  45.6213739
  45.6125388  29.7719247  44.3472807  46.1897826  29.5264330  43.4558646
  45.8785865  28.7231415  45.4326113  45.3012878  28.9677218  46.3242433
  45.5835458  27.7392384  45.0679384  46.9404207  28.7154680  45.6786820
  44.1998516  29.7289968  43.8886730  44.0704572  30.4068365  43.0449358
  43.9479491  28.7141931  43.5807472  43.5433669  30.0344290  44.7034367
  47.3807197  31.1694086  45.4222613  47.4862769  31.2058290  46.6128045
  48.4427902  31.1526823  44.6116809  48.3166287  31.1692635  43.6097290
  49.8139904  31.0500229  45.1415499  49.9385834  30.1612862  45.7601959
  50.8006001  30.9887695  44.0081120  50.6942335  31.8765846  43.3847577
  51.8132648  30.9462010  44.4091087  50.6103775  30.0990664  43.4078262
  50.0561849  32.2561589  46.0561421  50.6211109  32.0845481  47.1458473
  49.7823543  33.4452091  45.5575429  49.4154001  33.5454096  44.6219127
  50.0950386  34.6824121  46.3310960  51.0639112  34.6734177  46.8303996
  50.0088494  35.9325472  45.4537615  49.0145023  35.9937473  45.0114635
  50.2658402  37.1680217  46.2894214  51.2602517  37.1077575  46.7317051
  50.2027807  38.0541114  45.6577814  49.5198284  37.2332156  47.0814553
  50.9106354  35.8311659  44.2350434  50.6149117  34.9711988  43.6341224
  50.8197894  36.7390077  43.6386626  51.9450313  35.7104576  44.5568438
  49.1631580  34.7783200  47.5394524  49.6583672  35.1146194  48.6385305
  47.8574703  34.5924238  47.3738894  47.4793568  34.4107132  46.4551344
  46.9234461  34.6408729  48.5194441  46.8181869  35.6507689  48.9158399
  45.5776356  34.1864244  47.9868882  45.4910399  34.6730145  47.0153788
  45.6792317  33.1103612  47.8459407  44.3541370  34.4689470  48.7956639
  44.3819316  33.8184140  49.6698120  44.2480601  35.9162290  49.2450952
  44.2197457  36.5673800  48.3714251  43.3364610  36.0505177  49.8273790
  45.1117565  36.1706902  49.8594066  43.1699358  34.1242393  47.9064843
  43.2199639  33.0722658  47.6255067  42.2422313  34.3116364  48.4471764
  43.1974647  34.7413468  47.0084200  47.4143016  33.7081415  49.6213093
  47.4412306  34.1096917  50.8073929  47.8238928  32.4977776  49.2772813
  47.7462554  32.1813195  48.3212865  48.3072744  31.5375032  50.2986262
  47.5703614  31.4623327  51.0982560  48.5280587  30.1384591  49.7009474
  49.0903372  30.2510022  48.7739759  49.1132683  29.5549744  50.4117042
  47.2382715  29.4331210  49.4192415  46.7169871  29.3329886  50.3712588
  46.6620589  30.0784659  48.7562099  47.3915922  28.0929351  48.7954214
  47.6451062  28.2270854  47.7438352  48.2019865  27.5665761  49.2997097
  46.1234343  27.2868716  48.9071270  45.2707283  27.9462859  48.7453690
  46.1309539  26.5094590  48.1431425  46.0170403  26.6624140  50.2450201
  46.0096223  27.3826334  50.9530658  45.1620488  26.1275471  50.2998558
  46.8068612  26.0510166  50.3949371  49.5646794  32.0926593  50.9485680
  49.7188291  31.9762136  52.1687710  50.5197642  32.6005151  50.1610012
  50.4083756  32.6024291  49.1571644  51.7957160  33.0830204  50.7243240
  52.2636857  32.2997403  51.3206259  52.7502080  33.4698726  49.5873079
  52.1243023  33.7455239  48.7385690  53.3016072  34.3450976  49.9308774
  53.7307826  32.3877247  49.1632508  53.3658167  31.4548584  49.5929730
  53.6774397  32.3316814  48.0759994  55.1770290  32.6117220  49.5898168
  55.5429768  33.4608726  49.0126475  55.1515518  32.8756072  50.6470845
  56.1045724  31.4232424  49.3863754  56.9658392  31.5544139  50.0414434
  55.5630808  30.5223645  49.6750014  56.5674866  31.2934515  47.9798613
  57.0696417  32.1279455  47.7123548  57.1777484  30.4927555  47.8988280
  55.7695970  31.1714679  47.3727441  51.5471074  34.2446624  51.6938308
  52.3844760  34.4637770  52.5892998  50.4699330  34.9949579  51.5049022
  49.8383478  34.7803066  50.7465327  50.2090786  36.2107603  52.3150802
  51.1357275  36.5705766  52.7622416  49.6446685  37.2980276  51.4347785
  48.8436581  36.7847840  50.9027421  49.2192692  38.0785130  52.0656335
  50.5979815  37.9215687  50.4331655  51.0918045  37.1397868  49.8560548
  49.7938889  38.8314179  49.4827200  49.3001214  39.6137774  50.0590932
  50.4683166  39.2861335  48.7571293  49.0440234  38.2384098  48.9591328
  51.7046762  38.6616493  51.2150744  52.2385201  37.9532094  51.8484961
  52.4026029  39.1184129  50.5133860  51.2553076  39.4365414  51.8361292
  49.3051810  35.9195999  53.4937531  49.0473876  36.8499183  54.2652726
  48.8745939  34.6895235  53.7109922  49.0575888  33.9223377  53.0800895
  47.9884802  34.4495052  54.8650437  47.1347195  35.1258621  54.8234117
  47.4799604  33.0302703  54.8500489  48.3312902  32.3540985  54.7717646
  46.9490174  32.8386952  55.7825180  46.5281122  32.7974313  53.6599666
  47.1327898  32.9626937  52.7682524  46.1500688  31.7750909  53.6576317
  45.3357999  33.7607405  53.6288429  44.4333837  33.6332905  54.4548081
  45.2533759  34.6859611  52.6606987  44.4684597  35.3212066  52.6389914
  45.9766206  34.7429937  51.9580140  48.7470004  34.8206915  56.1552925
  49.8965660  34.4162713  56.3189667  48.0459635  35.4995242  57.0603491
  47.0660227  35.6811454  56.8965534  48.6506149  36.0020125  58.3059081
  47.9173831  35.9022960  59.1062374  49.5224736  35.3889345  58.5341559
  49.0793500  37.4516828  58.2079379  49.4139257  38.0020296  59.2597865
  49.2063880  37.9939820  56.9925553  49.0234637  37.4129949  56.1868929
  49.6466285  39.3767332  56.7681594  50.3227973  39.6645526  57.5731779
  50.3693249  39.5508238  55.4405644  49.6294831  39.3579040  54.6637019
  50.6776735  40.5953744  55.3965720  51.5767205  38.6576397  55.2218483
  51.3564351  37.6782307  55.6465049  51.7371693  38.5598027  54.1481695
  52.8098323  39.2120494  55.8613844  52.8110251  40.2936440  55.7262893
  52.7797791  38.9794035  56.9258430  54.0604785  38.6290032  55.2551714
  53.9263570  38.5297480  54.1780175  54.9015914  39.2924144  55.4564520
  54.3304496  37.2995439  55.8423337  53.5513618  36.6845329  55.6555628
  55.1692514  36.9144314  55.4322119  54.4551845  37.3913543  56.8403874
  48.4313026  40.2777692  56.8306915  47.2801310  39.8274705  56.6327092
  48.6958785  41.5535427  56.9974564  49.6367896  41.8437709  57.2222970
  47.6467387  42.5757850  56.9470052  46.7365475  42.2137845  57.4251336
  48.1279305  43.8183150  57.6917688  48.7635083  43.5335223  58.5302396
  48.7183922  44.3691604  56.9596320  46.9959711  44.6955803  58.1910308
  45.8301473  44.2907794  58.0398486  47.3124166  45.7552008  58.7922924
  47.2950705  42.8535835  55.4741470  48.0988542  42.5855119  54.5622038
  46.1682051  43.4904433  55.2745347  45.5419927  43.5449039  56.0650986
  45.7161983  44.0559291  53.9782922  44.7635132  44.5665707  54.1187758
  46.7355497  45.0624969  53.4219920  47.6699232  44.5618699  53.1681851
  46.3440272  45.5689645  52.5397784  47.0759889  46.1258775  54.4078784
  46.1550039  47.0816617  54.8405552  46.7754361  47.9235969  55.6801133
  46.2524262  48.7902667  56.0843942  48.0285315  47.4862714  55.8677633
  48.7155345  47.8820502  56.4934516  48.2346851  46.3955956  55.0606090
  49.2117721  45.9131361  55.0354096  45.4368338  42.9565864  52.9542669
  45.4374764  43.2659283  51.7746766  45.1822799  41.7379886  53.3860999
  45.3093376  41.4814698  54.3546833  44.8772344  40.6612586  52.4053197
  44.4416162  41.0344696  51.4784704  46.0646293  39.7317323  52.0547543
  45.7606503  39.1027593  51.2180410  47.3171936  40.4973727  51.6814616
  47.6220688  41.1262671  52.5179088  48.1164286  39.7947234  51.4456482
  47.1156988  41.1228618  50.8118268  46.3466666  38.7044577  53.1044800
  45.4681564  38.0740487  53.2419807  47.1902467  38.0883260  52.7932663
  46.5874392  39.2012416  54.0443391  43.6390035  39.8886125  52.8701027
  43.3979731  39.7287482  54.0956514  42.8993812  39.4160018  51.9018507
  43.1288092  39.6377720  50.9435814  41.6944649  38.6107220  52.1628073
  41.0821760  39.1082731  52.9149007  40.8680590  38.4340091  50.9052336
  41.4702710  38.0006277  50.1067221  40.0064139  37.7947463  51.0976155
  40.2002652  39.9975677  50.2435624  39.5736963  39.4525443  49.2046884
  42.0736975  37.2633553  52.7319072  43.0416816  36.6522021  52.2924069
  41.2681525  36.7567425  53.6416433  40.5601535  37.3405813  54.0635070
  41.4004017  35.3608466  54.1155323  42.4227527  35.1826894  54.4489355
  40.4503661  35.0902594  55.2849303  40.5937454  35.8912308  56.0101796
  39.4342455  35.1334393  54.8928405  40.6748132  33.7506449  55.9605542
  40.3278221  32.9588833  55.2966177  41.7411607  33.6252724  56.1484018
  39.9156314  33.6766653  57.2781186  38.8595999  33.8798348  57.1003019
  40.0264415  32.6799886  57.7052676  40.4264098  34.6563958  58.2360724
  39.9212337  35.5250171  58.3380202  41.4880957  34.4359268  59.0280134
  42.1530139  33.2945355  58.9387283  41.8588710  32.5929186  58.2744138
  42.9513282  33.1306934  59.5353434  41.9204438  35.3748751  59.8552481
  41.4483832  36.2669815  59.8927297  42.7203320  35.1947255  60.4450139
  41.1261833  34.3918959  52.9602003  40.1006299  34.5256412  52.2515746
  41.9976957  33.4239112  52.7843009  42.8420612  33.4471058  53.3380231
  41.8235052  32.3251576  51.8265408  41.4832708  32.7126391  50.8662295
  43.1575222  31.6083964  51.6190941  43.8159096  32.2944775  51.0862545
  43.6446965  31.2765456  52.5359563  43.0085113  30.4038854  50.7557286
  42.9769201  30.5508969  49.3875150  43.1024506  31.5396446  48.9462442
  42.7849453  29.4392750  48.5657994  42.7331476  29.5551578  47.4832151
  42.6611446  28.1942913  49.1292203  42.6277676  27.3116595  48.4905131
  42.5790707  28.0577386  50.4983464  42.3354318  27.0930472  50.9434429
  42.8087855  29.1576483  51.3104435  42.8322256  29.0398244  52.3938031
  40.7928154  31.3393141  52.3417078  40.8831105  30.8880481  53.4914837
  39.8710890  30.9336745  51.4673384  39.8884121  31.3033235  50.5275730
  38.7359333  30.0439880  51.8577707  38.8406518  29.6217553  52.8571969
  37.4043615  30.7976213  51.7586632  37.3415824  31.2652230  50.7760606
  36.2130458  29.8489188  51.9504900  36.2748883  29.3812585  52.9331242
  35.2831802  30.4125893  51.8748179  36.2338862  29.0782549  51.1799435
  37.4233688  31.9696405  52.7633416  37.4318481  31.5205666  53.7564990
  38.3611717  32.4996254  52.5967850  36.2686880  32.9432110  52.6599644
  35.3305084  32.4140054  52.8268784  36.3831627  33.7245387  53.4113110
  36.2598308  33.3930627  51.6671629  38.7321424  28.7513980  51.0422513
  38.4089305  27.6957188  51.6056770  39.0874654  28.7843849  49.7554058
  39.2981940  29.6591166  49.2965624  39.1816453  27.5448911  48.9700942
  39.9433593  26.9097769  49.4223341  38.2168207  27.0393614  49.0107456
  39.5449766  27.7954730  47.5248779  39.6707773  28.9540301  47.1217456
  39.7011817  26.7260824  46.7823540  39.6273333  25.8188510  47.2200490
  40.0973663  26.7876103  45.3585678  39.4157578  27.4492263  44.8239903
  41.5049024  27.3108639  45.1956543  41.7216612  27.4852739  44.1417586
  41.6266837  28.2414679  45.7499516  42.7979563  26.1962283  45.7961377
  43.8199892  26.9880738  45.4841637  39.9158523  25.4448966  44.6803660
  39.8473542  24.3915958  45.3547297  39.7557067  25.4612800  43.3746669
  39.7618978  26.3385026  42.8741257  39.5666283  24.2349818  42.6149591
  40.3539547  23.5333662  42.8905529  38.5964407  23.8128132  42.8768924
  39.6151863  24.4673544  41.1211606  39.6571944  25.6272534  40.6782037
  39.6822623  23.3657332  40.3920230  39.6430552  22.4882235  40.8905596
  39.8584504  23.3308526  38.9236845  39.5432611  24.2765299  38.4827203
  41.3359902  23.1040200  38.5907940  41.5932226  22.1088330  38.9534696
  41.4232617  23.1281021  37.5045602  42.2900887  24.1309002  39.2012578
  41.9886622  25.0916637  38.7839133  42.0834271  24.1193141  40.2714255
  43.7908645  23.9213362  38.9686613  44.3410899  24.7100418  39.4817835
  44.0794950  22.9528448  39.3770928  44.1408937  23.9540432  37.5450463
  44.2469827  23.0622017  37.0830255  44.3278823  25.0785445  36.8242015
  44.2209507  26.2689968  37.3875574  43.9965823  26.3412180  38.3696689
  44.3640766  27.1012109  36.8334506  44.6216832  24.9987490  35.5369484
  44.7053804  24.0937766  35.0963581  44.7609625  25.8431611  35.0006012
  38.9631383  22.2228084  38.3897619  38.9358434  21.1311389  39.0111432
  38.1889080  22.5006826  37.3471817  38.0707710  23.4619790  37.0607341
  37.3706834  21.4639086  36.6793037  37.8594443  20.4972157  36.8006173
  35.9579606  21.3735961  37.2591836  35.4240989  20.5802082  36.7360905
  36.0228341  21.1293288  38.3194784  35.1711464  22.6762766  37.1049361
  34.9833342  23.2367673  36.0136356  34.7041577  23.1767756  38.2546957
  34.1724275  24.0354557  38.2491065  34.8855372  22.6935847  39.1228713
  37.4176666  21.7281770  35.1771876  38.1366447  22.6528318  34.7630391
  36.7541505  20.8724664  34.4044128  36.2797967  20.0988202  34.8477630
  36.7542892  20.9410318  32.9288286  37.7784087  20.9480792  32.5556948
  36.0308580  19.7261080  32.3474540  35.1208927  19.6153902  32.9372030
  35.7679999  19.9033880  31.3045842  36.8581776  18.4582946  32.4517257
  38.0369544  18.5681724  32.8536799  36.3364765  17.3814776  32.0767015
  36.1411198  22.2620174  32.4544632  36.4159520  22.6537675  31.3241269
  35.3272618  22.9261996  33.2744449  35.1760695  22.6083381  34.2211256
  34.5669992  24.1040294  32.7999095  34.5688224  24.1364562  31.7103938
  33.1172057  24.0193965  33.2843929  33.1469667  23.9220695  34.3696306
  32.6345670  24.9595824  33.0175403  32.3257897  22.8539385  32.6900114
  32.1017055  23.0487863  31.6412400  32.8986702  21.9303547  32.7730945
  31.0195375  22.7152410  33.4727210  31.2941306  22.6438920  34.5251501
  30.4582575  23.6345760  33.3057262  30.1662372  21.5769106  33.1328262
  30.5200278  20.9460002  32.4279265  28.9594264  21.3165562  33.6847068
  28.4558567  22.1192532  34.6135406  28.9772191  22.9313827  34.9114114
  27.5535089  21.9144213  35.0184009  28.2659377  20.2490876  33.3008706
  28.6431121  19.6325420  32.5953842  27.3651446  20.0596417  33.7165396
  35.2751638  25.3588840  33.2948002  35.4303352  26.3553190  32.5299929
  35.6490839  25.3585396  34.5544424  35.5232663  24.5410214  35.1340399
  36.1834182  26.5799861  35.1775164  36.7531778  27.1449291  34.4397410
  35.0567195  27.4667435  35.7082145  35.5376550  28.3354232  36.1578764
  34.3838603  27.7942551  34.9156890  34.1894726  26.8461616  36.7841099
  33.0562763  26.1026320  36.4545844  32.7935461  25.9458801  35.4084001
  32.2588851  25.5594352  37.4634220  31.3882942  24.9634243  37.1896643
  32.5600833  25.7682730  38.7891348  31.9358592  25.3379481  39.5722469
  33.6622083  26.5292612  39.1248868  33.9085797  26.7083773  40.1714616
  34.4598163  27.0684234  38.1202532  35.3219313  27.6828975  38.3796356
  37.1734086  26.2287574  36.2865247  37.1109570  25.0909010  36.8563524
  37.9772111  27.2229424  36.6147969  38.0104402  28.0057743  35.9774827
  38.8292059  27.2627700  37.8134164  38.7965140  26.2941766  38.3122722
  40.2696427  27.5762963  37.4577517  40.3384870  28.5830371  37.0456442
  40.8720871  27.5132272  38.3639432  40.8203680  26.5994079  36.4420866
  40.5618066  25.4109715  36.4958439  41.5735924  27.1267959  35.5024181
  41.9756973  26.5344473  34.7900035  41.7466351  28.1218492  35.4973182
  38.2737932  28.3317625  38.7424104  37.6871559  29.3325692  38.2783700
  38.4314803  28.1601726  40.0500868  38.8874651  27.3339732  40.4100476
  37.8562895  29.1089983  41.0072548  37.8229482  30.0976336  40.5494472
  36.4355308  28.7160851  41.4286727  36.0111597  29.5377070  42.0056873
  35.8643137  28.5851676  40.5096126  36.3760562  27.4486411  42.2414822
  36.3227313  26.2191736  41.6303912  36.2970845  26.1654786  40.5420169
  36.3013018  25.0462644  42.3880578  36.2852825  24.0756517  41.8923198
  36.3220504  25.1170229  43.7672129  36.2877855  23.9370335  44.4811632
  36.2516365  23.1595284  43.9192213  36.3541016  26.3447931  44.3910926
  36.3464601  26.4170403  45.4786690  36.3962580  27.4909054  43.6237657
  36.4471887  28.4675097  44.1051701  38.7496472  29.2780102  42.2194948
  39.5571197  28.3692437  42.5516358  38.6023217  30.4383663  42.8599970
  38.0292945  31.1535340  42.4354098  39.2488734  30.7358840  44.1552495
  39.5426445  29.8248599  44.6766253  40.4826894  31.6340850  44.0050559
  40.1590424  32.6238173  43.6829039  41.2211399  31.7485994  45.3021415
  41.5455288  30.7592490  45.6247227  42.0919569  32.3906370  45.1696050
  40.5643991  32.1794137  46.0579140  41.3938369  31.1331789  42.9173995
  40.8563028  31.1212441  41.9692346  42.2589744  31.7911828  42.8357439
  41.7272077  30.1237329  43.1581976  38.2110421  31.4247939  45.0107489
  37.5003960  32.3293984  44.4981188  38.1560214  31.0536621  46.2915471
  38.7746405  30.3278354  46.6240906  37.1929618  31.6415382  47.2419906
  36.5497208  32.3905813  46.7801738  36.3081454  30.5620266  47.8814323
  36.9211333  29.9739710  48.5644664  35.1497879  31.1698987  48.6403950
  34.5360415  31.7577682  47.9578807  34.5455896  30.3758837  49.0792402
  35.5317013  31.8147721  49.4318380  35.8165508  29.5843236  46.8525992
  36.6680965  29.0986389  46.3760675  35.1926726  28.8317045  47.3347198
  35.2316323  30.1121104  46.0993315  37.9843305  32.3917459  48.3093903
  38.9549210  31.8370676  48.8690044  37.5377534  33.5782779  48.6712254
  36.7401221  33.9672729  48.1889738  38.2238998  34.4112352  49.6645724
  38.5486507  33.7813314  50.4927374  39.4574341  35.1211836  49.0725418
  40.0838487  35.4440118  49.9040982  40.0007281  34.3928962  48.4704380
  39.1061417  36.2975870  48.2304055  38.4027519  36.8707638  48.8344022
  40.0373686  36.8552749  48.1308933  38.3994271  36.0275673  46.5942860
  39.6782298  35.0248343  45.8409671  39.8092014  34.1089635  46.4172710
  39.3894122  34.7732055  44.8204927  40.6153874  35.5812646  45.8260611
  37.2774365  35.3981508  50.3092202  36.1053522  35.5279956  49.9067357
  37.7536047  36.0201552  51.3640255  38.6813700  35.7961800  51.6944584
  36.9549614  36.9875805  52.1312512  36.1131977  36.5125882  52.6351514
  37.8862287  37.5616931  53.1803770  38.3032471  36.7145502  53.7249353
  38.6833036  38.0753824  52.6428874  37.2386429  38.5187306  54.1565327
  36.7719562  39.3855370  53.6886105  36.4890625  37.9631033  54.7200125
  38.3046404  39.0023919  55.1159461  39.5163800  38.6761025  55.0076811
  37.9068568  39.8592764  56.0409035  38.5714746  40.2189721  56.7109807
  36.9402037  40.1502124  56.0731430  36.3435697  38.0625734  51.2380237
  37.0572467  38.6385937  50.3993993  35.0718488  38.3496273  51.4499266
  34.5681399  37.7963023  52.1283130  34.3440599  39.4155830  50.7388501
  34.6687713  39.4882248  49.7008786  32.8293391  39.0543057  50.7623180
  32.7628292  38.0688384  50.3013084  32.5218561  38.9881363  51.8059538
  31.9084852  40.0285775  50.0195875  32.0420899  41.0245133  50.4419175
  32.2288394  40.0619333  48.5260513  32.0950034  39.0663800  48.1028961
  31.5593926  40.7617646  48.0258734  33.2609929  40.3814851  48.3823633
  30.4615260  39.6066546  50.2342110  30.2315192  39.6244684  51.2995180
  29.7999486  40.2952633  49.7086307  30.3156665  38.5977207  49.8483661
  34.6258401  40.7354606  51.4560929  34.3788536  40.8390680  52.6557937
  34.9834569  41.7524547  50.6825011  35.1424883  41.5845164  49.6993404
  35.2375231  43.0952394  51.2071739  35.2126312  43.0915348  52.2968830
  36.6074092  43.5469339  50.7570204  36.6114127  43.5995215  49.6682974
  36.7948676  44.5385777  51.1688482  37.7018425  42.5855461  51.2248614
  37.4632431  41.6056251  50.8114294  38.6414384  42.9393692  50.8005140
  37.8654751  42.4530616  52.6989243  37.2285775  43.1004718  53.5032001
  38.7576906  41.5785591  53.1121491  38.9106548  41.4469619  54.1017883
  39.2853964  41.0429967  52.4377599  34.1309522  44.0514267  50.7620844
  33.0753692  43.6175562  50.2509649  34.3533058  45.3169346  51.0769773
  35.2481154  45.5813977  51.4635964  33.3464219  46.3579349  50.8860712
  32.3810637  45.8681873  50.7582818  33.3258907  46.9707510  51.7872562
  33.6098004  47.2513656  49.6869055  33.9687444  46.7316404  48.5899160
  33.5229067  48.5529688  49.9248878  33.3377992  48.8582996  50.8696670
  33.5337865  49.5678879  48.8496289  32.9383390  49.2127540  48.0085454
  32.9504384  50.8904323  49.3357312  33.5380411  51.2383262  50.1853147
  33.0164618  51.6178953  48.5266957  31.4890761  50.7297227  49.7585015
  30.9819170  50.1193019  49.0113222  31.4656001  50.2188505  50.7210816
  30.7841638  52.0711228  49.8798168  31.1867853  52.8111298  49.1881634
  29.7076510  51.9846190  49.7323829  31.0312728  52.5166423  51.2280499
  31.3638800  51.8015030  51.8589601  30.8580061  53.7512695  51.7004484
  30.4603553  54.7570553  50.9165060  30.2828332  54.5895959  49.9364329
  30.3390290  55.6804025  51.3074146  31.1014542  53.9505892  52.9805178
  31.4063287  53.1810294  53.5592485  30.9819827  54.8719452  53.3766597
  34.9539900  49.6807288  48.2671978  35.9253138  49.8087098  48.9886103
  34.9889918  49.6654569  46.9719601  34.1015879  49.6509835  46.4898769
  36.2086454  49.7000067  46.1739224  36.9766116  49.0230813  46.5482206
  35.7748774  49.2286674  44.8052999  35.2534174  48.2800278  44.9328205
  35.1130834  49.9436152  44.3164457  36.9652396  49.0052429  43.9312602
  37.4386441  49.9850772  43.3403441  37.3687498  47.7407345  43.8317264
  38.1679402  47.5125714  43.2578482  36.8738893  47.0151989  44.3305369
  36.7637373  51.1279866  46.0871548  35.9858303  52.0786467  45.9713834
  38.0877259  51.3335848  46.1914731  38.7194166  50.5497732  46.2733610
  38.6572639  52.6983027  46.2128453  38.2042326  53.2620355  47.0283618
  40.1787684  52.6780763  46.4163642  40.5273708  51.9822263  45.6532334
  40.5482731  53.6784991  46.1911520  40.6931239  52.2451217  47.7616589
  40.5942662  51.1633654  47.8518324  42.1706481  52.6384519  47.9133539
  42.2702499  53.7201865  47.8237516  42.5333241  52.3204342  48.8908157
  42.7580318  52.1541644  47.1332600  39.8756778  52.8453282  48.8712804
  38.8387771  52.5235398  48.7743852  40.2695438  52.5156566  49.8326791
  39.9251377  53.9326178  48.8125089  38.3610809  53.4401977  44.9130329
  38.2740809  54.6619490  44.9680571  38.3100126  52.7353851  43.7827634
  38.5126673  51.7459711  43.7922710  38.0130250  53.3767518  42.4861782
  38.7289669  54.1765420  42.2968056  38.0900436  52.3869958  41.3593720
  37.3722989  51.5846404  41.5301600  37.8580505  52.8872787  40.4191612
  39.0957618  51.9696590  41.3097714  36.6256001  54.0159900  42.5513302
  36.4642086  55.1711656  42.1017203  35.6555721  53.3042839  43.1059661
  35.8531380  52.3618303  43.4106762  34.2680129  53.8136617  43.2477291
  33.9282237  54.2175461  42.2940416  33.3201435  52.7011903  43.6699222
  33.7629580  52.2331987  44.5491255  32.3737764  53.1670029  43.9447094
  33.0742575  51.6454132  42.6039180  33.2711439  51.9699907  41.4350163
  32.6753288  50.5038733  42.9608712  34.2405488  54.9666640  44.2641451
  33.5998047  56.0023434  44.0031081  34.9444419  54.8147700  45.3851132
  35.4919205  53.9823641  45.5508449  34.8989659  55.8485517  46.4459815
  33.8681384  56.0337831  46.7479470  35.6779069  55.3730625  47.6521315
  36.6139924  55.0235558  47.2165994  35.8791064  56.2097248  48.3211718
  35.0294978  54.2404435  48.4370250  34.7227780  53.4541885  47.7472229
  36.0202453  53.6736598  49.4435420  36.3270916  54.4592731  50.1340171
  35.5494442  52.8640425  50.0011861  36.8948368  53.2911261  48.9173689
  33.7384589  54.6567048  49.1178856  33.0228379  54.9918668  48.3671176
  33.3234982  53.8077364  49.6611732  33.9405506  55.4698787  49.8150270
  35.4638854  57.1501267  45.8946245  34.9594078  58.2190449  46.2145967
  36.5485558  57.0543294  45.1145078  36.9587040  56.1563978  44.9009746
  37.1853081  58.2622313  44.5616004  37.3900981  58.9524023  45.3800283
  38.4937530  57.9650807  43.8354997  39.1156024  57.3354567  44.4718772
  38.2710505  57.4364415  42.9086533  39.2313356  59.2460793  43.5197634
  38.5238945  59.9118486  43.0254162  39.5383988  59.6836847  44.4696665
  40.4509226  59.0543646  42.6327853  40.9980535  59.9929670  42.5446248
  41.1040232  58.2922548  43.0579297  40.0425238  58.6301857  41.3116844
  40.0053393  57.6339558  41.1496889  39.7499377  59.4357126  40.3213280
  39.7410914  60.7528724  40.4755452  39.9640978  61.1544367  41.3750530
  39.5113868  61.3483630  39.6927768  39.4305713  58.9067042  39.1583473
  39.4166452  57.9025726  39.0505242  39.2010525  59.5075821  38.3796525
  36.2325928  58.9512836  43.5684230  36.0626022  60.1896582  43.6037182
  35.5721862  58.1610356  42.7384295  35.7478443  57.1666011  42.7569657
  34.6802891  58.7007473  41.6749062  35.1802806  59.5144354  41.1495309
  34.3346005  57.6046436  40.6633558  34.0968817  56.6934499  41.2122775
  33.4608730  57.9245707  40.0955997  35.4929439  57.3338377  39.7050559
  35.8459468  58.3261786  39.4244326  36.2438647  56.8433523  40.3244460
  35.2531678  56.5091449  38.4523360  34.8117469  55.5405602  38.6870494
  34.6167939  57.0349763  37.7405572  36.5745420  56.2889323  37.8324726
  37.0816642  55.4986686  38.2045072  37.1485472  57.0199227  36.8638632
  36.5266105  58.0465262  36.2901028  35.5924483  58.2947828  36.5830355
  36.9914672  58.5729282  35.5642180  38.3647799  56.6959965  36.4662468
  38.8398468  55.9125944  36.8913264  38.8147255  57.2330354  35.7387600
  33.4510466  59.3734265  42.3232237  32.9037859  60.2932360  41.7132899
  33.0599612  58.9723603  43.5341045  33.5457836  58.1886799  43.9463191
  31.9162300  59.5544526  44.2701877  31.0893851  59.7396655  43.5845326
  31.4525391  58.6149223  45.3341062  32.2978148  58.3537124  45.9707989
  30.6856002  59.1063432  45.9327799  30.9149073  57.4338724  44.7523510
  30.6212895  56.8400125  45.4471307  32.2514529  60.9206397  44.8726031
  31.3522714  61.6676246  45.2034298  33.5239412  61.2651427  44.9730227
  34.2356342  60.5966159  44.7148279  33.9530241  62.5825416  45.4821482
  33.4416541  62.8124465  46.4168908  35.4620665  62.5603694  45.7424817
  35.9636009  62.2231844  44.8353605  35.7858269  63.5735132  45.9808487
  35.8170138  61.6315637  46.8924671  35.3793411  60.6385308  46.7903442
  36.9038151  61.5493366  46.9067422  35.3657392  62.2211936  48.1890421
  35.8337489  63.2987190  48.6065248  34.4058667  61.5706847  48.7933244
  34.0480610  61.9089183  49.6751830  34.0267123  60.7330131  48.3754135
  33.6046457  63.6756181  44.4818691  33.8773662  63.4675254  43.3137689
  33.3132147  64.8670369  45.0054751  33.2730339  64.9040078  46.0139977
  32.9277242  66.0776822  44.2419707  31.9145839  65.9554114  43.8589617
  32.9703225  67.3227633  45.1155063  33.9182417  67.3553611  45.6526151
  32.8787384  68.2086511  44.4870835  31.8992478  67.2911700  46.0476356
  31.9295705  68.0780773  46.5966869  33.7592405  66.2519982  42.9677346
  33.1360123  66.5928637  41.9195465  35.0734711  66.2749073  43.0682494
  35.5037271  66.1185914  43.9685518  35.9593290  66.5866412  41.9031156
  35.3588982  66.7615583  41.0103749  36.7754143  67.8459572  42.1976287
  37.1593055  67.7346895  43.2117028  37.6069694  67.8465542  41.4929189
  36.0116109  69.1639377  42.0844714  35.3953654  69.1583024  41.1854105
  35.3757071  69.2992157  42.9593590  37.0166586  70.3092841  42.0046289
  37.6966219  70.2065393  42.8503193  37.5733611  70.1909448  41.0750174
  36.4354243  71.6423126  42.0332745  35.4452536  71.7020090  41.8432804
  37.1075442  72.7754608  42.2923807  38.4050783  72.7501817  42.5596862
  38.8984476  71.8689389  42.5695870  38.8947702  73.6122711  42.7523081
  36.4746372  73.9371151  42.2793395  35.4861769  73.9679032  42.0741607
  36.9828288  74.7878239  42.4746202  36.8396686  65.3541384  41.6558136
  37.9657422  65.4453437  41.0601713  36.3697075  64.1944158  42.1029266
  35.4256112  64.1345911  42.4567664  37.1951978  62.9697327  42.0997811
  36.6024942  62.1486309  42.5030099  37.4780257  62.7424527  41.0719428
  38.4649157  63.1290893  42.9427235  39.4478500  62.3944433  42.7069558
  38.4119056  63.9780721  43.9755270  37.6072659  64.5745907  44.1052184
  39.5741989  64.1606455  44.8762614  40.3808398  63.5081263  44.5421233
  40.0897594  65.5963561  44.9076568  40.9604535  65.6302183  45.5625197
  40.4722544  66.0915392  43.5392127  39.6018954  66.0584061  42.8838678
  40.8333014  67.1174772  43.6112922  41.2590366  65.4579495  43.1297760
  39.0714177  66.4486328  45.4296470  39.3914467  67.3534605  45.4512925
  39.2483501  63.6558577  46.2722907  38.1307907  63.9414277  46.7859518
  40.2600344  63.1053531  46.9253708  41.0738457  62.8183934  46.4005235
  40.2597291  62.8939321  48.3956385  39.2371588  62.9026223  48.7729628
  40.8901427  61.5517603  48.7315128  41.8302584  61.5463299  48.1799223
  41.0943419  61.4513081  49.7974922  40.1368801  60.3064489  48.3156607
  38.7703935  60.1582072  48.5418906  38.2000997  60.9784090  48.9779340
  38.1372417  58.9732113  48.2143643  37.0763553  58.8612498  48.4381621
  38.8252888  57.9454973  47.6154827  38.3069829  57.0433883  47.2904316
  40.2052004  58.0661693  47.4246602  40.7836566  57.2476417  46.9962899
  40.8363873  59.2445990  47.7876128  41.9136298  59.3482827  47.6576203
  41.0633158  63.9994001  49.0588391  42.0207231  64.5759244  48.4540871
  40.7121817  64.2926521  50.3096205  39.8601863  63.8968557  50.6804957
  41.4875595  65.1793609  51.1608495  41.6674896  66.1504542  50.6996531
  40.7756528  65.3979104  52.5014956  41.4065774  66.0234199  53.1329798
  39.4363908  66.0695327  52.3055219  38.8047056  65.4443516  51.6744737
  38.9553513  66.2112774  53.2733074  39.5816257  67.0381529  51.8272100
  40.6640905  64.1270803  53.1289179  40.2211927  64.2256815  53.9749201
  42.8705814  64.5839437  51.4039172  43.0831411  63.3646207  51.2101167
  43.7725039  65.4214947  51.8867443  43.6032718  66.4162661  51.9302156
  45.1311179  64.9249100  52.2109379  45.5351255  64.2207213  51.4836172
  46.1240905  66.0783899  52.4121203  46.1597254  66.6610704  51.4916237
  45.7232432  66.9830966  53.5700962  45.6878419  66.4011806  54.4910855
  46.4541800  67.7848156  53.6753523  44.7404498  67.4116290  53.3736881
  47.5505487  65.5418636  52.5272616  48.2103974  66.3963475  52.6774543
  47.5874840  64.8962922  53.4047425  48.0047204  64.7593717  51.3023373
  47.9684941  65.4044648  50.4244749  49.0256321  64.4083561  51.4527583
  47.3455787  63.9044102  51.1517618  45.0357799  63.9410390  53.3950399
  45.7549273  62.9545022  53.3642808  44.1083309  64.1337700  54.3174075
  43.5741165  64.9908883  54.3094978  43.9067494  63.1921335  55.4402430
  44.8438992  63.0741203  55.9842304  42.8585461  63.6886245  56.3927652
  43.1982877  64.6098141  56.8661410  41.9311058  63.8789285  55.8526366
  42.6320733  62.6997728  57.3890299  41.9621671  63.0109068  58.0022356
  43.5990986  61.7973832  54.9043777  44.1966494  60.7904709  55.3786464
  42.5769175  61.6540569  54.0566836  42.0039858  62.4575133  53.8414941
  42.1801207  60.3461633  53.5074426  42.0833915  59.5959966  54.2922945
  40.8431296  60.4509447  52.7618626  40.8672971  61.3547302  52.1530212
  40.5831822  59.2682349  51.8868437  40.5584099  58.3640619  52.4950848
  39.6249930  59.3924807  51.3823286  41.3762222  59.1840457  51.1438092
  39.7957817  60.5959037  53.7437543  38.9475791  60.6635224  53.2992542
  43.3381821  59.8273039  52.6360181  43.6663696  58.6482968  52.7449285
  43.9390967  60.6815258  51.8173549  43.6248695  61.6411444  51.7951558
  45.0127224  60.2633719  50.8597328  44.6565176  59.4495796  50.2281004
  45.4602015  61.4118321  49.9669588  45.7475455  62.2488976  50.6032410
  46.6324373  61.0185352  49.0899543  46.3456877  60.1817676  48.4530129
  46.9217266  61.8655423  48.4678691  47.4739862  60.7250934  49.7174795
  44.3457043  61.7964381  49.1635286  44.6007790  62.5217676  48.5886944
  46.2012141  59.6726662  51.6413743  46.7077817  58.6045099  51.2244998
  46.6543438  60.3626401  52.6879098  46.2149754  61.2260302  52.9735881
  47.8429903  59.9017255  53.4335480  48.6842484  59.7581950  52.7554750
  48.2260333  60.9496676  54.4687859  47.2805072  61.2193279  54.9392783
  48.8829603  60.4939420  55.2096376  48.8843372  62.1949360  53.9080512
  48.2315960  62.6537792  53.1654256  49.1288125  63.1692117  55.0322063
  49.7818951  62.7112143  55.7750525  49.6023007  64.0683486  54.6379189
  48.1792548  63.4335020  55.4976000  50.1870425  61.8742599  53.1706100
  49.9788629  61.1977690  52.3416825  50.6237140  62.7958912  52.7858828
  50.8873875  61.4004747  53.8584643  47.5485751  58.5624391  54.0981800
  48.4255053  57.6857064  54.1211390  46.4037178  58.4138246  54.7315097
  45.7743494  59.1981097  54.8258046  46.0818364  57.1663407  55.4552170
  46.9329540  56.8654510  56.0660880  44.8778671  57.3682889  56.3642940
  44.0689724  57.7932102  55.7699621  44.5731665  56.3947677  56.7483697
  45.1913138  58.2908040  57.5213247  46.0025407  57.8533866  58.1032850
  45.5100903  59.2530834  57.1206975  43.9892661  58.4893253  58.4065571
  43.5183853  57.5241872  58.5933152  44.3090947  58.9261033  59.3526195
  43.0090550  59.3759970  57.7902345  43.3340651  59.9867568  57.0544083
  41.7468047  59.4660124  58.1733891  41.2858286  58.6282239  59.0712557
  41.8961876  57.9241806  59.4609798  40.3226687  58.6910771  59.3686983
  40.9352716  60.3535346  57.6150752  41.2830851  60.9661316  56.8912998
  39.9730144  60.4129185  57.9161289  45.9367235  55.9982624  54.4746190
  46.4939752  54.9359736  54.7325006  45.2096217  56.1826903  53.3796490
  44.6894698  57.0359426  53.2330141  45.1082098  55.1197475  52.3647322
  44.7144936  54.2053276  52.8084924  44.1536736  55.5755167  51.2519442
  44.4747818  56.5883739  51.0088208  44.3048025  54.9295561  50.3870772
  42.6839151  55.5871008  51.6228552  42.5120735  56.2470555  52.4731676
  41.9068126  56.0996923  50.4177280  42.0778003  55.4399432  49.5670852
  40.8426716  56.1201610  50.6528574  42.2429418  57.1063974  50.1694088
  42.1843101  54.1999498  52.0470873  42.7500252  53.8589484  52.9141420
  41.1264611  54.2569828  52.3036098  42.3209863  53.4969890  51.2253423
  46.4923745  54.8035618  51.8038984  46.8288959  53.6270912  51.6484017
  47.2534116  55.8280338  51.4310488  46.8845302  56.7606362  51.5505414
  48.5926461  55.6794272  50.8585308  48.5201727  55.1935666  49.8855013
  49.0485307  56.6624124  50.7401724  49.4681895  54.8346810  51.7690590
  50.1936013  53.9473781  51.2716101  49.4385498  55.1290652  53.0745219
  48.8682155  55.8760169  53.4444964  50.3021937  54.3849929  54.0042636
  51.3257556  54.3866514  53.6295402  50.2903109  55.0180195  55.3947617
  50.5725291  56.0658562  55.2923393  49.2759305  54.9522726  55.7882203
  51.2499799  54.3260027  56.3500069  50.8357281  53.3505363  56.6048824
  52.2042534  54.1929922  55.8403282  51.4623402  55.1324494  57.6187408
  52.1860158  54.6094567  58.2439378  51.8590098  56.1100643  57.3448397
  50.2388821  55.3231056  58.3819252  49.3948315  54.8915405  58.0334578
  50.1910440  55.9587958  59.5458640  51.2918359  56.4655334  60.0729687
  52.1719518  56.3679400  59.5871997  51.2479453  56.9480718  60.9591571
  49.0329511  56.1611284  60.1365808  48.1831743  55.8314554  59.7015004
  48.9990933  56.6451841  61.0223813  49.8430325  52.9220520  54.0741776
  50.6731458  52.0326969  54.0232121  48.5484702  52.6669326  54.0747151
  47.8817519  53.4232118  54.1349464  48.0383589  51.2836534  54.0762326
  48.4945694  50.7300451  54.8968963  46.5215248  51.2530174  54.2506306
  46.0953724  51.9071723  53.4899897  46.1961448  50.2282481  54.0715333
  46.0548847  51.6971125  55.6136026  46.8001919  51.3152483  56.3113115
  45.9998818  52.7823305  55.6995024  44.7068735  51.1141189  55.9789560
  44.4473144  49.9337096  55.7188717  43.8224611  51.9695493  56.4977813
  42.9041223  51.6430193  56.7626086  44.0759097  52.9391806  56.6230022
  48.4718112  50.5763980  52.7932809  48.8413589  49.3858960  52.8478755
  48.3379280  51.2445792  51.6543629  47.8439664  52.1254139  51.6391486
  48.7328962  50.6420590  50.3673491  48.3510190  49.6241991  50.2884174
  48.2181051  51.4673249  49.2011624  48.5677401  52.4958151  49.2909603
  48.7412355  50.8691995  47.9203218  48.3916102  49.8407881  47.8295882
  48.3798306  51.4513959  47.0726576  49.8311028  50.8822663  47.9311685
  46.6912279  51.5104700  49.2054532  46.3380427  50.5158683  48.9331878
  46.3762960  51.7413415  50.2231053  46.1181530  52.5114023  48.2715214
  46.4322906  52.2809013  47.2535397  45.0301261  52.4831217  48.3306571
  46.4705460  53.5063749  48.5434561  50.2409543  50.3701255  50.3485422
  50.6511035  49.2805980  49.8780696  51.0597362  51.3038222  50.8349244
  50.7230870  52.2061410  51.1392062  52.5143784  51.0389981  50.9006231
  52.9184471  50.8485453  49.9063619  53.1976580  52.2591218  51.4740727
  53.0051369  53.0125119  50.7102415  52.7087274  52.5514409  52.4033716
  54.6989362  52.1429680  51.7052652  54.8839510  51.3308084  52.4083066
  55.4239386  51.8617956  50.4089799  55.2397632  52.6738055  49.7055467
  56.4941403  51.7832272  50.6002806  55.0614347  50.9253195  49.9850651
  55.2238547  53.3952540  52.3998114  54.7235931  53.5151067  53.3607864
  56.2978832  53.2997313  52.5593093  55.0257659  54.2671717  51.7764180
  52.7544225  49.8033925  51.7604205  53.6365912  49.0025030  51.3956253
  52.0882635  49.7012655  52.9101145  51.5127807  50.4524393  53.2631821
  52.2422473  48.4788012  53.7441452  53.2786074  48.3976652  54.0719771
  51.3443502  48.5166998  54.9738100  50.3207286  48.6591274  54.6273820
  51.4281723  47.5499263  55.4702200  51.7065088  49.6236139  55.9546868
  52.6993579  49.5284749  56.3943458  51.7011234  50.4523592  55.2466957
  50.6951911  49.8878586  57.0470628  49.6924231  49.1780625  57.1278196
  51.0310064  50.6780304  57.9362971  51.9501761  47.2372866  52.9071136
  52.7186367  46.2606022  52.9817449  50.8711181  47.2326562  52.1421813
  50.2366697  48.0154682  52.2113179  50.4605221  46.0652957  51.3262925
  50.4849425  45.1707936  51.9486822  49.0718885  46.2254800  50.7688018
  48.7145421  45.2354883  50.4853956  48.4419194  46.6247961  51.5636512
  49.0170535  47.0803497  49.6534584  48.1108532  47.1435123  49.3429569
  51.5167286  45.7475456  50.2677862  51.7978336  44.5526541  50.0089807
  52.1130436  46.7651275  49.6646581  51.7760769  47.7048132  49.8180976
  53.1932775  46.5571587  48.6586568  52.9648485  45.7762607  47.9333170
  53.4495380  47.8854568  47.9195569  53.5554095  48.6816214  48.6564515
  54.7100050  47.8043561  47.0783539  54.6046950  47.0086614  46.3408714
  54.8681349  48.7540706  46.5673371  55.5638168  47.5920007  47.7217897
  52.2060830  48.2448260  47.0842829  52.1388521  47.5104135  46.2816502
  51.3418894  48.1447231  47.7409778  52.2309187  49.6372356  46.4926221
  53.0946413  49.7379538  45.8354014  51.3183526  49.8059722  45.9209138
  52.2976809  50.3722636  47.2947296  54.4259235  45.9717218  49.3281883
  55.0231945  45.0391567  48.7553719  54.8982381  46.5456254  50.4345538
  54.4764718  47.3815145  50.8133703  56.0868511  45.9814201  51.1248295
  56.9477360  46.0215606  50.4574727  56.4128438  46.7663912  52.3865990
  56.4829050  47.8224173  52.1258317  55.6017661  46.6219548  53.1003154
  57.7128758  46.3139822  53.0047817  57.5036620  45.2877037  53.3065809
  58.4794142  46.3151749  52.2298516  58.2044086  47.1020905  54.2022736
  57.5565339  48.1070368  54.5614871  59.2757916  46.7241452  54.7193635
  55.7779777  44.5058053  51.4655054  56.6809645  43.6616377  51.3318868
  54.5565855  44.2016059  51.8849549  53.8760284  44.9413310  51.9836872
  54.1689904  42.8300281  52.2957606  54.8598793  42.4556235  53.0511366
  52.7802401  42.8435980  52.8782437  52.7278874  43.6320235  53.6290724
  52.0716826  43.0570872  52.0779508  52.4592895  41.6106741  53.4710153
  51.5706703  41.6508887  53.8320395  54.2803763  41.8631269  51.1101450
  54.9206746  40.8058401  51.2641217  53.7163157  42.2143360  49.9744000
  53.1311241  43.0330179  49.8883179  53.7795456  41.2671067  48.8256086
  53.6028798  40.2484614  49.1709348  52.7946325  41.6040593  47.7159578
  51.7940524  41.6361035  48.1471342  53.1068466  42.9389520  47.0623664
  54.1071609  42.9075188  46.6305284  52.3784622  43.1384452  46.2763897
  53.0593123  43.7303028  47.8104329  52.7855305  40.4893257  46.6715521
  53.7898069  40.4199298  46.2535642  52.5405587  39.5587830  47.1835860
  51.8031455  40.7250926  45.5702725  52.0477640  41.6552902  45.0574431
  51.8456352  39.8980451  44.8615510  50.7985155  40.7941457  45.9874655
  55.2284562  41.1424301  48.3748261  55.7023359  39.9924669  48.1772691
  55.9926245  42.2245161  48.3760898  55.6028978  43.1369428  48.5650079
  57.4371303  42.1331889  48.0179594  57.5426679  41.6904986  47.0275119
  58.0773669  43.5153192  48.0041108  57.8506846  44.0235197  48.9413656
  59.1577078  43.4760502  47.8647496  57.5415047  44.3676356  46.9201572
  57.9228582  45.6899538  46.8027855  57.3077946  46.2010588  45.7562873
  57.4562744  47.2545021  45.5189904  56.5771807  45.2655568  45.1553969
  56.0228133  45.3532706  44.3157047  56.7090822  44.1078821  45.9021769
  56.1740879  43.2051620  45.6072553  58.1527386  41.1991997  48.9814354
  59.0394017  40.4696478  48.5549981  57.7774844  41.2506933  50.2616630
  57.0323508  41.8764493  50.5324110  58.4913559  40.5093101  51.3239715
  59.5636892  40.6762250  51.2222857  58.0619575  40.9615000  52.6939815
  58.8248619  40.6605011  53.4119478  57.9776272  42.0482184  52.6883674
  56.8378566  40.4028382  53.0558418  56.5924883  40.7097470  53.9317420
  58.3311447  39.0004914  51.1538999  59.1980355  38.2728232  51.6841389
  57.3187484  38.5434144  50.4351235  56.5925725  39.1749544  50.1286515
  57.1457779  37.0878914  50.1722360  57.8401078  36.4533872  50.7230624
  55.7123153  36.6205547  50.4691239  55.6398550  35.5575745  50.2390763
  55.3439497  36.8501887  51.9311441  55.4157347  37.9130758  52.1618362
  54.3239002  36.5087727  52.1073105  56.0285682  36.2930725  52.5706913
  54.6827260  37.2277870  49.5502894  54.9089252  36.9549741  48.5195086
  53.6933840  36.8550111  49.8155065  54.7004452  38.3130161  49.6506118
  57.5874803  36.7474621  48.7492434  57.3280868  35.6015680  48.3103361
  58.2371729  37.6914512  48.0506117  58.2454215  38.6380889  48.4026179
  58.9403670  37.4103106  46.7913993  59.8208878  38.0511298  46.7452153
  59.2519956  36.3658808  46.8037833  58.0802426  37.6576556  45.5538725
  58.4282820  37.1112193  44.4677275  57.0030700  38.4178766  45.6580079
  56.7066474  38.8051892  46.5424410  56.1573028  38.6657540  44.4614029
  56.6351428  38.2167387  43.5906828  54.7528523  38.0687851  44.6119255
  54.4472027  38.3349856  45.6237628  54.0233200  38.4537838  43.8994238
  54.6897467  36.5651039  44.5238422  54.9781488  35.7737455  45.6207807
  55.2095043  36.2484846  46.5742991  54.9751898  34.3809966  45.5166525
  55.1835887  33.7648938  46.3913456  54.7082586  33.7876125  44.3058354
  54.7326384  32.7025212  44.2054243  54.4074255  34.5764781  43.2111891
  54.1239756  34.1098117  42.2678022  54.4653639  35.9529069  43.3108537
  54.3326854  36.5697577  42.4220391  56.0806536  40.1592713  44.2141605
  55.9764471  40.9926506  45.1844383  56.0131998  40.4941715  42.9386814
  56.1690615  39.7778856  42.2438858  55.6614948  41.8443261  42.4800191
  55.9097454  42.5758147  43.2490414  56.4423549  42.1878699  41.2071562
  56.1031819  41.4446077  40.4856147  56.1430652  43.1811844  40.8727132
  57.9495542  42.1276752  41.3219119  58.2331282  41.1244579  41.6400970
  58.6175807  42.4454824  39.9985298  58.3348303  43.4487913  39.6799044
  59.7000284  42.3935559  40.1156252  58.2988388  41.7229101  39.2472686
  58.4250561  43.0851020  42.4141792  57.9799304  42.7996173  43.3673114
  59.5112127  43.0374317  42.4922343  58.1236318  44.1020585  42.1630979
  54.1890880  41.8190508  42.1346764  53.6781574  40.7723627  41.5986701
  53.5048462  42.9244104  42.3504619  53.9564260  43.7199825  42.7785274
  52.0656848  43.0062279  42.0750254  51.6016818  42.0386293  42.2662144
  51.4009872  44.0473160  42.9612272  51.5936735  43.7465871  43.9910492
  51.7042978  45.0851713  42.8235351  49.9229564  44.0067306  42.7746484
  49.2973729  44.5497812  41.6822829  47.9918349  44.3018611  41.7816369
  47.2807067  44.7023273  41.0591258  47.8037675  43.5160737  42.8837503
  46.9335640  43.1040477  43.1888411  48.9771633  43.3765170  43.5061505
  49.0344327  42.8233862  44.4436300  51.8510275  43.2845894  40.5906480
  51.0973947  42.5350852  39.8913863  52.4840994  44.3547011  40.1131087
  52.8721210  44.9948582  40.7911482  52.5519887  44.7258852  38.6713745
  53.2842468  45.5254088  38.5588614  52.9501258  43.5695805  37.7625532
  52.1717130  42.8089988  37.8232854  53.0093699  43.9473985  36.7418458
  54.2980759  42.9538973  38.1585302  54.9532451  43.7779813  38.4409125
  54.1156700  42.3213445  39.0272690  54.9516916  42.1433484  37.0786020
  55.1459983  42.7733588  36.2105981  55.8915681  41.7302431  37.4447653
  54.0800867  41.0378497  36.6707805  53.2779546  40.8765073  37.2629394
  54.2529524  40.2629412  35.6255823  53.3554458  39.3106469  35.3520981
  52.5503712  39.1929096  35.9505067  53.4865531  38.7132731  34.5483227
  55.3032953  40.4135711  34.8387372  55.9831035  41.1325903  35.0411535
  55.4216919  39.8090247  34.0383594  51.2538117  45.3615670  38.1683336
  51.2738960  45.7252876  36.9395501  50.2301144  45.4927010  39.0108570
  50.3095495  45.1556026  39.9596215  48.9192423  46.0200504  38.5593519
  49.0264231  46.6591804  37.6829249  48.0531448  44.8094834  38.1809979
  48.6121992  44.1527553  37.5144654  47.9874876  44.3532697  39.1687520
  46.6495339  45.0214908  37.6252531  46.5254914  45.8690136  36.7316874
  45.6642658  44.1766965  38.0096531  48.3408916  46.9181179  39.6466068
  47.1253766  46.8505732  39.9015873  49.1483051  47.7353051  40.2988724
  50.1365983  47.7146567  40.0916293  48.6756862  48.6226124  41.3977036
  47.9890685  48.1387127  42.0923233  49.8536103  49.2028341  42.1699954
  50.5691617  49.6238414  41.4637098  49.3829058  50.2835098  43.1134466
  48.6676247  49.8631279  43.8203784  50.2360975  50.6881359  43.6579120
  48.9046873  51.0805648  42.5441403  50.6935475  48.1152970  42.8943011
  50.9857192  47.3741854  42.1503320  51.5848257  48.5987663  43.2942761
  49.9539645  47.4432556  44.0010482  49.0627403  46.9591335  43.6017424
  50.5959151  46.6949706  44.4658797  49.6618447  48.1837154  44.7456858
  47.7684319  49.7010147  40.7708606  48.2123561  50.4203935  39.9039030
  46.5135418  49.7653969  41.1887394  46.2102448  49.0959071  41.8814829
  45.5226731  50.7175523  40.6565078  45.9746932  51.7079603  40.6029445
  45.0424791  50.3249605  39.2630971  44.3304452  51.0834066  38.9377259
  45.9104887  50.3356399  38.6038967  44.3770710  48.9426340  39.2100252
  45.1051105  48.2013540  39.5395147  43.5284401  48.9467000  39.8940655
  43.9021275  48.5973996  37.8237356  43.1850927  49.3510374  37.4981741
  44.7573465  48.5944051  37.1479465  43.2451291  47.2389594  37.8090918
  44.0165211  46.4905953  37.9907671  42.5143539  47.2103520  38.6173297
  42.5700658  46.9494417  36.5232252  43.2471231  46.9754767  35.7742156
  42.1477374  46.0328678  36.5636110  41.8549501  47.6425323  36.3548981
  44.4032182  50.7368875  41.6809228  44.2369322  49.7878768  42.4387735
  43.5579226  51.7713723  41.6852313  43.6994134  52.9987324  40.8796752
  43.3130143  52.8197662  39.8762974  44.7526796  53.2727528  40.8193247
  42.8734409  54.0264003  41.6518934  42.3855268  54.7140430  40.9611066
  43.5124298  54.5886934  42.3327906  41.8753826  53.2130352  42.4072673
  41.0159968  53.0095412  41.7684049  41.5413929  53.7135186  43.3161496
  42.5797453  51.9059403  42.7613380  43.1338564  51.9560165  43.6986489
  41.5680394  50.7538237  42.8269387  41.1042688  50.3909674  43.9233866
  41.1828019  50.1861445  41.6882801  41.5176635  50.5354482  40.8017397
  40.1422826  49.1143939  41.6797856  39.3727823  49.3789693  42.4050224
  39.5061973  48.9253057  40.3676964  38.7300964  48.1654929  40.4596262
  39.0560538  49.8678995  40.0562677  40.4703350  48.5084564  39.3874760
  40.0348264  48.3910575  38.5400390  40.6649880  47.7788720  42.2105156
  39.8749878  46.8951517  42.4768425  41.9546354  47.6941381  42.5505667
  42.5924120  48.4304287  42.2837024  42.5080269  46.4917802  43.2053762
  41.8229139  45.6568845  43.0581744  43.8612651  46.1140426  42.6363019
  44.4452404  47.0112915  42.4313225  44.3749494  45.5097746  43.3840242
  43.7475711  45.3147124  41.3681214  42.7453186  44.5998462  41.1547387
  44.7385571  45.4353590  40.4889575  44.7064221  44.9178101  39.6222336
  45.5185569  46.0439572  40.6922046  42.5624113  46.6681814  44.7317599
  43.2021015  45.8415193  45.3984946  41.8673608  47.6561536  45.2743072
  41.3393466  48.2542704  44.6549877  41.8274638  47.9404106  46.7299508
  42.1706186  47.0627092  47.2776589  42.7203993  49.1221398  47.0942300
  42.4790680  50.0261628  46.5351228  42.6190399  49.3178331  48.1617179
  44.1682124  48.8395016  46.8465631  44.9593924  48.2061861  47.8026089
  44.5298000  47.9702492  48.7762023  46.2672541  47.8788698  47.5304583
  46.8706894  47.3636650  48.2778073  46.8135900  48.2039723  46.3097903
  47.8346627  47.9142694  46.0616317  46.0555228  48.9028376  45.3978212
  46.5281946  49.2543005  44.4806760  44.7229966  49.1601756  45.6276317
  44.1132949  49.6152607  44.8470797  40.3869257  48.2641086  47.1655544
  39.6296275  48.8904848  46.4306439  40.0029404  47.7371987  48.2933510
  40.6066216  47.0759597  48.7607174  38.6781931  48.0307981  48.8979502
  38.3420209  49.0036685  48.5393271  37.6331251  46.9964983  48.5412392
  37.9513196  46.0183514  48.9019064  36.6838108  47.2632543  49.0057216
  37.5102861  46.9616978  47.4587427  38.8210100  48.1199987  50.3976924
  39.6790610  47.4390073  50.9586746  37.9082067  48.8600389  51.0039537
  37.3070864  49.4503291  50.4468979  37.7600966  48.8949890  52.4544984
  38.7460278  48.8579023  52.9178162  37.0422011  50.1840467  52.9218219
  36.0029990  50.1031141  52.6030615  37.0877249  50.1968673  54.0107954
  37.6393991  51.4663704  52.3762522  37.4500567  51.4770111  51.3028757
  37.1075388  52.2933548  52.8467025  39.4169264  51.6578474  52.6693702
  39.4964375  51.8087253  54.4477919  39.0850461  50.9103187  54.9079241
  40.5345659  51.9316390  54.7564701  38.9182778  52.6764026  54.7655475
  36.9836200  47.6575795  52.8702109  36.2228794  47.0824620  52.0594244
  37.1503202  47.2548255  54.1232624  37.8226650  47.6964442  54.7340199
  36.3478835  46.1405018  54.6572541  36.4698038  45.2806161  53.9985955
  36.7204019  45.8920132  55.6510261  34.8589225  46.4862044  54.7551521
  34.4621597  47.6958731  54.6261601  34.0252989  45.4770145  55.0179624
  34.3696943  44.5354171  55.1399685  32.5597537  45.6903957  54.9881351
  32.3411964  46.7258132  54.7269024  31.9078652  44.7726051  53.9434783
  30.9033832  45.1578948  53.7683583  32.4964545  44.8658676  53.0308092
  31.8260041  43.3125869  54.3447444  32.8328363  42.9523704  54.5560118
  31.2157072  43.2322031  55.2442877  31.2072417  42.4694539  53.2337331
  30.1627300  42.7282400  53.0601700  31.7625236  42.5561397  52.2997915
  31.2748983  41.1111411  53.6835116  32.2135970  40.7387282  53.6994108
  30.2669045  40.3174509  54.0617554  30.5444746  39.0864838  54.5049471
  31.5036362  38.7731017  54.5485435  29.7936588  38.4758958  54.7940104
  29.0327255  40.7381554  53.9913356  28.8382467  41.6683413  53.6492360
  28.2783873  40.1314018  54.2792988  31.9246752  45.5535137  56.3650010
  30.6791598  45.6836316  56.4453921  32.6941862  45.3899517  57.4295231
  33.6856403  45.2904669  57.2645357  32.2021878  45.2925285  58.8190419
  31.1139587  45.3509090  58.8402126  32.6299527  43.9573683  59.4163839
  33.6857868  43.7113557  59.3032848  32.3840447  44.0222184  60.4763007
  31.8541934  42.7904415  58.8647424  30.5821118  42.5319501  59.3294838
  30.1656173  43.1678219  60.1107004  29.8370062  41.4851922  58.8199942
  28.8462744  41.2828387  59.2269391  30.3354095  40.7045874  57.8108221
  29.7407984  39.8916650  57.3940551  31.5880173  40.9516833  57.3271093
  32.0175901  40.3050532  56.5619708  32.3152701  42.0307072  57.8128251
  33.2720135  42.2911613  57.3601601  32.7327214  46.4591170  59.6379963
  33.7727597  47.0171909  59.3086107  32.1475237  46.7213206  60.8294206
  30.8668737  46.1532922  61.3198401  31.0334688  45.1646355  61.7475131
  30.1509511  46.0785844  60.5013216  30.4505536  47.1766020  62.3614723
  29.8739852  46.6933989  63.1502579  29.8476955  47.9573827  61.8977429
  31.7614200  47.7467516  62.8984050  32.1816106  47.0470600  63.6208801
  31.6797228  48.7335114  63.3541795  32.6527101  47.8159478  61.6664882
  32.5137379  48.7588036  61.1375194  34.1501851  47.6167597  61.9756541
  34.9397021  48.5947527  61.9998757  34.5474320  46.3635420  62.2169637
  33.8644749  45.6196998  62.1977874  35.9386030  46.0316278  62.6149790
  36.3287339  46.8008134  63.2815003  35.9704763  44.7197012  63.3294835
  36.9719479  44.5427414  63.7217068  35.2560620  44.7357060  64.1525607
  35.6322950  43.6984528  62.4400532  35.6525557  42.8551902  62.8984172
  36.9013773  46.0422335  61.4225738  38.1046316  45.9487557  61.6602102
  36.4204790  46.0859699  60.1744119  35.4207963  46.1252286  60.0358746
  37.2953022  46.0000939  58.9755330  38.3419231  46.0377839  59.2776314
  37.0630485  44.7194310  58.1830019  37.7435993  44.7053024  57.3316787
  37.3075861  43.5011628  59.0432699  36.6270365  43.5143554  59.8946087
  37.1353424  42.5998338  58.4550206  38.3369992  43.5093967  59.4015175
  35.7092253  44.7071908  57.6913444  35.5577399  43.9019644  57.1910815
  37.1288202  47.2036264  58.0509519  37.9308053  47.3185113  57.1339004
  36.1297287  48.0427827  58.2477509  35.5256157  47.9622509  59.0531461
  35.8116323  49.0748393  57.2301637  35.9330115  48.6499265  56.2337624
  34.3801567  49.5734121  57.3754765  34.1322719  50.2563219  56.5628963
  33.6841435  48.7345854  57.3695151  34.0606617  50.4782127  58.9049411
  32.7775485  50.7239335  58.6556622  36.8020346  50.2398939  57.2908277
  36.7785294  51.0503783  56.3555798  37.7310985  50.2683726  58.2502724
  37.6568211  49.6348625  59.0333734  38.8030482  51.2860120  58.2713411
  38.5681881  52.0727046  57.5543650  38.9467675  51.9098518  59.6449995
  39.4035290  51.1671167  60.2990736  39.6121188  52.7680032  59.5502161
  37.6285153  52.3573897  60.2345408  37.1095449  52.9591697  59.4884635
  37.0378312  51.4692722  60.4591329  37.8172152  53.1772530  61.5069050
  36.8359689  53.3697917  61.9407061  38.4150885  52.5934370  62.2067663
  38.4839775  54.4537046  61.2741856  39.4741931  54.4903167  61.4697157
  37.8997129  55.5292506  60.7433140  38.6042179  56.6325699  60.5235043
  39.5859789  56.6565710  60.7594479  38.1552662  57.4429972  60.1213232
  36.6392978  55.4671497  60.3467031  36.1233279  54.6047437  60.4473558
  36.1987248  56.2824252  59.9450565  40.1168161  50.6732927  57.7539940
  41.1191566  51.3875760  57.7351297  40.0784391  49.4232499  57.3119656
  39.1877090  48.9535242  57.3897919  41.2241177  48.6650516  56.7766507
  42.1397054  49.2122391  57.0011148  41.3353819  47.2621923  57.3717219
  41.3110785  47.3758376  58.4555085  40.4544755  46.7095900  57.0450192
  42.5979857  46.4949957  56.9673173  42.4429314  45.4613379  57.2765269
  42.6534110  46.5439586  55.8798281  43.9181530  47.0213817  57.5742803
  44.7442815  46.4855964  57.1067925  43.9980610  48.0837476  57.3438611
  43.9745183  46.8245065  59.0788972  43.1530798  47.3750833  59.5373779
  43.8673160  45.7624850  59.2996171  45.2624737  47.3145378  59.6243238
  45.3618091  48.2987122  59.4202821  45.2795459  47.1746409  60.6244425
  46.0237475  46.8041945  59.1999290  41.0738496  48.5966442  55.2556218
  39.9682969  48.2623140  54.7588817  42.1279869  48.9180113  54.5384861
  42.9236513  49.3076128  55.0234894  42.2004503  48.7833130  53.0800769
  41.2081167  48.7955886  52.6292748  42.9839906  49.9721452  52.5591011
  42.5502721  50.9055214  52.9179832  44.0263950  49.9125029  52.8720482
  43.0079683  50.0906000  50.7688477  43.7484626  51.1939510  50.7124305
  42.8640038  47.4505435  52.7063334  43.9044447  47.1245388  53.2691591
  42.2408485  46.7092567  51.8205534  41.3967567  47.0886201  51.4159649
  42.6830555  45.3729918  51.3877890  43.5324412  45.0468168  51.9879999
  41.5533321  44.3734995  51.5621861  40.6850002  44.7522907  51.0230978
  41.8778592  43.4346906  51.1133877  41.1883938  44.1412722  52.9946538
  40.2695468  44.9563167  53.6344386  39.8114220  45.7616376  53.0602616
  39.9304138  44.7738580  54.9525421  39.2323979  45.4620071  55.4293296
  40.5080248  43.7675773  55.6832012  40.0938275  43.5904453  56.9948257
  39.4183070  44.2177009  57.2628221  41.4337112  42.9346660  55.0711110
  41.9154086  42.1448640  55.6475491  41.7494371  43.1057648  53.7192873
  42.4418029  42.4204406  53.2303491  43.1031129  45.3959189  49.9193030
  42.3862257  45.9141672  49.0782968  44.2562122  44.7843176  49.6560786
  44.8516333  44.5773656  50.4452198  44.7323655  44.4225976  48.3060232
  44.5814951  45.2551692  47.6188828  46.2305032  44.0923898  48.3550152
  46.7354266  44.9552539  48.7893160  46.3484239  43.2329125  49.0149345
  46.8437681  43.7763932  46.9946751  46.3519702  42.9040069  46.5643522
  46.7174458  44.6296446  46.3282618  48.6077882  43.4292456  47.1880577
  49.2804607  45.0833703  47.0351516  48.8683202  45.7177378  47.8198918
  50.3654960  45.0452866  47.1318400  49.0172592  45.4945396  46.0605922
  43.9094886  43.2330660  47.8407296  43.8946650  42.2219365  48.5313912
  43.1627388  43.3858091  46.7513301  43.3594805  44.1549735  46.1270079
  42.0491547  42.4657437  46.4059793  41.6679209  41.9764279  47.3022662
  40.9250770  43.2592981  45.7724062  41.4179157  43.7659402  44.9426333
  40.1852617  42.5600957  45.3826764  40.2376107  44.2829945  46.6518917
  40.9669160  45.0015638  47.0258871  39.1949879  45.0060959  45.8259037
  38.4650218  44.2881928  45.4519207  38.6902417  45.7475664  46.4452207
  39.6779992  45.5038640  44.9850544  39.6316145  43.6259240  47.8886212
  40.4192380  43.1426895  48.4667502  39.1446438  44.3841895  48.5018050
  38.8974731  42.8808685  47.5819819  42.4437008  41.3727724  45.4187362
  41.6787382  40.3798229  45.3434521  43.4899761  41.5454462  44.6002127
  44.1397723  42.2945692  44.7917305  43.7275344  40.7060703  43.4317675
  43.3229658  39.7120982  43.6226678  43.0732273  41.2642603  42.1791530
  42.0534754  41.5485618  42.4387257  43.6397251  42.1545404  41.9060565
  43.0468952  40.3100286  41.0151760  42.0445220  39.4904762  40.9028023
  44.0036212  40.3717587  40.1985031  45.2235215  40.6014066  43.2009038
  45.9390299  41.5902053  43.4912137  45.6627416  39.4677979  42.6913832
  44.9938335  38.7582627  42.4282840  47.1051656  39.1940938  42.4656512
  47.6720535  40.1242996  42.5037890  47.6371857  38.2513085  43.5512255
  47.1516486  37.2867153  43.4031956  48.7190117  38.1210348  43.5232728
  47.2953666  38.6939066  44.9377235  47.9635399  39.7406828  45.5330236
  48.7902417  40.2148940  45.0040739  47.5977546  40.1894113  46.7822552
  48.0759232  41.0735293  47.2039077  46.6355333  39.5271336  47.4940595
  46.3536278  39.8701106  48.4895473  46.0261844  38.4293814  46.9507511
  45.2755533  37.8897048  47.5281610  46.3557103  38.0050926  45.6828391
  45.8751755  37.1220955  45.2615289  47.3064150  38.5246157  41.1262664
  48.3541387  37.9163565  40.9194939  46.3406180  38.6568082  40.2208724
  45.5730568  39.2884038  40.3998585  46.3478754  37.9053061  38.9469254
  46.2846416  36.8418321  39.1774112  45.4731259  38.2039835  38.3692537
  47.5908392  38.1572593  38.1234635  48.0906458  37.2173893  37.4159313
  48.0644367  39.4046608  38.1194917  47.6615523  40.1210293  38.7065179
  49.1662107  39.7858272  37.1987294  49.2359724  39.0899208  36.3626990
  48.8612220  41.1801973  36.6497423  48.4989695  41.7226151  37.5230437
  49.7650078  41.6598024  36.2739095  47.7868843  41.1925545  35.5602438
  46.8860140  40.7170499  35.9480955  47.4665603  42.6132809  35.1386741
  48.3669044  43.0893165  34.7502551  46.7005044  42.5988122  34.3634000
  47.1016596  43.1745472  35.9988648  48.1788277  40.3442837  34.3822001
  48.3245150  39.3143315  34.7078886  47.3903133  40.3789986  33.6304414
  49.1061797  40.7237332  33.9530902  50.4997054  39.7360515  37.9380515
  51.4930724  40.1813771  37.3886872  50.5232024  39.1806592  39.1397671
  49.6657530  38.8698180  39.5736538  51.7807596  39.0988609  39.9267238
  52.1815873  40.1109431  39.9826328  51.5047969  38.6132476  41.3235980
  51.1114002  37.5974628  41.2846091  52.4290976  38.6224333  41.9012520
  50.7736625  39.2674995  41.7984623  52.8303799  38.2418409  39.2468091
  52.5740826  37.4219281  38.3284995  54.0833213  38.4634711  39.6598997
  54.2937372  39.2832018  40.2111401  55.2070042  37.6007920  39.2271564
  54.8293805  36.6128042  38.9637563  55.9131745  38.1964153  38.0057366
  55.1662390  38.2722116  37.2155205  56.2442873  39.1955148  38.2890463
  57.1060360  37.3894895  37.5018603  57.8688249  37.3739321  38.2803280
  56.7753455  36.3711594  37.2975328  57.6844872  37.9938318  36.2416356
  56.9472101  37.9155508  35.4426402  57.9098083  39.0442739  36.4257590
  58.8917646  37.3295139  35.8222648  59.7743563  37.7266198  36.1111217
  58.9050340  36.2561352  35.0785256  57.7701893  35.7212413  34.6729184
  56.8924987  36.1441454  34.9392101  57.7838388  34.8910825  34.0978100
  60.0601115  35.7156403  34.7607030  60.9178692  36.1330660  35.0925277
  60.0846347  34.8853713  34.1861155  56.1293962  37.3687037  40.4045170
  56.4374557  38.3346762  41.1572935  56.6401322  36.1493816  40.5233631
  56.3288849  35.3955677  39.9275536  57.6672952  35.8533602  41.5554666
  57.3773184  36.3066346  42.5033880  57.8090799  34.3467632  41.7582536
  56.8331941  33.9354993  42.0163391  58.1562761  33.8998840  40.8266668
  58.7987408  34.0361427  42.8681932  59.8224153  34.3656300  42.6903463
  58.3858774  34.5779238  43.7191451  58.8162889  32.5714740  43.1949328
  57.9631961  31.8039370  42.7625110  59.8835591  32.1535577  43.8299141
  59.9673041  31.1796173  44.0839386  60.6174988  32.8073125  44.0623759
  58.9822152  36.4615765  41.0825827  59.3496141  36.1588464  39.9576887
  59.6442534  37.2944621  41.8901402  59.2650122  37.5199666  42.7986682
  60.8637576  38.0085708  41.4403131  61.0411292  37.7648272  40.3928268
  60.7529652  39.5209077  41.5758789  61.5649438  39.9858738  41.0167755
  59.7969782  39.8556225  41.1731943  60.8376070  40.0494944  42.9727253
  59.7403427  40.0236169  43.7934704  58.8017340  39.6289019  43.4044800
  59.8088843  40.4851261  45.0889492  58.9231528  40.4268488  45.7215504
  60.9689797  41.0114456  45.5842163  61.0337177  41.3847566  46.6062475
  62.0686964  41.0639259  44.7629489  63.0013283  41.4895383  45.1332891
  61.9949755  40.5765812  43.4636363  62.8722886  40.6118280  42.8177421
  62.1059183  37.4807774  42.1477881  63.1917791  37.9136009  41.8133391
  61.9412912  36.5479993  43.0950135  61.0129655  36.2228100  43.3242789
  63.0963764  35.9892499  43.8598084  64.0384208  36.3529401  43.4494659
  63.0469788  36.3333116  45.3512169  63.8951524  35.8498841  45.8359846
  63.1046690  37.8282572  45.6046011  62.2564965  38.3123477  45.1204943
  63.0664441  38.0172032  46.6774185  64.0325674  38.2306445  45.1981657
  61.8462283  35.7669087  45.8688104  61.7786009  35.9620013  46.8063422
  63.1776240  34.4701533  43.7390215  62.1602550  33.8467891  43.4991081
  64.3389669  33.9399910  44.1282200  65.1602469  34.5242026  44.0626802
  64.5038697  32.5426342  44.6140090  63.9159921  31.8717559  43.9875735
  65.9619797  32.1023893  44.5644534  66.4385919  32.2922954  43.6027488
  66.4714169  32.6731618  45.3408507  66.0898602  30.6279193  44.8851366
  66.8327932  30.2369660  45.7898814  65.2938509  29.8125876  44.2086121
  65.3328914  28.8177346  44.3784444  64.6517898  30.1897839  43.5262769
  63.9858018  32.3854932  46.0598321  63.6773238  33.4206027  46.7249754
  63.9246457  31.1296880  46.5385148  64.0843968  30.4049004  45.8534879
  63.5879924  30.7215351  47.9369800  62.5486172  30.9703275  48.1512245
  63.7759036  29.2372790  48.1214848  63.5134320  28.9739908  49.1461248
  63.1167790  28.7106135  47.4313556  65.1234607  28.8639501  47.8671139
  65.2217409  27.9169127  47.9898372  64.4359860  31.5040976  48.9461662
  63.9371189  31.7611648  50.0592283  65.6675048  31.8630142  48.5582521
  65.9101814  31.6394178  47.6036778  66.6988097  32.5016976  49.4160952
  66.6155427  32.1354128  50.4393260  68.0912424  32.1638303  48.8887360
  68.1275093  31.1296652  48.5462648  68.3578718  32.8278704  48.0665076
  69.4121936  32.3324769  50.1199680  70.4034717  31.9694618  49.3109649
  66.4823734  34.0231197  49.4628305  66.9622259  34.6558113  50.4244682
  65.7845211  34.5821199  48.4644269  65.3829309  33.9558828  47.7813078
  65.5661278  36.0320263  48.2980034  64.5317777  36.1929758  47.9941708
  65.7429267  36.5202833  49.2563596  66.4933122  36.6444629  47.2494971
  66.4648182  37.8927564  47.1428687  67.2994112  35.8287167  46.5327876
  67.3289906  34.8633038  46.8280878  68.1167897  36.2339431  45.3374596
  68.8713079  36.9634534  45.6317658  68.8273571  35.0042888  44.7405616
  67.9869982  34.3451108  44.5228910  69.3270759  35.2743554  43.8102685
  69.8320245  34.2716565  45.6744874  69.9038067  34.6187819  46.8819046
  70.6332253  33.3960518  45.1082404  67.1652256  36.8255545  44.2554625
  66.3149283  36.0691865  43.8459849  67.3482717  38.0760679  43.7789748
  68.0237368  38.6553705  44.2567349  66.5266405  38.6947157  42.6872065
  65.4745728  38.4895036  42.8850464  66.7096842  40.2164217  42.5257023
  67.7690810  40.4539350  42.6224752  66.2136732  40.6785255  41.1850777
  65.1541604  40.4417558  41.0877444  66.3543179  41.7557899  41.0966418
  66.7721411  40.1737919  40.3967508  65.9854714  41.0330574  43.5879951
  66.3624245  40.7628373  44.5743974  66.1587196  42.0946599  43.4116865
  64.9162521  40.8269243  43.5392091  66.7967579  37.9384141  41.3729788
  67.9511311  37.7036997  41.0396714  65.7622500  37.5022591  40.6682859
  64.8349772  37.6800144  41.0269886  65.8977346  36.6475240  39.4827511
  66.7045028  35.9295894  39.6303793  64.6012937  35.8809035  39.2400991
  64.8619677  35.0168673  38.6288791  64.2536632  35.5430963  40.2163877
  63.5216904  36.6542305  38.5700721  63.3686731  37.6055946  39.0795746
  63.7823033  36.8386142  37.5278698  62.2397088  35.8312714  38.6351146
  62.1017897  35.4524370  39.6478149  61.3907032  36.4586544  38.3636747
  62.2962363  34.7168421  37.7305756  63.2114431  34.4950161  37.3654878
  61.2748561  34.0029829  37.3312302  60.0440483  34.2395698  37.7877822
  59.8902024  34.9823516  38.4546455  59.2715965  33.6748410  37.4645190
  61.5125398  33.0209080  36.4846716  62.4565163  32.8461148  36.1708949
  60.7495758  32.4477878  36.1537368  66.3797556  37.5184382  38.3280095
  66.0493581  38.6859094  38.2338314  67.2709584  36.9798556  37.4716337
  67.9989301  35.7367139  37.6729739  67.3171826  34.8971501  37.5371314
  68.4006261  35.7176440  38.6860759  69.0953228  35.7783562  36.6133612
  69.2778730  34.7749726  36.2286589  70.0143495  36.1738714  37.0458642
  68.5649612  36.7021706  35.5266209  67.9331725  36.1100381  34.8645627
  69.3209868  37.2216755  34.9378599  67.7172222  37.7086166  36.2855406
  68.3007058  38.5768130  36.5919395  66.5078617  38.1685944  35.4810801
  65.6007025  37.3637466  35.1842854  66.4650667  39.4390730  35.0549032
  67.4441857  40.5146312  35.3309206  68.4401340  40.1813828  35.0391454
  67.4367427  40.7466345  36.3959173  66.9407423  41.6796374  34.4766517
  67.4640559  41.6848559  33.5205059  67.1246503  42.6201191  34.9960488
  65.4365870  41.4417956  34.2907346  65.1243710  41.8269165  33.3200122
  64.8058066  41.8687820  35.0704130  65.3247027  39.9248949  34.3054660
  64.4098751  39.6112878  34.8082973  65.3411050  39.3651490  32.8834957
  66.4040761  39.1883613  32.2684416  64.1551466  39.2674569  32.2987932
  63.3087057  39.4129346  32.8302754  64.0339636  38.9500879  30.8662980
  64.7049751  38.1297053  30.6117097  62.6026456  38.5326004  30.5301405
  61.9299085  39.3017841  30.9094563  62.5145435  38.4764547  29.4451586
  62.2328074  37.1964734  31.1355661  62.8010913  36.4139910  30.6326988
  62.4899222  37.2079163  32.1947465  60.7555120  36.9246758  30.9794240
  60.4643448  37.0792348  29.9404668  60.5420215  35.8951252  31.2667339
  59.9869131  37.7977975  31.8039750  60.4789771  38.4824028  32.3601117
  58.6484275  37.7835547  31.8452826  57.9855105  36.9531977  31.0570858
  58.4920228  36.3403524  30.4342167  56.9759617  36.9359497  31.0818511
  58.0337355  38.5555623  32.6899736  58.5678950  39.1547515  33.3029550
  57.0245247  38.5530025  32.7297961  64.3960603  40.1862293  30.0447128
  64.2291578  41.2815362  30.5253170  64.8484429  39.9783371  28.8133079
  65.0115228  39.0286371  28.5106954  65.1971695  41.0780335  27.8890534
  65.8540062  41.7909474  28.3874694  65.9134552  40.5224319  26.6885419
  65.2649089  39.8136106  26.1737021  66.1723907  41.3357934  26.0106807
  66.8228089  40.0147414  27.0101402  63.9368323  41.8439401  27.5011934
  64.0108595  43.0304452  27.3192746  62.8223894  41.1350673  27.3669017
  62.8946841  40.1415634  27.5337032  61.4942658  41.6922341  26.9803451
  61.4333837  42.7723948  27.1131810  61.1289469  41.3535011  25.5190011
  61.2257011  40.2782666  25.3686397  59.6950829  41.7826929  25.2151207
  59.5976609  42.8579598  25.3648239  59.4531086  41.5369387  24.1811218
  59.0096755  41.2599295  25.8822315  62.1073906  41.9576940  24.5248779
  63.1084447  41.5731181  24.7200548  61.8075361  41.6911477  23.5113987
  62.1087963  43.0426781  24.6293204  60.4610973  41.0942191  27.9230385
  60.4641117  39.8635150  28.1051878  59.5382111  41.9217211  28.4144270
  59.6198315  42.9105738  28.2257269  58.4220193  41.4614983  29.2595836
  58.2451284  40.3939513  29.1286172  58.6905846  41.7271602  30.7052635
  58.8606932  42.7935127  30.8537741  57.8330033  41.4104350  31.2988456
  59.5742483  41.1716041  31.0192620  57.1662595  42.1825520  28.7932363
  57.1371234  43.4110192  28.9259372  56.2606711  41.4388003  28.1770252
  56.4330352  40.4461302  28.1063428  55.0185227  41.9765877  27.5899875
  55.2431226  42.8550431  26.9850328  54.5432732  41.2188835  26.9669933
  54.0743460  42.3683445  28.6878171  53.4517448  41.4469485  29.2495049
  53.9083338  43.6665142  28.8982771  54.4463189  44.2824136  28.3055384
  53.0376878  44.2734119  29.9399944  53.2578964  43.8265583  30.9094938
  53.2744039  45.7675628  30.0304365  54.3273150  45.8521863  30.2993533
  53.0745476  46.3784589  29.1501164  52.4892083  46.3758092  31.1649029
  52.6930297  45.9329883  32.4622677  53.4429746  45.1640270  32.6476888
  51.9528441  46.4582512  33.5254753  52.1708210  46.1560424  34.5498075
  50.9456490  47.3602914  33.2742453  50.3418152  47.7449329  34.0961550
  50.6986130  47.7795868  31.9791277  49.9286267  48.5280787  31.7920953
  51.4278416  47.2504362  30.9172735  51.1708336  47.5184360  29.8924697
  51.5562488  44.0203530  29.6600432  51.1296837  44.2706193  28.5354584
  50.7931893  43.5742068  30.6670097  51.2238163  43.3833402  31.5604467
  49.3383432  43.2862483  30.5072826  49.0365742  43.5927327  29.5057328
  48.9831305  41.7979563  30.6949848  49.2475489  41.5556783  31.7242969
  47.9020254  41.7316004  30.5728836  49.6609478  40.8142863  29.7526043
  50.7348220  40.9663774  29.8610635  49.3989073  39.8154490  30.1015468
  49.2771717  40.9560829  28.2993047  49.7474639  41.8585383  27.9087943
  49.6554655  40.0874889  27.7602892  47.8367131  41.0489410  28.0842456
  47.4276491  41.9689437  28.1640018  47.0348620  40.0159189  27.7954306
  47.5264111  38.7896925  27.6888500  48.5143776  38.6312491  27.8263920
  46.9107637  38.0193450  27.4705780  45.7399389  40.2207197  27.6127488
  45.3633453  41.1545228  27.6920521  45.1344565  39.4422390  27.3949007
  48.5140524  44.1323638  31.4964637  47.3284168  44.0523259  31.3951464
  49.1198028  44.9967045  32.3073784  50.1233851  45.0831522  32.2335628
  48.4108548  45.8380530  33.3100620  47.6520785  45.2103115  33.7772860
  49.1463324  46.1353966  34.0575638  47.7327581  47.1066478  32.7380972
  47.3224526  47.1029191  31.5615784  47.5633926  48.1545083  33.5686282
  47.9573562  48.1095598  34.4975371  46.6937890  49.3019453  33.2306461
  46.1069522  49.0389351  32.3505624  45.7340401  49.6096812  34.3851766
  46.3334842  49.6505582  35.2946248  44.9637788  50.9017798  34.2310997
  44.3636982  50.8614641  33.3220466  44.3095480  51.0402270  35.0918630
  45.6620712  51.7363621  34.1681654  44.7836768  48.5511155  34.4070474
  44.1560961  48.6991723  35.1182590  47.5728925  50.4656906  32.7957944
  48.5141451  50.8609942  33.5436336  47.2504387  51.0373180  31.6490988
  46.4581772  50.7128436  31.1132467  48.0988788  52.1167814  31.0719048
  49.1490364  51.8479496  30.9578977  47.5491590  52.5307457  29.7056882
  46.4612320  52.5064439  29.7683267  48.0002600  53.9146946  29.2697040
  49.0881339  53.9396420  29.2063869  47.5746053  54.1452687  28.2931007
  47.6620950  54.6533496  29.9964329  47.9138660  51.4756127  28.6675739
  47.4827504  50.5169847  28.9561458  47.5216862  51.7716345  27.6946064
  48.9983015  51.3827181  28.6086591  48.1528887  53.2788795  32.0802425
  49.2350815  53.7884776  32.3267997  47.0338340  53.6430071  32.6995846
  46.1912098  53.0871008  32.6671510  46.9930695  54.9338943  33.4125325
  47.2318136  55.7402548  32.7190751  45.6164641  55.1907009  33.9999555
  44.8914871  55.2099179  33.1862366  45.3743644  54.3759985  34.6824126
  45.5699067  56.5025473  34.7461622  46.1993624  56.4189241  35.6321044
  45.9613335  57.2845381  34.0954876  44.1784016  56.8479134  35.1562657
  43.6806957  55.9678316  35.5635050  44.1965955  57.6355375  35.9095363
  43.4355930  57.3123403  34.0254089  43.9001283  57.3346175  33.1288544
  42.1584339  57.6393051  34.0810827  41.5343301  57.5936386  35.2502076
  42.0393584  57.3114378  36.0781021  40.5568280  57.8412656  35.3073920
  41.5533156  58.0789878  32.9912148  42.0711609  58.1608848  32.1279482
  40.5759118  58.3310113  33.0267762  48.0563155  54.9784777  34.5203814
  48.6737113  56.0396180  34.7377008  48.2404409  53.8910441  35.2895412
  47.7761862  53.0272360  35.0478750  49.0844238  53.9171333  36.5013161
  49.3366245  54.9473461  36.7526239  48.3427742  53.2906878  37.6883237
  48.2517064  52.2072070  37.6116730  49.0274112  53.5408062  38.4987637
  46.9990904  53.8850322  37.9697886  46.8671860  55.0989532  38.6252237
  47.7583028  55.5997321  39.0036821  45.6200339  55.6766632  38.8017795
  45.5382438  56.6161818  39.3483294  44.4880595  55.0675862  38.3053228
  43.2329307  55.6158647  38.4502376  43.2405605  56.4500386  38.9253115
  44.6124321  53.8685946  37.6244046  43.7295498  53.3575403  37.2404217
  45.8652914  53.3205519  37.4329733  45.9782388  52.4124653  36.8407557
  50.3843624  53.1542063  36.2503679  51.1972861  53.0228603  37.1818207
  50.6164615  52.7148667  35.0201323  49.9287794  52.8494832  34.2927595
  51.8383729  51.9011106  34.7030165  51.9549607  51.1445775  35.4790089
  51.6667737  51.2091383  33.3793447  51.5579127  51.9538378  32.5908829
  52.5409944  50.5906601  33.1760636  50.7768282  50.5805267  33.4100644
  53.0950003  52.7716040  34.7650631  53.1050330  53.9132515  34.2819758
  54.2082146  52.2358008  35.2479036  54.1721517  51.3429538  35.7186722
  55.5006150  52.9453583  35.1919464  55.3419825  53.9923637  35.4502381
  56.5049177  52.3643716  36.1417930  57.2248597  53.1267495  36.4393877
  56.0024975  51.9745318  37.0270607  57.1749460  51.3188880  35.4856352
  57.8238643  50.9328368  36.0784837  56.0531305  52.9430535  33.7495032
  55.5485613  52.2232951  32.8571003  57.0396915  53.7903151  33.5274892
  57.2701047  54.4734011  34.2348806  57.7739248  53.8367985  32.2392936
  57.1201810  54.0997896  31.4076964  58.9241928  54.8541539  32.3283634
  59.5382358  54.6244897  33.1991711  59.7740804  54.7887095  31.0823489
  59.1607890  55.0187301  30.2111056  60.5850956  55.5131656  31.1566344
  60.1908525  53.7869142  30.9783952  58.3946445  56.2706820  32.5505611
  58.0482488  56.6421080  31.5861165  57.5500340  56.1971136  33.2356307
  59.4355610  57.2368010  33.1255888  60.2803236  57.3112492  32.4408017
  58.9858211  58.2211817  33.2553115  59.7821106  56.8662531  34.0903154
  58.2547214  52.4227422  31.9006693  58.1489038  52.0217394  30.7358292
  58.7271431  51.6396834  32.8790545  58.8293887  51.9882001  33.8214882
  59.3027790  50.3137230  32.5542000  60.0162305  50.4172433  31.7366612
  60.0231059  49.7197300  33.7559664  59.4307282  49.4583538  34.6328189
  60.4658033  48.8170308  33.3349518  61.1380219  50.6507893  34.1850629
  61.9278438  51.0994497  33.3399279  61.1009085  51.1052488  35.4295091
  61.8244226  51.7287384  35.7579718  60.3492816  50.8259906  36.0436530
  58.2440445  49.4226796  31.9227439  58.5851342  48.7318757  30.9560129
  56.9994523  49.4399800  32.4128878  56.8319600  49.9514838  33.2675277
  55.8740773  48.6961438  31.8095928  56.1169873  47.6343799  31.7677459
  54.6211378  48.8728057  32.6367460  54.3599834  49.9301614  32.6803046
  53.8027325  48.3154234  32.1810729  54.7959921  48.5003949  33.6461198
  55.6631330  49.1615860  30.3673227  55.4749690  48.3125318  29.4831835
  55.6368401  50.4744610  30.1256077  55.6646273  51.0890394  30.9266200
  55.4871322  51.0830577  28.7723762  54.5445234  50.7706783  28.3229244
  55.4929451  52.6124386  28.8856998  56.2089659  52.9667237  29.6272492
  55.7232373  53.0571619  27.9175641  54.1657367  53.1403281  29.2906892
  53.1343582  53.2074683  28.3864239  52.0649231  53.6831928  28.9913775
  51.1305787  53.8180871  28.4464895  52.3761828  53.9227359  30.2606460
  51.7469654  54.2603661  30.9749226  53.7074069  53.6354001  30.4535854
  54.1712805  53.8255033  31.4214610  56.5802940  50.5793148  27.8319841
  56.2771115  50.3775221  26.6375399  57.7691879  50.3247363  28.3684087
  57.8854950  50.4607083  29.3624326  58.9655912  49.9405145  27.5616649
  58.8568386  50.2903718  26.5350822  60.2129662  50.5769214  28.1635577
  60.2536527  50.3193252  29.2218998  61.0865789  50.1671961  27.6565803
  60.2017000  52.0905050  28.0104610  59.9228807  52.2949210  26.9767421
  59.4235599  52.4631429  28.6765999  61.5080665  52.7821559  28.3257494
  62.2415024  52.5287783  27.5602623  61.3497253  53.8605641  28.3337050
  62.0275436  52.3792354  29.6184920  61.7192597  51.4823847  29.9659388
  62.8978821  53.0784411  30.3467168  63.3284420  54.2592611  29.9256891
  62.9950164  54.6313073  29.0479027  63.9879570  54.7815183  30.4846050
  63.2964103  52.6015286  31.5168809  62.9390753  51.7160560  31.8460466
  63.9556951  53.1256603  32.0743108  59.0913183  48.4198155  27.4513188
  60.0438860  47.9851863  26.8073884  58.1628482  47.6673713  28.0177585
  57.4639898  48.1437796  28.5697833  58.1582507  46.1810209  28.0053750
  57.3963474  45.8166809  28.6944751  57.8560914  45.6355015  26.6106287
  58.5506722  46.1193077  25.9239058  57.9985116  44.5556189  26.5697622
  56.4417346  45.9540335  26.1726592  55.4588856  45.6154290  26.8462650
  56.3222409  46.5611729  25.0096196  55.4053777  46.8012272  24.6605699
  57.1480480  46.7837718  24.4724110  59.4836673  45.6819627  28.5953181
  60.0772865  44.7331149  28.0643888  59.9180166  46.3412714  29.6440763
  59.4602610  47.2115859  29.8745367  61.0557906  45.9189093  30.4602604
  61.7222065  45.2968689  29.8627197  61.8390014  47.1215675  30.9694549
  61.1375036  47.7964302  31.4599245  62.5679280  46.7645256  31.6969761
  62.5603976  47.8644706  29.8503033  63.3642160  47.2173016  29.4993773
  61.8396121  48.0159852  29.0468024  63.1359656  49.2013947  30.2707107
  63.4778313  49.7062707  29.3672025  62.3271852  49.7752780  30.7230731
  64.2444665  49.1322149  31.2149506  64.0050965  49.2145294  32.1927162
  65.5433032  49.0235445  30.8786086  65.9082070  48.8900875  29.6101653
  65.2053145  48.8693732  28.8851735  66.8872316  48.8098092  29.3752909
  66.4661753  48.9922218  31.8245088  66.1924143  49.0499688  32.7949830
  67.4407950  48.9106891  31.5723827  60.5148093  45.0695038  31.6065725
  59.3070485  45.2446705  32.0488976  61.3858635  44.2509828  32.1526366
  62.2940275  44.1095832  31.7338961  61.0438827  43.4759797  33.3474882
  60.1411261  42.8961698  33.1552639  62.1607539  42.5222081  33.7284757
  62.4943521  42.0048406  32.8289523  62.9858370  43.1038932  34.1395478
  61.7013347  41.5097636  34.7497882  62.5907586  41.0933029  35.2226373
  61.0882384  42.0049402  35.5027904  60.9084810  40.4006201  34.1067690
  61.5466053  39.5460251  33.4332716  59.6525654  40.4049762  34.2596708
  60.7405642  44.4358489  34.4722642  61.5595143  45.2623235  34.7805667
  59.5647891  44.2882101  35.0886194  58.9085373  43.5806710  34.7905904
  59.1659802  45.1942948  36.1636078  59.5000356  46.2080168  35.9425332
  57.6384452  45.2005585  36.3004706  57.2786968  44.1716367  36.3000153
  57.3693066  45.6785939  37.2423552  56.9989427  45.9640039  35.1410873
  57.1572665  47.0333461  35.2808789  57.4573072  45.6488583  34.2037041
  55.2455869  45.6337239  35.0772082  54.7401804  46.7107976  36.4209878
  55.0217589  47.7380397  36.1895005  53.6593278  46.6508248  36.5485083
  55.2320792  46.3985794  37.3422134  59.8606387  44.7650944  37.4573008
  60.1521266  43.6039282  37.6439791  60.0937436  45.7285084  38.3251871
  59.8316002  46.6703371  38.0715358  60.7142325  45.5073257  39.6418049
  60.8557429  44.4356337  39.7816276  61.6833345  46.0060792  39.6554290
  59.8674879  46.0447151  40.7763786  58.7547319  46.5364582  40.5290577
  60.4148108  45.9869216  41.9995370  61.3303340  45.5739620  42.1062191
  59.7150780  46.4562800  43.2082411  58.7835461  45.9052725  43.3376176
  60.5812598  46.2347664  44.4286201  61.5382758  46.7219811  44.2419615
  60.0866464  46.7175317  45.2714696  60.8165192  44.7537964  44.7539416
  59.9352063  44.4082848  45.2943211  60.8853052  44.2309572  43.7999973
  62.0757400  44.4643511  45.5889083  62.1190441  45.1545156  46.4314620
  62.0374072  43.4403062  45.9603408  63.2801956  44.6258833  44.7924492
  63.0889559  45.0870759  43.9144811  64.6013484  44.2306803  45.0691098
  64.8877107  43.5948614  46.1522533  64.1566730  43.3755421  46.8137539
  65.8419082  43.3186933  46.3348400  65.5835419  44.5073317  44.2447380
  65.3951886  45.0142512  43.3917105  66.5235411  44.2121252  44.4668939
  59.3701944  47.9473610  43.0153065  58.2898164  48.4066445  43.4570917
  60.2589831  48.7124892  42.4433430  61.1359795  48.2946649  42.1669383
  60.0987035  50.1766397  42.2873559  59.8120981  50.6143614  43.2435757
  61.3975653  50.8270724  41.8234667  61.1885141  51.8928063  41.7306872
  62.2294263  50.6791228  42.5121017  61.8617700  50.3689269  40.4935198
  61.9728192  49.0472680  40.1496494  62.3626443  48.9463910  38.8943008
  62.4906391  47.9721491  38.4225284  62.5365183  50.1823297  38.4154781
  62.8800589  50.4262558  37.4975566  62.1714804  51.0763644  39.3760666
  62.1716071  52.1438010  39.1554304  58.9196925  50.4983304  41.3557475
  58.3325284  51.5615494  41.5256081  58.5804534  49.6288605  40.4053323
  59.1471670  48.8043394  40.2671295  57.4817118  49.8953637  39.4463532
  57.5655897  50.9175007  39.0771653  57.5339517  48.9529129  38.2710781
  57.4589517  47.8944245  38.5202299  56.6452062  49.2596942  37.7196105
  58.7669849  49.1850032  37.4136038  58.9650681  50.3522389  37.0184040
  59.6048673  48.2777069  37.2779402  56.1476377  49.8730455  40.1999460
  55.2452602  50.6519994  39.8637159  56.0183347  49.0314412  41.2354695
  56.7336580  48.3432360  41.4219780  54.8171132  49.0429562  42.0941314
  53.9359312  49.0064736  41.4535952  54.7606078  47.8643811  43.0724779
  55.7292470  47.8443995  43.5719156  53.9785264  48.0625711  43.8053964
  54.5056628  46.5252171  42.4121728  53.9866274  46.4912398  41.2866819
  54.8098998  45.4775299  43.0605750  54.7668187  50.3503265  42.8666820
  53.6561203  50.8814461  43.0742658  55.9107060  50.9041329  43.2690417
  56.7899777  50.4342260  43.1072761  55.9245911  52.1824665  44.0204061
  55.1307560  52.1995775  44.7671538  57.2764349  52.3151751  44.7379163
  58.0051642  52.2291956  43.9319012  57.3611014  53.2986511  45.2002003
  57.5448621  51.2402261  45.7806476  57.3252327  50.2659129  45.3440957
  59.0239514  51.2761932  46.2462776  59.2442166  52.2501089  46.6833936
  59.1898464  50.4981682  46.9914331  59.6786884  51.1056148  45.3916883
  56.5970351  51.3639843  46.9694575  55.5675862  51.2612732  46.6262596
  56.8178524  50.5801528  47.6939912  56.7274342  52.3390843  47.4387922
  55.6620144  53.3633513  43.0840390  55.0341576  54.3420771  43.5381301
  56.0935176  53.3284005  41.8153607  56.7764665  52.6343147  41.5471723
  55.6708765  54.3301282  40.8011728  55.9562945  55.3300922  41.1278343
  56.3412440  54.0453395  39.4585631  56.5105242  52.9716102  39.3776375
  55.7618682  54.3869564  38.6008209  57.6772819  54.6962614  39.3569261
  58.9106735  54.1124659  39.3936016  58.9354613  53.0268886  39.4885088
  59.8944525  55.0679849  39.2982272  60.8796101  54.8827717  39.1746956
  59.3098982  56.2982757  39.2612686  59.8914170  57.5667512  39.1142517
  60.9756070  57.6579258  39.0485424  59.0298928  58.6282460  39.0625416
  59.4491166  59.6336354  39.0232541  57.6442656  58.4729957  39.0582470
  56.9821092  59.3325229  38.9540289  57.0708440  57.2261349  39.1858669
  55.9844805  57.1529475  39.2364498  57.9123760  56.1140720  39.2600088
  54.1399712  54.3256582  40.7047881  53.5327055  55.4032650  40.6342617
  53.5257822  53.1596863  40.6024384  54.0604260  52.3028323  40.5949121
  52.0573919  53.0730713  40.4237550  51.7569137  53.6840702  39.5725838
  51.6239491  51.6415511  40.1699789  51.9958929  51.0168542  40.9820816
  50.5346380  51.6059990  40.1545691  52.1253560  51.1658150  38.9458742
  51.8361463  50.2602758  38.8118733  51.3863261  53.6611503  41.6661875
  50.3877953  54.3856997  41.5346027  51.9160852  53.3847815  42.8648240
  52.6814256  52.7313654  42.9508518  51.3755046  54.0081963  44.1073249
  50.3187619  53.7684017  44.2251926  52.1335696  53.4660426  45.3083727
  51.7879897  52.4383435  45.4202142  53.1999648  53.4677072  45.0827656
  51.8887154  54.2254020  46.6002081  52.1827299  55.2661714  46.4643567
  50.4090829  54.1594707  46.9781087  50.1144259  53.1189666  47.1145903
  50.2457822  54.7075089  47.9060568  49.8104227  54.6048542  46.1835396
  52.7557473  53.6539605  47.7037805  53.8057306  53.7453931  47.4257971
  52.5761561  54.2024090  48.6284710  52.5099208  52.6024423  47.8520296
  51.5236388  55.5365444  44.0110833  50.5531332  56.2444148  44.2816445
  52.6673074  56.0519871  43.5381521  53.4312867  55.4388678  43.2921445
  52.8738871  57.5075781  43.4223518  52.7433433  57.9669684  44.4021569
  54.2717346  57.8406020  42.9101464  55.0145404  57.3670478  43.5520850
  54.3998233  57.4888977  41.8864290  54.5847990  59.3103698  42.9021284
  54.8054678  60.0038145  44.0812491  54.7673797  59.4800351  45.0363953
  55.0753864  61.3671948  44.0463770  55.2245793  61.9008799  44.9850049
  55.1547677  62.0384745  42.8585238  55.3848521  63.1038144  42.8439610
  54.9436133  61.3663778  41.6817987  55.0104028  61.8916044  40.7290258
  54.6429863  60.0080234  41.7078543  54.4483525  59.4749622  40.7772291
  51.7942023  58.0915856  42.4945146  51.1434365  59.0588274  42.8764440
  51.5271320  57.4616730  41.3409394  52.0991065  56.6750394  41.0686305
  50.4951712  57.9336850  40.4009189  50.6667846  58.9837030  40.1640431
  50.5358596  57.1355573  39.1166558  50.5472376  56.1022860  39.4635278
  49.6381601  57.3092122  38.5232928  51.7558324  57.3943485  38.2693055
  52.4110203  58.6127339  38.2718910  52.0350949  59.4042065  38.9202356
  53.5280711  58.8404428  37.4699495  54.0616814  59.7887583  37.5336639
  53.9278121  57.8857065  36.5634906  54.9817469  58.1032107  35.7074361
  55.3836662  58.9678061  35.8193972  53.2889166  56.6704639  36.5466686
  53.6432759  55.8895310  35.8738583  52.1983653  56.4308175  37.3781273
  51.6791767  55.4734398  37.3337289  49.1072731  57.8907613  41.0718595
  48.3189610  58.8292206  40.9099485  48.8227309  56.8211113  41.8232599
  49.4559436  56.0361228  41.8774273  47.5248346  56.7347184  42.5541680
  46.7155974  56.8462358  41.8325045  47.3365296  55.4089771  43.3003056
  48.2301472  55.2368416  43.9002356  46.4738716  55.5185331  43.9575109
  47.1317094  54.3084574  42.4323436  46.3349573  54.5366350  41.7243733
  48.0497157  54.0891388  41.8871227  46.6468276  52.8173002  43.4410565
  45.3474361  53.3939810  44.3902468  44.5437919  53.7355066  43.7378549
  44.9795391  52.5913961  45.0294728  45.6892272  54.2232931  45.0095379
  47.4061611  57.8961408  43.5405515  46.2942597  58.4906604  43.5828326
  48.4265128  58.1773956  44.3285180  49.2770912  57.6394517  44.2434754
  48.3714531  59.2560787  45.3587593  47.5472522  59.0551253  46.0431639
  49.6577476  59.3367302  46.1593258  50.4274640  59.5612986  45.4209458
  49.5366999  60.1890211  46.8279421  50.0653945  58.1292442  46.9561185
  49.9987931  57.2326144  46.3399042  51.5038022  58.3254753  47.4116256
  51.5711154  59.2217227  48.0283171  51.8226211  57.4602934  47.9929308
  52.1495986  58.4351888  46.5404137  49.1646674  57.9623874  48.1340414
  48.1378499  57.8340094  47.7916025  49.4695580  57.0845729  48.7037647
  49.2277070  58.8465236  48.7684137  48.1300276  60.6037352  44.6722239
  47.3372903  61.4007848  45.1426613  48.8236178  60.8561908  43.5616813
  49.5288425  60.2079664  43.2414273  48.6666365  62.1299201  42.8395653
  48.7336686  63.0050874  43.4858534  49.7406104  62.2456792  41.7411570
  49.7439623  61.3248977  41.1578480  49.4619118  63.4194908  40.8283282
  49.4588607  64.3407490  41.4108871  50.2357308  63.4768560  40.0628128
  48.4900565  63.2877877  40.3526673  51.1028168  62.3397975  42.4065864
  51.2780341  61.4457043  43.0049159  51.8759742  62.4224466  41.6427170
  51.1333422  63.2188764  43.0503172  47.2416044  62.2023543  42.3286584
  46.5962090  63.2692777  42.4463234  46.7261268  61.1273811  41.7455216
  47.2816445  60.3039762  41.5624811  45.3283994  61.1542418  41.2567849
  45.1893661  62.0069323  40.5921889  45.0004761  59.8922909  40.4971354
  45.8542252  59.6365008  39.8696141  44.8267116  59.0924466  41.2169653
  43.7798506  60.0651592  39.6360687  42.9727984  60.3608806  40.3063794
  43.9556371  60.8573088  38.9082655  43.3962035  58.8000486  38.9171730
  43.2841430  57.7557806  39.6364670  43.2515183  58.8386115  37.6688329
  44.3336566  61.3831037  42.4149662  43.3624233  62.1266892  42.2457719
  44.5807429  60.7983273  43.5757632  45.3214021  60.1148567  43.6420304
  43.7440579  61.0511203  44.7803992  42.7125404  60.7591819  44.5833136
  44.2612116  60.2425686  45.9627431  45.3431508  60.3603838  46.0229618
  43.8027026  60.6319326  46.8717345  43.9884562  58.7556549  45.9434262
  43.2589706  58.1688023  44.9477874  42.8836356  58.7915973  44.1357838
  42.9934829  56.8077869  44.9573460  42.3941617  56.3582631  44.1656117
  43.4813056  56.0389962  45.9536261  43.2679991  54.9700937  45.9605246
  44.2352024  56.5895100  46.9457184  44.6386945  55.9565091  47.7360374
  44.4892032  57.9503791  46.9513595  45.0850088  58.3902760  47.7511134
  43.6857902  62.5461520  45.1178652  42.6203015  63.0522701  45.3728621
  44.8229216  63.2479618  45.1214689  45.6976529  62.7918050  44.9049846
  44.8618667  64.6555450  45.6083384  44.0699952  64.8655542  46.3273202
  46.2075478  65.0184410  46.2426152  46.1877025  66.0577043  46.5706963
  46.4564208  64.1324419  47.4148903  46.4768657  63.0929714  47.0875004
  47.4139698  64.3889933  47.8680809  45.6607015  64.2664454  48.1476763
  47.3547743  64.9730922  45.3121632  47.1892458  65.6762460  44.4959052
  48.2663206  65.2437889  45.8449917  47.4561273  63.9657447  44.9083323
  44.4400261  65.6221704  44.5197449  43.7392936  66.5840568  44.8748483
  44.7970728  65.3777820  43.2525200  45.3056819  64.5208147  43.0881325
  44.5678333  66.2919527  42.1043671  44.4065921  67.3282980  42.4011651
  45.7731287  66.2367667  41.1369796  45.9200521  65.1995922  40.8356795
  45.5573549  67.0880260  39.9149091  45.4108073  68.1254894  40.2153996
  46.4292003  67.0183969  39.2644185  44.6755445  66.7376465  39.3784893
  47.0506425  66.6389024  41.8626209  47.2285220  65.9548048  42.6923626
  47.8913587  66.5957701  41.1702081  46.9475001  67.6542998  42.2452834
  43.2551124  65.9339959  41.3920184  42.6139625  66.8401350  40.8435007
  42.8624084  64.6587035  41.3833673  43.4357239  63.9667441  41.8444540
  41.6283680  64.2148928  40.7303776  41.1815139  63.4276493  41.3375582
  40.9447254  65.0619947  40.6742490  41.8695869  63.6824038  39.3322521
  40.9342144  63.1700076  38.7345753  43.0651315  63.8674526  38.7957384
  43.7609756  64.3697697  39.3282586  43.4198998  63.4099955  37.4292785
  43.0478903  62.3946469  37.2922553  42.8270152  64.2954705  36.3439326
  43.1507245  63.8872611  35.3865004  41.7428463  64.2164303  36.4241233
  43.2294470  65.7317917  36.4343157  43.1671767  66.0175451  37.4843482
  44.2520723  65.8661527  36.0817725  42.3189799  66.6356453  35.6325057
  41.5056996  66.2073921  34.8086245  42.4748976  67.9198506  35.8334219
  41.8993618  68.5801028  35.3305034  43.1699940  68.2443644  36.4904099
  44.9276573  63.3763850  37.2924036  45.6360887  63.8728391  38.1645483
  45.3626207  62.5857597  36.3422991  44.6882479  61.9719627  35.9080481
  46.7654974  62.4945120  35.9133660  47.4247842  62.9706651  36.6391197
  47.1426832  61.0130390  35.8072450  46.3319332  60.5378347  35.2550090
  48.0710400  60.9153677  35.2444715  47.2977601  60.3365286  37.1632884
  46.4715977  60.6338376  37.8091706  47.2907578  58.8195144  36.9945785
  48.1169749  58.5213839  36.3491466  47.4021369  58.3445033  37.9692886
  46.3481536  58.5078050  36.5446507  48.5584218  60.7549901  37.8754957
  48.5439206  61.8327220  38.0379242  48.6201898  60.2440611  38.8363482
  49.4241633  60.4912499  37.2680159  46.9275118  63.2378429  34.5884530
  45.9914622  63.4049966  33.8152211  48.1630845  63.6443395  34.2555090
  49.3469815  63.4833781  35.0987362  49.8214606  62.5177595  34.9239485
  49.0890813  63.5752233  36.1537959  50.1919428  64.6470121  34.6051197
  51.2492100  64.4439540  34.7755676  49.9103256  65.5635045  35.1236125
  49.8800221  64.7440178  33.1320069  50.4054522  63.9700355  32.5725663
  50.1118058  65.7202045  32.7060546  48.3806090  64.4956322  33.0746407
  47.7911870  65.4013449  33.2173453  47.9883877  63.8357800  31.7498790
  47.6755247  64.5237885  30.8245168  48.0206044  62.4941975  31.7346703
  48.3443992  62.0533273  32.5837225  47.7203725  61.6379311  30.5734611
  47.7106937  62.2357366  29.6620698  48.7771484  60.5592751  30.4342674
  48.5153436  59.7576390  29.7436611  49.6831035  61.0559618  30.0869238
  49.1190133  59.9073170  31.7371654  48.5415300  58.8078271  32.2966305
  47.7441341  58.3318324  31.7259392  49.1159840  58.5308698  33.5066698
  48.8264954  57.7928894  34.1325139  50.1507171  59.3899427  33.7219075
  51.0566534  59.4734316  34.7688793  50.9548136  58.7888799  35.6109697
  52.0401284  60.4326822  34.6706794  52.7919184  60.5169037  35.4554205
  52.0966723  61.3005259  33.5884484  52.8803061  62.0554064  33.5238491
  51.1785756  61.2386156  32.5744688  51.2480191  61.9849509  31.7831017
  50.1928106  60.2599872  32.6073291  46.3046975  61.0397473  30.6591722
  45.9901053  60.1540201  29.8024919  45.4269478  61.6753380  31.4383570
  45.7658486  62.4413822  32.0026458  43.9902855  61.2684525  31.5807734
  43.9460631  60.2812717  32.0407927  43.1928756  62.2501165  32.4491364
  43.6070016  62.1980215  33.4560549  43.3570285  63.2471802  32.0404582
  41.6954192  61.9618358  32.4999069  41.3211804  62.0910260  31.4843499
  41.5915029  60.9176347  32.7947756  40.8883615  62.8457455  33.4578690
  40.1400163  62.2369227  33.9652282  41.5604004  63.2840845  34.1956508
  40.2193484  63.9077685  32.7554491  40.4900291  64.8526068  32.9880690
  39.2363730  63.7256491  31.8639829  38.7979596  62.5018521  31.5888438
  39.2083583  61.7051305  32.0545773  38.0563365  62.3739812  30.9152386
  38.7371859  64.7591357  31.2139063  39.0984345  65.6855714  31.3908711
  37.9960192  64.6192587  30.5421883  43.3128437  61.1156251  30.2116597
  42.5606993  60.1374324  30.0483078  43.4682879  62.0545354  29.2579482
  44.1550514  62.7851301  29.3791363  42.6421803  62.0647454  28.0298993
  41.6888805  61.5707352  28.2177093  42.3693710  63.5010659  27.5937291
  43.3273376  63.9350565  27.3072830  41.7181199  63.4513968  26.7210866
  41.7191906  64.3682278  28.6631138  40.8056853  63.8775425  28.9990256
  42.4101099  64.4614865  29.5009893  41.3869626  65.7373851  28.1322466
  42.3134922  66.1932071  27.7831504  40.7048867  65.6121700  27.2912989
  40.7493056  66.6265141  29.1673588  40.2673710  65.9985380  29.9166822
  41.5284097  67.2236906  29.6411479  39.7505047  67.5178869  28.5595987
  39.0282521  66.9647263  28.1208913  39.3401946  68.1010825  29.2748809
  40.1969535  68.1001684  27.8655304  43.3403192  61.3191116  26.8850966
  42.7701027  61.2694273  25.8240011  44.5385575  60.8065089  27.1165536
  44.9386007  60.9007106  28.0391536  45.3507409  60.1281759  26.0561515
  45.0694205  60.4443400  25.0516625  46.8625937  60.3648284  26.2655065
  47.1747886  59.8661390  27.1830813  47.6575202  59.8132612  25.0940700
  47.3461864  60.3118342  24.1761392  48.7202383  59.9896470  25.2602597
  47.4772400  58.7420363  25.0042058  47.1954365  61.8380975  26.5133958
  46.6780072  62.1326884  27.4264039  48.2722732  61.8996704  26.6706567
  46.8027923  62.7517669  25.4033959  45.7259473  62.6910842  25.2458449
  47.0746344  63.7753447  25.6612517  47.3202119  62.4580645  24.4900965
  45.0163237  58.6261154  26.0977887  45.2875391  58.0243888  27.1192858
  44.4903636  58.0921819  24.9852142  44.3797720  58.7136650  24.1967805
  44.0302090  56.6775543  24.8422719  43.6964756  56.2952516  25.8069303
  42.8626138  56.6001087  23.8547905  43.2645574  56.8860337  22.8827887
  42.5544751  55.5549455  23.8267812  41.6607123  57.4744610  24.1835983
  41.8591347  58.4576451  23.7568918  40.8001388  57.0292201  23.6843230
  41.3698881  57.6153576  25.6542194  42.3194922  57.7940814  26.1586090
  40.7245230  58.4851460  25.7769854  40.7008839  56.4039185  26.2565364
  39.6677660  56.3640883  25.9113097  41.2286506  55.5093584  25.9258949
  40.7244367  56.4721661  27.7354203  40.2350752  57.3007914  28.0420230
  40.2726324  55.6536097  28.1174388  41.6816677  56.5086496  28.0555404
  45.1815335  55.7771333  24.3630800  45.3261166  54.6840259  24.9007183
  46.0304241  56.2782020  23.4817062  45.9069557  57.2434613  23.2112818
  47.1275189  55.5089596  22.8545672  46.7372656  54.5613229  22.4833714
  47.7448867  56.2682795  21.6925487  46.9300562  56.4948909  21.0049457
  48.1895143  57.1981200  22.0472359  48.7961506  55.4478246  20.9758061
  48.4230925  54.7105852  20.0900546  49.9539123  55.5307168  21.3443815
  48.2183630  55.2037084  23.8821410  48.8659481  56.1458748  24.3885708
  48.4883311  53.9258968  24.1092637  47.9510797  53.2283712  23.6143716
  49.4587752  53.4716843  25.1232969  49.1693882  53.8147984  26.1165879
  49.4821801  51.9421861  25.1220550  48.4903453  51.6231488  25.4423333
  49.6431588  51.6418897  24.0866769  50.5236411  51.2984125  25.9987849
  51.5085388  51.4907078  25.5732265  50.4660764  51.7391955  26.9940230
  50.2994221  49.8080131  26.0949326  49.8588559  49.5982328  27.0696082
  49.5975343  49.5240842  25.3108171  51.5687424  49.0200888  25.9395546
  52.1447015  49.4402025  25.1150086  52.1454755  49.0970895  26.8612645
  51.2733973  47.5957019  25.6598148  50.7393568  47.5240993  24.8055470
  52.1394030  47.0857813  25.5592404  50.7400720  47.2061103  26.4239362
  50.8378347  54.1022722  24.8733808  51.5210380  54.4275603  25.8941584
  51.2888933  54.1748762  23.6013055  50.6425827  53.9435969  22.8604332
  52.6898997  54.5983642  23.2238082  53.4050542  54.1059167  23.8827078
  53.0185861  54.2225183  21.7771713  52.7305116  53.1802343  21.6402172
  52.4090128  54.8551947  21.1320040  54.4839351  54.3941399  21.4158098
  54.7937481  55.4318348  21.5395279  55.0214399  53.7676900  22.1276723
  54.8000121  53.9349966  19.9943033  54.3523567  52.8219233  19.6232431
  55.4289689  54.7121611  19.2308286  52.8819810  56.1741519  23.3359104
  53.8821162  56.6098313  23.7764588  51.7547669  56.8657772  23.1555752
  50.9809836  56.4058241  22.6975337  51.6076687  58.3253586  23.5180699
  52.4274577  58.9137767  23.1059904  50.2945067  58.8338762  22.9237287
  50.1566781  58.3390665  21.9623413  49.4927626  58.5400971  23.6012242
  50.2642134  60.3365567  22.7271339  50.3081846  60.8536066  23.6856885
  51.1421839  60.5947588  22.1350178  49.0297376  60.7966424  21.9863932
  48.2257749  59.9965988  21.4940751  48.8380895  62.1048707  21.9435578
  48.0316297  62.4785923  21.4639160  49.4991129  62.7239167  22.3906946
  51.6907944  58.5174236  25.0620486  52.4523036  59.3844769  25.5649683
  50.9538494  57.7395878  25.8337769  50.2654347  57.1056226  25.4539445
  51.0561159  57.8651845  27.3063162  50.8420975  58.8800576  27.6414696
  50.1229611  56.8904630  28.0571465  50.3389008  55.8704757  27.7391917
  50.3419929  57.0105140  29.5561641  50.1257880  58.0301831  29.8749608
  49.6795195  56.3193085  30.0771866  51.3779990  56.7682811  29.7930527
  48.6528747  57.1135271  27.6969337  48.5134310  56.9616649  26.6266088
  48.0320542  56.4067924  28.2475765  48.3642793  58.1312762  27.9596128
  52.5156758  57.6790804  27.7037331  53.0270919  58.4294115  28.5561431
  53.1287055  56.5773109  27.2579108  52.6263024  55.9393311  26.6573508
  54.5194635  56.2539430  27.6106295  54.5642132  56.0483637  28.6801311
  54.8164852  55.3631060  27.0571975  55.4806538  57.3814214  27.2839788
  56.3656233  57.6583236  28.1182779  55.3113847  57.9963643  26.1238588
  54.5945613  57.6313125  25.5131209  56.1426662  59.1417319  25.6369655
  57.1921300  58.8491417  25.6703698  55.8079342  59.5472233  24.2512949
  54.7254105  59.6058478  24.1381356  56.2482856  60.5212640  24.0381391
  56.3212391  58.5953707  23.3548310  56.1065840  58.8542498  22.4556621
  55.9820351  60.3216347  26.5768836  57.0116524  60.9201070  26.9390400
  54.7606910  60.5579784  27.0731519  53.9518412  60.0698128  26.7160026
  54.5497584  61.6217770  28.0895328  55.0110461  62.5646782  27.7958488
  53.0527573  61.8483003  28.3688960  52.5708812  60.8935420  28.5794483
  52.9027195  62.7624470  29.5636757  53.3839807  63.7176392  29.3536851
  51.8442284  62.9261861  29.7658806  53.3716230  62.3035306  30.4340920
  52.3182271  62.3859122  27.1465766  52.6964394  63.3931168  26.9716618
  52.5927560  61.7447218  26.3089560  50.8291380  62.4282585  27.2742223
  50.5538111  63.0696748  28.1114081  50.3963491  62.8247352  26.3557457
  50.4501279  61.4212794  27.4487047  55.3302796  61.2646569  29.3566357
  56.0700971  62.0997053  29.8794341  55.1503371  60.0624132  29.8823819
  54.5423164  59.3914531  29.4349194  55.7761813  59.6921641  31.1636510
  55.4784340  60.3853697  31.9503604  55.3165874  58.2885624  31.5505267
  55.4110325  57.6605834  30.6646251  55.9933431  57.9275561  32.3249788
  53.8814878  58.2314302  32.0630245  53.8543761  58.7399676  33.0267441
  53.2549087  58.7690422  31.3513546  53.3763967  56.8535937  32.2198390
  53.4947444  56.3740933  31.2481538  54.0313063  56.3705180  32.9449808
  51.9424157  56.7242991  32.6730127  51.8761140  57.0596853  33.7080107
  51.3228663  57.3635873  32.0440704  51.4627818  55.3179249  32.5756274
  52.0364698  54.7254486  33.1586829  50.5028431  55.2673932  32.8855695
  51.5237346  55.0070970  31.6165811  57.3060307  59.7859533  31.0351581
  57.9410842  60.1844016  32.0218302  57.8690526  59.3072175  29.9303539
  57.2710622  58.8855114  29.2341709  59.3460990  59.2892765  29.7006819
  59.8235154  58.6701831  30.4602187  59.6864788  58.7198771  28.3202972
  58.9147603  59.0639755  27.6317145  60.6481608  59.1411076  28.0273252
  59.7643078  57.1955399  28.2764833  60.6290998  56.8853835  28.8630314
  58.8524469  56.8524735  28.7652721  59.8530710  56.5822482  26.8698009
  60.0371861  57.3423164  25.8923508  59.7756556  55.3386856  26.7488006
  59.9132268  60.6973194  29.8765084  61.0128651  60.8193533  30.4226580
  59.1981289  61.7332465  29.4302001  58.2596497  61.5620992  29.0984400
  59.7135372  63.1249589  29.3967794  60.8033928  63.1087992  29.3895223
  59.2276079  63.8632735  28.1494602  58.1401392  63.8939543  28.2170615
  59.6242402  64.8760790  28.2202269  59.6352979  63.2514989  26.8184179
  60.7213943  63.1821667  26.7576856  59.2020307  62.2563796  26.7178242
  59.1200054  64.1454890  25.6963303  59.6309377  63.8636559  24.7756690
  58.0499951  63.9694350  25.5859558  59.3401242  65.5856822  25.9377927
  58.8289633  65.9958733  26.7062699  60.1657834  66.3719561  25.2235845
  60.8475793  65.8840049  24.1975319  60.7483823  64.9108123  23.9462229
  61.4633265  66.4875101  23.6714743  60.3019789  67.6513260  25.5317231
  59.7833522  68.0388854  26.3069160  60.9239496  68.2345613  24.9903474
  59.2354998  63.9016711  30.6269019  59.6744773  65.0722626  30.8062295
  58.2385216  63.4030825  31.3413178  57.9178591  62.4559990  31.1988126
  57.5029974  64.2550416  32.2982289  57.2548118  65.2079216  31.8307646
  56.2112765  63.5739710  32.7304427  55.6372664  63.1548196  31.9040507
  56.5954497  62.7653682  33.3522727  55.3236809  64.4628330  33.5567305
  54.4201579  65.3020805  32.9565906  54.3633876  65.3180845  31.8681879
  53.5876591  66.1209245  33.7071299  52.9266372  66.8277347  33.2055611
  53.5665960  66.0136010  35.0785653  52.7143671  66.8196282  35.8054519
  52.1923195  67.4070684  35.2541082  54.4299400  65.1286587  35.6994809
  54.4434056  65.0514868  36.7866624  55.2797102  64.3384308  34.9367427
  55.9254476  63.6066239  35.4221104  58.4151087  64.5919884  33.4789540
  59.0801019  63.6795883  33.9985876  58.3772903  65.8333189  33.9389089
  57.9060922  66.5440104  33.3976241  59.0747812  66.2434335  35.1830815
  59.9878213  65.6601776  35.3025369  59.4421020  67.7121952  35.1296737
  60.1187312  67.7728037  34.2772660  58.5612031  68.3248553  34.9379322
  60.1433523  68.2144879  36.3631662  60.4045100  67.3803838  37.2763371
  60.3348445  69.4643232  36.4260275  58.1729508  65.9036066  36.3606114
  57.2774830  66.6843712  36.6737140  58.3984057  64.7669512  37.0185549
  59.1358543  64.1519954  36.7053484  57.5052481  64.2966411  38.0946704
  56.4675007  64.3398472  37.7640454  57.8427310  62.8463060  38.4614871
  58.9169277  62.6853565  38.5525697  57.3532132  62.5637197  39.3934835
  57.3550266  61.8954160  37.4170358  58.1178374  61.5568510  36.3484468
  57.4727813  60.6639357  35.6034757  57.9535264  60.2132570  34.7352178
  56.2648127  60.4879921  36.1165429  55.5234618  59.9146991  35.7399345
  56.1798827  61.2262076  37.2680423  55.2717793  61.1944197  37.8700712
  57.5102020  65.2554569  39.2960233  56.6020965  65.1648922  40.1072541
  58.4855755  66.1506222  39.4262210  59.2911267  66.1271571  38.8174222
  58.4622358  67.1482666  40.5233395  58.4111647  66.6371383  41.4847129
  59.7217368  68.0076165  40.4946196  59.8011974  68.4483004  39.5008475
  59.6011945  68.7993578  41.2340215  60.9856449  67.2158334  40.8008483
  60.9270277  66.8981895  41.8418898  60.9857781  66.3389411  40.1534212
  62.2574701  68.0003486  40.5852571  62.3454969  68.7710593  41.3509955
  63.1148012  67.3298958  40.6450550  62.2559842  68.6415274  39.2746830
  61.5686735  68.3046444  38.6157344  63.1195829  69.5677771  38.8722109
  64.0616253  70.0232543  39.6884643  64.1268410  69.6635601  40.6299881
  64.7090227  70.7274986  39.3644023  62.9924967  70.0916388  37.6707892
  62.2425744  69.7865546  37.0669347  63.6455335  70.7960938  37.3587239
  57.1828804  67.9999089  40.4287808  56.7646408  68.5853332  41.4479717
  56.6236091  68.1685781  39.2234496  57.0318396  67.7703204  38.3898802
  55.3890058  68.9796839  39.0836356  55.5689783  69.9943229  39.4389059
  54.9624457  69.0440045  37.6207445  54.9126014  67.9972171  37.3209930
  53.9703077  69.4896366  37.5488118  55.9236482  69.7914721  36.6998406
  56.9436875  69.4615181  36.8966934  55.5700278  69.5053410  35.2500808
  54.5502181  69.8354676  35.0523346  56.2579502  70.0403201  34.5953587
  55.6478783  68.4346817  35.0610614  55.9077821  71.2594762  36.9970498
  56.2108617  71.4246839  38.0309495  56.5996017  71.7733296  36.3296357
  54.9013206  71.6501995  36.8471512  54.2948412  68.3368159  39.9386154
  53.3602446  69.0432193  40.2858408  54.3570167  67.0261256  40.1460862
  55.1308615  66.4699025  39.8116023  53.2602657  66.3403894  40.8732355
  52.2982940  66.7421772  40.5549963  53.2825913  64.8543987  40.5862614
  54.3060246  64.5025865  40.7163065  52.6348660  64.3624583  41.3118967
  52.8186303  64.5321537  39.2086245  51.7768482  64.8421058  39.1266447
  53.4246714  65.1082933  38.5094254  52.9461080  62.8259782  38.8131391
  51.9350525  62.7702124  37.3405367  52.3569037  63.4321754  36.5842659
  51.9081744  61.7506366  36.9560325  50.9225467  63.0937655  37.5818801
  53.4026050  66.5618306  42.3802711  52.5153623  66.0961754  43.1008936
  54.5086219  67.1533483  42.8407572  55.2557597  67.3566715  42.1922635
  54.7301882  67.4330032  44.2749352  54.4097070  66.5890279  44.8857517
  56.2169126  67.6617480  44.5034482  56.4521863  68.4801333  43.8230139
  56.3740279  67.9881130  45.5315050  57.1298744  66.4682432  44.2015024
  56.9742657  66.1448629  43.1722736  58.5773972  66.8725039  44.3899728
  58.7338958  67.1955897  45.4191582  59.2237913  66.0217093  44.1745107
  58.8176549  67.6915426  43.7120700  56.7817315  65.2618179  45.0551694
  55.7520047  64.9626422  44.8595781  57.4517142  64.4375365  44.8106604
  56.8911946  65.5179741  46.1089724  53.8814145  68.6023822  44.7656875
  53.7368846  68.7482128  45.9644729  53.3750799  69.4472675  43.8669416
  53.4855147  69.2233384  42.8882898  52.6925678  70.7054088  44.2237971
  53.3999492  71.4276591  44.6313081  52.0683537  71.2938038  42.9565173
  52.8737878  71.3582588  42.2249295  51.3287940  70.5677422  42.6188994
  51.4088490  72.6571666  43.1058467  50.6919091  72.6099017  43.9255199
  52.1783197  73.3931877  43.3388486  50.6871712  73.0641806  41.8207977
  51.2154801  72.5906970  40.9932701  49.6751147  72.6639925  41.8815469
  50.6250622  74.5653860  41.5892231  51.5959855  74.9869924  41.8493316
  50.4275320  74.7352571  40.5308164  49.5698227  75.2189657  42.3995813
  49.7529097  75.0620433  43.3803739  49.5676004  76.2114043  42.2120694
  48.6700135  74.8287391  42.1584058  51.6194785  70.4524451  45.2899081
  51.5046497  71.2604997  46.2300061  50.7894006  69.4373028  45.1091466
  50.8642530  68.8576195  44.2854575  49.6244587  69.2366906  46.0075930
  49.5149004  70.1132770  46.6461011  48.3254936  69.0330374  45.2313996
  48.5197251  68.2170232  44.5353435  47.4409027  68.8011591  45.8245534
  47.9859212  70.2206292  44.4091495  47.5669872  71.4187107  44.9740301
  47.3894637  72.3058554  44.0132566  47.0511981  73.3179310  44.2354693
  47.6979579  71.7067722  42.8303363  47.6356852  72.1259904  41.9135604
  48.1091148  70.4369820  43.0797617  48.4551006  69.8054957  42.2614586
  49.9028791  68.1411447  47.0188617  48.9674789  67.7204392  47.6737849
  51.1285397  67.6614566  47.1294484  51.8556666  67.9538993  46.4923746
  51.4696822  66.6653025  48.1788772  50.5590927  66.2420823  48.6029179
  52.2983118  65.5335432  47.5739848  53.1095870  66.0205291  47.0328966
  52.7094279  64.9583659  48.4035959  51.5438990  64.5948183  46.6263203
  51.0174953  65.1812240  45.8732411  52.5446711  63.6597345  45.9377519
  53.0711694  63.0726263  46.6902162  52.0118460  62.9901619  45.2625699
  53.2635900  64.2505976  45.3701809  50.5164644  63.7783362  47.4009118
  49.8035635  64.4500260  47.8791426  49.9873668  63.1154871  46.7162308
  51.0225220  63.1846583  48.1621945  52.2528439  67.3447102  49.2853152
  52.9300355  68.3554137  49.0600914  52.2021020  66.7609394  50.5138127
  51.2467346  65.7278683  50.9319586  51.5488604  64.7702239  50.5080040
  50.2544757  65.9902469  50.5649726  51.3269499  65.7456096  52.4555467
  51.1558940  64.7489288  52.8623223  50.5950953  66.4378798  52.8717824
  52.7262165  66.2166557  52.7289174  53.3948973  65.3648485  52.6048630
  52.8843627  66.6620291  53.7111251  52.9967647  67.2558420  51.6333512
  52.6414727  68.2479740  51.9118114  54.4730610  67.3350525  51.2422016
  54.9577303  66.5261197  50.4239612  55.2440564  68.2698817  51.8222864
  54.7919213  69.2697182  52.8020858  54.5601170  68.7664883  53.7407693
  53.8951894  69.7587193  52.4214958  55.9612674  70.2242235  52.9271402
  56.0646581  70.5351035  53.9667377  55.7819300  71.0995301  52.3028184
  57.1917726  69.4572358  52.4496627  57.6674534  68.8930793  53.2518811
  57.9233967  70.1219388  51.9903201  56.6281047  68.4945873  51.3992702
  56.5757998  68.9367623  50.4043613  57.5233234  67.2487097  51.3581543
  58.3646618  67.1594858  50.4748662  57.3604856  66.3072571  52.2912534
  56.6740189  66.4069157  53.0253726  58.3007088  65.1679584  52.3605710
  59.3180590  65.5395586  52.2380519  58.2092061  64.4303475  53.6875760
  57.1577033  64.2582455  53.9174064  58.7203904  63.4727546  53.5885485
  58.8479139  65.2313328  54.8094391  59.5925265  65.9221322  54.4139026
  58.0074731  65.7959278  55.2131607  59.4685239  64.3961560  55.9083271
  59.4867931  63.1343241  55.8038698  60.0217843  65.0157817  56.8267611
  58.1254576  64.2518560  51.1585641  58.9648837  63.3894184  51.0002221
  57.0692789  64.4066226  50.3525208  56.2662868  64.9535051  50.6286050
  56.9650688  63.5706846  49.1291166  57.1968677  62.5368140  49.3850074
  55.5786993  63.6197342  48.5219373  55.1844435  64.6299285  48.6322512
  55.5079839  63.3146694  47.4778900  54.6621634  62.7124431  49.2988052
  54.0173161  63.1712848  50.4325028  54.1255917  64.2185968  50.7144849
  53.2390500  62.3181263  51.2097135  52.7450270  62.6849268  52.1094353
  53.0962858  61.0055793  50.8351059  52.4602565  60.3368577  51.4150869
  53.7560685  60.5358512  49.7282489  53.6812407  59.4816979  49.4612999
  54.5132802  61.3928633  48.9527300  55.0027562  61.0235927  48.0515350
  58.1160366  63.8732898  48.1637213  58.3276906  63.0448008  47.2941664
  58.8369753  64.9862940  48.2865632  58.5261188  65.7424528  48.8795989
  60.0698277  65.1839726  47.4809907  59.8027136  65.0941087  46.4280549
  60.7421823  66.5309615  47.6986469  61.6391256  66.5808140  47.0813086
  60.0526530  67.3210152  47.4012170  61.0951053  66.7007318  49.0560343
  61.5171898  67.5550659  49.1724719  61.0370419  64.0365347  47.7794484
  61.7336094  63.5914992  46.8566191  61.1217917  63.6202370  49.0453729
  60.6233064  64.1379377  49.7550191  61.9938351  62.5074536  49.4731000
  62.9977912  62.5507418  49.0508471  62.0848939  62.4365406  50.9931085
  61.0716922  62.4539477  51.3946304  62.7922294  61.1865560  51.4651096
  63.8057212  61.1686697  51.0643413  62.8326401  61.1806606  52.5543446
  62.2490362  60.3078284  51.1174343  62.7189448  63.7126447  51.5445643
  63.7886165  63.6680877  51.3398261  62.2825795  64.5578941  51.0123629
  62.4991805  63.8827067  53.0173911  62.9357117  63.0380084  53.5503312
  62.9721046  64.8061492  53.3516006  61.4296739  63.9278125  53.2228682
  61.4863523  61.2263652  48.8465863  62.3086793  60.4410196  48.3530302
  60.1870412  60.9665750  48.9009256  59.5883696  61.5828201  49.4318997
  59.5877541  59.7850468  48.2752682  59.9597247  58.8695272  48.7352258
  58.0740457  59.8540870  48.4790409  57.8181166  60.0703327  49.5162667
  57.7122803  60.6599857  47.8404855  57.3035623  58.6208873  48.0937788
  57.1284548  58.2729557  46.7679376  57.5486885  58.9171548  45.9955963
  56.4340881  57.1298298  46.4131051  56.3050519  56.8715707  45.3620329
  55.9075151  56.3207986  47.3878616  55.3437407  55.4272514  47.1198472
  56.0938652  56.6416996  48.7012150  55.6697905  55.9954572  49.4697407
  56.8131392  57.7750725  49.0649083  56.9889416  57.9943124  50.1180594
  59.9648216  59.7138259  46.7971377  60.4717264  58.6897964  46.3471921
  59.7612579  60.8099205  46.0772540  59.4386908  61.6516338  46.5328508
  59.9508730  60.8352414  44.6193789  59.4319862  59.9939315  44.1599735
  59.3838629  62.1341523  44.0415242  58.3086165  62.0698292  44.2082787
  59.7865273  62.9831875  44.5938834  59.6556450  62.3203050  42.5589360
  60.7316030  62.3394304  42.3855881  59.0416471  61.1749312  41.7872429
  57.9655594  61.1554394  41.9597367  59.2361523  61.3075814  40.7229721
  59.4797983  60.2345796  42.1217019  59.1148882  63.6627898  42.0779219
  59.5993132  64.4687706  42.6291268  59.3194937  63.7771489  41.0134220
  58.0388360  63.7032721  42.2469535  61.4342766  60.7037697  44.3042063
  61.7926249  59.9179929  43.4098030  62.3032328  61.4066858  45.0215535
  61.9798068  62.0595709  45.7210076  63.7681714  61.2927016  44.7866756
  63.9810131  61.5514540  43.7494462  64.5758878  62.2215246  45.6985396
  64.1281008  62.1227316  46.6873905  65.6030866  61.8580320  45.7274500
  64.5676602  63.6853428  45.2822545  64.2043720  63.9777705  44.1208942
  64.9564898  64.5288358  46.1169330  64.1791587  59.8341749  45.0105377
  64.9746821  59.3128038  44.2062985  63.6526160  59.1970346  46.0463147
  63.0690386  59.6926428  46.7050326  64.0413380  57.7950496  46.3631731
  65.1279047  57.7167736  46.3265018  63.5656761  57.3496139  47.7468200
  63.9633189  57.9356660  48.5753864  62.4763228  57.3666658  47.7802664
  63.9768401  55.9400990  47.9865508  65.3228016  55.6151416  48.1264485
  65.4119650  54.2914352  48.2667535  66.3913532  53.8253256  48.3746393
  64.1922624  53.7631474  48.2453136  63.9523308  52.7872662  48.3462515
  63.2839282  54.7873224  48.0583924  62.2183560  54.5662621  47.9968336
  63.6001486  56.8540326  45.2396910  64.4406964  56.1188208  44.7162417
  62.3332701  56.8810429  44.8368819  61.6449728  57.4765595  45.2747244
  61.8728966  55.9011569  43.8262278  62.3010502  54.9128784  43.9938269
  60.3376300  55.7892526  43.7494612  60.0733010  55.0332178  43.0101089
  59.7712129  55.4006228  45.0883579  60.0347535  56.1564693  45.8281843
  58.6861416  55.3259791  45.0165979  60.1818841  54.4375220  45.3914835
  59.6668867  57.0377750  43.2177954  59.7389225  57.8146414  43.9789723
  60.1999807  57.3568146  42.3221816  58.2151861  56.7976076  42.8801776
  57.6813082  56.4789627  43.7754651  57.7722468  57.7190730  42.5022814
  58.1423663  56.0211336  42.1186756  62.5335127  56.2401647  42.4852782
  62.8144770  55.2834200  41.7478579  62.8788196  57.5037818  42.2185183
  62.6086262  58.2470695  42.8467048  63.5710815  57.8648078  40.9605792
  63.0258013  57.4361029  40.1197577  63.6555404  59.3439170  40.7704121
  64.1159050  59.8038681  41.6448312  64.2508801  59.5700039  39.8857905
  62.3459039  59.8571571  40.6016850  62.3883736  60.8082719  40.4784915
  64.9568083  57.2194011  40.9179009  65.4627965  57.0043563  39.8036511
  65.5577800  56.9779220  42.0721361  65.0658101  57.2070830  42.9239285
  66.9450433  56.4403453  42.1794890  67.5659765  56.8639722  41.3901340
  67.5537185  56.7982936  43.5182789  68.6381955  56.7206865  43.4409098
  67.2799746  57.8245163  43.7632919  67.0848965  55.9205947  44.5483219
  67.4843925  56.1676395  45.3855624  66.9617952  54.9243401  41.9784105
  68.0555942  54.3556504  41.8246031  65.8013955  54.2662896  42.0170525
  64.9274591  54.7699867  42.0682750  65.7615924  52.7993864  42.0429884
  66.6240871  52.4070476  42.5817577  64.5021503  52.3410230  42.7467452
  63.7101491  52.8677032  42.2143532  64.3876072  51.2673410  42.5977928
  64.4123113  52.6606876  44.2396593  64.5351731  53.7348520  44.3781386
  63.0727567  52.2294992  44.8006979  62.9493638  51.1552972  44.6629914
  63.0303264  52.4662382  45.8638324  62.2734088  52.7562840  44.2795059
  65.5435883  52.0168446  44.9965640  66.4945995  52.3891066  44.6156466
  65.4571283  52.2591984  46.0557573  65.4991346  50.9354873  44.8669907
  65.8302835  52.2224828  40.6263555  65.4900397  52.8962349  39.6504261
  66.1816842  50.9383852  40.5518589  66.5954911  50.5152818  41.3703006
  66.0550241  50.1211324  39.3304187  65.2467789  50.5118941  38.7122407
  67.3494963  50.1479102  38.5165449  67.1735816  49.4885017  37.6666428
  67.5202796  51.1632476  38.1587416  68.5743955  49.6681165  39.2864383
  68.4414354  48.7564011  40.1264137  69.6461127  50.2395424  39.0679003
  65.6807631  48.6980080  39.7343577  65.4748451  48.4457681  40.9381836
  65.6146542  47.7848110  38.7792730  65.8465360  48.0608896  37.8358162
  65.1560091  46.3866606  39.0136253  64.1205517  46.3788572  39.3540167
  65.2461640  45.6021315  37.7122702  64.5954266  46.0880457  36.9852713
  66.2801724  45.6659762  37.3733739  64.8550386  44.1667481  37.8491299
  63.5360916  43.7749485  37.7694619  62.7712753  44.5138139  37.5302268
  63.1778969  42.4514133  37.9910362  62.1305037  42.1550211  37.9342825
  64.1552161  41.4965426  38.1279273  63.7808795  40.1831620  38.3122683
  62.8285325  40.0630895  38.3270123  65.4851142  41.8755831  38.2352228
  66.2599581  41.1435510  38.4629206  65.8214999  43.2016744  38.0491004
  66.8684579  43.5048178  38.0582217  65.9825948  45.7328310  40.1153784
  65.4321195  44.9600830  40.8826134  67.2636451  46.0706492  40.1720714
  67.6061784  46.8156386  39.5823587  68.2346842  45.3553830  41.0380519
  67.8557575  44.3589734  41.2653881  69.5790460  45.2171618  40.3484534
  69.9446991  46.1968568  40.0408908  70.3075253  44.7495555  41.0108448
  69.5210624  44.3755880  39.1144025  69.3897756  42.9999074  39.1966870
  69.2603002  42.5275989  40.1704738  69.4224067  42.2213707  38.0453422
  69.3556454  41.1362995  38.1244883  69.5370318  42.8080468  36.8244269
  69.5408888  42.1940315  35.9238324  69.6486214  44.1819273  36.7245418
  69.7691215  44.6532677  35.7491352  69.6069428  44.9592220  37.8677872
  69.6419942  46.0458491  37.7896021  68.4254203  46.0514654  42.3718177
  69.3888139  45.6571224  43.0706970  67.6311078  47.0716455  42.6968272
  66.8556019  47.3341742  42.1054148  67.8894521  47.8770723  43.9189196
  68.7624041  47.4608827  44.4217518  68.1495624  49.3576149  43.6328228
  67.2448068  49.7959175  43.2116242  68.5260906  50.0962022  44.8926654
  69.4310839  49.6587327  45.3142186  68.7051283  51.1457874  44.6593940
  67.7145800  50.0186538  45.6162243  69.2209625  49.4953859  42.6957770
  69.3768072  50.4266822  42.5225718  66.6891469  47.7472193  44.8473757
  65.5642501  48.1329946  44.4338038  66.8847029  47.1848889  46.0345127
  67.8037311  46.8601444  46.2991399  65.7764479  47.0138993  46.9981902
  64.9434424  46.5156141  46.5022941  66.1977541  46.1800965  48.1943052
  66.4981870  45.2075597  47.8044188  67.0629131  46.6788669  48.6311438
  65.1406989  45.9924057  49.2503983  64.9241041  46.9710683  49.6786589
  64.2478375  45.6056934  48.7591202  65.5612661  45.0443590  50.3488006
  65.8644870  44.1043907  49.8876978  66.4120614  45.4843180  50.8690726
  64.4499797  44.7850483  51.3334825  64.1382432  45.7357884  51.7659338
  63.6110046  44.3356620  50.8021899  64.8927546  43.8789106  52.4076887
  65.6698871  44.2953280  52.9003969  64.1306107  43.7225893  53.0517387
  65.1812567  42.9977232  52.0072209  65.3674053  48.4150978  47.4611168
  66.2131475  49.2491345  47.7959898  64.0543235  48.7178093  47.4932250
  62.9534728  47.9176734  46.9385807  62.6649575  47.1388093  47.6444347
  63.2611278  47.4595751  45.9985842  61.8707457  48.9582353  46.7464070
  60.8863233  48.4924276  46.7915154  61.9923940  49.4570340  45.7848962
  62.0760512  49.9334037  47.8929436  61.6332335  49.5224689  48.8002164
  61.6828871  50.9350037  47.7188198  63.6087605  49.9881447  48.0367686
  64.0745173  50.7863710  47.4588382  63.9751864  50.1457605  49.5047721
  63.9550739  49.1715669  50.2387669  64.1122113  51.3954160  49.9116091
  64.2376222  52.1139900  49.2130228  64.2259056  51.7765272  51.3409662
  64.6298011  50.9405556  51.9120347  65.1565776  52.9799411  51.5107442
  66.0873811  52.8505099  50.9585198  64.5994990  53.8178018  51.0915154
  65.4696949  53.2604737  52.9733942  64.7550695  52.7163898  53.8450967
  66.4896982  53.9589406  53.2198370  62.8023072  51.9691753  51.8402170
  62.3380577  53.1312033  51.9220731  62.1301260  50.8676156  52.1923032
  62.5682622  49.9597776  52.1293262  60.7166162  50.9345624  52.6086903
  60.1427502  51.4405504  51.8323185  60.1168886  49.5533561  52.8349422
  60.6948397  49.0484581  53.6089898  59.0982562  49.7127817  53.1885970
  60.0893220  48.7018911  51.5941117  59.0854081  48.7967586  50.6534337
  58.2781149  49.5052173  50.8390771  59.0804796  48.0275043  49.5017543
  58.3256791  48.1789854  48.7301122  60.0826951  47.1054547  49.3115844
  60.1235669  46.2543417  48.2224149  59.3844456  46.3773783  47.6222805
  61.0630198  46.9698642  50.2672019  61.8116227  46.1859926  50.1521394
  61.1063193  47.8056670  51.3547022  61.9526135  47.7644361  52.0404034
  60.6198064  51.7950438  53.8741015  59.6209405  52.5227795  53.9492067
  61.5874098  51.7423908  54.7898500  62.3846118  51.1310804  54.6856012
  61.4469995  52.5066017  56.0552668  60.4414650  52.3089024  56.4266353
  62.4536374  52.1929879  57.1728760  62.3754172  51.1346835  57.4218190
  63.4570915  52.4057875  56.8042348  62.1754205  53.0502752  58.4500459
  62.7224425  52.4790400  59.2000846  62.6402685  54.0287199  58.3289496
  60.7234494  53.2506103  58.9433893  60.1424666  54.3757467  58.9894354
  60.1151848  52.1790393  59.4439387  59.1659572  52.2523788  59.7811177
  60.6052774  51.2968497  59.4845859  61.4756578  54.0019994  55.7128204
  60.6909612  54.7621968  56.3294436  62.3251028  54.4286790  54.7766748
  62.9967706  53.7910210  54.3737431  62.3497921  55.8480774  54.3374692
  62.5673819  56.5036876  55.1806354  63.4414586  56.0292754  53.2835885
  64.3628029  55.7428009  53.7906943  63.2495308  55.3387465  52.4623495
  63.5834201  57.4500997  52.7324265  62.6275475  57.7410635  52.2968252
  63.9759080  58.4534532  53.8135846  64.9319735  58.1633908  54.2493614
  64.0642400  59.4467036  53.3734121  63.2121978  58.4678124  54.5911712
  64.6004190  57.4622245  51.6250295  64.2766325  56.7948684  50.8263446
  64.7002270  58.4746682  51.2337530  65.5627041  57.1259385  52.0110580
  60.9743911  56.2358615  53.7938796  60.4610855  57.2894055  54.1164403
  60.4175512  55.4288079  52.9043586  60.8844942  54.5801809  52.6181842
  59.1336699  55.7631303  52.2750078  59.1744138  56.7539926  51.8226462
  58.8384908  54.7362514  51.1781477  58.8767468  53.7918345  51.7210221
  57.8348806  54.8854040  50.7798764  59.8303253  54.7032535  50.0418249
  60.8200702  54.4771767  50.4385556  59.4320433  53.6305636  49.0204907
  58.4425315  53.8562305  48.6229487  60.1560001  53.6172600  48.2057451
  59.4141469  52.6547839  49.5059123  59.9730557  56.0729099  49.4134473
  60.3218064  56.7827800  50.1634852  60.6931084  56.0251930  48.5965334
  59.0071791  56.3984568  49.0271822  58.0316902  55.7788022  53.3461474
  57.1501864  56.6494923  53.2983575  58.0768310  54.8476037  54.3019134
  58.7617146  54.1061021  54.2671403  57.0781246  54.8289487  55.3923475
  56.0579302  54.8375217  55.0086431  57.2583403  53.5966736  56.2672271
  58.2914181  53.5650147  56.6134182  56.3262053  53.6276085  57.4620026
  55.2928565  53.6588076  57.1165806  56.4798298  52.7337496  58.0665809
  56.5346362  54.5125485  58.0632830  57.0276773  52.4339021  55.4405187
  57.1351388  51.6394246  55.9685887  57.2083023  56.1406454  56.1968527
  56.1681304  56.7162014  56.5673764  58.4361053  56.6006265  56.4475121
  59.2346899  56.0457849  56.1745419  58.6727223  57.8298278  57.2413323
  58.1251954  57.7566910  58.1809942  60.1546930  58.0347308  57.5542489
  60.2339129  58.7090115  58.4069909  60.5858393  57.0681143  57.8147590
  60.8642941  58.5890641  56.4400269  61.7884158  58.7028934  56.6737827
  58.0484775  59.0368509  56.5642063  57.5872839  59.9458334  57.2717402
  58.0299428  59.0572804  55.2277344  58.4994610  58.3344719  54.7012366
  57.3818476  60.1647142  54.4800453  57.7887140  61.1344423  54.7667268
  57.5274302  60.0019873  52.9693201  57.2092565  58.9988020  52.6856231
  56.6785671  61.0188922  52.2528526  56.9964752  62.0223998  52.5357094
  56.7908414  60.8927628  51.1760117  55.6331188  60.8785769  52.5275361
  58.9940418  60.1197586  52.5802359  59.5677870  59.3420407  53.0842929
  59.0947055  60.0031590  51.5011756  59.3715254  61.0985451  52.8761815
  55.9007748  60.2403100  54.8722987  55.4128206  61.3309862  55.2082571
  55.2235467  59.1006637  54.9226318  55.6650960  58.2346416  54.6485164
  53.8014846  59.0638389  55.3359649  53.2477054  59.8235343  54.7843394
  53.1725688  57.7091190  55.0605999  53.7906156  56.8668007  55.3714334
  52.2305726  57.6896774  55.6086557  52.8342394  57.4834151  53.6185695
  51.6932074  58.0256532  53.0686487  51.0608134  58.6597862  53.6899803
  51.3453325  57.7786022  51.7562414  50.3839692  58.1166308  51.3694366
  52.2195813  57.1012064  50.9335471  51.9823100  56.9609547  49.8789705
  53.3841701  56.6058329  51.4423124  54.0703591  56.0505579  50.8028481
  53.6957980  56.8122023  52.7870022  54.6359673  56.4380460  53.1922044
  53.6635650  59.3904142  56.8230048  52.8319774  60.2230014  57.1711323
  54.4803457  58.7851467  57.6678755  55.2000693  58.1594401  57.3353269
  54.3497039  58.9929998  59.1328908  53.3482567  58.7050125  59.4526814
  55.3636272  58.1573194  59.8989344  56.3077964  58.4050768  59.4138982
  55.3912255  58.4883509  60.9370849  55.1489449  56.6454224  59.8524080
  54.0441377  56.2124744  59.4500870  56.0592863  55.9236337  60.2887616
  54.5634171  60.4787398  59.4681106  53.8069355  61.0544859  60.2613906
  55.6080215  61.0722625  58.9132355  56.2247491  60.5262798  58.3287277
  55.9670082  62.4819633  59.1879684  55.9924749  62.6494793  60.2647177
  57.3340509  62.8162312  58.6117043  57.3174942  62.5372026  57.5581541
  57.5358564  63.8836416  58.7012002  58.4475108  62.0547969  59.2959190
  58.3027006  61.5511735  60.4142278  59.5898208  61.9969720  58.6489404
  60.3717565  61.5025794  59.0542209  59.6805523  62.4471886  57.7493996
  54.8769718  63.4009281  58.6515931  54.5131585  64.3638856  59.3604751
  54.3656713  63.1160574  57.4561763  54.7501440  62.3402809  56.9361272
  53.3087578  63.9518419  56.8056742  53.6273708  64.9942326  56.8031045
  53.0558726  63.5237678  55.3883737  52.8116206  62.4615534  55.3765021
  52.2164830  64.0935419  54.9897730  54.1977816  63.7519255  54.5939067
  54.0210393  63.4738072  53.6922348  52.0443857  63.8906597  57.6646625
  51.3924719  64.9080635  57.8754796  51.6749877  62.6933175  58.1018842
  52.1842512  61.8826546  57.7800523  50.4724460  62.4799188  58.9421863
  49.5608006  62.9153425  58.5330311  50.2732598  60.9703456  59.1423327
  51.2528764  60.5055829  59.2539007  49.4278969  60.6742736  60.3744056
  48.4478985  61.1383564  60.2633607  49.3086177  59.5963123  60.4833670
  49.9213926  61.0759902  61.2593830  49.6841886  60.3899462  57.8537840
  48.6669332  60.7723257  57.7696534  50.2852785  60.7734183  57.0293207
  49.6600252  58.8535892  57.7986978  49.0586976  58.4693749  58.6226421
  49.2271818  58.5302103  56.8520342  50.6770434  58.4704673  57.8823118
  50.5922314  63.2742070  60.2444619  49.6253692  63.9715819  60.5949141
  51.7628483  63.2701980  60.8805405  52.5190339  62.6773008  60.5694849
  51.9536206  64.0605659  62.1211599  51.1237565  63.8790089  62.8041400
  53.2470328  63.6673240  62.8135951  53.2198015  62.5875823  62.9602774
  54.0648541  63.9213506  62.1392519  53.4626754  64.3561778  64.1546006
  53.5166672  65.4314386  63.9843069  52.6108722  64.1329024  64.7970035
  54.7401645  63.8858213  64.8268916  54.5009953  62.9770728  65.3792259
  55.4557083  63.6533138  64.0381985  55.3430995  64.9059053  65.7705356
  55.9104616  65.6256495  65.1804770  54.5308362  65.4188995  66.2854770
  56.2379959  64.2705139  66.7689558  56.9909669  63.7954694  66.2920207
  56.6198025  64.9797135  67.3783487  55.7123621  63.6038563  67.3161082
  51.9044626  65.5595683  61.8152051  51.1875082  66.2935065  62.5420483
  52.5910365  66.0264540  60.7702409  53.1615138  65.3866370  60.2361161
  52.5968385  67.4678613  60.3869091  52.9830299  68.0921736  61.1926320
  53.4376977  67.7087998  59.1380726  53.1209274  66.9967973  58.3759642
  53.2884067  69.1199725  58.6040821  53.6054472  69.8325706  59.3655207
  53.9072429  69.2398754  57.7148329  52.2450495  69.3034153  58.3474594
  54.7718779  67.4064269  59.5592907  55.3760431  67.5333445  58.8241195
  51.1724982  67.9778584  60.1558078  50.8880575  69.1264340  60.5442154
  50.3033295  67.1679404  59.5512859  50.6332091  66.2598582  59.2568959
  48.9279124  67.5758509  59.1673552  48.8690784  68.6578918  59.0497736
  48.5658432  66.9178197  57.8318445  49.0635051  65.9484290  57.8585577
  47.5015231  66.7742442  57.6455410  49.1171462  67.6525659  56.6377545
  50.4587092  67.5690455  56.3183518  51.1006493  66.9158042  56.9093584
  50.9902701  68.2959552  55.2699939  52.0578088  68.2478500  55.0551736
  50.1696099  69.0801411  54.4983228  50.5617145  69.5869898  53.6165868
  48.8450167  69.2247316  54.8431118  48.2043174  69.8852030  54.2588327
  48.3251069  68.5358939  55.9266944  47.2872425  68.6887456  56.2226232
  47.9399633  67.2750253  60.3168231  46.7424758  67.5371755  60.1870124
  48.4269659  66.7456370  61.4237371  49.4128052  66.5262887  61.4340572
  47.6345424  66.4571445  62.6318108  48.3069270  66.1111906  63.4168675
  47.1418162  67.3743865  62.9542816  46.5805989  65.3923945  62.3788254
  45.5281772  65.4095525  63.0537381  46.8527626  64.4722624  61.4603000
  47.7371384  64.4986706  60.9731848  45.8772802  63.4125443  61.0929707
  44.8395471  63.7459310  61.1008786  46.1981663  62.8484314  59.7103393
  47.2543087  62.5795989  59.6905524  45.3521111  61.6166575  59.3779154
  44.2957893  61.8848345  59.3970554  45.6157384  61.2512314  58.3854110
  45.5415470  60.8356208  60.1142559  46.0561044  63.9082392  58.6563137
  46.7427110  64.7275742  58.8693009  46.2894754  63.4838383  57.6798294
  45.0328466  64.2837877  58.6535368  45.9251156  62.3151684  62.1422023
  47.0523772  61.9193973  62.5210829  44.7631894  61.8853610  62.6349895
  43.9213547  62.4202636  62.4759521  44.6920328  60.7114857  63.5503339
  45.6456302  60.1896756  63.6307418  44.2276346  61.1438163  64.9449535
  44.1529378  60.2648386  65.5852025  45.2333838  62.1398876  65.5555357
  45.3082767  63.0193948  64.9160370  44.8924857  62.4397856  66.5464698
  46.2115287  61.6657702  65.6364333  42.8259853  61.7292670  64.9473236
  42.8756662  62.7318345  64.5224812  42.1939094  61.1004335  64.3203084
  42.2388414  61.8011734  66.3470294  42.8701682  62.4302586  66.9745469
  41.2361816  62.2260554  66.2996180  42.1884136  60.7988571  66.7723751
  43.8222103  59.6438773  62.8579020  43.0016053  60.0179274  61.9873235
  44.0495424  58.3668708  63.1862350  44.6980769  58.1656993  63.9339196
  43.4227850  57.2177221  62.4629561  43.6856084  57.2477620  61.4055439
  43.9301505  55.9070901  63.0540450  45.0098983  55.8800326  62.9073756
  43.7092878  55.9240202  64.1212999  43.3041701  54.6753890  62.4279953
  43.3859247  54.9493999  61.3761707  43.8962312  53.7798716  62.6167052
  41.8311013  54.3975716  62.7720401  41.3771272  54.6616487  63.9206757
  41.1730477  53.7547230  61.9057029  41.8888553  57.3058964  62.5564974
  41.2247577  57.0614728  61.5148177  41.3434155  57.7842733  63.6681381
  41.9733093  58.0536587  64.4102733  39.8757235  57.8456058  63.9289817
  39.3963268  56.9541520  63.5245215  39.5910032  57.9168850  65.4071643
  38.5161476  57.8077882  65.5516725  40.1082226  57.0894920  65.8929676
  40.0272445  59.1571498  65.9824719  39.8280536  59.1618541  66.9215675
  39.1750141  58.9956594  63.1866125  37.9312166  59.0592856  63.2140424
  39.9145558  59.9101379  62.5727704  40.9189879  59.9042869  62.6785116
  39.2968526  61.0057372  61.7881317  38.6518121  61.6010419  62.4343781
  40.3659676  61.9157758  61.1956142  41.1383294  61.2920079  60.7456475
  39.8770689  62.5043928  60.4193358  40.9966403  62.8453753  62.2117852
  40.4018542  63.0193742  63.2997833  42.0648409  63.3573948  61.9204768
  38.4163120  60.3621043  60.7312770  38.8129641  59.3770395  60.1131853
  37.2265664  60.9145887  60.4496471  36.5671605  61.9848510  61.2134812
  36.9943255  62.9490585  60.9379199  36.7108473  61.8160486  62.2807014
  35.1168226  61.8510210  60.7977833  34.5952479  62.8053045  60.8712817
  34.5997947  61.1073155  61.4041541  35.2312516  61.3851335  59.3380985
  35.4844368  62.2440499  58.7166011  34.3443025  60.8953427  58.9361955
  36.4029167  60.4010309  59.3676949  36.0870525  59.3884154  59.6185693
  37.1829105  60.3804285  58.0422508  37.8884644  61.3098996  57.6935973
  37.0416371  59.2915953  57.3078224  36.7233171  58.4347475  57.7374543
  37.4030976  59.2645495  55.8812184  38.3792208  59.7310014  55.7481573
  37.4680580  57.8398730  55.3485619  36.5273313  57.3453772  55.5906494
  37.6177802  57.8262564  54.2689796  38.5553245  57.0039563  55.9414734
  39.8798920  57.2180249  55.6240645  40.1380275  58.0235936  54.9366598
  40.8838235  56.4192140  56.1705385  41.9282027  56.5924736  55.9110123
  40.5491487  55.4050376  57.0441288  41.3272323  54.8080974  57.5198894
  39.2277966  55.1497574  57.3127806  38.9703284  54.2964024  57.9401524
  38.2229731  55.9622180  56.7968171  37.1824546  55.7788616  57.0647752
  36.3859676  60.1091711  55.1075085  35.2671350  60.3941829  55.5752668
  36.7687014  60.4993110  53.8944216  37.6757292  60.2294085  53.5415017
  35.9432603  61.4171538  53.0785806  35.7857330  62.3556447  53.6101059
  36.6511399  61.7132979  51.7732660  36.9461917  60.7534437  51.3493276
  35.9288044  62.1944936  51.1138860  37.8777790  62.6027374  51.9166498
  38.1170947  63.1955547  53.0167870  38.6037993  62.7114586  50.9129187
  34.5269923  60.8684259  52.8545099  33.5845766  61.6678220  52.7530926
  34.3849442  59.5647163  52.6596114  35.2119627  58.9850448  52.6486198
  33.0779713  58.9314582  52.3556769  32.4980826  59.5714419  51.6906588
  33.2972104  57.5884946  51.6701312  32.3531447  57.0472679  51.6075781
  33.7010977  57.7305321  50.6677338  34.2546234  56.6965420  52.3948344
  33.9593252  55.8261682  53.4084509  32.9205605  55.7871226  53.7363885
  35.0864841  55.1658255  53.8053002  35.1245174  54.4872986  54.5524644
  36.1585913  55.5913715  53.0585360  37.5014781  55.2251705  53.0897897
  37.7995152  54.4704235  53.8175461  38.3726102  55.8326192  52.2056557
  39.4349926  55.5888169  52.2076578  37.8987963  56.7686646  51.2971001
  38.5743180  57.2169935  50.5685596  36.5908417  57.1568768  51.2816021
  36.3014116  57.8605722  50.5011255  35.6696083  56.5852180  52.1776921
  32.2028706  58.7909760  53.6092085  31.0245443  58.4575048  53.4272243
  32.7171946  59.0794329  54.8157608  33.6681382  59.4170366  54.8585311
  31.9430658  58.9835923  56.0869497  31.1881853  58.2016265  56.0045846
  32.8715158  58.6431712  57.2430427  33.5989754  59.4512109  57.3203318
  32.2630683  58.6150648  58.1469795  33.5819600  57.3530393  57.0862032
  33.0566813  56.4726891  56.7158430  34.3301922  57.6627508  56.3565961
  34.2589224  57.0217984  58.3887159  35.4371840  57.3478701  58.5400530
  33.5153399  56.6703162  59.3154555  31.3009181  60.3233065  56.4381862
  30.4355957  60.3318791  57.3130992  31.7749686  61.4015271  55.8203492
  32.1394631  61.2448748  54.8915310  31.7941044  62.7848347  56.3601081
  30.7996844  63.2143314  56.2386139  32.1818847  62.8546671  57.8493263
  32.8970108  62.0470562  58.0057183  32.6836555  63.8136546  57.9784355
  31.0498771  62.7335983  58.8623772  30.6821255  63.7389994  59.0673850
  30.2570592  62.1441748  58.4018104  31.4825312  62.0701684  60.1757496
  32.5648963  62.1769351  60.2477609  31.0086131  62.6239163  60.9862213
  31.1112816  60.6029085  60.2814672  30.1282952  60.5329725  60.7472431
  31.0655612  60.1896658  59.2738763  32.0962918  59.8356587  61.0868464
  32.1384949  60.2181476  62.0206670  31.8127966  58.8673202  61.1321335
  33.0071325  59.8999806  60.6551855  32.8427460  63.5275262  55.5452399
  32.4765232  64.1494711  54.5330599  34.0472163  63.3988931  55.8934595
  38.2444800  37.9995159  38.7139503  38.5571816  39.4609413  38.8977532
  37.5821355  40.3032414  39.4652623  37.8217255  41.6701292  39.6715226
  36.7615539  42.5238923  40.2470483  36.5262815  42.2628714  41.5914381
  35.5655525  42.9877446  42.2493626  35.3520073  42.6839865  43.5944319
  34.3888715  43.3841308  44.3236564  33.6407952  44.3895702  43.7089708
  33.8565485  44.6927542  42.3660911  33.0892904  45.6885931  41.8271478
  34.8188637  43.9889617  41.6367377  35.0762918  44.2758954  40.2247338
  34.4638704  45.1508629  39.6153227  36.1128456  43.4682954  39.5403543
  36.3581855  43.7564392  38.2098207  39.0587706  42.1953070  39.2828058
  40.0385666  41.3717659  38.7204485  39.8065982  39.9998375  38.5229918
  40.8927387  39.1409487  37.9117122  40.5773075  38.7002221  36.6610399
  41.1712955  38.0180056  38.6347875  42.0793472  39.7999010  37.7893308
  37.4681080  37.6973270  39.4318406  37.8831404  37.8283724  37.6894072
  39.1541967  37.4059159  38.8854015  36.6090002  39.8793081  39.7536686
  35.9417919  41.8927654  44.0801049  34.2194552  43.1432933  45.3835948
  32.8825028  44.9413811  44.2836076  32.2897786  45.9430055  42.2452689
  36.6443420  43.0791207  37.6299379  39.2625473  43.2678688  39.4206149
  41.0072372  41.8045248  38.4278977  68.4027291  25.9611824  25.3001405
  23.1003326  10.3148363  60.5888224  76.3545593  47.2701960  31.5783449
  77.1234485  65.7563550  25.4172775  77.5019880  56.1862306  48.1390410
  75.6831525  36.6146669  79.6132725  30.8872782  -2.4388487  29.6621286
  25.9333671  71.5271388  73.8500376  72.7987014  64.9568818  63.6002276
  12.5273872  31.3874118  37.4480018  63.0549916  30.2569392  32.4006309
  51.1199503  34.2984984  90.1511666  50.4687483  34.8839065  89.7645680
  51.9143866  34.8291179  90.2106703  45.0455130  31.3874122  90.5498800
  45.8186006  30.8403109  90.4111676  45.3980529  32.2518371  90.7613262
  47.3821408  27.5466788  88.1817250  47.6346928  27.0248309  87.4200713
  46.4445967  27.3832933  88.2843934  52.5974768  31.9875416  90.6880650
  51.9620601  32.0610043  91.4001555  52.2672174  32.5769015  90.0099730
  46.8250837  39.1656240  93.7186461  46.7474867  40.1164065  93.7974942
  46.2212481  38.8202112  94.3761387  54.7629011  26.8674071  90.8976664
  55.6746868  27.1001458  90.7224361  54.2538659  27.4511115  90.3351742
  57.2487826  32.7854328  95.6434609  56.5638864  33.1653229  95.0931642
  57.3331675  33.3949654  96.3766557  49.0989206  34.5238393  92.4392001
  48.9634881  35.3689928  92.8676849  49.6399019  34.7257670  91.6757935
  52.4131953  28.0377566  89.4763329  51.8978576  28.8082170  89.7151717
  52.1409261  27.3642702  90.0996391  57.3866227  30.7909920  91.4116503
  56.6095670  30.4521080  90.9671665  58.0657708  30.7962544  90.7371468
  50.6464688  32.0694881  92.9516065  50.1186049  31.3347641  92.6389302
  50.1452190  32.8469557  92.7056033  48.7917288  29.8875091  85.9551038
  47.8844350  29.6564345  86.1542187  49.2888320  29.0912711  86.1425019
  51.6985367  38.5972599  88.8747724  51.0247065  38.9004295  89.4832682
  52.0851189  39.4001679  88.5253181  49.9705521  29.9887686  90.4775028
  49.0616741  29.7046719  90.5747497  50.0000605  30.4086765  89.6178334
  55.2024789  33.5994276  94.2466195  54.7487116  32.7585186  94.3031386
  54.5718755  34.2355674  94.5840975  53.6457728  35.4370772  95.1816013
  53.9380702  35.9975830  94.4628379  54.1556348  35.7299333  95.9369172
  49.6681609  31.5296430  87.8163106  49.2301039  30.8132289  87.3568744
  50.4092050  31.7572545  87.2548198  57.7854724  29.8053627  93.8739425
  57.6472622  29.9955223  92.9460614  57.4290943  30.5673010  94.3307476
  49.8976582  38.7652271  91.0894803  50.0728338  38.2940314  91.9040426
  49.2109370  39.3918037  91.3176064  53.7892837  30.3880812  87.4095164
  53.1722007  29.6627640  87.3128216  53.3209325  31.1490172  87.0662238
  45.5791383  24.6066236  86.5316468  44.7020849  24.4855037  86.1678715
  46.0549136  23.8152314  86.2795357  48.7655309  36.9592526  93.7778989
  47.9822831  37.5014206  93.8717213  49.4648054  37.4766506  94.1773230
  53.1581739  31.5258843  93.9951617  52.2238018  31.6460305  93.8256322
  53.3358408  30.6231310  93.7311627  54.6130522  33.7119983  91.5287804
  54.8890366  33.5976578  92.4381678  53.7435021  33.3137468  91.4899977
  51.2484586  37.9606334  95.1720617  51.4306980  37.1427990  95.6348369
  52.0717572  38.1774027  94.7345507  51.5826751  36.8874519  92.4335666
  52.1114518  36.3766974  91.8205828  51.8454971  36.5717050  93.2981199
  54.6766935  36.8591318  93.0490649  54.8503812  36.2937740  92.2964501
  55.1695826  37.6592213  92.8670139  55.6642107  36.1758082  90.1487547
  56.3593012  36.7964775  90.3674862  56.0065258  35.3253433  90.4239925
  57.5633531  33.6257788  91.6774878  58.0884855  33.9645060  90.9524198
  57.4755883  32.6904803  91.4938012  49.2474191  39.6929771  96.0370131
  48.8079182  39.2006150  96.7302988  49.9982308  39.1502739  95.7962206
  46.2561570  33.7871703  91.5850893  46.4049691  34.4707168  90.9317566
  47.0628014  33.7676793  92.1000349  49.7556976  36.2819834  89.0562641
  49.1830943  36.9010021  88.6033112  50.3289770  36.8319195  89.5902562
  52.9754236  36.5656984  90.1871223  53.9084909  36.5002546  90.3904098
  52.8877448  37.4013251  89.7285755  55.6042252  35.8822854  87.1475170
  55.5255884  35.5482718  88.0410928  56.4251919  36.3744622  87.1466643
  50.1403774  27.6180647  86.3978693  51.0862879  27.4886855  86.4667111
  49.7618019  26.8795308  86.8748121  48.3246692  25.5430623  86.3333578
  47.4178147  25.2463736  86.4096292  48.6022673  25.2460441  85.4667864
  47.0945476  22.4017558  86.4745557  47.9564640  22.7272456  86.7341375
  47.2795820  21.6149054  85.9618623  53.1746204  33.1990850  86.7685149
  53.8782054  33.4040852  87.3842804  52.4508853  33.7667612  87.0334232
  54.0044014  28.9500711  92.8887419  53.9479216  29.4069262  92.0495051
  54.5572357  28.1891396  92.7110262  55.0832902  33.6373379  88.8183609
  55.9178505  33.2054577  88.6361084  54.9217244  33.4655393  89.7460503
  54.7378794  30.1405492  90.1839948  54.6827598  29.9749764  89.2428392
  54.1124849  30.8481525  90.3402138  55.8848884  46.7166039  90.5498800
  56.6579760  46.1695026  90.4111676  56.2374283  47.5810289  90.7613262
  58.2215162  42.8758705  88.1817250  58.4740683  42.3540227  87.4200713
  57.2839721  42.7124851  88.2843934  57.9411451  44.7786811  90.3841625
  57.8247709  44.1031715  91.0522710  58.0513711  44.2919185  89.5673778
  59.9248479  39.2686858  89.0849663  60.0922881  40.1367095  89.4520134
  59.7345648  39.4314140  88.1610952  59.9037700  41.7244516  90.0696330
  59.7837325  42.1701566  90.9081810  59.2090288  42.0729833  89.5109868
  54.3929276  41.6617500  94.6230506  53.5960439  41.7736194  95.1414001
  54.1654868  42.0004152  93.7571396  51.3561275  45.6994403  93.7879496
  52.1936497  46.1091411  93.5713204  51.5339543  44.7593845  93.7579690
  63.2525707  43.3669483  89.4763329  62.7372331  44.1374088  89.7151717
  62.9803016  42.6934620  90.0996391  60.8372818  38.2119184  94.5348568
  59.9814414  37.8226035  94.3554206  61.2499770  38.2911145  93.6748353
  63.0412010  41.2396575  91.3023111  62.7362146  41.5542725  92.1533254
  63.9942452  41.3177995  91.3450444  56.2177170  38.0606465  95.3122676
  56.7920922  37.8381647  94.5795869  56.8048152  38.1295160  96.0651277
  56.5446757  40.0910926  89.3318561  55.7084069  40.4285613  89.6527836
  56.4051527  39.9559906  88.3945698  58.5199837  34.9347714  94.0397745
  57.8664250  34.6196731  93.4154360  58.4780312  34.3123454  94.7657568
  59.6311042  45.2167009  85.9551038  58.7238104  44.9856263  86.1542187
  60.1282074  44.4204628  86.1425019  60.8099276  45.3179604  90.4775028
  59.9010495  45.0338637  90.5747497  60.8394360  45.7378683  89.6178334
  51.3787446  43.0385118  94.4590230  51.1811846  42.4454479  93.7341296
  50.8234110  42.7337328  95.1766169  60.5075364  46.8588348  87.8163106
  60.0694793  46.1424207  87.3568744  61.2485804  47.0864462  87.2548198
  53.8733672  42.5649152  92.1431182  52.9431260  42.5033607  92.3601144
  53.9691144  42.0425105  91.3467823  53.7919221  39.0903965  94.7309424
  54.0526038  40.0049298  94.6218584  54.6136393  38.6228407  94.8806036
  64.6286591  45.7172729  87.4095164  64.0115762  44.9919557  87.3128216
  64.1603080  46.4782090  87.0662238  56.4185137  39.9358154  86.5316468
  55.5414603  39.8146954  86.1678715  56.8942890  39.1444232  86.2795357
  51.1463831  41.5300009  91.9729374  51.4417272  40.6210687  91.9196427
  50.2451867  41.5087748  91.6510376  52.8751673  39.2114106  92.0968699
  52.5464379  38.3311485  91.9143805  53.2291043  39.1561775  92.9845088
  55.9893496  39.4987076  92.4644177  56.3289568  40.0272998  91.7422785
  56.4365616  39.8367482  93.2402743  57.9761643  37.9961698  90.6637469
  58.6970005  38.3742951  90.1601186  57.3526947  38.7150575  90.7672447
  62.1192766  38.7006847  91.5995802  62.3356380  39.5831485  91.2984630
  61.6386833  38.3093060  90.8701444  58.1225266  37.5309488  93.4935006
  58.2441177  36.6026134  93.6925893  57.8327308  37.5448174  92.5813321
  54.8507958  45.1428799  92.5911962  54.6054000  44.2391129  92.7892172
  55.0203872  45.1445949  91.6491440  54.1203605  40.8757156  90.0898123
  53.4272850  40.9501511  89.4338159  53.8755357  40.1117500  90.6119640
  60.9797529  42.9472564  86.3978693  61.9256634  42.8178772  86.4667111
  60.6011774  42.2087226  86.8748121  59.1640446  40.8722541  86.3333578
  58.2571901  40.5755653  86.4096292  59.4416427  40.5752359  85.4667864
  60.7802512  35.4159430  92.4877820  59.9703240  35.0706515  92.8633066
  61.4686929  35.1066974  93.0765431  62.7093060  34.4937477  94.1102116
  63.2624099  34.9132931  94.7692139  62.9463146  33.5673225  94.1525072
  57.9339231  37.7309476  86.4745557  58.7958395  38.0564374  86.7341375
  58.1189575  36.9440972  85.9618623  66.0871867  36.6038002  93.6180780
  65.5070536  37.2622806  93.2358833  65.8207800  35.7815347  93.2068198
  64.8696745  38.7638093  92.6737129  63.9822600  39.0487743  92.4557323
  65.2850734  38.6031856  91.8264406  64.0139959  48.5282767  86.7685149
  64.7175809  48.7332770  87.3842804  63.2902607  49.0959529  87.0334232
  58.8868674  34.9705519  89.7625266  58.8747343  35.9147359  89.9193537
  59.7792096  34.7875664  89.4684728  51.1199504  11.3047107  76.8756973
  50.4687484  11.8901188  76.4890986  51.9143867  11.8353302  76.9352010
  45.0455131   8.3936244  77.2744107  45.8186007   7.8465231  77.1356983
  45.3980530   9.2580494  77.4858568  47.3821409   4.5528910  74.9062557
  47.6346930   4.0310432  74.1446020  46.4445968   4.3895056  75.0089241
  52.5974769   8.9937539  77.4125957  51.9620602   9.0672166  78.1246862
  52.2672176   9.5831138  76.7345036  46.8250839  16.1718362  80.4431768
  46.7474868  17.1226187  80.5220248  46.2212482  15.8264235  81.1006694
  54.7629013   3.8736194  77.6221971  55.6746869   4.1063581  77.4469668
  54.2538660   4.4573238  77.0597049  57.2487827   9.7916450  82.3679916
  56.5638865  10.1715351  81.8176949  57.3331676  10.4011777  83.1011863
  49.0989208  11.5300515  79.1637307  48.9634882  12.3752051  79.5922155
  49.6399020  11.7319793  78.4003241  52.4131954   5.0439688  76.2008636
  51.8978577   5.8144293  76.4397023  52.1409262   4.3704824  76.8241697
  57.3866228   7.7972043  78.1361809  56.6095671   7.4583202  77.6916972
  58.0657709   7.8024666  77.4616775  50.6464689   9.0757004  79.6761371
  50.1186050   8.3409763  79.3634609  50.1452192   9.8531680  79.4301339
  48.7917289   6.8937214  72.6796344  47.8844351   6.6626467  72.8787493
  49.2888321   6.0974833  72.8670326  51.6985368  15.6034721  75.5993030
  51.0247067  15.9066418  76.2077988  52.0851190  16.4063802  75.2498487
  49.9705523   6.9949809  77.2020334  49.0616742   6.7108842  77.2992804
  50.0000606   7.4148887  76.3423641  55.2024790  10.6056398  80.9711502
  54.7487117   9.7647308  81.0276692  54.5718757  11.2417797  81.3086282
  53.6457729  12.4432895  81.9061320  53.9380704  13.0037952  81.1873686
  54.1556350  12.7361456  82.6614479  49.6681610   8.5358553  74.5408413
  49.2301040   7.8194411  74.0814050  50.4092051   8.7634667  73.9793504
  57.7854725   6.8115750  80.5984731  57.6472624   7.0017346  79.6705921
  57.4290944   7.5735132  81.0552783  49.8976583  15.7714394  77.8140110
  50.0728339  15.3002437  78.6285732  49.2109371  16.3980160  78.0421370
  53.7892838   7.3942934  74.1340470  53.1722009   6.6689762  74.0373523
  53.3209326   8.1552294  73.7907545  45.5791384   1.6128358  73.2561775
  44.7020850   1.4917159  72.8924021  46.0549137   0.8214437  73.0040663
  48.7655310  13.9654649  80.5024295  47.9822832  14.5076329  80.5962520
  49.4648055  14.4828628  80.9018536  53.1581741   8.5320966  80.7196924
  52.2238019   8.6522428  80.5501628  53.3358409   7.6293432  80.4556934
  54.6130523  10.7182106  78.2533110  54.8890367  10.6038701  79.1626984
  53.7435022  10.3199591  78.2145283  51.2484587  14.9668457  81.8965924
  51.4306982  14.1490113  82.3593676  52.0717573  15.1836149  81.4590814
  51.5826753  13.8936642  79.1580972  52.1114519  13.3829097  78.5451134
  51.8454972  13.5779172  80.0226505  54.6766936  13.8653440  79.7735955
  54.8503814  13.2999863  79.0209808  55.1695827  14.6654335  79.5915445
  55.6642109  13.1820205  76.8732854  56.3593013  13.8026897  77.0920168
  56.0065259  12.3315556  77.1485231  57.5633532  10.6319910  78.4020184
  58.0884856  10.9707183  77.6769504  57.4755884   9.6966926  78.2183319
  49.2474193  16.6991893  82.7615437  48.8079183  16.2068272  83.4548294
  49.9982310  16.1564861  82.5207513  46.2561572  10.7933826  78.3096200
  46.4049692  11.4769290  77.6562872  47.0628015  10.7738916  78.8245655
  49.7556977  13.2881956  75.7807947  49.1830944  13.9072143  75.3278419
  50.3289771  13.8381318  76.3147869  52.9754237  13.5719106  76.9116529
  53.9084910  13.5064668  77.1149405  52.8877450  14.4075373  76.4531062
  55.6042254  12.8884977  73.8720477  55.5255885  12.5544840  74.7656235
  56.4251920  13.3806745  73.8711949  50.1403776   4.6242769  73.1224000
  51.0862880   4.4948977  73.1912418  49.7618021   3.8857431  73.5993428
  48.3246693   2.5492746  73.0578885  47.4178148   2.2525858  73.1341598
  48.6022674   2.2522564  72.1913171  47.0945477  -0.5920319  73.1990864
  47.9564641  -0.2665421  73.4586681  47.2795822  -1.3788823  72.6863930
  53.1746205  10.2052972  73.4930455  53.8782056  10.4102975  74.1088111
  52.4508854  10.7729734  73.7579539  54.0044016   5.9562834  79.6132725
  53.9479217   6.4131385  78.7740358  54.5572358   5.1953518  79.4355568
  55.0832903  10.6435501  75.5428915  55.9178507  10.2116700  75.3606390
  54.9217246  10.4717515  76.4705810  54.7378795   7.1467615  76.9085255
  54.6827599   6.9811886  75.9673699  54.1124850   7.8543648  77.0647444
  63.7117178  21.1605153  85.6384092  64.3495588  21.0411900  84.9347432
  63.5938021  22.1085997  85.6972044  60.5206884  21.1132581  85.5745617
  60.1825396  20.9973645  84.6866152  61.3896652  20.7123746  85.5546623
  56.3793700  22.9668057  81.5642508  55.8158565  22.8757994  80.7958796
  56.2646095  22.1467962  82.0445000  53.9258132  24.4619249  84.4026728
  54.7179424  24.1210073  83.9873028  54.1654782  24.5714224  85.3228882
  61.9593259  26.6339025  76.8756973  61.3081238  27.2193105  76.4890986
  62.7537621  27.1645220  76.9352010  55.8848886  23.7228162  77.2744107
  56.6579762  23.1757149  77.1356983  56.2374285  24.5872411  77.4858568
  57.7233928  25.0504544  90.4811006  57.4323794  25.9550175  90.3657673
  58.3590913  25.0921072  91.1955076  58.6490135  22.4281393  87.0712366
  59.2453707  22.2037415  86.3569329  58.7065107  21.6866138  87.6737814
  58.2215164  19.8820828  74.9062557  58.4740684  19.3602349  74.1446020
  57.2839723  19.7186973  75.0089241  63.2658446  18.8856606  82.7137300
  64.0521536  18.4676030  82.3627717  63.5297151  19.7902699  82.8818949
  63.4368524  24.3229457  77.4125957  62.8014357  24.3964083  78.1246862
  63.1065930  24.9123056  76.7345036  57.9411452  21.7848934  77.1086932
  57.8247710  21.1093837  77.7768016  58.0513712  21.2981308  76.2919085
  60.2842993  21.2459081  80.8133621  59.9201200  20.7189702  81.5246543
  61.1410109  20.8557550  80.6400107  59.9248480  16.2748981  75.8094970
  60.0922883  17.1429217  76.1765441  59.7345649  16.4376262  74.8856259
  62.6823813  24.7365960  87.4760800  62.3824536  25.6390999  87.3676607
  62.3374873  24.4698143  88.3281953  56.1336295  21.1879757  83.5097504
  55.2086791  21.0555971  83.7175196  56.3820708  21.9673976  84.0067447
  59.9037701  18.7306638  76.7941636  59.7837326  19.1763689  77.6327117
  59.2090289  19.0791956  76.2355175  53.4945106  20.8313030  84.3441293
  53.6237487  21.0847509  85.2580705  52.8142557  21.4240738  84.0245949
  57.6644593  31.5010280  80.4431768  57.5868623  32.4518105  80.5220248
  57.0606237  31.1556153  81.1006694  65.6022767  19.2028111  77.6221971
  66.5140623  19.4355498  77.4469668  65.0932414  19.7865156  77.0597049
  64.2092350  24.1853930  85.0135552  63.5801212  24.3499644  84.3111620
  63.8218012  24.5995539  85.7846516  68.0881581  25.1208368  82.3679916
  67.4032620  25.5007269  81.8176949  68.1725431  25.7303694  83.1011863
  59.7620311  23.9228338  82.2785637  60.2258657  24.2016041  81.4890260
  59.4977110  23.0211783  82.0958728  56.6544392  23.4699820  85.2165400
  57.2245750  23.8987088  84.5782885  57.2452504  23.1882404  85.9149586
  58.6989197  20.0451490  79.0875202  59.4013241  20.4972534  79.5549129
  58.3669826  19.4035309  79.7155095  52.4414531  18.3035043  84.3892336
  51.6513585  18.5592572  83.9132446  52.9325779  19.1183381  84.4944376
  54.3929277  18.6679622  81.3475812  53.5960440  18.7798317  81.8659308
  54.1654869  19.0066275  80.4816703  60.2234944  25.1924326  89.2958327
  60.2879377  25.6544733  90.1316499  59.5145868  24.5621690  89.4240637
  59.9382962  26.8592433  79.1637307  59.8028637  27.7043969  79.5922155
  60.4792775  27.0611711  78.4003241  53.3912359  24.3767871  79.7365233
  53.9036880  25.1711121  79.8870797  54.0435072  23.6794161  79.6698834
  55.2007244  27.4933627  81.8187986  55.3773873  28.4151592  81.6308970
  55.9964078  27.1792047  82.2482365  56.3238560  29.0111801  87.8198328
  56.8745985  28.8828864  87.0475322  55.4850036  29.3106690  87.4693221
  51.3561276  22.7056525  80.5124803  52.1936498  23.1153534  80.2958511
  51.5339544  21.7655968  80.4824997  63.2525708  20.3731606  76.2008636
  62.7372332  21.1436211  76.4397023  62.9803017  19.6996742  76.8241697
  60.8372819  15.2181307  81.2593874  59.9814416  14.8288157  81.0799513
  61.2499771  15.2973268  80.3993660  58.6114852  12.8366380  84.6651616
  59.4767849  12.6409188  84.3057505  58.6792361  12.6076732  85.5920973
  68.2259983  23.1263961  78.1361809  67.4489425  22.7875120  77.6916972
  68.9051463  23.1316584  77.4616775  63.0412012  18.2458698  78.0268417
  62.7362147  18.5604847  78.8778560  63.9942454  18.3240118  78.0695750
  61.4858443  24.4048921  79.6761371  60.9579805  23.6701681  79.3634609
  60.9845946  25.1823598  79.4301339  66.4651289  22.5997942  84.7928417
  65.8074964  23.2897203  84.8808546  67.2691689  22.9894374  85.1362404
  56.2177171  15.0668588  82.0367983  56.7920923  14.8443769  81.3041176
  56.8048153  15.1357282  82.7896584  65.2756748  20.9542315  82.8432359
  65.7888630  21.5872306  83.3454069  65.9257972  20.3543510  82.4775719
  56.5446758  17.0973049  76.0563868  55.7084070  17.4347735  76.3773143
  56.4051528  16.9622029  75.1191005  58.5199839  11.9409837  80.7643052
  57.8664251  11.6258854  80.1399667  58.4780313  11.3185577  81.4902875
  59.6311044  22.2229132  72.6796344  58.7238105  21.9918385  72.8787493
  60.1282076  21.4266751  72.8670326  62.5379122  30.9326639  75.5993030
  61.8640821  31.2358336  76.2077988  62.9244944  31.7355719  75.2498487
  61.7537579  18.4291770  85.0890700  60.8360140  18.6506717  84.9312388
  62.1697723  18.5038081  84.2302407  62.5372627  19.8283186  80.2193380
  63.2844446  20.3404583  79.9100502  62.8064216  19.5067239  81.0797774
  60.8099277  22.3241727  77.2020334  59.9010496  22.0400759  77.2992804
  60.8394361  22.7440805  76.3423641  66.0418544  25.9348316  80.9711502
  65.5880872  25.0939226  81.0276692  65.4112511  26.5709714  81.3086282
  64.9851464  16.8640302  82.2012169  64.2474221  16.3517688  82.5322412
  65.2378238  16.4240684  81.3895446  64.4851484  27.7724813  81.9061320
  64.7774458  28.3329870  81.1873686  64.9950104  28.0653374  82.6614479
  51.3787447  20.0447241  81.1835536  51.1811847  19.4516601  80.4586603
  50.8234111  19.7399451  81.9011475  59.3584171  19.9370347  83.3030130
  59.4132781  18.9844184  83.2272606  58.5475373  20.0929786  83.7871428
  60.5075365  23.8650470  74.5408413  60.0694795  23.1486329  74.0814050
  61.2485806  24.0926585  73.9793504  57.2976531  18.5547407  81.0620508
  56.4844397  18.8541577  81.4685701  57.7935525  18.1603096  81.7794991
  59.4485109  28.5505164  82.9954773  59.4061288  28.7766010  82.0663305
  60.3647808  28.3168538  83.1440574  68.6248480  22.1407667  80.5984731
  68.4866378  22.3309263  79.6705921  68.2684698  22.9027050  81.0552783
  56.7890606  16.1265762  86.6781743  57.4289985  15.9854522  85.9804707
  55.9568136  15.8400276  86.3020345  57.5650910  25.4268193  82.7916736
  58.3591508  24.9318513  82.5899311  56.8542602  24.8986056  82.4284441
  62.3845754  27.8086288  87.1429104  62.4382776  28.3777225  87.9106819
  61.5160535  27.9788173  86.7783141  53.8733673  19.5711275  78.8676489
  52.9431261  19.5095730  79.0846451  53.9691145  19.0487227  78.0713130
  53.7919222  16.0966087  81.4554730  54.0526039  17.0111421  81.3463891
  54.6136394  15.6290530  81.6051343  61.3433854  21.9746550  88.7016035
  62.2725914  22.1257710  88.5285003  60.9224884  22.0630571  87.8464682
  60.1422186  25.9997215  86.4714573  60.0033271  25.6315999  87.3440511
  59.3536782  26.5144854  86.2998531  60.7370338  31.1006311  77.8140110
  60.9122093  30.6294354  78.6285732  60.0503126  31.7272077  78.0421370
  61.6927401  25.3778818  83.8603411  61.3577233  25.3379587  84.7561061
  61.1931346  24.7123533  83.3873821  64.6286592  22.7234852  74.1340470
  64.0115763  21.9981680  74.0373523  64.1603081  23.4844212  73.7907545
  58.2953945  20.4966407  88.8739672  59.0053564  19.8559599  88.8326290
  58.2523254  20.7479302  89.7965852  55.3031423  34.2495674  84.5879970
  55.5428021  34.8814198  85.2658988  54.4600619  33.8983714  84.8745329
  56.4185138  16.9420276  73.2561775  55.5414605  16.8209077  72.8924021
  56.8942891  16.1506354  73.0040663  47.9387278  21.7297436  83.3503282
  48.6258318  21.4159166  82.7624297  47.7835407  22.6338801  83.0770533
  59.8159285  30.0574796  86.9921474  59.7429456  30.8629768  87.5040778
  59.3736678  30.2566762  86.1669495  59.6049064  29.2946567  80.5024295
  58.8216586  29.8368247  80.5962520  60.3041810  29.8120546  80.9018536
  62.9145714  15.1041196  83.1458501  63.4114414  14.3511158  82.8259571
  62.1432696  15.1405513  82.5801710  62.2757968  29.9561631  89.1479632
  62.9885940  30.5909095  89.0755534  61.7847997  30.0525497  88.3319634
  63.9975495  23.8612883  80.7196924  63.0631774  23.9814346  80.5501628
  64.1752164  22.9585350  80.4556934  59.4980683  17.2458579  82.8730185
  59.1278471  16.6929619  83.5611091  59.9939776  16.6416712  82.3205185
  67.3848047  19.7030202  81.2546958  67.8508499  20.5358194  81.1807261
  67.8355547  19.2375184  81.9592217  57.3269882  27.7056074  89.9685203
  58.0279341  28.3392557  90.1214597  56.8564997  28.0470806  89.2080842
  65.4524278  26.0474024  78.2533110  65.7284122  25.9330618  79.1626984
  64.5828776  25.6491509  78.2145283  62.0878342  30.2960375  81.8965924
  62.2700736  29.4782031  82.3593676  62.9111328  30.5128067  81.4590814
  62.4220507  29.2228560  79.1580972  62.9508274  28.7121014  78.5451134
  62.6848727  28.9071090  80.0226505  52.9237600  27.2392429  86.9016306
  53.5091037  26.4936117  87.0344210  52.7262438  27.5496386  87.7852970
  55.7776255  30.2743676  81.9178748  55.1086630  30.7589804  81.4342788
  55.6389125  30.5212897  82.8322127  59.9181524  32.3087420  88.5161407
  60.4699832  32.4719041  89.2810492  60.2587717  32.8991858  87.8441431
  51.1463832  18.5362131  78.6974680  51.4417273  17.6272810  78.6441734
  50.2451868  18.5149871  78.3755683  63.0549911  30.2569395  85.5025089
  62.9301050  29.4559135  84.9936034  63.7129002  30.7515589  85.0139059
  54.6758079  16.6118128  84.6802229  53.9544665  17.2254096  84.5409702
  55.4651335  17.1475893  84.6018875  65.1184819  28.0578416  87.1304639
  64.1715155  27.9383767  87.0582966  65.4667592  27.1700914  87.2130900
  52.8751674  16.2176229  78.8214006  52.5464380  15.3373608  78.6389111
  53.2291044  16.1623898  79.7090395  62.1231253  27.8531132  83.3308991
  61.9756215  26.9247839  83.5116561  62.9484746  27.8751222  82.8466066
  55.9893497  16.5049199  79.1889483  56.3289569  17.0335120  78.4668092
  56.4365617  16.8429605  79.9648050  65.7265374  28.6759690  84.4173864
  66.6511922  28.4702552  84.2798315  65.5580678  28.4276092  85.3263205
  57.9761644  15.0023820  77.3882776  58.6970007  15.3805073  76.8846493
  57.3526948  15.7212697  77.4917754  62.1192767  15.7068969  78.3241108
  62.3356381  16.5893607  78.0229936  61.6386834  15.3155183  77.5946750
  56.8591988  18.6654683  84.9011853  56.7136569  18.9794986  85.7936134
  56.3817192  19.2839583  84.3482752  58.7188371  15.6557231  84.9492742
  58.7049940  14.7598324  84.6125040  59.4360799  15.6627894  85.5831028
  65.5160691  29.1945358  79.7735955  65.6897568  28.6291780  79.0209808
  66.0089582  29.9946253  79.5915445  58.1225267  14.5371611  80.2180313
  58.2441178  13.6088257  80.4171200  57.8327310  14.5510297  79.3058628
  66.5035863  28.5112122  76.8732854  67.1986768  29.1318815  77.0920168
  66.8459013  27.6607474  77.1485231  68.4027286  25.9611828  78.4020184
  68.9278610  26.2999101  77.6769504  68.3149639  25.0258843  78.2183319
  60.0647335  29.8745902  90.5310061  60.3734461  29.6295048  91.4032761
  60.8622817  30.0792540  90.0428931  60.0867947  32.0283811  82.7615437
  59.6472937  31.5360190  83.4548294  60.8376064  31.4856779  82.5207513
  52.5660286  28.2195352  82.7640066  53.3918306  27.9199124  82.3838709
  52.2154338  27.4502974  83.2129854  57.5341819  27.5721820  84.8337739
  56.9121828  26.9092525  84.5339967  58.2046686  27.5982952  84.1511387
  50.7668891  26.1381678  83.7228999  49.9300799  25.7103853  83.5413000
  50.7392537  26.3314122  84.6599790  57.0955326  26.1225744  78.3096200
  57.2443446  26.8061208  77.6562872  57.9021770  26.1030834  78.8245655
  54.8507959  22.1490921  79.3157269  54.6054001  21.2453251  79.5137479
  55.0203874  22.1508072  78.3736747  54.1203607  17.8819279  76.8143430
  53.4272852  17.9563634  76.1583466  53.8755359  17.1179622  77.3364947
  60.5950732  28.6173874  75.7807947  60.0224699  29.2364061  75.3278419
  61.1683525  29.1673236  76.3147869  63.8147991  28.9011024  76.9116529
  64.7478665  28.8356586  77.1149405  63.7271204  29.7367291  76.4531062
  66.4436008  28.2176895  73.8720477  66.3649640  27.8836758  74.7656235
  67.2645675  28.7098662  73.8711949  60.9797530  19.9534687  73.1224000
  61.9256635  19.8240895  73.1912418  60.6011775  19.2149349  73.5993428
  59.1640447  17.8784663  73.0578885  58.2571903  17.5817776  73.1341598
  59.4416428  17.5814481  72.1913171  50.0818388  19.1991027  83.5077931
  49.7621172  18.3456335  83.2152305  49.5351816  19.4139605  84.2635899
  53.8598295  21.9153468  87.2247438  54.0784305  22.8470575  87.2435472
  54.2724069  21.5561442  88.0102242  60.7802513  12.4221553  79.2123126
  59.9703241  12.0768638  79.5878372  61.4686930  12.1129097  79.8010738
  62.7093061  11.4999600  80.8347423  63.2624100  11.9195053  81.4937446
  62.9463148  10.5735348  80.8770379  57.9339232  14.7371598  73.1990864
  58.7958396  15.0626497  73.4586681  58.1189576  13.9503094  72.6863930
  49.9506648  22.8193938  85.4771053  49.2570119  22.4047891  84.9641007
  50.6979639  22.8614475  84.8804472  66.0871868  13.6100125  80.3426087
  65.5070537  14.2684929  79.9604139  65.8207801  12.7877469  79.9313505
  51.8643390  22.7512192  83.3537068  51.8414078  22.8499879  82.4018951
  52.1744027  23.5977343  83.6754234  54.5230768  24.8088347  87.4683682
  55.4774022  24.7772289  87.4013614  54.3243292  24.3478971  88.2833908
  55.1130150  23.3789463  90.0354480  55.9323039  23.8733542  90.0589317
  55.3866958  22.4621431  90.0072047  64.8696746  15.7700215  79.3982435
  63.9822601  16.0549866  79.1802630  65.2850735  15.6093979  78.5509712
  52.8780997  30.3507966  84.4853880  52.7435465  29.5908367  83.9191878
  52.4613059  31.0748866  84.0182669  64.0139960  25.5344890  73.4930455
  64.7175810  25.7394892  74.1088111  63.2902609  26.1021652  73.7579539
  64.8437770  21.2854751  79.6132725  64.7872972  21.7423303  78.7740358
  65.3966113  20.5245436  79.4355568  56.0350123  31.2477283  84.6972323
  55.9182507  32.1922716  84.5951013  55.2142569  30.9450845  85.0858122
  65.9226657  25.9727419  75.5428915  66.7572261  25.5408618  75.3606390
  65.7611000  25.8009433  76.4705810  65.5772549  22.4759532  76.9085255
  65.5221353  22.3103804  75.9673699  64.9518605  23.1835565  77.0647444
  58.8868675  11.9767641  76.4870573  58.8747345  12.9209481  76.6438844
  59.7792097  11.7937787  76.1930034  57.0604637  31.9005545  87.9128251
  57.9631884  31.9329156  88.2294746  56.8342007  30.9705996  87.9274587
  58.8158239  30.6536532  84.5738330  57.8653870  30.6538393  84.4602702
  59.1190725  29.9069266  84.0574364  74.5510932  36.4897070  85.6384092
  75.1889342  36.3703818  84.9347432  74.4331775  37.4377914  85.6972044
  71.3600639  36.4424498  85.5745617  71.0219150  36.3265563  84.6866152
  72.2290407  36.0415663  85.5546623  67.2187454  38.2959975  81.5642508
  66.6552319  38.2049912  80.7958796  67.1039849  37.4759879  82.0445000
  64.7651886  39.7911166  84.4026728  65.5573178  39.4501991  83.9873028
  65.0048536  39.9006141  85.3228882  72.7987013  41.9630942  76.8756973
  72.1474993  42.5485023  76.4890986  73.5931376  42.4937137  76.9352010
  66.7242640  39.0520080  77.2744107  67.4973516  38.5049067  77.1356983
  67.0768039  39.9164329  77.4858568  69.4883890  37.7573310  87.0712366
  70.0847462  37.5329333  86.3569329  69.5458861  37.0158056  87.6737814
  69.0608918  35.2112746  74.9062557  69.3134439  34.6894267  74.1446020
  68.1233477  35.0478891  75.0089241  74.1052201  34.2148524  82.7137300
  74.8915290  33.7967947  82.3627717  74.3690905  35.1194616  82.8818949
  74.2762278  39.6521374  77.4125957  73.6408111  39.7256001  78.1246862
  73.9459685  40.2414973  76.7345036  68.7805207  37.1140852  77.1086932
  68.6641465  36.4385755  77.7768016  68.8907467  36.6273226  76.2919085
  71.1236748  36.5750999  80.8133621  70.7594955  36.0481620  81.5246543
  71.9803864  36.1849468  80.6400107  70.7642235  31.6040898  75.8094970
  70.9316637  32.4721135  76.1765441  70.5739404  31.7668180  74.8856259
  73.5217568  40.0657877  87.4760800  73.2218291  40.9682916  87.3676607
  73.1768627  39.7990061  88.3281953  66.9730049  36.5171674  83.5097504
  66.0480546  36.3847888  83.7175196  67.2214463  37.2965893  84.0067447
  70.7431456  34.0598556  76.7941636  70.6231081  34.5055607  77.6327117
  70.0484044  34.4083874  76.2355175  64.3338860  36.1604948  84.3441293
  64.4631242  36.4139427  85.2580705  63.6536312  36.7532656  84.0245949
  68.5038348  46.8302198  80.4431768  68.4262377  47.7810023  80.5220248
  67.8999991  46.4848070  81.1006694  76.4416522  34.5320029  77.6221971
  77.3534378  34.7647416  77.4469668  75.9326169  35.1157073  77.0597049
  75.0486104  39.5145848  85.0135552  74.4194966  39.6791562  84.3111620
  74.6611766  39.9287457  85.7846516  78.9275336  40.4500285  82.3679916
  78.2426374  40.8299187  81.8176949  79.0119185  41.0595612  83.1011863
  70.6014066  39.2520256  82.2785637  71.0652411  39.5307959  81.4890260
  70.3370864  38.3503700  82.0958728  67.4938147  38.7991737  85.2165400
  68.0639504  39.2279006  84.5782885  68.0846259  38.5174322  85.9149586
  69.5382952  35.3743408  79.0875202  70.2406995  35.8264452  79.5549129
  69.2063580  34.7327227  79.7155095  63.2808286  33.6326961  84.3892336
  62.4907340  33.8884489  83.9132446  63.7719533  34.4475299  84.4944376
  65.2323031  33.9971540  81.3475812  64.4354195  34.1090234  81.8659308
  65.0048624  34.3358192  80.4816703  61.5645989  33.8857451  86.8207327
  61.8154027  34.7704461  87.0864903  62.1005537  33.7062053  86.0482418
  70.7776717  42.1884351  79.1637307  70.6422391  43.0335886  79.5922155
  71.3186529  42.3903628  78.4003241  64.2306114  39.7059789  79.7365233
  64.7430635  40.5003039  79.8870797  64.8828827  39.0086079  79.6698834
  66.0400999  42.8225545  81.8187986  66.2167627  43.7443510  81.6308970
  66.8357832  42.5083964  82.2482365  65.3253355  34.8690177  91.6950149
  65.2106870  33.9675434  91.9957248  64.4697873  35.1153874  91.3434965
  67.1632314  44.3403719  87.8198328  67.7139739  44.2120782  87.0475322
  66.3243790  44.6398608  87.4693221  62.1955031  38.0348443  80.5124803
  63.0330253  38.4445451  80.2958511  62.3733298  37.0947885  80.4824997
  74.0919463  35.7023524  76.2008636  73.5766086  36.4728128  76.4397023
  73.8196771  35.0288660  76.8241697  71.6766574  30.5473224  81.2593874
  70.8208170  30.1580075  81.0799513  72.0893526  30.6265185  80.3993660
  69.4508606  28.1658297  84.6651616  70.3161603  27.9701106  84.3057505
  69.5186115  27.9368649  85.5920973  79.0653737  38.4555878  78.1361809
  78.2883180  38.1167038  77.6916972  79.7445218  38.4608501  77.4616775
  73.8805766  33.5750616  78.0268417  73.5755902  33.8896765  78.8778560
  74.8336208  33.6532036  78.0695750  72.3252198  39.7340839  79.6761371
  71.7973559  38.9993599  79.3634609  71.8239701  40.5115515  79.4301339
  77.3045044  37.9289860  84.7928417  76.6468718  38.6189121  84.8808546
  78.1085443  38.3186292  85.1362404  67.0570925  30.3960505  82.0367983
  67.6314677  30.1735687  81.3041176  67.6441908  30.4649200  82.7896584
  76.1150503  36.2834232  82.8432359  76.6282384  36.9164224  83.3454069
  76.7651727  35.6835428  82.4775719  67.3840513  32.4264966  76.0563868
  66.5477825  32.7639653  76.3773143  67.2445282  32.2913946  75.1191005
  69.3593593  27.2701754  80.7643052  68.7058006  26.9550771  80.1399667
  69.3174067  26.6477495  81.4902875  70.4704798  37.5521049  72.6796344
  69.5631860  37.3210303  72.8787493  70.9675830  36.7558669  72.8670326
  73.3772877  46.2618557  75.5993030  72.7034576  46.5650253  76.2077988
  73.7638699  47.0647637  75.2498487  72.5931334  33.7583688  85.0890700
  71.6753895  33.9798635  84.9312388  73.0091477  33.8329998  84.2302407
  73.3766381  35.1575103  80.2193380  74.1238200  35.6696501  79.9100502
  73.6457971  34.8359156  81.0797774  71.6493032  37.6533644  77.2020334
  70.7404251  37.3692677  77.2992804  71.6788115  38.0732723  76.3423641
  76.8812299  41.2640234  80.9711502  76.4274626  40.4231144  81.0276692
  76.2506266  41.9001632  81.3086282  75.8245218  32.1932220  82.2012169
  75.0867975  31.6809606  82.5322412  76.0771992  31.7532601  81.3895446
  75.3245238  43.1016730  81.9061320  75.6168213  43.6621788  81.1873686
  75.8343859  43.3945291  82.6614479  62.2181202  35.3739158  81.1835536
  62.0205602  34.7808519  80.4586603  61.6627866  35.0691369  81.9011475
  70.1977926  35.2662265  83.3030130  70.2526535  34.3136101  83.2272606
  69.3869128  35.4221704  83.7871428  71.3469119  39.1942388  74.5408413
  70.9088549  38.4778247  74.0814050  72.0879560  39.4218503  73.9793504
  68.1370285  33.8839325  81.0620508  67.3238151  34.1833495  81.4685701
  68.6329280  33.4895013  81.7794991  70.2878863  43.8797081  82.9954773
  70.2455042  44.1057928  82.0663305  71.2041562  43.6460456  83.1440574
  79.4642234  37.4699585  80.5984731  79.3260133  37.6601181  79.6705921
  79.1078453  38.2318968  81.0552783  67.6284360  31.4557680  86.6781743
  68.2683740  31.3146439  85.9804707  66.7961891  31.1692193  86.3020345
  68.4044664  40.7560110  82.7916736  69.1985263  40.2610431  82.5899311
  67.6936357  40.2277974  82.4284441  64.7127428  34.9003192  78.8676489
  63.7825016  34.8387648  79.0846451  64.8084900  34.3779145  78.0713130
  64.6312977  31.4258005  81.4554730  64.8919794  32.3403338  81.3463891
  65.4530149  30.9582448  81.6051343  66.1037902  32.8395762  88.6253555
  66.7760955  32.6313124  87.9766204  65.2767689  32.6417848  88.1858787
  72.1827608  37.3038468  88.7016035  73.1119668  37.4549628  88.5285003
  71.7618638  37.3922489  87.8464682  70.9815940  41.3289132  86.4714573
  70.8427026  40.9607917  87.3440511  70.1930536  41.8436772  86.2998531
  71.5764092  46.4298229  77.8140110  71.7515848  45.9586272  78.6285732
  70.8896880  47.0563995  78.0421370  72.5321155  40.7070735  83.8603411
  72.1970988  40.6671505  84.7561061  72.0325101  40.0415451  83.3873821
  66.5065399  36.1138365  89.3855992  66.3685197  35.3818604  89.9867531
  67.4170323  36.0247265  89.1040180  75.4680347  38.0526770  74.1340470
  74.8509518  37.3273598  74.0373523  74.9996835  38.8136130  73.7907545
  69.1347700  35.8258325  88.8739672  69.8447318  35.1851517  88.8326290
  69.0917008  36.0771219  89.7965852  66.1425177  49.5787592  84.5879970
  66.3821776  50.2106116  85.2658988  65.2994374  49.2275632  84.8745329
  67.2578893  32.2712194  73.2561775  66.3808359  32.1500995  72.8924021
  67.7336646  31.4798272  73.0040663  58.7781033  37.0589354  83.3503282
  59.4652073  36.7451084  82.7624297  58.6229162  37.9630718  83.0770533
  63.5815755  31.9479550  87.7788306  63.4973944  31.3405220  87.0438715
  62.7598462  32.4388568  87.7797802  70.4442819  44.6238484  80.5024295
  69.6610341  45.1660164  80.5962520  71.1435564  45.1412464  80.9018536
  73.7539469  30.4333114  83.1458501  74.2508169  29.6803076  82.8259571
  72.9826450  30.4697430  82.5801710  74.8369250  39.1904801  80.7196924
  73.9025528  39.3106263  80.5501628  75.0145918  38.2877268  80.4556934
  70.3374438  32.5750497  82.8730185  69.9672225  32.0221537  83.5611091
  70.8333530  31.9708630  82.3205185  78.2241801  35.0322120  81.2546958
  78.6902253  35.8650112  81.1807261  78.6749302  34.5667102  81.9592217
  76.2918032  41.3765941  78.2533110  76.5677876  41.2622536  79.1626984
  75.4222531  40.9783426  78.2145283  72.9272096  45.6252292  81.8965924
  73.1094491  44.8073948  82.3593676  73.7505082  45.8419985  81.4590814
  73.2614262  44.5520477  79.1580972  73.7902028  44.0412932  78.5451134
  73.5242481  44.2363008  80.0226505  63.7631354  42.5684347  86.9016306
  64.3484791  41.8228035  87.0344210  63.5656193  42.8788303  87.7852970
  66.6170010  45.6035594  81.9178748  65.9480385  46.0881722  81.4342788
  66.4782879  45.8504815  82.8322127  58.3549009  35.1389947  85.6220749
  58.3933109  34.6053538  86.4157867  57.8489302  34.6125152  85.0031726
  65.7339771  29.9854487  89.1183291  65.7981098  30.8469318  88.7060689
  65.6706892  29.3728489  88.3855650  61.9857587  33.8654049  78.6974680
  62.2811028  32.9564727  78.6441734  61.0845622  33.8441789  78.3755683
  73.8943665  45.5861313  85.5025089  73.7694805  44.7851053  84.9936034
  74.5522757  46.0807507  85.0139059  65.5151834  31.9410046  84.6802229
  64.7938419  32.5546013  84.5409702  66.3045089  32.4767810  84.6018875
  63.7145428  31.5468147  78.8214006  63.3858134  30.6665526  78.6389111
  64.0684799  31.4915815  79.7090395  72.9625007  43.1823049  83.3308991
  72.8149970  42.2539757  83.5116561  73.7878501  43.2043140  82.8466066
  66.8287251  31.8341117  79.1889483  67.1683324  32.3627038  78.4668092
  67.2759372  32.1721523  79.9648050  76.5659129  44.0051608  84.4173864
  77.4905676  43.7994470  84.2798315  76.3974432  43.7568009  85.3263205
  68.8155399  30.3315738  77.3882776  69.5363761  30.7096991  76.8846493
  68.1920703  31.0504615  77.4917754  72.9586521  31.0360887  78.3241108
  73.1750136  31.9185525  78.0229936  72.4780589  30.6447101  77.5946750
  67.6985743  33.9946600  84.9011853  67.5530324  34.3086903  85.7936134
  67.2210946  34.6131501  84.3482752  69.5582126  30.9849148  84.9492742
  69.5443694  30.0890242  84.6125040  70.2754554  30.9919812  85.5831028
  76.3554445  44.5237276  79.7735955  76.5291323  43.9583698  79.0209808
  76.8483336  45.3238171  79.5915445  62.1731405  36.5351945  87.8399514
  61.6284873  37.3111753  87.9719788  63.0510755  36.8822749  87.6818636
  68.9619022  29.8663529  80.2180313  69.0834933  28.9380175  80.4171200
  68.6721064  29.8802215  79.3058628  77.3429618  43.8404040  76.8732854
  78.0380522  44.4610733  77.0920168  77.6852768  42.9899391  77.1485231
  62.9597427  35.6621841  90.7329671  62.2179163  35.8104476  91.3194301
  62.6390171  35.9230107  89.8696420  79.2421041  41.2903746  78.4020184
  79.7672365  41.6291018  77.6769504  79.1543393  40.3550761  78.2183319
  70.9261702  47.3575729  82.7615437  70.4866692  46.8652108  83.4548294
  71.6769818  46.8148697  82.5207513  63.4054041  43.5487270  82.7640066
  64.2312060  43.2491042  82.3838709  63.0548093  42.7794892  83.2129854
  68.3735574  42.9013738  84.8337739  67.7515583  42.2384443  84.5339967
  69.0440441  42.9274870  84.1511387  61.6062646  41.4673596  83.7228999
  60.7694554  41.0395771  83.5413000  61.5786291  41.6606040  84.6599790
  67.9349081  41.4517661  78.3096200  68.0837201  42.1353126  77.6562872
  68.7415524  41.4322751  78.8245655  65.6901714  37.4782839  79.3157269
  65.4447756  36.5745169  79.5137479  65.8597628  37.4799989  78.3736747
  64.9597361  33.2111196  76.8143430  64.2666606  33.2855551  76.1583466
  64.7149113  32.4471540  77.3364947  71.4344486  43.9465792  75.7807947
  70.8618453  44.5655979  75.3278419  72.0077280  44.4965153  76.3147869
  74.6541746  44.2302942  76.9116529  75.5872419  44.1648504  77.1149405
  74.5664959  45.0659209  76.4531062  77.2829763  43.5468812  73.8720477
  77.2043394  43.2128676  74.7656235  78.1039429  44.0390580  73.8711949
  71.8191285  35.2826604  73.1224000  72.7650389  35.1532813  73.1912418
  71.4405530  34.5441266  73.5993428  70.0034202  33.2076581  73.0578885
  69.0965657  32.9109694  73.1341598  70.2810183  32.9106399  72.1913171
  60.9212142  34.5282944  83.5077931  60.6014927  33.6748252  83.2152305
  60.3745570  34.7431522  84.2635899  64.6992050  37.2445385  87.2247438
  64.9178059  38.1762493  87.2435472  65.1117824  36.8853360  88.0102242
  71.6196268  27.7513471  79.2123126  70.8096996  27.4060556  79.5878372
  72.3080684  27.4421014  79.8010738  73.5486816  26.8291517  80.8347423
  74.1017854  27.2486971  81.4937446  73.7856902  25.9027265  80.8770379
  68.7732986  30.0663516  73.1990864  69.6352150  30.3918414  73.4586681
  68.9583331  29.2795012  72.6863930  60.7900402  38.1485856  85.4771053
  60.0963874  37.7339809  84.9641007  61.5373393  38.1906392  84.8804472
  76.9265623  28.9392043  80.3426087  76.3464292  29.5976847  79.9604139
  76.6601556  28.1169387  79.9313505  62.7037145  38.0804110  83.3537068
  62.6807833  38.1791797  82.4018951  63.0137781  38.9269260  83.6754234
  65.3624523  40.1380265  87.4683682  66.3167776  40.1064207  87.4013614
  65.1637046  39.6770888  88.2833908  65.9523905  38.7081381  90.0354480
  66.7716794  39.2025459  90.0589317  66.2260712  37.7913349  90.0072047
  75.7090501  31.0992133  79.3982435  74.8216356  31.3841784  79.1802630
  76.1244490  30.9385896  78.5509712  63.7174751  45.6799884  84.4853880
  63.5829219  44.9200285  83.9191878  63.3006814  46.4040784  84.0182669
  74.8533714  40.8636808  73.4930455  75.5569564  41.0686810  74.1088111
  74.1296363  41.4313569  73.7579539  66.8743877  46.5769201  84.6972323
  66.7576261  47.5214634  84.5951013  66.0536323  46.2742763  85.0858122
  76.7620412  41.3019337  75.5428915  77.5966016  40.8700535  75.3606390
  76.6004755  41.1301350  76.4705810  76.4166304  37.8051450  76.9085255
  76.3615108  37.6395722  75.9673699  75.7912359  38.5127483  77.0647444
  61.2058819  33.0419514  90.7346677  61.8517683  32.5318468  91.2233902
  60.9975970  33.7788196  91.3090102  69.7262429  27.3059559  76.4870573
  69.7141099  28.2501399  76.6438844  70.6185851  27.1229705  76.1930034
  69.6551993  45.9828450  84.5738330  68.7047624  45.9830311  84.4602702
  69.9584480  45.2361184  84.0574364  77.5636395  54.3811997  77.2744107
  78.3367271  53.8340984  77.1356983  77.9161794  55.2456247  77.4858568
  79.9002673  50.5404663  74.9062557  80.1528193  50.0186185  74.1446020
  78.9627232  50.3770809  75.0089241  79.6198961  52.4432769  77.1086932
  79.5035219  51.7677673  77.7768016  79.7301221  51.9565143  76.2919085
  81.6035989  46.9332816  75.8094970  81.7710392  47.8013053  76.1765441
  81.4133158  47.0960098  74.8856259  81.5825210  49.3890474  76.7941636
  81.4624835  49.8347524  77.6327117  80.8877798  49.7375791  76.2355175
  76.0716786  49.3263458  81.3475812  75.2747949  49.4382152  81.8659308
  75.8442378  49.6650110  80.4816703  73.0348785  53.3640361  80.5124803
  73.8724007  53.7737369  80.2958511  73.2127053  52.4239803  80.4824997
  84.9313217  51.0315441  76.2008636  84.4159841  51.8020046  76.4397023
  84.6590526  50.3580578  76.8241697  82.5160328  45.8765142  81.2593874
  81.6601925  45.4871993  81.0799513  82.9287280  45.9557103  80.3993660
  84.7199521  48.9042533  78.0268417  84.4149656  49.2188683  78.8778560
  85.6729963  48.9823953  78.0695750  77.8964680  45.7252423  82.0367983
  78.4708432  45.5027605  81.3041176  78.4835662  45.7941118  82.7896584
  78.2234267  47.7556884  76.0563868  77.3871579  48.0931571  76.3773143
  78.0839037  47.6205864  75.1191005  80.1987348  42.5993672  80.7643052
  79.5451760  42.2842689  80.1399667  80.1567822  41.9769412  81.4902875
  81.3098553  52.8812967  72.6796344  80.4025614  52.6502220  72.8787493
  81.8069585  52.0850586  72.8670326  82.4886786  52.9825562  77.2020334
  81.5798005  52.6984595  77.2992804  82.5181870  53.4024640  76.3423641
  73.0574956  50.7031076  81.1835536  72.8599356  50.1100437  80.4586603
  72.5021620  50.3983286  81.9011475  82.1862874  54.5234306  74.5408413
  81.7482304  53.8070164  74.0814050  82.9273315  54.7510420  73.9793504
  75.5521182  50.2295110  78.8676489  74.6218770  50.1679565  79.0846451
  75.6478654  49.7071063  78.0713130  75.4706731  46.7549923  81.4554730
  75.7313548  47.6695256  81.3463891  76.2923903  46.2874365  81.6051343
  86.3074101  53.3818687  74.1340470  85.6903272  52.6565515  74.0373523
  85.8390590  54.1428047  73.7907545  78.0972647  47.6004112  73.2561775
  77.2202114  47.4792912  72.8924021  78.5730400  46.8090190  73.0040663
  72.8251341  49.1945967  78.6974680  73.1204782  48.2856645  78.6441734
  71.9239377  49.1733706  78.3755683  74.5539183  46.8760064  78.8214006
  74.2251889  45.9957443  78.6389111  74.9078553  46.8207733  79.7090395
  77.6681006  47.1633034  79.1889483  78.0077078  47.6918955  78.4668092
  78.1153126  47.5013440  79.9648050  79.6549153  45.6607656  77.3882776
  80.3757516  46.0388909  76.8846493  79.0314457  46.3796533  77.4917754
  83.7980276  46.3652805  78.3241108  84.0143890  47.2477443  78.0229936
  83.3174343  45.9739018  77.5946750  79.8012776  45.1955446  80.2180313
  79.9228687  44.2672092  80.4171200  79.5114818  45.2094132  79.3058628
  76.5295468  52.8074757  79.3157269  76.2841510  51.9037087  79.5137479
  76.6991383  52.8091907  78.3736747  75.7991116  48.5403114  76.8143430
  75.1060361  48.6147469  76.1583466  75.5542868  47.7763458  77.3364947
  82.6585039  50.6118522  73.1224000  83.6044144  50.4824730  73.1912418
  82.2799284  49.8733184  73.5993428  80.8427956  48.5368499  73.0578885
  79.9359412  48.2401611  73.1341598  81.1203937  48.2398317  72.1913171
  82.4590022  43.0805388  79.2123126  81.6490750  42.7352473  79.5878372
  83.1474439  42.7712932  79.8010738  84.3880570  42.1583435  80.8347423
  84.9411609  42.5778888  81.4937446  84.6250657  41.2319183  80.8770379
  79.6126741  45.3955434  73.1990864  80.4745905  45.7210332  73.4586681
  79.7977085  44.6086930  72.6863930  87.7659377  44.2683960  80.3426087
  87.1858046  44.9268764  79.9604139  87.4995310  43.4461305  79.9313505
  86.5484255  46.4284051  79.3982435  85.6610110  46.7133701  79.1802630
  86.9638244  46.2677814  78.5509712  85.6927469  56.1928725  73.4930455
  86.3963319  56.3978728  74.1088111  84.9690118  56.7605487  73.7579539
  80.5656184  42.6351477  76.4870573  80.5534854  43.5793317  76.6438844
  81.4579606  42.4521622  76.1930034  57.6644594   8.5072403  67.1677074
  57.5868624   9.4580228  67.2465555  57.0606238   8.1618275  67.8252001
  59.9382963   3.8654556  65.8882614  59.8028638   4.7106091  66.3167462
  60.4792776   4.0673833  65.1248548  55.2007245   4.4995750  68.5433292
  55.3773874   5.4213715  68.3554276  55.9964079   4.1854169  68.9727672
  56.3238561   6.0173924  74.5443635  56.8745986   5.8890987  73.7720629
  55.4850037   6.3168813  74.1938527  62.5379124   7.9388761  62.3238337
  61.8640822   8.2420458  62.9323295  62.9244946   8.7417842  61.9743794
  64.4851485   4.7786935  68.6306627  64.7774459   5.3391992  67.9118992
  64.9950106   5.0715496  69.3859786  59.4485110   5.5567286  69.7200080
  59.4061289   5.7828133  68.7908612  60.3647809   5.3230661  69.8685881
  62.3845755   4.8148411  73.8674410  62.4382778   5.3839347  74.6352126
  61.5160537   4.9850296  73.5028447  60.7370339   8.1068434  64.5385416
  60.9122095   7.6356477  65.3531039  60.0503127   8.7334200  64.7666677
  55.3031424  11.2557797  71.3125276  55.5428022  11.8876321  71.9904295
  54.4600621  10.9045837  71.5990636  59.8159286   7.0636919  73.7166780
  59.7429457   7.8691891  74.2286085  59.3736679   7.2628885  72.8914802
  59.6049066   6.3008689  67.2269602  58.8216588   6.8430369  67.3207826
  60.3041811   6.8182669  67.6263843  62.2757970   6.9623753  75.8724939
  62.9885942   7.5971218  75.8000840  61.7847998   7.0587619  75.0564941
  57.3269883   4.7118197  76.6930510  58.0279343   5.3454680  76.8459904
  56.8564998   5.0532928  75.9326149  62.0878343   7.3022497  68.6211230
  62.2700737   6.4844153  69.0838983  62.9111329   7.5190189  68.1836120
  62.4220508   6.2290682  65.8826279  62.9508275   5.7183137  65.2696441
  62.6848728   5.9133213  66.7471812  52.9237601   4.2454552  73.6261612
  53.5091038   3.4998240  73.7589517  52.7262440   4.5558508  74.5098276
  55.7776256   7.2805799  68.6424055  55.1086632   7.7651927  68.1588095
  55.6389126   7.5275019  69.5567433  59.9181525   9.3149543  75.2406713
  60.4699833   9.4781164  76.0055798  60.2587718   9.9053980  74.5686738
  63.0549912   7.2631518  72.2270395  62.9301052   6.4621258  71.7181341
  63.7129003   7.7577711  71.7384365  62.1231254   4.8593254  70.0554298
  61.9756216   3.9309962  70.2361868  62.9484747   4.8813345  69.5711373
  65.7265376   5.6821813  71.1419170  66.6511923   5.4764674  71.0043622
  65.5580679   5.4338214  72.0508512  65.5160692   6.2007481  66.4981262
  65.6897569   5.6353903  65.7455114  66.0089583   7.0008375  66.3160752
  60.0647336   6.8808024  77.2555368  60.3734463   6.6357171  78.1278067
  60.8622818   7.0854663  76.7674238  60.0867948   9.0345934  69.4860744
  59.6472939   8.5422312  70.1793601  60.8376065   8.4918901  69.2452819
  52.5660287   5.2257475  69.4885372  53.3918307   4.9261246  69.1084016
  52.2154339   4.4565097  69.9375161  57.5341820   4.5783943  71.5583046
  56.9121830   3.9154648  71.2585274  58.2046687   4.6045075  70.8756694
  50.7668892   3.1443801  70.4474306  49.9300801   2.7165975  70.2658307
  50.7392538   3.3376244  71.3845097  57.0955327   3.1287866  65.0341506
  57.2443448   3.8123331  64.3808179  57.9021771   3.1092956  65.5490962
  60.5950733   5.6235997  62.5053254  60.0224700   6.2426184  62.0523726
  61.1683527   6.1735358  63.0393176  63.8147993   5.9073147  63.6361836
  64.7478666   5.8418708  63.8394712  63.7271206   6.7429414  63.1776369
  49.9506649  -0.1743939  72.2016359  49.2570120  -0.5889987  71.6886314
  50.6979640  -0.1323403  71.6049778  54.5230769   1.8150469  74.1928989
  55.4774023   1.7834412  74.1258920  54.3243293   1.3541093  75.0079215
  52.8780998   7.3570089  71.2099187  52.7435466   6.5970490  70.6437185
  52.4613060   8.0810989  70.7427976  56.0350124   8.2539406  71.4217629
  55.9182508   9.1984838  71.3196320  55.2142570   7.9512968  71.8103428
  57.0604638   8.9067668  74.6373558  57.9631885   8.9391278  74.9540053
  56.8342008   7.9768119  74.6519894  58.8158240   7.6598654  71.2983636
  57.8653871   7.6600516  71.1848009  59.1190726   6.9131389  70.7819671
  74.5510934  13.4959193  72.3629399  75.1889344  13.3765940  71.6592739
  74.4331777  14.4440037  72.4217351  71.3600640  13.4486621  72.2990923
  71.0219151  13.3327686  71.4111458  72.2290408  13.0477786  72.2791930
  67.2187456  15.3022097  68.2887814  66.6552321  15.2112034  67.5204102
  67.1039851  14.4822002  68.7690307  64.7651888  16.7973289  71.1272035
  65.5573179  16.4564114  70.7118334  65.0048538  16.9068264  72.0474188
  72.7987014  18.9693065  63.6002279  72.1474994  19.5547145  63.2136293
  73.5931377  19.4999260  63.6597317  66.7242641  16.0582202  63.9989414
  67.4973517  15.5111189  63.8602289  67.0768040  16.9226452  64.2103875
  68.5627684  17.3858584  77.2056313  68.2717550  18.2904215  77.0902979
  69.1984668  17.4275112  77.9200383  69.4883891  14.7635433  73.7957673
  70.0847463  14.5391455  73.0814636  69.5458862  14.0220178  74.3983120
  69.0608919  12.2174868  61.6307864  69.3134440  11.6956390  60.8691327
  68.1233478  12.0541014  61.7334547  74.1052202  11.2210647  69.4382607
  74.8915291  10.8030070  69.0873024  74.3690906  12.1256739  69.6064255
  74.2762279  16.6583497  64.1371264  73.6408112  16.7318123  64.8492168
  73.9459686  17.2477096  63.4590343  68.7805208  14.1202974  63.8332239
  68.6641466  13.4447878  64.5013323  68.8907468  13.6335348  63.0164392
  71.1236749  13.5813121  67.5378928  70.7594956  13.0543742  68.2491849
  71.9803865  13.1911590  67.3645413  70.7642236   8.6103021  62.5340276
  70.9316638   9.4783257  62.9010747  70.5739405   8.7730303  61.6101566
  73.5217569  17.0720000  74.2006107  73.2218292  17.9745039  74.0921914
  73.1768629  16.8052183  75.0527260  66.9730051  13.5233797  70.2342811
  66.0480547  13.3910011  70.4420503  67.2214464  14.3028016  70.7312753
  70.7431457  11.0660679  63.5186943  70.6231082  11.5117729  64.3572423
  70.0484045  11.4145996  62.9600481  64.3338862  13.1667070  71.0686600
  64.4631243  13.4201549  71.9826012  63.6536313  13.7594778  70.7491255
  68.5038349  23.8364320  67.1677074  68.4262379  24.7872145  67.2465555
  67.8999993  23.4910193  67.8252001  76.4416523  11.5382152  64.3467277
  77.3534379  11.7709538  64.1714975  75.9326170  12.1219196  63.7842356
  75.0486105  16.5207970  71.7380859  74.4194968  16.6853684  71.0356926
  74.6611767  16.9349580  72.5091823  78.9275337  17.4562408  69.0925222
  78.2426375  17.8361309  68.5422256  79.0119186  18.0657735  69.8257170
  70.6014067  16.2582378  69.0030944  71.0652413  16.5370081  68.2135566
  70.3370865  15.3565823  68.8204034  67.4938148  15.8053860  71.9410707
  68.0639505  16.2341128  71.3028191  68.0846260  15.5236445  72.6394893
  69.5382953  12.3805531  65.8120509  70.2406997  12.8326574  66.2794435
  69.2063582  11.7389350  66.4400402  63.2808287  10.6389083  71.1137642
  62.4907341  10.8946612  70.6377753  63.7719535  11.4537421  71.2189683
  65.2323033  11.0033663  68.0721119  64.4354196  11.1152357  68.5904615
  65.0048625  11.3420315  67.2062010  71.0628700  17.5278366  76.0203634
  71.1273133  17.9898773  76.8561806  70.3539624  16.8975731  76.1485944
  61.5645990  10.8919574  73.5452633  61.8154029  11.7766584  73.8110209
  62.1005539  10.7124175  72.7727725  70.7776718  19.1946473  65.8882614
  70.6422393  20.0398009  66.3167462  71.3186530  19.3965751  65.1248548
  64.2306115  16.7121911  66.4610539  64.7430636  17.5065162  66.6116104
  64.8828828  16.0148202  66.3944141  66.0401000  19.8287668  68.5433292
  66.2167628  20.7505632  68.3554276  66.8357833  19.5146087  68.9727672
  65.3253356  11.8752299  78.4195456  65.2106872  10.9737557  78.7202554
  64.4697874  12.1215996  78.0680272  67.1632315  21.3465841  74.5443635
  67.7139741  21.2182905  73.7720629  66.3243791  21.6460730  74.1938527
  62.1955032  15.0410566  67.2370110  63.0330254  15.4507574  67.0203817
  62.3733300  14.1010008  67.2070304  74.0919464  12.7085646  62.9253943
  73.5766088  13.4790251  63.1642330  73.8196773  12.0350782  63.5487004
  71.6766575   7.5535347  67.9839181  70.8208172   7.1642197  67.8044820
  72.0893527   7.6327308  67.1238967  79.0653738  15.4618001  64.8607116
  78.2883181  15.1229160  64.4162278  79.7445219  15.4670624  64.1862081
  73.8805767  10.5812738  64.7513724  73.5755903  10.8958888  65.6023867
  74.8336209  10.6594158  64.7941057  72.3252199  16.7402962  66.4006678
  71.7973561  16.0055721  66.0879915  71.8239702  17.5177638  66.1546646
  77.3045045  14.9351982  71.5173724  76.6468720  15.6251244  71.6053853
  78.1085444  15.3248414  71.8607710  67.0570927   7.4022628  68.7613289
  67.6314679   7.1797809  68.0286482  67.6441909   7.4711322  69.5141891
  76.1150504  13.2896355  69.5677666  76.6282386  13.9226347  70.0699376
  76.7651728  12.6897550  69.2021026  67.3840514   9.4327089  62.7809175
  66.5477826   9.7701776  63.1018449  67.2445284   9.2976069  61.8436312
  70.4704799  14.5583172  59.4041651  69.5631861  14.3272425  59.6032800
  70.9675831  13.7620791  59.5915632  73.3772878  23.2680679  62.3238337
  72.7034577  23.5712376  62.9323295  73.7638700  24.0709759  61.9743794
  72.5931335  10.7645810  71.8136006  71.6753896  10.9860757  71.6557694
  73.0091478  10.8392121  70.9547714  73.3766383  12.1637226  66.9438687
  74.1238202  12.6758623  66.6345809  73.6457972  11.8421279  67.8043080
  71.6493033  14.6595767  63.9265641  70.7404252  14.3754800  64.0238111
  71.6788117  15.0794845  63.0668948  76.8812300  18.2702356  67.6956808
  76.4274627  17.4293266  67.7521999  76.2506267  18.9063755  68.0331589
  75.3245239  20.1078853  68.6306627  75.6168214  20.6683910  67.9118992
  75.8343860  20.4007414  69.3859786  62.2181203  12.3801281  67.9080843
  62.0205603  11.7870642  67.1831910  61.6627867  12.0753491  68.6256782
  70.1977927  12.2724387  70.0275436  70.2526537  11.3198224  69.9517913
  69.3869129  12.4283827  70.5116735  71.3469121  16.2004510  61.2653719
  70.9088550  15.4840369  60.8059357  72.0879561  16.4280625  60.7038811
  68.1370287  10.8901447  67.7865815  67.3238152  11.1895618  68.1931007
  68.6329281  10.4957136  68.5040297  70.2878865  20.8859204  69.7200080
  70.2455043  21.1120050  68.7908612  71.2041563  20.6522579  69.8685881
  79.4642235  14.4761708  67.3230038  79.3260134  14.6663303  66.3951227
  79.1078454  15.2381090  67.7798089  67.6284361   8.4619803  73.4027050
  68.2683741   8.3208562  72.7050013  66.7961892   8.1754316  73.0265652
  68.4044665  17.7622233  69.5162043  69.1985264  17.2672553  69.3144618
  67.6936358  17.2340096  69.1529748  73.2239510  20.1440329  73.8674410
  73.2776532  20.7131265  74.6352126  72.3554291  20.3142214  73.5028447
  64.7127429  11.9065315  65.5921795  63.7825017  11.8449770  65.8091757
  64.8084901  11.3841268  64.7958436  64.6312978   8.4320128  68.1800037
  64.8919795   9.3465461  68.0709197  65.4530150   7.9644570  68.3296650
  66.1037903   9.8457885  75.3498861  66.7760957   9.6375247  74.7011510
  65.2767690   9.6479971  74.9104094  72.1827610  14.3100591  75.4261342
  73.1119670  14.4611750  75.2530309  71.7618640  14.3984611  74.5709989
  70.9815941  18.3351255  73.1959880  70.8427027  17.9670039  74.0685818
  70.1930538  18.8498895  73.0243837  71.5764093  23.4360352  64.5385416
  71.7515849  22.9648395  65.3531039  70.8896881  24.0626118  64.7666677
  72.5321157  17.7132858  70.5848717  72.1970989  17.6733628  71.4806367
  72.0325102  17.0477574  70.1119128  66.5065400  13.1200488  76.1101299
  66.3685198  12.3880727  76.7112838  67.4170324  13.0309388  75.8285486
  75.4680348  15.0588892  60.8585777  74.8509519  14.3335720  60.7618830
  74.9996837  15.8198252  60.5152851  69.1347701  12.8320447  75.5984978
  69.8447320  12.1913639  75.5571597  69.0917009  13.0833342  76.5211159
  66.1425179  26.5849714  71.3125276  66.3821777  27.2168238  71.9904295
  65.2994375  26.2337754  71.5990636  67.2578894   9.2774316  59.9807081
  66.3808360   9.1563117  59.6169328  67.7336647   8.4860395  59.7285970
  58.7781034  14.0651476  70.0748588  59.4652074  13.7513206  69.4869604
  58.6229163  14.9692841  69.8015840  63.5815756   8.9541673  74.5033612
  63.4973945   8.3467342  73.7684022  62.7598463   9.4450691  74.5043109
  70.6553041  22.3928837  73.7166780  70.5823212  23.1983808  74.2286085
  70.2130434  22.5920803  72.8914802  70.4442820  21.6300607  67.2269602
  69.6610342  22.1722287  67.3207826  71.1435565  22.1474586  67.6263843
  73.1151724  22.2915671  75.8724939  73.8279696  22.9263136  75.8000840
  72.6241753  22.3879537  75.0564941  74.8369251  16.1966923  67.4442231
  73.9025530  16.3168386  67.2746935  75.0145919  15.2939390  67.1802240
  70.3374439   9.5812619  69.5975492  69.9672227   9.0283660  70.2856397
  70.8333531   8.9770753  69.0450492  78.2241802  12.0384243  67.9792265
  78.6902254  12.8712234  67.9052567  78.6749303  11.5729224  68.6837523
  68.1663638  20.0410114  76.6930510  68.8673097  20.6746597  76.8459904
  67.6958753  20.3824846  75.9326149  76.2918033  18.3828064  64.9778417
  76.5677877  18.2684659  65.8872291  75.4222532  17.9845549  64.9390590
  72.9272097  22.6314415  68.6211230  73.1094492  21.8136071  69.0838983
  73.7505083  22.8482107  68.1836120  73.2614263  21.5582600  65.8826279
  73.7902029  21.0475055  65.2696441  73.5242482  21.2425130  66.7471812
  63.7631356  19.5746469  73.6261612  64.3484792  18.8290157  73.7589517
  63.5656194  19.8850426  74.5098276  66.6170011  22.6097717  68.6424055
  65.9480386  23.0943844  68.1588095  66.4782881  22.8566937  69.5567433
  58.3549010  12.1452070  72.3466056  58.3933110  11.6115660  73.1403174
  57.8489303  11.6187275  71.7277033  70.7575279  24.6441460  75.2406713
  71.3093587  24.8073082  76.0055798  71.0981473  25.2345898  74.5686738
  65.7339773   6.9916610  75.8428598  65.7981099   7.8531441  75.4305996
  65.6706893   6.3790612  75.1100956  61.9857588  10.8716172  65.4219987
  62.2811029   9.9626850  65.3687041  61.0845624  10.8503911  65.1000989
  73.8943667  22.5923436  72.2270395  73.7694806  21.7913176  71.7181341
  74.5522758  23.0869629  71.7384365  65.5151835   8.9472168  71.4047536
  64.7938421   9.5608136  71.2655009  66.3045091   9.4829933  71.3264182
  75.9578575  20.3932456  73.8549945  75.0108911  20.2737807  73.7828272
  76.3061348  19.5054954  73.9376207  63.7145430   8.5530269  65.5459312
  63.3858136   7.6727648  65.3634418  64.0684800   8.4977938  66.4335701
  72.9625008  20.1885172  70.0554298  72.8149971  19.2601879  70.2361868
  73.7878502  20.2105263  69.5711373  66.8287253   8.8403239  65.9134790
  67.1683325   9.3689160  65.1913398  67.2759373   9.1783645  66.6893356
  76.5659130  21.0113731  71.1419170  77.4905678  20.8056592  71.0043622
  76.3974434  20.7630132  72.0508512  68.8155400   7.3377861  64.1128083
  69.5363762   7.7159114  63.6091799  68.1920704   8.0566738  64.2163061
  72.9586523   8.0423010  65.0486415  73.1750137   8.9247648  64.7475243
  72.4780590   7.6509223  64.3192057  67.6985744  11.0008723  71.6257160
  67.5530325  11.3149026  72.5181441  67.2210948  11.6193623  71.0728058
  69.5582127   7.9911271  71.6738049  69.5443696   7.0952364  71.3370347
  70.2754555   7.9981935  72.3076335  76.3554446  21.5299398  66.4981262
  76.5291324  20.9645821  65.7455114  76.8483338  22.3300293  66.3160752
  62.1731406  13.5414067  74.5644821  61.6284874  14.3173875  74.6965095
  63.0510756  13.8884872  74.4063942  77.3429619  20.8466163  63.5978160
  78.0380524  21.4672855  63.8165475  77.6852769  19.9961514  63.8730538
  62.9597428  12.6683964  77.4574978  62.2179164  12.8166599  78.0439608
  62.6390172  12.9292229  76.5941727  79.2421042  18.2965868  65.1265491
  79.7672366  18.6353141  64.4014811  79.1543395  17.3612883  64.9428626
  70.9041091  22.2099942  77.2555368  71.2128217  21.9649089  78.1278067
  71.7016573  22.4146580  76.7674238  70.9261703  24.3637851  69.4860744
  70.4866693  23.8714230  70.1793601  71.6769820  23.8210819  69.2452819
  63.4054042  20.5549392  69.4885372  64.2312062  20.2553164  69.1084016
  63.0548094  19.7857015  69.9375161  68.3735575  19.9075861  71.5583046
  67.7515584  19.2446566  71.2585274  69.0440442  19.9336992  70.8756694
  61.6062647  18.4735719  70.4474306  60.7694555  18.0457893  70.2658307
  61.5786292  18.6668162  71.3845097  67.9349082  18.4579784  65.0341506
  68.0837202  19.1415248  64.3808179  68.7415525  18.4384874  65.5490962
  65.6901715  14.4844961  66.0402575  65.4447757  13.5807291  66.2382785
  65.8597629  14.4862112  65.0982053  64.9597362  10.2173319  63.5388737
  64.2666607  10.2917674  62.8828773  64.7149114   9.4533663  64.0610254
  71.4344487  20.9527914  62.5053254  70.8618454  21.5718101  62.0523726
  72.0077281  21.5027276  63.0393176  74.6541747  21.2365064  63.6361836
  75.5872420  21.1710626  63.8394712  74.5664960  22.0721331  63.1776369
  77.2829764  20.5530935  60.5965784  77.2043395  20.2190798  61.4901542
  78.1039431  21.0452703  60.5957256  71.8191286  12.2888727  59.8469306
  72.7650391  12.1594935  59.9157724  71.4405531  11.5503389  60.3238734
  70.0034203  10.2138703  59.7824192  69.0965658   9.9171816  59.8586905
  70.2810184   9.9168522  58.9158478  60.9212143  11.5345067  70.2323238
  60.6014928  10.6810375  69.9397612  60.3745572  11.7493645  70.9881205
  64.6992051  14.2507508  73.9492744  64.9178061  15.1824616  73.9680778
  65.1117825  13.8915482  74.7347548  68.7732988   7.0725639  59.9236171
  69.6352152   7.3980537  60.1831988  68.9583332   6.2857135  59.4109236
  60.7900403  15.1547978  72.2016359  60.0963875  14.7401931  71.6886314
  61.5373394  15.1968515  71.6049778  62.7037146  15.0866232  70.0782374
  62.6807834  15.1853919  69.1264257  63.0137782  15.9331383  70.3999540
  65.3624524  17.1442387  74.1928989  66.3167777  17.1126329  74.1258920
  65.1637047  16.6833011  75.0079215  65.9523906  15.7143503  76.7599786
  66.7716795  16.2087582  76.7834624  66.2260714  14.7975471  76.7317354
  63.7174753  22.6862007  71.2099187  63.5829221  21.9262408  70.6437185
  63.3006815  23.4102907  70.7427976  74.8533716  17.8698930  60.2175762
  75.5569566  18.0748933  60.8333418  74.1296364  18.4375692  60.4824845
  75.6831526  13.6208791  66.3378032  75.6266727  14.0777343  65.4985665
  76.2359868  12.8599476  66.1600875  66.8743878  23.5831324  71.4217629
  66.7576263  24.5276756  71.3196320  66.0536325  23.2804885  71.8103428
  76.7620413  18.3081459  62.2674222  77.5966017  17.8762658  62.0851697
  76.6004756  18.1363473  63.1951116  76.4166305  14.8113573  63.6330561
  76.3615109  14.6457844  62.6919005  75.7912360  15.5189606  63.7892751
  61.2058820  10.0481637  77.4591984  61.8517684   9.5380591  77.9479209
  60.9975971  10.7850319  78.0335409  67.8998393  24.2359586  74.6373558
  68.8025639  24.2683196  74.9540053  67.6735763  23.3060037  74.6519894
  69.6551995  22.9890572  71.2983636  68.7047626  22.9892434  71.1848009
  69.9584481  22.2423307  70.7819671  85.3904688  28.8251111  72.3629399
  86.0283098  28.7057858  71.6592739  85.2725531  29.7731954  72.4217351
  82.1994394  28.7778539  72.2990923  81.8612906  28.6619603  71.4111458
  83.0684163  28.3769704  72.2791930  78.0581210  30.6314015  68.2887814
  77.4946075  30.5403952  67.5204102  77.9433605  29.8113919  68.7690307
  75.6045642  32.1265207  71.1272035  76.3966934  31.7856031  70.7118334
  75.8442292  32.2360182  72.0474188  83.6380769  34.2984983  63.6002279
  82.9868749  34.8839063  63.2136293  84.4325132  34.8291178  63.6597317
  77.5636396  31.3874120  63.9989414  78.3367272  30.8403107  63.8602289
  77.9161795  32.2518369  64.2103875  79.4021439  32.7150502  77.2056313
  79.1111305  33.6196133  77.0902979  80.0378423  32.7567030  77.9200383
  80.3277645  30.0927351  73.7957673  80.9241218  29.8683373  73.0814636
  80.3852617  29.3512096  74.3983120  79.9002674  27.5466786  61.6307864
  80.1528194  27.0248307  60.8691327  78.9627233  27.3832931  61.7334547
  84.9445957  26.5502564  69.4382607  85.7309046  26.1321988  69.0873024
  85.2084661  27.4548657  69.6064255  85.1156034  31.9875415  64.1371264
  84.4801867  32.0610041  64.8492168  84.7853440  32.5769013  63.4590343
  79.6198963  29.4494892  63.8332239  79.5035221  28.7739795  64.5013323
  79.7301222  28.9627266  63.0164392  81.9630503  28.9105039  67.5378928
  81.5988711  28.3835660  68.2491849  82.8197619  28.5203508  67.3645413
  81.6035990  23.9394939  62.5340276  81.7710393  24.8075175  62.9010747
  81.4133160  24.1022220  61.6101566  84.3611324  32.4011918  74.2006107
  84.0612047  33.3036956  74.0921914  84.0162383  32.1344101  75.0527260
  77.8123805  28.8525714  70.2342811  76.8874302  28.7201929  70.4420503
  78.0608218  29.6319934  70.7312753  81.5825211  26.3952596  63.5186943
  81.4624837  26.8409647  64.3572423  80.8877800  26.7437914  62.9600481
  75.1732616  28.4958988  71.0686600  75.3024997  28.7493467  71.9826012
  74.4930067  29.0886696  70.7491255  79.3432103  39.1656238  67.1677074
  79.2656133  40.1164063  67.2465555  78.7393747  38.8202110  67.8252001
  87.2810277  26.8674069  64.3467277  88.1928134  27.1001456  64.1714975
  86.7719925  27.4511114  63.7842356  85.8879860  31.8499888  71.7380859
  85.2588722  32.0145602  71.0356926  85.5005522  32.2641497  72.5091823
  81.4407822  31.5874296  69.0030944  81.9046167  31.8661999  68.2135566
  81.1764620  30.6857741  68.8204034  78.3331903  31.1345778  71.9410707
  78.9033260  31.5633046  71.3028191  78.9240015  30.8528362  72.6394893
  80.3776708  27.7097448  65.8120509  81.0800751  28.1618492  66.2794435
  80.0457336  27.0681267  66.4400402  74.1202042  25.9681001  71.1137642
  73.3301096  26.2238530  70.6377753  74.6113289  26.7829339  71.2189683
  76.0716787  26.3325580  68.0721119  75.2747950  26.4444274  68.5904615
  75.8442379  26.6712232  67.2062010  81.9022455  32.8570283  76.0203634
  81.9666887  33.3190691  76.8561806  81.1933379  32.2267648  76.1485944
  72.4039745  26.2211491  73.5452633  72.6547783  27.1058501  73.8110209
  72.9399293  26.0416093  72.7727725  81.6170472  34.5238391  65.8882614
  81.4816147  35.3689927  66.3167462  82.1580285  34.7257669  65.1248548
  75.0699870  32.0413829  66.4610539  75.5824390  32.8357079  66.6116104
  75.7222583  31.3440119  66.3944141  76.8794754  35.1579585  68.5433292
  77.0561383  36.0797550  68.3554276  77.6751588  34.8438004  68.9727672
  76.1647111  27.2044217  78.4195456  76.0500626  26.3029474  78.7202554
  75.3091629  27.4507914  78.0680272  78.0026070  36.6757759  74.5443635
  78.5533495  36.5474822  73.7720629  77.1637546  36.9752648  74.1938527
  73.0348787  30.3702483  67.2370110  73.8724009  30.7799492  67.0203817
  73.2127054  29.4301925  67.2070304  84.9313219  28.0377564  62.9253943
  84.4159842  28.8082169  63.1642330  84.6590527  27.3642700  63.5487004
  82.5160330  22.8827265  67.9839181  81.6601926  22.4934115  67.8044820
  82.9287281  22.9619226  67.1238967  80.2902362  20.5012338  71.3896923
  81.1555359  20.3055146  71.0302812  80.3579871  20.2722689  72.3166279
  84.7199522  25.9104656  64.7513724  84.4149657  26.2250805  65.6023867
  85.6729964  25.9886076  64.7941057  83.1645954  32.0694879  66.4006678
  82.6367315  31.3347639  66.0879915  82.6633456  32.8469556  66.1546646
  77.8964681  22.7314546  68.7613289  78.4708433  22.5089727  68.0286482
  78.4835664  22.8003240  69.5141891  86.9544258  28.6188273  69.5677666
  87.4676140  29.2518264  70.0699376  87.6045482  28.0189468  69.2021026
  78.2234268  24.7619007  62.7809175  77.3871581  25.0993693  63.1018449
  78.0839038  24.6267986  61.8436312  80.1987349  19.6055795  67.4888359
  79.5451761  19.2904812  66.8644974  80.1567823  18.9831535  68.2148182
  81.3098554  29.8875090  59.4041651  80.4025616  29.6564343  59.6032800
  81.8069586  29.0912709  59.5915632  84.2166633  38.5972597  62.3238337
  83.5428331  38.9004294  62.9323295  84.6032455  39.4001677  61.9743794
  83.4325089  26.0937728  71.8136006  82.5147651  26.3152675  71.6557694
  83.8485233  26.1684039  70.9547714  84.2160137  27.4929144  66.9438687
  84.9631956  28.0050541  66.6345809  84.4851727  27.1713196  67.8043080
  82.4886787  29.9887684  63.9265641  81.5798007  29.7046717  64.0238111
  82.5181871  30.4086763  63.0668948  87.7206055  33.5994274  67.6956808
  87.2668382  32.7585184  67.7521999  87.0900021  34.2355672  68.0331589
  86.6638974  24.5286260  68.9257476  85.9261731  24.0163646  69.2567718
  86.9165748  24.0886642  68.1140753  86.1638994  35.4370771  68.6306627
  86.4561968  35.9975828  67.9118992  86.6737614  35.7299332  69.3859786
  73.0574958  27.7093199  67.9080843  72.8599357  27.1162559  67.1831910
  72.5021622  27.4045409  68.6256782  81.0371681  27.6016305  70.0275436
  81.0920291  26.6490141  69.9517913  80.2262883  27.7575744  70.5116735
  82.1862875  31.5296428  61.2653719  81.7482305  30.8132287  60.8059357
  82.9273316  31.7572543  60.7038811  78.9764041  26.2193365  67.7865815
  78.1631907  26.5187535  68.1931007  79.4723035  25.8249054  68.5040297
  81.1272619  36.2151122  69.7200080  81.0848798  36.4411968  68.7908612
  82.0435318  35.9814496  69.8685881  78.4678116  23.7911720  73.4027050
  79.1077495  23.6500479  72.7050013  77.6355647  23.5046234  73.0265652
  79.2438420  33.0914151  69.5162043  80.0379018  32.5964471  69.3144618
  78.5330112  32.5632014  69.1529748  84.0633264  35.4732246  73.8674410
  84.1170287  36.0423183  74.6352126  83.1948046  35.6434131  73.5028447
  75.5521183  27.2357233  65.5921795  74.6218771  27.1741688  65.8091757
  75.6478655  26.7133185  64.7958436  75.4706732  23.7612045  68.1800037
  75.7313550  24.6757379  68.0709197  76.2923905  23.2936488  68.3296650
  76.9431658  25.1749803  75.3498861  77.6154711  24.9667165  74.7011510
  76.1161444  24.9771889  74.9104094  83.0221364  29.6392508  75.4261342
  83.9513424  29.7903668  75.2530309  82.6012394  29.7276529  74.5709989
  81.8209696  33.6643173  73.1959880  81.6820782  33.2961957  74.0685818
  81.0324292  34.1790812  73.0243837  82.4157848  38.7652269  64.5385416
  82.5909604  38.2940312  65.3531039  81.7290636  39.3918035  64.7666677
  83.3714911  33.0424775  70.5848717  83.0364744  33.0025545  71.4806367
  82.8718857  32.3769491  70.1119128  77.3459155  28.4492405  76.1101299
  77.2078953  27.7172644  76.7112838  78.2564078  28.3601306  75.8285486
  86.3074103  30.3880810  60.8585777  85.6903273  29.6627638  60.7618830
  85.8390591  31.1490170  60.5152851  79.9741456  28.1612365  75.5984978
  80.6841074  27.5205557  75.5571597  79.9310764  28.4125260  76.5211159
  76.9818933  41.9141632  71.3125276  77.2215531  42.5460156  71.9904295
  76.1388130  41.5629672  71.5990636  78.0972649  24.6066234  59.9807081
  77.2202115  24.4855035  59.6169328  78.5730402  23.8152312  59.7285970
  69.6174789  29.3943394  70.0748588  70.3045829  29.0805124  69.4869604
  69.4622917  30.2984758  69.8015840  74.4209511  24.2833590  74.5033612
  74.3367700  23.6759260  73.7684022  73.5992217  24.7742609  74.5043109
  81.4946795  37.7220754  73.7166780  81.4216966  38.5275726  74.2286085
  81.0524188  37.9212720  72.8914802  81.2836575  36.9592524  67.2269602
  80.5004097  37.5014205  67.3207826  81.9829320  37.4766504  67.6263843
  84.5933225  22.7687154  69.8703807  85.0901924  22.0157116  69.5504877
  83.8220206  22.8051471  69.3047017  83.9545479  37.6207588  75.8724939
  84.6673451  38.2555053  75.8000840  83.4635507  37.7171454  75.0564941
  85.6763005  31.5258841  67.4442231  84.7419284  31.6460304  67.2746935
  85.8539674  30.6231308  67.1802240  81.1768193  24.9104537  69.5975492
  80.8065981  24.3575577  70.2856397  81.6727286  24.3062670  69.0450492
  79.0057392  35.3702032  76.6930510  79.7066852  36.0038515  76.8459904
  78.5352507  35.7116763  75.9326149  87.1311788  33.7119982  64.9778417
  87.4071632  33.5976576  65.8872291  86.2616287  33.3137467  64.9390590
  83.7665852  37.9606333  68.6211230  83.9488246  37.1427988  69.0838983
  84.5898838  38.1774025  68.1836120  84.1008017  36.8874518  65.8826279
  84.6295784  36.3766972  65.2696441  84.3636237  36.5717048  66.7471812
  74.6025110  34.9038387  73.6261612  75.1878547  34.1582075  73.7589517
  74.4049949  35.2142344  74.5098276  77.4563765  37.9389634  68.6424055
  76.7874141  38.4235762  68.1588095  77.3176635  38.1858855  69.5567433
  69.1942765  27.4743987  72.3466056  69.2326864  26.9407578  73.1403174
  68.6883058  26.9479193  71.7277033  81.5969034  39.9733378  75.2406713
  82.1487342  40.1364999  76.0055798  81.9375227  40.5637816  74.5686738
  76.5733527  22.3208528  75.8428598  76.6374854  23.1823359  75.4305996
  76.5100647  21.7082529  75.1100956  72.8251342  26.2008089  65.4219987
  73.1204784  25.2918768  65.3687041  71.9239378  26.1795829  65.1000989
  84.7337421  37.9215353  72.2270395  84.6088561  37.1205093  71.7181341
  85.3916512  38.4161547  71.7384365  76.3545589  24.2764086  71.4047536
  75.6332175  24.8900054  71.2655009  77.1438845  24.8121851  71.3264182
  86.7972330  35.7224374  73.8549945  85.8502665  35.6029725  73.7828272
  87.1455103  34.8346872  73.9376207  74.5539184  23.8822187  65.5459312
  74.2251890  23.0019566  65.3634418  74.9078555  23.8269856  66.4335701
  83.8018763  35.5177090  70.0554298  83.6543725  34.5893797  70.2361868
  84.6272256  35.5397180  69.5711373  77.6681007  24.1695157  65.9134790
  78.0077080  24.6981078  65.1913398  78.1153128  24.5075563  66.6893356
  87.4052885  36.3405648  71.1419170  88.3299432  36.1348510  71.0043622
  87.2368188  36.0922050  72.0508512  79.6549154  22.6669778  64.1128083
  80.3757517  23.0451031  63.6091799  79.0314458  23.3858655  64.2163061
  83.7980277  23.3714927  65.0486415  84.0143892  24.2539565  64.7475243
  83.3174344  22.9801141  64.3192057  78.5379499  26.3300641  71.6257160
  78.3924079  26.6440944  72.5181441  78.0604702  26.9485541  71.0728058
  80.3975881  23.3203189  71.6738049  80.3837450  22.4244282  71.3370347
  81.1148310  23.3273852  72.3076335  87.1948201  36.8591316  66.4981262
  87.3685078  36.2937738  65.7455114  87.6877092  37.6592211  66.3160752
  73.0125161  28.8705985  74.5644821  72.4678629  29.6465793  74.6965095
  73.8904511  29.2176789  74.4063942  79.8012777  22.2017569  66.9425619
  79.9228689  21.2734215  67.1416507  79.5114820  22.2156255  66.0303935
  73.7991183  27.9975881  77.4574978  73.0572919  28.1458517  78.0439608
  73.4783927  28.2584147  76.5941727  81.7434845  37.5391859  77.2555368
  82.0521972  37.2941006  78.1278067  82.5410327  37.7438498  76.7674238
  81.7655457  39.6929769  69.4860744  81.3260448  39.2006148  70.1793601
  82.5163574  39.1502737  69.2452819  74.2447796  35.8841310  69.4885372
  75.0705816  35.5845082  69.1084016  73.8941848  35.1148932  69.9375161
  79.2129329  35.2367778  71.5583046  78.5909339  34.5738483  71.2585274
  79.8834196  35.2628910  70.8756694  72.4456401  33.8027636  70.4474306
  71.6088310  33.3749811  70.2658307  72.4180047  33.9960080  71.3845097
  78.7742836  33.7871702  65.0341506  78.9230957  34.4707166  64.3808179
  79.5809280  33.7676792  65.5490962  76.5295469  29.8136879  66.0402575
  76.2841511  28.9099209  66.2382785  76.6991384  29.8154030  65.0982053
  75.7991117  25.5465237  63.5388737  75.1060362  25.6209592  62.8828773
  75.5542869  24.7825580  64.0610254  82.2738242  36.2819832  62.5053254
  81.7012209  36.9010019  62.0523726  82.8471036  36.8319194  63.0393176
  85.4935502  36.5656982  63.6361836  86.4266175  36.5002544  63.8394712
  85.4058714  37.4013249  63.1776369  82.6585040  27.6180645  59.8469306
  83.6044145  27.4886853  59.9157724  82.2799285  26.8795307  60.3238734
  80.8427958  25.5430621  59.7824192  79.9359413  25.2463734  59.8586905
  81.1203939  25.2460439  58.9158478  71.7605898  26.8636985  70.2323238
  71.4408682  26.0102293  69.9397612  71.2139326  27.0785563  70.9881205
  75.5385805  29.5799426  73.9492744  75.7571815  30.5116533  73.9680778
  75.9511579  29.2207400  74.7347548  82.4590023  20.0867511  65.9368433
  81.6490752  19.7414596  66.3123679  83.1474440  19.7775055  66.5256044
  84.3880572  19.1645558  67.5592729  84.9411610  19.5841011  68.2182753
  84.6250658  18.2381306  67.6015685  79.6126742  22.4017556  59.9236171
  80.4745906  22.7272455  60.1831988  79.7977086  21.6149052  59.4109236
  71.6294158  30.4839896  72.2016359  70.9357629  30.0693849  71.6886314
  72.3767149  30.5260433  71.6049778  87.7659379  21.2746083  67.0671394
  87.1858048  21.9330887  66.6849446  87.4995311  20.4523427  66.6558811
  73.5430900  30.4158150  70.0782374  73.5201589  30.5145837  69.1264257
  73.8531537  31.2623301  70.3999540  76.2018278  32.4734305  74.1928989
  77.1561532  32.4418247  74.1258920  76.0030802  32.0124929  75.0079215
  76.7917660  31.0435421  76.7599786  77.6110549  31.5379500  76.7834624
  77.0654468  30.1267389  76.7317354  86.5484257  23.4346173  66.1227742
  85.6610112  23.7195824  65.9047937  86.9638246  23.2739937  65.2755019
  74.5568507  38.0153924  71.2099187  74.4222975  37.2554325  70.6437185
  74.1400569  38.7394824  70.7427976  85.6927470  33.1990848  60.2175762
  86.3963320  33.4040850  60.8333418  84.9690119  33.7667610  60.4824845
  86.5225280  28.9500709  66.3378032  86.4660482  29.4069261  65.4985665
  87.0753623  28.1891394  66.1600875  77.7137633  38.9123241  71.4217629
  77.5970017  39.8568674  71.3196320  76.8930079  38.6096803  71.8103428
  87.6014168  33.6373377  62.2674222  88.4359771  33.2054576  62.0851697
  87.4398510  33.4655391  63.1951116  87.2560060  30.1405490  63.6330561
  87.2008863  29.9749762  62.6919005  86.6306115  30.8481523  63.7892751
  72.0452575  25.3773555  77.4591984  72.6911438  24.8672509  77.9479209
  71.8369726  26.1142236  78.0335409  80.5656185  19.6413599  63.2115880
  80.5534855  20.5855439  63.3684151  81.4579607  19.4583745  62.9175341
  78.7392147  39.5651503  74.6373558  79.6419394  39.5975114  74.9540053
  78.5129517  38.6351954  74.6519894  80.4945749  38.3182490  71.2983636
  79.5441380  38.3184351  71.1848009  80.7978235  37.5715224  70.7819671
  86.4439397  47.4557124  71.1272035  87.2360688  47.1147949  70.7118334
  86.6836047  47.5652099  72.0474188  86.0126371  43.8250906  71.0686600
  86.1418752  44.0785385  71.9826012  85.3323822  44.4178614  70.7491255
  84.9595796  41.2972919  71.1137642  84.1694850  41.5530447  70.6377753
  85.4507044  42.1121257  71.2189683  86.9110542  41.6617498  68.0721119
  86.1141705  41.7736192  68.5904615  86.6836134  42.0004150  67.2062010
  83.2433499  41.5503409  73.5452633  83.4941538  42.4350419  73.8110209
  83.7793048  41.3708011  72.7727725  85.9093624  47.3705747  66.4610539
  86.4218145  48.1648997  66.6116104  86.5616337  46.6732037  66.3944141
  87.0040865  42.5336135  78.4195456  86.8894381  41.6321392  78.7202554
  86.1485383  42.7799832  78.0680272  83.8742541  45.6994401  67.2370110
  84.7117763  46.1091409  67.0203817  84.0520809  44.7593843  67.2070304
  83.8968712  43.0385116  67.9080843  83.6993112  42.4454477  67.1831910
  83.3415376  42.7337326  68.6256782  86.3914938  42.5649150  65.5921795
  85.4612526  42.5033606  65.8091757  86.4872410  42.0425103  64.7958436
  86.3100487  39.0903963  68.1800037  86.5707304  40.0049296  68.0709197
  87.1317659  38.6228406  68.3296650  87.7825412  40.5041720  75.3498861
  88.4548466  40.2959082  74.7011510  86.9555199  40.3063806  74.9104094
  87.8212688  57.2433550  71.3125276  88.0609286  57.8752074  71.9904295
  86.9781884  56.8921590  71.5990636  80.4568543  44.7235312  70.0748588
  81.1439583  44.4097042  69.4869604  80.3016672  45.6276676  69.8015840
  85.2603265  39.6125508  74.5033612  85.1761454  39.0051178  73.7684022
  84.4385972  40.1034526  74.5043109  85.4418865  50.2330305  73.6261612
  86.0272301  49.4873993  73.7589517  85.2443703  50.5434261  74.5098276
  88.2957520  53.2681552  68.6424055  87.6267895  53.7527680  68.1588095
  88.1570390  53.5150772  69.5567433  80.0336519  42.8035905  72.3466056
  80.0720619  42.2699496  73.1403174  79.5276812  42.2771110  71.7277033
  87.4127282  37.6500445  75.8428598  87.4768608  38.5115276  75.4305996
  87.3494402  37.0374447  75.1100956  83.6645097  41.5300007  65.4219987
  83.9598538  40.6210685  65.3687041  82.7633133  41.5087746  65.1000989
  87.1939344  39.6056004  71.4047536  86.4725930  40.2191971  71.2655009
  87.9832600  40.1413768  71.3264182  85.3932939  39.2114105  65.5459312
  85.0645645  38.3311484  65.3634418  85.7472309  39.1561773  66.4335701
  83.8518915  44.1997903  74.5644821  83.3072383  44.9757711  74.6965095
  84.7298265  44.5468707  74.4063942  84.6384937  43.3267799  77.4574978
  83.8966673  43.4750434  78.0439608  84.3177681  43.5876065  76.5941727
  85.0841551  51.2133228  69.4885372  85.9099571  50.9137000  69.1084016
  84.7335603  50.4440850  69.9375161  83.2850156  49.1319554  70.4474306
  82.4482064  48.7041728  70.2658307  83.2573801  49.3251997  71.3845097
  87.3689224  45.1428797  66.0402575  87.1235266  44.2391127  66.2382785
  87.5385138  45.1445947  65.0982053  86.6384871  40.8757154  63.5388737
  85.9454116  40.9501509  62.8828773  86.3936623  40.1117498  64.0610254
  82.5999652  42.1928902  70.2323238  82.2802437  41.3394210  69.9397612
  82.0533081  42.4077480  70.9881205  86.3779560  44.9091343  73.9492744
  86.5965570  45.8408451  73.9680778  86.7905334  44.5499318  74.7347548
  82.4687912  45.8131814  72.2016359  81.7751384  45.3985767  71.6886314
  83.2160903  45.8552350  71.6049778  84.3824655  45.7450067  70.0782374
  84.3595343  45.8437755  69.1264257  84.6925291  46.5915218  70.3999540
  87.0412033  47.8026223  74.1928989  87.9955286  47.7710165  74.1258920
  86.8424556  47.3416846  75.0079215  87.6311415  46.3727339  76.7599786
  88.4504304  46.8671417  76.7834624  87.9048223  45.4559307  76.7317354
  85.3962262  53.3445842  71.2099187  85.2616730  52.5846243  70.6437185
  84.9794324  54.0686742  70.7427976  82.8846329  40.7065472  77.4591984
  83.5305193  40.1964426  77.9479209  82.6763480  41.4434154  78.0335409
  79.3432105  16.1718361  53.8922381  79.2656134  17.1226186  53.9710862
  78.7393748  15.8264233  54.5497307  81.6170474  11.5300514  52.6127921
  81.4816148  12.3752049  53.0412768  82.1580286  11.7319791  51.8493854
  76.8794756  12.1641708  55.2678599  77.0561384  13.0859673  55.0799583
  77.6751589  11.8500127  55.6972979  78.0026071  13.6819882  61.2688941
  78.5533496  13.5536945  60.4965935  77.1637547  13.9814771  60.9183834
  84.2166634  15.6034719  49.0483644  83.5428333  15.9066416  49.6568601
  84.6032456  16.4063800  48.6989101  86.1638995  12.4432893  55.3551933
  86.4561970  13.0037950  54.6364299  86.6737616  12.7361454  56.1105092
  81.1272620  13.2213244  56.4445386  81.0848799  13.4474091  55.5153918
  82.0435319  12.9876619  56.5931188  84.0633266  12.4794369  60.5919717
  84.1170288  13.0485305  61.3597433  83.1948047  12.6496254  60.2273754
  82.4157849  15.7714392  51.2630723  82.5909605  15.3002435  52.0776345
  81.7290637  16.3980158  51.4911984  76.9818934  18.9203755  58.0370583
  77.2215533  19.5522279  58.7149602  76.1388131  18.5691795  58.3235942
  81.4946796  14.7282877  60.4412087  81.4216968  15.5337849  60.9531392
  81.0524189  14.9274843  59.6160108  81.2836576  13.9654647  53.9514908
  80.5004098  14.5076327  54.0453133  81.9829321  14.4828627  54.3509150
  83.9545480  14.6269711  62.5970246  84.6673452  15.2617176  62.5246147
  83.4635508  14.7233577  61.7810247  79.0057393  12.3764155  63.4175816
  79.7066853  13.0100637  63.5705211  78.5352508  12.7178886  62.6571456
  83.7665853  14.9668455  55.3456537  83.9488248  14.1490111  55.8084289
  84.5898839  15.1836147  54.9081427  84.1008019  13.8936640  52.6071586
  84.6295785  13.3829095  51.9941748  84.3636238  13.5779170  53.4717119
  74.6025111  11.9100510  60.3506919  75.1878548  11.1644197  60.4834823
  74.4049950  12.2204466  61.2343583  77.4563767  14.9451757  55.3669361
  76.7874142  15.4297885  54.8833402  77.3176636  15.1920977  56.2812740
  81.5969035  16.9795500  61.9652020  82.1487343  17.1427122  62.7301105
  81.9375229  17.5699938  61.2932045  84.7337422  14.9277476  58.9515702
  84.6088562  14.1267216  58.4426648  85.3916514  15.4223669  58.4629672
  83.8018764  12.5239212  56.7799604  83.6543727  11.5955920  56.9607174
  84.6272258  12.5459303  56.2956680  87.4052886  13.3467771  57.8664477
  88.3299433  13.1410632  57.7288928  87.2368189  13.0984172  58.7753819
  87.1948202  13.8653438  53.2226569  87.3685080  13.2999861  52.4700421
  87.6877093  14.6654333  53.0406058  81.7434846  14.5453982  63.9800674
  82.0521973  14.3003129  64.8523374  82.5410329  14.7500621  63.4919544
  81.7655459  16.6991892  56.2106051  81.3260449  16.2068270  56.9038907
  82.5163575  16.1564859  55.9698126  74.2447798  12.8903433  56.2130679
  75.0705817  12.5907204  55.8329322  73.8941850  12.1211055  56.6620468
  79.2129331  12.2429901  58.2828352  78.5909340  11.5800606  57.9830580
  79.8834198  12.2691033  57.6002000  72.4456403  10.8089759  57.1719612
  71.6088311  10.3811933  56.9903614  72.4180048  11.0022202  58.1090404
  78.7742838  10.7933824  51.7586813  78.9230958  11.4769289  51.1053486
  79.5809281  10.7738914  52.2736269  82.2738243  13.2881955  49.2298560
  81.7012210  13.9072142  48.7769032  82.8471037  13.8381316  49.7638482
  85.4935503  13.5719105  50.3607143  86.4266176  13.5064666  50.5640018
  85.4058716  14.4075372  49.9021675  71.6294159   7.4902019  58.9261666
  70.9357631   7.0755971  58.4131621  72.3767150   7.5322555  58.3295085
  76.2018280   9.4796427  60.9174295  77.1561533   9.4480370  60.8504227
  76.0030803   9.0187051  61.7324521  74.5568508  15.0216047  57.9344493
  74.4222976  14.2616448  57.3682491  74.1400571  15.7456947  57.4673282
  77.7137634  15.9185364  58.1462936  77.5970018  16.8630796  58.0441626
  76.8930081  15.6158925  58.5348735  78.7392148  16.5713626  61.3618864
  79.6419395  16.6037236  61.6785359  78.5129518  15.6414077  61.3765200
  80.4945750  15.3244612  58.0228943  79.5441381  15.3246474  57.9093315
  80.7978237  14.5777347  57.5064978  86.4439398  24.4619247  57.8517341
  87.2360690  24.1210072  57.4363641  86.6836048  24.5714222  58.7719495
  86.0126372  20.8313028  57.7931907  86.1418753  21.0847507  58.7071318
  85.3323823  21.4240736  57.4736562  84.9595797  18.3035041  57.8382949
  84.1694851  18.5592570  57.3623060  85.4507045  19.1183379  57.9434990
  86.9110543  18.6679621  54.7966426  86.1141706  18.7798315  55.3149921
  86.6836135  19.0066273  53.9307316  83.2433500  18.5565532  60.2697940
  83.4941539  19.4412542  60.5355516  83.7793049  18.3770133  59.4973032
  85.9093625  24.3767869  53.1855846  86.4218146  25.1711120  53.3361410
  86.5616338  23.6794160  53.1189447  87.0040867  19.5398257  65.1440762
  86.8894382  18.6383515  65.4447861  86.1485384  19.7861954  64.7925579
  83.8742542  22.7056524  53.9615416  84.7117764  23.1153532  53.7449124
  84.0520810  21.7655966  53.9315610  83.8968713  20.0447239  54.6326150
  83.6993113  19.4516600  53.9077216  83.3415377  19.7399449  55.3502089
  86.3914939  19.5711273  52.3167102  85.4612527  19.5095728  52.5337064
  86.4872411  19.0487226  51.5203743  86.3100488  16.0966086  54.9045344
  86.5707305  17.0111419  54.7954504  87.1317660  15.6290528  55.0541956
  87.7825413  17.5103843  62.0744168  88.4548467  17.3021205  61.4256817
  86.9555200  17.3125929  61.6349400  87.8212689  34.2495672  58.0370583
  88.0609287  34.8814196  58.7149602  86.9781885  33.8983712  58.3235942
  80.4568544  21.7297434  56.7993895  81.1439584  21.4159164  56.2114910
  80.3016673  22.6338799  56.5261147  85.2603267  16.6187631  61.2278919
  85.1761455  16.0113300  60.4929329  84.4385973  17.1096649  61.2288415
  85.4418866  27.2392427  60.3506919  86.0272303  26.4936115  60.4834823
  85.2443704  27.5496384  61.2343583  88.2957521  30.2743675  55.3669361
  87.6267896  30.7589802  54.8833402  88.1570391  30.5212895  56.2812740
  80.0336521  19.8098027  59.0711362  80.0720620  19.2761618  59.8648480
  79.5276813  19.2833233  58.4522339  87.4127283  14.6562568  62.5673905
  87.4768609  15.5177399  62.1551302  87.3494403  14.0436570  61.8346263
  83.6645098  18.5362130  52.1465294  83.9598539  17.6272808  52.0932347
  82.7633134  18.5149869  51.8246296  87.1939345  16.6118126  58.1292842
  86.4725931  17.2254094  57.9900316  87.9832601  17.1475891  58.0509488
  85.3932940  16.2176227  52.2704619  85.0645646  15.3373606  52.0879725
  85.7472310  16.1623896  53.1581008  83.8518916  21.2060025  61.2890127
  83.3072385  21.9819833  61.4210402  84.7298266  21.5530830  61.1309249
  84.6384938  20.3329922  64.1820284  83.8966674  20.4812557  64.7684915
  84.3177683  20.5938187  63.3187034  85.0841552  28.2195350  56.2130679
  85.9099572  27.9199122  55.8329322  84.7335604  27.4502973  56.6620468
  83.2850157  26.1381677  57.1719612  82.4482065  25.7103851  56.9903614
  83.2573802  26.3314120  58.1090404  87.3689225  22.1490919  52.7647882
  87.1235267  21.2453249  52.9628092  87.5385140  22.1508070  51.8227360
  86.6384873  17.8819277  50.2634043  85.9454118  17.9563632  49.6074079
  86.3936625  17.1179621  50.7855560  82.5999654  19.1991025  56.9568545
  82.2802438  18.3456333  56.6642919  82.0533082  19.4139603  57.7126512
  86.3779561  21.9153466  60.6738051  86.5965571  22.8470574  60.6926085
  86.7905335  21.5561440  61.4592855  82.4687914  22.8193936  58.9261666
  81.7751385  22.4047889  58.4131621  83.2160905  22.8614473  58.3295085
  84.3824656  22.7512190  56.8027681  84.3595344  22.8499877  55.8509564
  84.6925293  23.5977341  57.1244847  87.0412034  24.8088345  60.9174295
  87.9955288  24.7772287  60.8504227  86.8424558  24.3478969  61.7324521
  87.6311416  23.3789461  63.4845093  88.4504305  23.8733540  63.5079930
  87.9048224  22.4621429  63.4562661  85.3962263  30.3507965  57.9344493
  85.2616731  29.5908365  57.3682491  84.9794325  31.0748864  57.4673282
  82.8846330  17.7127595  64.1837290  83.5305194  17.2026549  64.6724515
  82.6763482  18.4496277  64.7580715  29.4411994  49.6276902  90.1511663
  28.7899974  50.2130983  89.7645677  30.2356357  50.1583097  90.2106700
  23.3667621  46.7166039  90.5498797  24.1398497  46.1695026  90.4111673
  23.7193020  47.5810289  90.7613259  25.7033899  42.8758705  88.1817247
  25.9559419  42.3540227  87.4200710  24.7658458  42.7124851  88.2843931
  30.9187259  47.3167334  90.6880647  30.2833092  47.3901961  91.4001552
  30.5884665  47.9060933  90.0099726  33.0841503  42.1965989  90.8976661
  33.9959359  42.4293376  90.7224358  32.5751150  42.7803033  90.3351739
  35.5700317  48.1146245  95.6434606  34.8851355  48.4945147  95.0931639
  35.6544166  48.7241572  96.3766554  42.0303069  44.9816908  96.7637278
  41.2766778  44.4124306  96.6081283  42.1650611  44.9479573  97.7107913
  27.4201697  49.8530310  92.4391998  27.2847372  50.6981846  92.8676846
  27.9611510  50.0549588  91.6757931  30.7344444  43.3669483  89.4763326
  30.2191067  44.1374088  89.7151714  30.4621752  42.6934620  90.0996388
  35.7078718  46.1201838  91.4116500  34.9308161  45.7812998  90.9671662
  36.3870199  46.1254461  90.7371465  28.9677179  47.3986799  92.9516061
  28.4398540  46.6639558  92.6389299  28.4664681  48.1761475  92.7056030
  27.1129779  45.2167009  85.9551034  26.2056841  44.9856263  86.1542183
  27.6100811  44.4204628  86.1425016  30.0197858  53.9264516  88.8747721
  29.3459556  54.2296213  89.4832678  30.4063680  54.7293597  88.5253178
  28.2918012  45.3179604  90.4775025  27.3829232  45.0338637  90.5747494
  28.3213096  45.7378683  89.6178331  33.5237280  48.9286193  94.2466192
  33.0699607  48.0877103  94.3031383  32.8931246  49.5647592  94.5840972
  31.9670219  50.7662690  95.1816010  32.2593193  51.3267747  94.4628376
  32.4768840  51.0591251  95.9369169  27.9894100  46.8588348  87.8163103
  27.5513530  46.1424207  87.3568740  28.7304541  47.0864462  87.2548195
  36.1067215  45.1345545  93.8739422  35.9685113  45.3247141  92.9460611
  35.7503434  45.8964927  94.3307473  28.2189073  54.0944189  91.0894800
  28.3940829  53.6232232  91.9040422  27.5321861  54.7209955  91.3176061
  32.1105328  45.7172729  87.4095161  31.4934498  44.9919557  87.3128213
  31.6421816  46.4782090  87.0662235  23.9003874  39.9358154  86.5316465
  23.0233340  39.8146954  86.1678712  24.3761627  39.1444232  86.2795354
  27.0867800  52.2884444  93.7778985  26.3035322  52.8306124  93.8717210
  27.7860545  52.8058424  94.1773227  31.4794230  46.8550761  93.9951614
  30.5450509  46.9752223  93.8256319  31.6570899  45.9523227  93.7311624
  32.9343013  49.0411901  91.5287800  33.2102857  48.9268496  92.4381675
  32.0647512  48.6429386  91.4899974  29.5697077  53.2898252  95.1720614
  29.7519471  52.4719908  95.6348366  30.3930063  53.5065944  94.7345504
  29.9039242  52.2166437  92.4335663  30.4327009  51.7058892  91.8205825
  30.1667462  51.9008967  93.2981196  32.9979426  52.1883235  93.0490646
  33.1716303  51.6229658  92.2964498  33.4908317  52.9884130  92.8670135
  38.8518817  44.9519658  94.6680945  39.2949963  44.2026984  94.2700069
  37.9745327  44.9429795  94.2854677  33.9854598  51.5050000  90.1487544
  34.6805503  52.1256692  90.3674858  34.3277749  50.6545351  90.4239922
  35.8846022  48.9549705  91.6774875  36.4097346  49.2936978  90.9524195
  35.7968374  48.0196721  91.4938009  24.5774061  49.1163621  91.5850890
  24.7262182  49.7999085  90.9317563  25.3840505  49.0968711  92.1000346
  38.3951682  46.4224897  97.0603393  39.2298573  46.8614701  97.2240953
  38.5310811  45.9463550  96.2411639  28.0769467  51.6111751  89.0562637
  27.5043434  52.2301939  88.6033109  28.6502261  52.1611113  89.5902559
  31.2966727  51.8948902  90.1871220  32.2297400  51.8294463  90.3904095
  31.2089940  52.7305168  89.7285752  33.9254743  51.2114772  87.1475167
  33.8468375  50.8774636  88.0410925  34.7464410  51.7036540  87.1466640
  28.4616265  42.9472564  86.3978690  29.4075370  42.8178772  86.4667108
  28.0830510  42.2087226  86.8748118  26.6459183  40.8722541  86.3333575
  25.7390638  40.5755653  86.4096289  26.9235164  40.5752359  85.4667861
  25.4157967  37.7309476  86.4745554  26.2777131  38.0564374  86.7341372
  25.6008311  36.9440972  85.9618620  31.4958695  48.5282767  86.7685146
  32.1994545  48.7332770  87.3842801  30.7721344  49.0959529  87.0334229
  32.3256505  44.2792629  92.8887416  32.2691707  44.7361180  92.0495048
  32.8784848  43.5183313  92.7110259  33.4045393  48.9665297  88.8183606
  34.2390996  48.5346495  88.6361080  33.2429735  48.7947310  89.7460500
  33.0591285  45.4697410  90.1839945  33.0040089  45.3041681  89.2428389
  32.4337340  46.1773443  90.3402135  34.2061375  62.0457957  90.5498797
  34.9792251  61.4986944  90.4111673  34.5586774  62.9102206  90.7613259
  36.5427653  58.2050623  88.1817247  36.7953174  57.6832144  87.4200710
  35.6052212  58.0416769  88.2843931  36.2623942  60.1078729  90.3841622
  36.1460200  59.4323632  91.0522706  36.3726202  59.6211103  89.5673775
  38.2460970  54.5978776  89.0849660  38.4135372  55.4659012  89.4520131
  38.0558139  54.7606058  88.1610949  38.2250191  57.0536433  90.0696327
  38.1049816  57.4993484  90.9081807  37.5302779  57.4021751  89.5109865
  32.7141767  56.9909417  94.6230503  31.9172930  57.1028112  95.1413998
  32.4867359  57.3296070  93.7571393  29.6773766  61.0286320  93.7879493
  30.5148988  61.4383329  93.5713201  29.8552034  60.0885763  93.7579687
  41.5738198  58.6961401  89.4763326  41.0584822  59.4666006  89.7151714
  41.3015507  58.0226537  90.0996388  39.1585309  53.5411102  94.5348565
  38.3026906  53.1517952  94.3554203  39.5712261  53.6203063  93.6748350
  41.3624501  56.5688493  91.3023107  41.0574637  56.8834642  92.1533251
  42.3154943  56.6469913  91.3450440  34.5389661  53.3898383  95.3122673
  35.1133413  53.1673564  94.5795866  35.1260643  53.4587077  96.0651274
  34.8659248  55.4202844  89.3318558  34.0296560  55.7577530  89.6527833
  34.7264018  55.2851824  88.3945695  36.8412328  50.2639632  94.0397742
  36.1876741  49.9488649  93.4154357  36.7992803  49.6415372  94.7657565
  37.9523533  60.5458927  85.9551034  37.0450595  60.3148180  86.1542183
  38.4494565  59.7496546  86.1425016  39.1311767  60.6471522  90.4775025
  38.2222986  60.3630554  90.5747494  39.1606851  61.0670600  89.6178331
  43.4075581  47.9646349  96.0708629  43.7134458  47.1043713  95.7834544
  44.1328186  48.5563969  95.8707623  29.6999937  58.3677036  94.4590227
  29.5024337  57.7746396  93.7341293  29.1446601  58.0629246  95.1766166
  38.8287855  62.1880265  87.8163103  38.3907285  61.4716124  87.3568740
  39.5698295  62.4156380  87.2548195  32.1946163  57.8941070  92.1431179
  31.2643751  57.8325525  92.3601141  32.2903635  57.3717022  91.3467820
  32.1131712  54.4195882  94.7309421  32.3738529  55.3341216  94.6218581
  32.9348884  53.9520325  94.8806033  42.9499082  61.0464647  87.4095161
  42.3328253  60.3211475  87.3128213  42.4815571  61.8074007  87.0662235
  34.7397628  55.2650071  86.5316465  33.8627094  55.1438872  86.1678712
  35.2155381  54.4736150  86.2795354  29.4676322  56.8591926  91.9729371
  29.7629763  55.9502605  91.9196424  28.5664358  56.8379666  91.6510373
  31.1964164  54.5406024  92.0968696  30.8676870  53.6603403  91.9143802
  31.5503534  54.4853693  92.9845085  34.3105987  54.8278994  92.4644173
  34.6502059  55.3564915  91.7422782  34.7578107  55.1659400  93.2402740
  36.2974134  53.3253616  90.6637466  37.0182496  53.7034868  90.1601183
  35.6739438  54.0442492  90.7672444  40.4405257  54.0298764  91.5995799
  40.6568871  54.9123402  91.2984627  39.9599324  53.6384978  90.8701441
  36.4437757  52.8601406  93.4935003  36.5653668  51.9318052  93.6925890
  36.1539799  52.8740092  92.5813318  39.3128947  50.5456316  96.6301723
  39.3350644  50.6095650  95.6753702  39.7297006  49.7060825  96.8242229
  33.1720449  60.4720716  92.5911959  32.9266491  59.5683046  92.7892169
  33.3416363  60.4737867  91.6491437  32.4416096  56.2049074  90.0898120
  31.7485341  56.2793429  89.4338156  32.1967848  55.4409418  90.6119637
  39.3010020  58.2764482  86.3978690  40.2469125  58.1470690  86.4667108
  38.9224265  57.5379144  86.8748118  37.4852937  56.2014458  86.3333575
  36.5784392  55.9047571  86.4096289  37.7628918  55.9044276  85.4667861
  39.1015003  50.7451348  92.4877816  38.2915731  50.3998433  92.8633063
  39.7899420  50.4358892  93.0765428  41.0305551  49.8229395  94.1102113
  41.5836590  50.2424848  94.7692136  41.2675637  48.8965143  94.1525069
  36.2551722  53.0601393  86.4745554  37.1170886  53.3856292  86.7341372
  36.4402066  52.2732889  85.9618620  44.4084358  51.9329920  93.6180777
  43.8283027  52.5914724  93.2358830  44.1420291  51.1107265  93.2068195
  43.1909236  54.0930010  92.6737126  42.3035091  54.3779661  92.4557320
  43.6063225  53.9323774  91.8264402  42.3352450  63.8574685  86.7685146
  43.0388300  64.0624687  87.3842801  41.6115098  64.4251447  87.0334229
  37.2081165  50.2997437  89.7625263  37.1959835  51.2439276  89.9193534
  38.1004587  50.1167582  89.4684725  41.0233284  46.8940213  94.0171200
  40.2565680  46.3398700  94.1627882  41.4343989  46.9662082  94.8785352
  29.4411995  26.6339025  76.8756970  28.7899975  27.2193105  76.4890983
  30.2356358  27.1645220  76.9352007  23.3667622  23.7228162  77.2744104
  24.1398498  23.1757149  77.1356980  23.7193021  24.5872411  77.4858565
  25.7033900  19.8820828  74.9062554  25.9559421  19.3602349  74.1446017
  24.7658459  19.7186973  75.0089237  30.9187260  24.3229457  77.4125954
  30.2833093  24.3964083  78.1246859  30.5884667  24.9123056  76.7345033
  25.1463330  31.5010280  80.4431765  25.0687359  32.4518105  80.5220245
  24.5424973  31.1556153  81.1006691  33.0841504  19.2028111  77.6221967
  33.9959360  19.4355498  77.4469665  32.5751151  19.7865156  77.0597046
  35.5700318  25.1208368  82.3679913  34.8851356  25.5007269  81.8176946
  35.6544167  25.7303694  83.1011860  42.0303071  21.9879031  83.4882585
  41.2766779  21.4186429  83.3326589  42.1650612  21.9541695  84.4353220
  27.4201699  26.8592433  79.1637304  27.2847373  27.7043969  79.5922152
  27.9611511  27.0611711  78.4003238  30.7344445  20.3731606  76.2008633
  30.2191068  21.1436211  76.4397020  30.4621753  19.6996742  76.8241694
  35.7078719  23.1263961  78.1361806  34.9308162  22.7875120  77.6916968
  36.3870200  23.1316584  77.4616771  28.9677180  24.4048921  79.6761368
  28.4398542  23.6701681  79.3634606  28.4664683  25.1823598  79.4301336
  27.1129780  22.2229132  72.6796341  26.2056842  21.9918385  72.8787490
  27.6100812  21.4266751  72.8670323  30.0197859  30.9326639  75.5993027
  29.3459558  31.2358336  76.2077985  30.4063681  31.7355719  75.2498484
  28.2918014  22.3241727  77.2020331  27.3829233  22.0400759  77.2992801
  28.3213097  22.7440805  76.3423638  33.5237281  25.9348316  80.9711499
  33.0699608  25.0939226  81.0276689  32.8931248  26.5709714  81.3086279
  31.9670220  27.7724813  81.9061317  32.2593195  28.3329870  81.1873683
  32.4768841  28.0653374  82.6614476  27.9894101  23.8650470  74.5408410
  27.5513531  23.1486329  74.0814047  28.7304542  24.0926585  73.9793501
  36.1067216  22.1407667  80.5984728  35.9685115  22.3309263  79.6705918
  35.7503435  22.9027050  81.0552779  28.2189074  31.1006311  77.8140106
  28.3940830  30.6294354  78.6285729  27.5321862  31.7272077  78.0421367
  32.1105329  22.7234852  74.1340467  31.4934500  21.9981680  74.0373520
  31.6421817  23.4844212  73.7907542  23.9003875  16.9420276  73.2561772
  23.0233341  16.8209077  72.8924018  24.3761628  16.1506354  73.0040660
  27.0867801  29.2946567  80.5024292  26.3035323  29.8368247  80.5962517
  27.7860546  29.8120546  80.9018533  31.4794232  23.8612883  80.7196921
  30.5450510  23.9814346  80.5501625  31.6570900  22.9585350  80.4556931
  32.9343014  26.0474024  78.2533107  33.2102858  25.9330618  79.1626981
  32.0647513  25.6491509  78.2145280  29.5697078  30.2960375  81.8965921
  29.7519473  29.4782031  82.3593673  30.3930064  30.5128067  81.4590811
  29.9039244  29.2228560  79.1580969  30.4327010  28.7121014  78.5451131
  30.1667463  28.9071090  80.0226502  32.9979427  29.1945358  79.7735952
  33.1716305  28.6291780  79.0209805  33.4908318  29.9946253  79.5915442
  38.8518818  21.9581781  81.3926252  39.2949964  21.2089106  80.9945375
  37.9745329  21.9491917  81.0099984  33.9854600  28.5112122  76.8732850
  34.6805504  29.1318815  77.0920165  34.3277750  27.6607474  77.1485228
  35.8846023  25.9611828  78.4020181  36.4097347  26.2999101  77.6769501
  35.7968375  25.0258843  78.2183316  27.5686684  32.0283811  82.7615434
  27.1291674  31.5360190  83.4548291  28.3194801  31.4856779  82.5207510
  24.5774063  26.1225744  78.3096197  24.7262183  26.8061208  77.6562869
  25.3840506  26.1030834  78.8245652  38.3951683  23.4287019  83.7848699
  39.2298574  23.8676823  83.9486260  38.5310812  22.9525672  82.9656945
  28.0769468  28.6173874  75.7807944  27.5043435  29.2364061  75.3278416
  28.6502262  29.1673236  76.3147866  31.2966728  28.9011024  76.9116526
  32.2297401  28.8356586  77.1149402  31.2089941  29.7367291  76.4531059
  33.9254745  28.2176895  73.8720474  33.8468376  27.8836758  74.7656232
  34.7464411  28.7098662  73.8711946  28.4616267  19.9534687  73.1223997
  29.4075371  19.8240895  73.1912415  28.0830512  19.2149349  73.5993425
  26.6459184  17.8784663  73.0578882  25.7390639  17.5817776  73.1341595
  26.9235165  17.5814481  72.1913168  25.4157968  14.7371598  73.1990861
  26.2777132  15.0626497  73.4586678  25.6008313  13.9503094  72.6863927
  31.4958696  25.5344890  73.4930452  32.1994547  25.7394892  74.1088108
  30.7721345  26.1021652  73.7579536  32.3256507  21.2854751  79.6132722
  32.2691708  21.7423303  78.7740355  32.8784849  20.5245436  79.4355565
  33.4045394  25.9727419  75.5428912  34.2390998  25.5408618  75.3606387
  33.2429737  25.8009433  76.4705807  33.0591286  22.4759532  76.9085252
  33.0040090  22.3103804  75.9673696  32.4337341  23.1835565  77.0647441
  42.0329669  36.4897070  85.6384089  42.6708079  36.3703818  84.9347429
  41.9150512  37.4377914  85.6972041  38.8419375  36.4424498  85.5745614
  38.5037887  36.3265563  84.6866149  39.7109143  36.0415663  85.5546620
  34.7006191  38.2959975  81.5642505  34.1371056  38.2049912  80.7958792
  34.5858586  37.4759879  82.0444997  32.2470623  39.7911166  84.4026725
  33.0391915  39.4501991  83.9873024  32.4867273  39.9006141  85.3228878
  40.2805750  41.9630942  76.8756970  39.6293729  42.5485023  76.4890983
  41.0750112  42.4937137  76.9352007  34.2061377  39.0520080  77.2744104
  34.9792253  38.5049067  77.1356980  34.5586776  39.9164329  77.4858565
  36.0446419  40.3796462  90.4811003  35.7536285  41.2842093  90.3657670
  36.6803404  40.4212989  91.1955073  36.9702626  37.7573310  87.0712363
  37.5666198  37.5329333  86.3569326  37.0277598  37.0158056  87.6737811
  36.5427655  35.2112746  74.9062554  36.7953175  34.6894267  74.1446017
  35.6052214  35.0478891  75.0089237  41.5870937  34.2148524  82.7137297
  42.3734027  33.7967947  82.3627714  41.8509642  35.1194616  82.8818945
  41.7581015  39.6521374  77.4125954  41.1226848  39.7256001  78.1246859
  41.4278421  40.2414973  76.7345033  46.9879365  34.1523757  83.6170276
  47.7204536  33.5822974  83.8508105  46.2318720  33.7645358  84.0576781
  36.2623943  37.1140852  77.1086929  36.1460201  36.4385755  77.7768013
  36.3726203  36.6273226  76.2919082  38.6055484  36.5750999  80.8133618
  38.2413691  36.0481620  81.5246539  39.4622600  36.1849468  80.6400103
  38.2460971  31.6040898  75.8094967  38.4135374  32.4721135  76.1765438
  38.0558140  31.7668180  74.8856256  41.0036304  40.0657877  87.4760797
  40.7037027  40.9682916  87.3676604  40.6587364  39.7990061  88.3281950
  34.4548786  36.5171674  83.5097501  33.5299282  36.3847888  83.7175193
  34.7033199  37.2965893  84.0067444  44.4033448  32.5840418  85.1558234
  43.4950326  32.5155826  84.8616995  44.3521044  33.0612362  85.9840060
  38.2250192  34.0598556  76.7941633  38.1049817  34.5055607  77.6327114
  37.5302780  34.4083874  76.2355172  31.8157597  36.1604948  84.3441290
  31.9449978  36.4139427  85.2580702  31.1355048  36.7532656  84.0245945
  35.9857084  46.8302198  80.4431765  35.9081114  47.7810023  80.5220245
  35.3818728  46.4848070  81.1006691  46.2695095  30.7856856  86.9336108
  45.6269475  31.0789389  86.2875903  45.7650023  30.6709776  87.7389305
  43.9235258  34.5320029  77.6221967  44.8353114  34.7647416  77.4469665
  43.4144905  35.1157073  77.0597046  42.2076026  38.9544657  91.2583260
  42.6159382  38.5127067  90.5137892  41.4853287  38.3797284  91.5117453
  38.5607096  33.8917264  88.6316817  39.4068291  34.3156677  88.7751466
  38.5005734  33.2350888  89.3255380  42.5304841  39.5145848  85.0135549
  41.9013703  39.6791562  84.3111617  42.1430503  39.9287457  85.7846513
  46.4094072  40.4500285  82.3679913  45.7245111  40.8299187  81.8176946
  46.4937922  41.0595612  83.1011860  43.6645004  38.0960244  88.9675256
  43.8761899  38.7392004  88.2909637  43.6174752  37.2622561  88.4997186
  41.2671233  30.7078065  85.8711828  40.4055712  31.0059319  86.1628566
  41.2933668  30.9248464  84.9392861  38.0832802  39.2520256  82.2785634
  38.5471148  39.5307959  81.4890256  37.8189601  38.3503700  82.0958725
  34.9756883  38.7991737  85.2165397  35.5458241  39.2279006  84.5782882
  35.5664995  38.5174322  85.9149583  37.0201688  35.3743408  79.0875199
  37.7225732  35.8264452  79.5549125  36.6882317  34.7327227  79.7155092
  30.7627022  33.6326961  84.3892333  29.9726076  33.8884489  83.9132443
  31.2538270  34.4475299  84.4944373  44.7790832  40.9732200  87.1397614
  45.6008276  40.5712387  86.8580295  44.7753235  40.8700434  88.0913729
  32.7141768  33.9971540  81.3475809  31.9172931  34.1090234  81.8659305
  32.4867360  34.3358192  80.4816700  38.5447435  40.5216243  89.2958324
  38.6091868  40.9836650  90.1316496  37.8358359  39.8913608  89.4240634
  52.8696825  37.3170948  83.4882585  52.1160533  36.7478346  83.3326589
  53.0044366  37.2833613  84.4353220  38.2595453  42.1884351  79.1637304
  38.1241128  43.0335886  79.5922152  38.8005266  42.3903628  78.4003238
  31.7124851  39.7059789  79.7365229  32.2249371  40.5003039  79.8870794
  32.3647563  39.0086079  79.6698831  33.5219735  42.8225545  81.8187983
  33.6986364  43.7443510  81.6308966  34.3176569  42.5083964  82.2482362
  39.8863929  42.8107917  93.2937646  39.4427784  42.0244296  92.9758551
  40.5481143  42.9987068  92.6281537  34.6451051  44.3403719  87.8198325
  35.1958476  44.2120782  87.0475319  33.8062527  44.6398608  87.4693218
  41.9845168  43.0910717  91.3219048  41.9663643  43.9119598  90.8299317
  42.9065088  42.9664792  91.5469189  38.4418222  40.6054847  92.1642556
  38.9746559  39.8443135  91.9341864  37.9132303  40.3128498  92.9066711
  29.6773767  38.0348443  80.5124800  30.5148989  38.4445451  80.2958508
  29.8552035  37.0947885  80.4824994  41.5738199  35.7023524  76.2008633
  41.0584823  36.4728128  76.4397020  41.3015508  35.0288660  76.8241694
  39.1585310  30.5473224  81.2593871  38.3026907  30.1580075  81.0799510
  39.5712262  30.6265185  80.3993657  40.6884457  28.0819568  85.6585431
  40.1849253  28.0449703  84.8453236  40.9815064  28.9912310  85.7182088
  36.9327343  28.1658297  84.6651613  37.7980340  27.9701106  84.3057502
  37.0004852  27.9368649  85.5920970  46.5472474  38.4555878  78.1361806
  45.7701916  38.1167038  77.6916968  47.2263955  38.4608501  77.4616771
  41.3624503  33.5750616  78.0268414  41.0574638  33.8896765  78.8778557
  42.3154945  33.6532036  78.0695747  39.8070934  39.7340839  79.6761368
  39.2792296  38.9993599  79.3634606  39.3058437  40.5115515  79.4301336
  44.7863780  37.9289860  84.7928414  44.1287455  38.6189121  84.8808543
  45.5904180  38.3186292  85.1362401  34.5389662  30.3960505  82.0367980
  35.1133414  30.1735687  81.3041173  35.1260644  30.4649200  82.7896581
  43.5969239  36.2834232  82.8432356  44.1101121  36.9164224  83.3454066
  44.2470463  35.6835428  82.4775716  34.8659249  32.4264966  76.0563865
  34.0296561  32.7639653  76.3773140  34.7264019  32.2913946  75.1191002
  36.8412330  27.2701754  80.7643049  36.1876742  26.9550771  80.1399664
  36.7992804  26.6477495  81.4902872  37.9523535  37.5521049  72.6796341
  37.0450596  37.3210303  72.8787490  38.4494567  36.7558669  72.8670323
  40.8591613  46.2618557  75.5993027  40.1853312  46.5650253  76.2077985
  41.2457435  47.0647637  75.2498484  40.0750070  33.7583688  85.0890697
  39.1572631  33.9798635  84.9312385  40.4910214  33.8329998  84.2302404
  40.8585118  35.1575103  80.2193377  41.6056937  35.6696501  79.9100499
  41.1276707  34.8359156  81.0797770  39.1311768  37.6533644  77.2020331
  38.2222987  37.3692677  77.2992801  39.1606852  38.0732723  76.3423638
  44.3631035  41.2640234  80.9711499  43.9093363  40.4231144  81.0276689
  43.7325002  41.9001632  81.3086279  43.3063955  32.1932220  82.2012166
  42.5686712  31.6809606  82.5322409  43.5590729  31.7532601  81.3895443
  42.8063975  43.1016730  81.9061317  43.0986949  43.6621788  81.1873683
  43.3162595  43.3945291  82.6614476  43.4075582  24.9708472  82.7953935
  43.7134459  24.1105835  82.5079851  44.1328187  25.5626092  82.5952929
  29.6999938  35.3739158  81.1835533  29.5024338  34.7808519  80.4586600
  29.1446602  35.0691369  81.9011472  37.6796662  35.2662265  83.3030127
  37.7345272  34.3136101  83.2272603  36.8687864  35.4221704  83.7871425
  38.8287856  39.1942388  74.5408410  38.3907286  38.4778247  74.0814047
  39.5698297  39.4218503  73.9793501  35.6189022  33.8839325  81.0620505
  34.8056888  34.1833495  81.4685698  36.1148016  33.4895013  81.7794988
  37.7697600  43.8797081  82.9954770  37.7273779  44.1057928  82.0663302
  38.6860299  43.6460456  83.1440571  41.2163234  34.3481149  89.8935399
  41.5712621  34.5752622  90.7529865  41.8635365  34.6799526  89.2712655
  46.9460971  37.4699585  80.5984728  46.8078869  37.6601181  79.6705918
  46.5897189  38.2318968  81.0552779  35.1103097  31.4557680  86.6781740
  35.7502476  31.3146439  85.9804704  34.2780627  31.1692193  86.3020342
  46.9730350  39.5376112  85.6096000  47.4066857  39.4451401  86.4579054
  47.6861931  39.5133612  84.9716016  35.8863401  40.7560110  82.7916733
  36.6803999  40.2610431  82.5899308  35.1755093  40.2277974  82.4284438
  40.7058245  43.1378206  87.1429100  40.7595267  43.7069142  87.9106816
  39.8373026  43.3080091  86.7783138  32.1946164  34.9003192  78.8676486
  31.2643752  34.8387648  79.0846448  32.2903636  34.3779145  78.0713127
  32.1131713  31.4258005  81.4554727  32.3738530  32.3403338  81.3463888
  32.9348886  30.9582448  81.6051340  47.8345900  39.5799813  88.1428885
  48.0281790  40.4845623  88.3888160  47.7346518  39.1207232  88.9767470
  42.8961008  39.7306555  93.7169766  42.7446515  39.5017107  92.7999850
  42.8865688  40.6877157  93.7301111  39.6646345  37.3038468  88.7016032
  40.5938405  37.4549628  88.5285000  39.2437375  37.3922489  87.8464679
  38.4634677  41.3289132  86.4714570  38.3245762  40.9607917  87.3440508
  37.6749273  41.8436772  86.2998528  39.0582829  46.4298229  77.8140106
  39.2334584  45.9586272  78.6285729  38.3715617  47.0563995  78.0421367
  40.0139892  40.7070735  83.8603408  39.6789724  40.6671505  84.7561058
  39.5143837  40.0415451  83.3873818  42.9499083  38.0526770  74.1340467
  42.3328254  37.3273598  74.0373520  42.4815572  38.8136130  73.7907542
  36.6166436  35.8258325  88.8739669  37.3266055  35.1851517  88.8326287
  36.5735745  36.0771219  89.7965849  44.6053215  42.7625678  91.7946248
  44.5465761  42.0784898  91.1276831  45.0072733  43.5044668  91.3426874
  33.6243914  49.5787592  84.5879967  33.8640512  50.2106116  85.2658985
  32.7813110  49.2275632  84.8745326  34.7397629  32.2712194  73.2561772
  33.8627096  32.1500995  72.8924018  35.2155382  31.4798272  73.0040660
  44.6070622  40.7265262  90.0260227  43.7197401  40.3891184  90.1486626
  45.1769173  39.9948293  90.2628993  26.2599769  37.0589354  83.3503279
  26.9470809  36.7451084  82.7624294  26.1047898  37.9630718  83.0770530
  38.1371776  45.3866714  86.9921471  38.0641947  46.1921686  87.5040775
  37.6949169  45.5858680  86.1669492  37.9261555  44.6238484  80.5024292
  37.1429077  45.1660164  80.5962517  38.6254301  45.1412464  80.9018533
  41.2358206  30.4333114  83.1458498  41.7326905  29.6803076  82.8259568
  40.4645187  30.4697430  82.5801707  49.0887963  36.1373479  84.7876789
  49.0777839  37.0198195  84.4170722  48.2205342  35.7845030  84.5931326
  40.5970459  45.2853548  89.1479629  41.3098432  45.9201013  89.0755531
  40.1060488  45.3817414  88.3319631  42.3187986  39.1904801  80.7196921
  41.3844265  39.3106263  80.5501625  42.4964655  38.2877268  80.4556931
  37.8193174  32.5750497  82.8730182  37.4490962  32.0221537  83.5611088
  38.3152267  31.9708630  82.3205182  45.7060538  35.0322120  81.2546955
  46.1720990  35.8650112  81.1807258  46.1568038  34.5667102  81.9592214
  35.6482373  43.0347992  89.9685200  36.3491832  43.6684475  90.1214594
  35.1777488  43.3762723  89.2080839  43.7736769  41.3765941  78.2533107
  44.0496613  41.2622536  79.1626981  42.9041267  40.9783426  78.2145280
  43.6777200  27.4002707  85.2937856  42.7640280  27.6306934  85.4620063
  44.1070302  27.4841151  86.1451889  43.4483659  35.5892599  87.7937750
  42.7955109  35.8368507  87.1390203  43.8264039  34.7756737  87.4600228
  40.4090833  45.6252292  81.8965921  40.5913227  44.8073948  82.3593673
  41.2323819  45.8419985  81.4590811  40.7432998  44.5520477  79.1580969
  41.2720765  44.0412932  78.5451131  41.0061218  44.2363008  80.0226502
  31.2450091  42.5684347  86.9016303  31.8303528  41.8228035  87.0344207
  31.0474929  42.8788303  87.7852967  34.0988746  45.6035594  81.9178745
  33.4299121  46.0881722  81.4342785  33.9601616  45.8504815  82.8322124
  38.2394015  47.6379338  88.5161404  38.7912323  47.8010959  89.2810489
  38.5800208  48.2283775  87.8441428  43.0904889  42.4640595  94.3710058
  43.6344793  43.0770553  93.8765013  42.5091734  43.0220174  94.8877071
  29.4676323  33.8654049  78.6974677  29.7629764  32.9564727  78.6441731
  28.5664359  33.8441789  78.3755680  41.3762402  45.5861313  85.5025086
  41.2513541  44.7851053  84.9936031  42.0341493  46.0807507  85.0139056
  32.9970570  31.9410046  84.6802226  32.2757156  32.5546013  84.5409699
  33.7863826  32.4767810  84.6018872  43.4397310  43.3870333  87.1304636
  42.4927646  43.2675684  87.0582962  43.7880083  42.4992831  87.2130897
  31.1964165  31.5468147  78.8214002  30.8676871  30.6665526  78.6389108
  31.5503535  31.4915815  79.7090392  40.4443744  43.1823049  83.3308988
  40.2968706  42.2539757  83.5116558  41.2697237  43.2043140  82.8466063
  34.3105988  31.8341117  79.1889480  34.6502060  32.3627038  78.4668088
  34.7578108  32.1721523  79.9648047  44.0477865  44.0051608  84.4173861
  44.9724413  43.7994470  84.2798312  43.8793169  43.7568009  85.3263202
  36.2974135  30.3315738  77.3882773  37.0182498  30.7096991  76.8846490
  35.6739439  31.0504615  77.4917751  40.4405258  31.0360887  78.3241105
  40.6568872  31.9185525  78.0229933  39.9599325  30.6447101  77.5946747
  35.1804479  33.9946600  84.9011850  35.0349060  34.3086903  85.7936131
  34.7029683  34.6131501  84.3482748  37.0400862  30.9849148  84.9492739
  37.0262431  30.0890242  84.6125037  37.7573290  30.9919812  85.5831025
  38.8926993  31.4186489  86.9945867  38.6344771  32.3403559  86.9930197
  38.3612033  31.0216923  87.6846331  43.8373182  44.5237276  79.7735952
  44.0110059  43.9583698  79.0209805  44.3302073  45.3238171  79.5915442
  36.4437758  29.8663529  80.2180310  36.5653669  28.9380175  80.4171197
  36.1539801  29.8802215  79.3058625  39.3128949  27.5518439  83.3547029
  39.3350645  27.6157772  82.3999009  39.7297008  26.7122948  83.5487536
  49.6912573  37.2873699  81.3926252  50.1343719  36.5381024  80.9945375
  48.8139083  37.2783835  81.0099984  44.8248354  43.8404040  76.8732850
  45.5199259  44.4610733  77.0920165  45.1671504  42.9899391  77.1485228
  46.7239777  41.2903746  78.4020181  47.2491101  41.6291018  77.6769501
  46.6362130  40.3550761  78.2183316  38.3859826  45.2037819  90.5310058
  38.6946952  44.9586966  91.4032757  39.1835308  45.4084458  90.0428928
  38.4080438  47.3575729  82.7615434  37.9685428  46.8652108  83.4548291
  39.1588555  46.8148697  82.5207510  30.8872777  43.5487270  82.7640062
  31.7130797  43.2491042  82.3838706  30.5366829  42.7794892  83.2129851
  35.8554310  42.9013738  84.8337736  35.2334320  42.2384443  84.5339964
  36.5259177  42.9274870  84.1511384  29.0881382  41.4673596  83.7228996
  28.2513290  41.0395771  83.5412997  29.0605028  41.6606040  84.6599787
  46.4133683  41.9236649  93.7071379  45.6229227  41.9060788  93.1675879
  46.1767038  42.4624943  94.4620416  46.5331558  38.7729116  91.0204108
  46.5829563  38.6079123  91.9619631  46.4245482  37.9056375  90.6301989
  35.4167817  41.4517661  78.3096197  35.5655937  42.1353126  77.6562869
  36.2234261  41.4322751  78.8245652  48.0349755  41.1926057  91.2646129
  47.7434564  41.5556038  92.1009590  47.4221887  40.4793065  91.0859461
  49.2345438  38.7578937  83.7848699  50.0692329  39.1968741  83.9486260
  49.3704566  38.2817590  82.9656945  46.2836944  36.3158672  89.7326187
  46.7591065  36.5086318  88.9245039  45.3602509  36.3717858  89.4869571
  33.1720450  37.4782839  79.3157266  32.9266492  36.5745169  79.5137476
  33.3416365  37.4799989  78.3736744  32.4416098  33.2111196  76.8143427
  31.7485343  33.2855551  76.1583463  32.1967850  32.4471540  77.3364944
  41.1129754  24.7706798  84.2182918  41.3931508  24.1029987  84.8443344
  41.8980361  24.9635893  83.7057582  38.9163223  43.9465792  75.7807944
  38.3437190  44.5655979  75.3278416  39.4896016  44.4965153  76.3147866
  44.9838613  33.1924432  87.9654493  45.9356035  33.2922529  87.9866717
  44.8142063  32.4002700  88.4752577  43.0052992  30.2780015  88.1513894
  42.4102924  30.5585028  87.4560382  42.7202689  30.7673916  88.9230635
  42.1360482  44.2302942  76.9116526  43.0691156  44.1648504  77.1149402
  42.0483695  45.0659209  76.4531059  44.7648499  43.5468812  73.8720474
  44.6862131  43.2128676  74.7656232  45.5858166  44.0390580  73.8711946
  47.4626690  36.4130552  87.0796793  47.4303010  35.4746552  87.2656476
  48.0727314  36.4914588  86.3462617  39.3010021  35.2826604  73.1223997
  40.2469126  35.1532813  73.1912415  38.9224266  34.5441266  73.5993425
  47.6121179  33.2041595  87.1255076  47.0960227  32.4200052  86.9385005
  48.4961127  32.8760312  87.2901595  45.2731906  26.9482611  83.0850888
  45.0756727  26.6397699  83.9694220  45.8831611  27.6744249  83.2148818
  53.2803240  37.4746558  86.2202829  54.0106629  37.2131846  86.7810533
  52.6710186  36.7375280  86.2604897  51.3618537  35.6154421  86.8177281
  50.6351701  35.4810386  86.2093772  50.9465824  35.9231250  87.6233999
  37.4852938  33.2076581  73.0578882  36.5784394  32.9109694  73.1341595
  37.7628919  32.9106399  72.1913168  28.4030879  34.5282944  83.5077928
  28.0833663  33.6748252  83.2152302  27.8564307  34.7431522  84.2635896
  32.1810786  37.2445385  87.2247435  32.3996796  38.1762493  87.2435469
  32.5936560  36.8853360  88.0102239  39.1015004  27.7513471  79.2123123
  38.2915732  27.4060556  79.5878369  39.7899421  27.4421014  79.8010735
  41.0305552  26.8291517  80.8347420  41.5836591  27.2486971  81.4937443
  41.2675639  25.9027265  80.8770376  36.2551723  30.0663516  73.1990861
  37.1170887  30.3918414  73.4586678  36.4402067  29.2795012  72.6863927
  28.2719139  38.1485856  85.4771050  27.5782610  37.7339809  84.9641004
  29.0192130  38.1906392  84.8804469  44.4084359  28.9392043  80.3426084
  43.8283028  29.5976847  79.9604136  44.1420292  28.1169387  79.9313501
  42.8587926  28.3397100  82.5447404  43.3587704  28.4513635  81.7361723
  43.5023534  28.0358153  83.1848213  30.1855881  38.0804110  83.3537065
  30.1626569  38.1791797  82.4018948  30.4956518  38.9269260  83.6754231
  32.8443259  40.1380265  87.4683679  33.7986513  40.1064207  87.4013611
  32.6455783  39.6770888  88.2833905  33.4342641  38.7081381  90.0354477
  34.2535530  39.2025459  90.0589314  33.7079449  37.7913349  90.0072044
  43.1909237  31.0992133  79.3982432  42.3035092  31.3841784  79.1802627
  43.6063227  30.9385896  78.5509709  46.5423774  31.1238654  83.1136771
  47.3184164  31.6135106  83.3861388  45.8171908  31.5496708  83.5708641
  48.9796332  31.8366273  84.1710712  49.5740823  31.5962009  83.4604020
  49.0522916  31.1173404  84.7984248  31.1993488  45.6799884  84.4853877
  31.0647956  44.9200285  83.9191875  30.7825550  46.4040784  84.0182666
  42.3352451  40.8636808  73.4930452  43.0388301  41.0686810  74.1088108
  41.6115100  41.4313569  73.7579536  43.1650261  36.6146669  79.6132722
  43.1085463  37.0715220  78.7740355  43.7178604  35.8537353  79.4355565
  46.9755067  32.4036401  80.4382842  46.7192001  32.0033036  81.2691050
  46.3507935  33.1180195  80.3132981  51.2867405  35.1432474  82.9454133
  50.7266963  35.2125663  83.7185695  50.6810908  34.9673459  82.2253630
  34.3562614  46.5769201  84.6972320  34.2394998  47.5214634  84.5951010
  33.5355060  46.2742763  85.0858119  44.2439148  41.3019337  75.5428912
  45.0784752  40.8700535  75.3606387  44.0823491  41.1301350  76.4705807
  43.8985040  37.8051450  76.9085252  43.8433844  37.6395722  75.9673696
  43.2731096  38.5127483  77.0647441  37.2081166  27.3059559  76.4870570
  37.1959836  28.2501399  76.6438841  38.1004588  27.1229705  76.1930031
  35.3817128  47.2297463  87.9128248  36.2844375  47.2621073  88.2294743
  35.1554498  46.2997914  87.9274584  37.1370730  45.9828450  84.5738327
  36.1866361  45.9830311  84.4602699  37.4403216  45.2361184  84.0574361
  41.0233285  23.9002336  80.7416507  40.2565681  23.3460822  80.8873189
  41.4343990  23.9724205  81.6030658  52.8723423  51.8188988  85.6384089
  53.5101833  51.6995735  84.9347429  52.7544266  52.7669832  85.6972041
  49.6813130  51.7716416  85.5745614  49.3431641  51.6557481  84.6866149
  50.5502898  51.3707581  85.5546620  45.5399945  53.6251892  81.5642505
  44.9764811  53.5341829  80.7958792  45.4252340  52.8051797  82.0444997
  43.0864377  55.1203084  84.4026725  43.8785669  54.7793909  83.9873024
  43.3261027  55.2298059  85.3228878  51.1199504  57.2922860  76.8756970
  50.4687484  57.8776941  76.4890983  51.9143867  57.8229055  76.9352007
  45.0455131  54.3811997  77.2744104  45.8186007  53.8340984  77.1356980
  45.3980530  55.2456247  77.4858565  47.8096381  53.0865228  87.0712363
  48.4059953  52.8621250  86.3569326  47.8671352  52.3449974  87.6737811
  47.3821409  50.5404663  74.9062554  47.6346930  50.0186185  74.1446017
  46.4445968  50.3770809  75.0089237  52.4264692  49.5440442  82.7137297
  53.2127781  49.1259865  82.3627714  52.6903396  50.4486534  82.8818945
  52.5974769  54.9813292  77.4125954  51.9620602  55.0547919  78.1246859
  52.2672176  55.5706891  76.7345033  57.8273119  49.4815675  83.6170276
  58.5598291  48.9114892  83.8508105  57.0712475  49.0937275  84.0576781
  47.1017698  52.4432769  77.1086929  46.9853956  51.7677673  77.7768013
  47.2119958  51.9565143  76.2919082  49.4449239  51.9042916  80.8133618
  49.0807446  51.3773537  81.5246539  50.3016355  51.5141386  80.6400103
  55.3498539  43.1937249  88.0764884  55.0181864  44.0632660  87.8526099
  54.7544153  42.8773533  88.7558915  49.0854726  46.9332816  75.8094967
  49.2529128  47.8013053  76.1765438  48.8951895  47.0960098  74.8856256
  51.8430059  55.3949795  87.4760797  51.5430782  56.2974834  87.3676604
  51.4981118  55.1281978  88.3281950  45.2942540  51.8463592  83.5097501
  44.3693037  51.7139806  83.7175193  45.5426954  52.6257811  84.0067444
  55.2427203  47.9132335  85.1558234  54.3344080  47.8447744  84.8616995
  55.1914798  48.3904280  85.9840060  49.0643947  49.3890474  76.7941633
  48.9443572  49.8347524  77.6327114  48.3696535  49.7375791  76.2355172
  42.6551351  51.4896865  84.3441290  42.7843733  51.7431344  85.2580702
  41.9748803  52.0824573  84.0245945  46.8250839  62.1594115  80.4431765
  46.7474868  63.1101940  80.5220245  46.2212482  61.8139988  81.1006691
  57.1088849  46.1148774  86.9336108  56.4663229  46.4081307  86.2875903
  56.6043778  46.0001694  87.7389305  54.7629013  49.8611947  77.6221967
  55.6746869  50.0939334  77.4469665  54.2538660  50.4448991  77.0597046
  49.4000850  49.2209181  88.6316817  50.2462046  49.6448595  88.7751466
  49.3399488  48.5642806  89.3255380  53.3698595  54.8437765  85.0135549
  52.7407457  55.0083479  84.3111617  52.9824257  55.2579375  85.7846513
  57.2487827  55.7792203  82.3679913  56.5638865  56.1591104  81.8176946
  57.3331676  56.3887530  83.1011860  52.5500296  46.8813550  90.2897991
  52.3061228  47.6355610  89.7532266  52.8260226  47.2598897  91.1245238
  52.1064988  46.0369983  85.8711828  51.2449467  46.3351236  86.1628566
  52.1327422  46.2540382  84.9392861  48.9226557  54.5812173  82.2785634
  49.3864902  54.8599876  81.4890256  48.6583355  53.6795618  82.0958725
  45.8150638  54.1283655  85.2165397  46.3851995  54.5570923  84.5782882
  46.4058750  53.8466240  85.9149583  47.8595443  50.7035326  79.0875199
  48.5619486  51.1556369  79.5549125  47.5276071  50.0619145  79.7155092
  46.3075805  49.2947082  93.4626409  45.6774465  49.9763363  93.6961805
  46.2011892  49.1830164  92.5179547  41.6020777  48.9618878  84.3892333
  40.8119831  49.2176407  83.9132443  42.0932024  49.7767216  84.4944373
  43.5535522  49.3263458  81.3475809  42.7566686  49.4382152  81.8659305
  43.3261115  49.6650110  80.4816700  39.8858480  49.2149369  86.8207323
  40.1366518  50.0996379  87.0864899  40.4218028  49.0353970  86.0482415
  63.7090580  52.6462866  83.4882585  62.9554288  52.0770264  83.3326589
  63.8438121  52.6125531  84.4353220  49.0989208  57.5176268  79.1637304
  48.9634882  58.3627804  79.5922152  49.6399020  57.7195546  78.4003238
  45.5856547  43.5967848  95.8251660  45.1923493  43.0434047  96.4999304
  46.4022688  43.9078427  96.2158177  42.5518605  55.0351706  79.7365229
  43.0643126  55.8294957  79.8870794  43.2041318  54.3377997  79.6698831
  44.3613490  58.1517463  81.8187983  44.5380118  59.0735427  81.6308966
  45.1570323  57.8375882  82.2482362  48.5024508  45.0125727  93.4171916
  49.2434222  45.6132880  93.3376379  48.7342431  44.2703365  92.8589959
  43.6465846  50.1982095  91.6950146  43.5319361  49.2967352  91.9957245
  42.7910364  50.4445791  91.3434962  45.4844805  59.6695636  87.8198325
  46.0352230  59.5412700  87.0475319  44.6456281  59.9690525  87.4693218
  52.4481671  41.0406830  87.6936198  52.1045941  41.9308472  87.6175308
  52.8160634  40.8508488  86.8305783  40.5167522  53.3640361  80.5124800
  41.3542744  53.7737369  80.2958508  40.6945789  52.4239803  80.4824994
  52.4131954  51.0315441  76.2008633  51.8978577  51.8020046  76.4397020
  52.1409262  50.3580578  76.8241694  49.9979065  45.8765142  81.2593871
  49.1420661  45.4871993  81.0799510  50.4106017  45.9557103  80.3993657
  51.5278212  43.4111485  85.6585431  51.0243007  43.3741621  84.8453236
  51.8208818  44.3204228  85.7182088  47.7721097  43.4950215  84.6651613
  48.6374094  43.2993024  84.3057502  47.8398606  43.2660567  85.5920970
  57.3866228  53.7847796  78.1361806  56.6095671  53.4458955  77.6916968
  58.0657709  53.7900419  77.4616771  52.2018257  48.9042533  78.0268414
  51.8968393  49.2188683  78.8778557  53.1548699  48.9823953  78.0695747
  50.6464689  55.0632757  79.6761368  50.1186050  54.3285516  79.3634606
  50.1452192  55.8407433  79.4301336  55.6257535  53.2581777  84.7928414
  54.9681209  53.9481039  84.8808543  56.4297934  53.6478209  85.1362401
  45.3783417  45.7252423  82.0367980  45.9527168  45.5027605  81.3041173
  45.9654399  45.7941118  82.7896581  54.4362994  51.6126150  82.8432356
  54.9494875  52.2456142  83.3454066  55.0864218  51.0127345  82.4775716
  45.7053004  47.7556884  76.0563865  44.8690316  48.0931571  76.3773140
  45.5657773  47.6205864  75.1191002  47.6806084  42.5993672  80.7643049
  47.0270497  42.2842689  80.1399664  47.6386558  41.9769412  81.4902872
  48.7917289  52.8812967  72.6796341  47.8844351  52.6502220  72.8787490
  49.2888321  52.0850586  72.8670323  51.6985368  61.5910474  75.5993027
  51.0247067  61.8942171  76.2077985  52.0851190  62.3939555  75.2498484
  50.9143825  49.0875605  85.0890697  49.9966386  49.3090552  84.9312385
  51.3303968  49.1621916  84.2302404  51.6978872  50.4867021  80.2193377
  52.4450691  50.9988418  79.9100499  51.9670462  50.1651074  81.0797770
  49.9705523  52.9825562  77.2020331  49.0616742  52.6984595  77.2992801
  50.0000606  53.4024640  76.3423638  55.2024790  56.5932151  80.9711499
  54.7487117  55.7523061  81.0276689  54.5718757  57.2293550  81.3086279
  54.1457710  47.5224137  82.2012166  53.4080466  47.0101524  82.5322409
  54.3984483  47.0824519  81.3895443  53.6457729  58.4308648  81.9061317
  53.9380704  58.9913705  81.1873683  54.1556350  58.7237209  82.6614476
  54.2469337  40.3000389  82.7953935  54.5528214  39.4397753  82.5079851
  54.9721942  40.8918010  82.5952929  40.5393693  50.7031076  81.1835533
  40.3418093  50.1100437  80.4586600  39.9840357  50.3983286  81.9011472
  48.5190417  50.5954182  83.3030127  48.5739026  49.6428019  83.2272603
  47.7081619  50.7513622  83.7871425  49.6681610  54.5234306  74.5408410
  49.2301040  53.8070164  74.0814047  50.4092051  54.7510420  73.9793501
  46.4582776  49.2131242  81.0620505  45.6450642  49.5125413  81.4685698
  46.9541771  48.8186931  81.7794988  48.6091354  59.2088999  82.9954770
  48.5667533  59.4349845  82.0663302  49.5254053  58.9752374  83.1440571
  52.0556988  49.6773067  89.8935399  52.4106376  49.9044540  90.7529865
  52.7029119  50.0091443  89.2712655  57.7854725  52.7991503  80.5984728
  57.6472624  52.9893099  79.6705918  57.4290944  53.5610885  81.0552779
  45.9496851  46.7849598  86.6781740  46.5896231  46.6438357  85.9804704
  45.1174382  46.4984111  86.3020342  57.8124105  54.8668030  85.6096000
  58.2460611  54.7743319  86.4579054  58.5255685  54.8425530  84.9716016
  46.7257155  56.0852028  82.7916733  47.5197754  55.5902348  82.5899308
  46.0148848  55.5569891  82.4284438  43.0339919  50.2295110  78.8676486
  42.1037507  50.1679565  79.0846448  43.1297391  49.7071063  78.0713127
  42.9525468  46.7549923  81.4554727  43.2132285  47.6695256  81.3463888
  43.7742640  46.2874365  81.6051340  44.4250393  48.1687680  88.6253552
  45.0973446  47.9605042  87.9766201  43.5980180  47.9709766  88.1858784
  50.3275965  44.7949621  90.6419213  49.6803880  45.4939570  90.5483689
  51.0976980  45.2285765  91.0095461  50.5040099  52.6330386  88.7016032
  51.4332159  52.7841545  88.5285000  50.0831129  52.7214407  87.8464679
  49.3028431  56.6581050  86.4714570  49.1639517  56.2899835  87.3440508
  48.5143027  57.1728690  86.2998528  49.8976583  61.7590147  77.8140106
  50.0728339  61.2878190  78.6285729  49.2109371  62.3855913  78.0421367
  50.8533646  56.0362653  83.8603408  50.5183479  55.9963423  84.7561058
  50.3537592  55.3707369  83.3873818  44.8277890  51.4430283  89.3855989
  44.6897688  50.7110522  89.9867528  45.7382814  51.3539183  89.1040177
  53.7892838  53.3818687  74.1340467  53.1722009  52.6565515  74.0373520
  53.3209326  54.1428047  73.7907542  47.4560191  51.1550242  88.8739669
  48.1659809  50.5143434  88.8326287  47.4129499  51.4063137  89.7965849
  46.1689125  48.1415460  90.6935308  45.6326482  47.6906199  91.3456904
  45.5805833  48.2761369  89.9505772  44.4637668  64.9079509  84.5879967
  44.7034267  65.5398034  85.2658985  43.6206865  64.5567549  84.8745326
  45.5791384  47.6004112  73.2561772  44.7020850  47.4792912  72.8924018
  46.0549137  46.8090190  73.0040660  37.0993524  52.3881271  83.3503279
  37.7864564  52.0743001  82.7624294  36.9441653  53.2922636  83.0770530
  41.9028246  47.2771468  87.7788302  41.8186435  46.6697137  87.0438712
  41.0810953  47.7680486  87.7797799  48.7655310  59.9530402  80.5024292
  47.9822832  60.4952082  80.5962517  49.4648055  60.4704382  80.9018533
  52.0751960  45.7625031  83.1458498  52.5720660  45.0094994  82.8259568
  51.3038942  45.7989348  82.5801707  59.9281717  51.4665397  84.7876789
  59.9171594  52.3490112  84.4170722  59.0599097  51.1136948  84.5931326
  53.1581741  54.5196719  80.7196921  52.2238019  54.6398181  80.5501625
  53.3358409  53.6169185  80.4556931  48.6586929  47.9042414  82.8730182
  48.2884716  47.3513455  83.5611088  49.1546021  47.3000548  82.3205182
  56.5454292  50.3614038  81.2546955  57.0114744  51.1942029  81.1807258
  56.9961793  49.8959019  81.9592214  54.6130523  56.7057859  78.2533107
  54.8890367  56.5914454  79.1626981  53.7435022  56.3075344  78.2145280
  54.5170955  42.7294625  85.2937856  53.6034035  42.9598852  85.4620063
  54.9464056  42.8133069  86.1451889  54.2877413  50.9184517  87.7937750
  53.6348864  51.1660424  87.1390203  54.6657793  50.1048655  87.4600228
  51.2484587  60.9544210  81.8965921  51.4306982  60.1365866  82.3593673
  52.0717573  61.1711902  81.4590811  51.5826753  59.8812395  79.1580969
  52.1114519  59.3704850  78.5451131  51.8454972  59.5654925  80.0226502
  42.0843845  57.8976264  86.9016303  42.6697282  57.1519952  87.0344207
  41.8868684  58.2080221  87.7852967  44.9382501  60.9327512  81.9178745
  44.2692876  61.4173639  81.4342785  44.7995370  61.1796732  82.8322124
  36.6761500  50.4681865  85.6220746  36.7145600  49.9345455  86.4157864
  36.1701793  49.9417070  85.0031723  44.0552262  45.3146405  89.1183288
  44.1193589  46.1761236  88.7060686  43.9919383  44.7020407  88.3855647
  43.5304535  47.3869538  92.7656322  44.1576574  47.0046615  93.3793847
  42.6732454  47.1683740  93.1312015  40.3070078  49.1945967  78.6974677
  40.6023519  48.2856645  78.6441731  39.4058113  49.1733706  78.3755680
  52.2156156  60.9153231  85.5025086  52.0907296  60.1142971  84.9936031
  52.8735248  61.4099424  85.0139056  43.8364325  47.2701963  84.6802226
  43.1150910  47.8837931  84.5409699  44.6257580  47.8059728  84.6018872
  46.6390638  44.6056390  90.9542878  47.1625040  44.8518686  91.7169187
  46.4202971  45.4376425  90.5346015  42.0357919  46.8760064  78.8214002
  41.7070625  45.9957443  78.6389108  42.3897290  46.8207733  79.7090392
  51.2837498  58.5114967  83.3308988  51.1362461  57.5831675  83.5116558
  52.1090992  58.5335058  82.8466063  45.1499742  47.1633034  79.1889480
  45.4895815  47.6918955  78.4668088  45.5971863  47.5013440  79.9648047
  54.8871620  59.3343526  84.4173861  55.8118167  59.1286387  84.2798312
  54.7186923  59.0859927  85.3263202  47.8443183  45.5470085  88.6392548
  47.5040004  44.7477898  89.0413228  47.1382190  45.8471796  88.0669381
  48.4959655  42.6319397  87.0919871  49.3185724  42.1579876  86.9698762
  48.7397719  43.4109881  87.5918557  47.1367890  45.6607656  77.3882773
  47.8576252  46.0388909  76.8846490  46.5133194  46.3796533  77.4917751
  51.2799012  46.3652805  78.3241105  51.4962627  47.2477443  78.0229933
  50.7993080  45.9739018  77.5946747  46.0198234  49.3238518  84.9011850
  45.8742815  49.6378821  85.7936131  45.5423437  49.9423418  84.3482748
  47.8794617  46.3141066  84.9492739  47.8656185  45.4182159  84.6125037
  48.5967045  46.3211730  85.5831025  49.7320747  46.7478406  86.9945867
  49.4738525  47.6695477  86.9930197  49.2005788  46.3508841  87.6846331
  54.6766936  59.8529193  79.7735952  54.8503814  59.2875616  79.0209805
  55.1695827  60.6530088  79.5915442  40.4943896  51.8643862  87.8399511
  39.9497364  52.6403670  87.9719785  41.3723246  52.2114667  87.6818632
  47.2831513  45.1955446  80.2180310  47.4047424  44.2672092  80.4171197
  46.9933555  45.2094132  79.3058625  50.1522703  42.8810357  83.3547029
  50.1744400  42.9449690  82.3999009  50.5690762  42.0414865  83.5487536
  60.5306327  52.6165616  81.3926252  60.9737473  51.8672941  80.9945375
  59.6532838  52.6075753  81.0099984  55.6642109  59.1695958  76.8732850
  56.3593013  59.7902650  77.0920165  56.0065259  58.3191309  77.1485228
  41.2809918  50.9913759  90.7329668  40.5391654  51.1396394  91.3194298
  40.9602662  51.2522024  89.8696417  57.5633532  56.6195663  78.4020181
  58.0884856  56.9582936  77.6769501  57.4755884  55.6842679  78.2183316
  49.2474193  62.6867647  82.7615434  48.8079183  62.1944025  83.4548291
  49.9982310  62.1440614  82.5207510  41.7266532  58.8779187  82.7640062
  42.5524551  58.5782959  82.3838706  41.3760584  58.1086810  83.2129851
  46.6948065  58.2305656  84.8337736  46.0728074  57.5676361  84.5339964
  47.3652932  58.2566787  84.1511384  39.9275137  56.7965514  83.7228996
  39.0907045  56.3687688  83.5412997  39.8998782  56.9897957  84.6599787
  46.7672592  46.7087444  94.4270242  46.8160748  47.5849566  94.0448012
  47.3095106  46.1664837  93.8541885  46.2561572  56.7809579  78.3096197
  46.4049692  57.4645043  77.6562869  47.0628015  56.7614669  78.8245652
  48.9971881  47.4618816  91.1816601  48.1275190  47.7552382  90.9099189
  49.2331361  48.0459261  91.9023864  60.0739192  54.0870855  83.7848699
  60.9086083  54.5260659  83.9486260  60.2098321  53.6109508  82.9656945
  44.0114205  52.8074757  79.3157266  43.7660247  51.9037087  79.5137476
  44.1810119  52.8091907  78.3736744  51.7010914  43.6798433  88.6982021
  52.2192858  44.4159460  88.3728510  51.3466047  43.9862426  89.5328780
  43.2809852  48.5403114  76.8143427  42.5879097  48.6147469  76.1583463
  43.0361604  47.7763458  77.3364944  51.9523509  40.0998715  84.2182918
  52.2325262  39.4321905  84.8443344  52.7374116  40.2927811  83.7057582
  49.7556977  59.2757709  75.7807944  49.1830944  59.8947897  75.3278416
  50.3289771  59.8257071  76.3147866  55.8232367  48.5216349  87.9654493
  56.7749790  48.6214447  87.9866717  55.6535817  47.7294618  88.4752577
  53.8446746  45.6071933  88.1513894  53.2496679  45.8876945  87.4560382
  53.5596443  46.0965834  88.9230635  52.9754237  59.5594860  76.9116526
  53.9084910  59.4940421  77.1149402  52.8877450  60.3951126  76.4531059
  55.6042254  58.8760730  73.8720474  55.5255885  58.5420593  74.7656232
  56.4251920  59.3682498  73.8711946  58.3020445  51.7422469  87.0796793
  58.2696765  50.8038470  87.2656476  58.9121068  51.8206506  86.3462617
  50.1403776  50.6118522  73.1223997  51.0862880  50.4824730  73.1912415
  49.7618021  49.8733184  73.5993425  58.4514933  48.5333513  87.1255076
  57.9353982  47.7491969  86.9385005  59.3354882  48.2052229  87.2901595
  56.1125660  42.2774528  83.0850888  55.9150481  41.9689616  83.9694220
  56.7225366  43.0036167  83.2148818  48.3246693  48.5368499  73.0578882
  47.4178148  48.2401611  73.1341595  48.6022674  48.2398317  72.1913168
  39.2424633  49.8574862  83.5077928  38.9227418  49.0040170  83.2152302
  38.6958061  50.0723440  84.2635896  43.0204541  52.5737303  87.2247435
  43.2390551  53.5054411  87.2435469  43.4330315  52.2145277  88.0102239
  49.9408759  43.0805388  79.2123123  49.1309487  42.7352473  79.5878369
  50.6293175  42.7712932  79.8010735  51.8699307  42.1583435  80.8347420
  52.4230345  42.5778888  81.4937443  52.1069393  41.2319183  80.8770376
  47.0945477  45.3955434  73.1990861  47.9564641  45.7210332  73.4586678
  47.2795822  44.6086930  72.6863927  39.1112893  53.4777773  85.4771050
  38.4176365  53.0631726  84.9641004  39.8585884  53.5198310  84.8804469
  55.2478114  44.2683960  80.3426084  54.6676783  44.9268764  79.9604136
  54.9814047  43.4461305  79.9313501  53.6981680  43.6689018  82.5447404
  54.1981459  43.7805552  81.7361723  54.3417288  43.3650071  83.1848213
  41.0249636  53.4096027  83.3537065  41.0020324  53.5083714  82.4018948
  41.3350272  54.2561178  83.6754231  43.6837014  55.4672182  87.4683679
  44.6380267  55.4356125  87.4013611  43.4849537  55.0062806  88.2833905
  44.2736396  54.0373298  90.0354477  45.0929285  54.5317377  90.0589314
  44.5473203  53.1205266  90.0072044  54.0302992  46.4284051  79.3982432
  53.1428847  46.7133701  79.1802627  54.4456981  46.2677814  78.5509709
  57.3817528  46.4530572  83.1136771  58.1577918  46.9427024  83.3861388
  56.6565662  46.8788626  83.5708641  59.8190087  47.1658191  84.1710712
  60.4134577  46.9253927  83.4604020  59.8916670  46.4465321  84.7984248
  42.0387242  61.0091802  84.4853877  41.9041710  60.2492203  83.9191875
  41.6219305  61.7332702  84.0182666  53.1746205  56.1928725  73.4930452
  53.8782056  56.3978728  74.1088108  52.4508854  56.7605487  73.7579536
  54.0044016  51.9438587  79.6132722  53.9479217  52.4007138  78.7740355
  54.5572358  51.1829271  79.4355565  57.8148822  47.7328318  80.4382842
  57.5585756  47.3324954  81.2691050  57.1901690  48.4472112  80.3132981
  62.1261159  50.4724392  82.9454133  61.5660717  50.5417581  83.7185695
  61.5204663  50.2965376  82.2253630  45.1956368  61.9061119  84.6972320
  45.0788752  62.8506551  84.5951010  44.3748815  61.6034680  85.0858119
  55.0832903  56.6311254  75.5428912  55.9178507  56.1992453  75.3606387
  54.9217246  56.4593268  76.4705807  54.7378795  53.1343368  76.9085252
  54.6827599  52.9687639  75.9673696  54.1124850  53.8419401  77.0647441
  39.5271310  48.3711432  90.7346674  40.1730174  47.8610386  91.2233899
  39.3188461  49.1080114  91.3090099  48.0474920  42.6351477  76.4870570
  48.0353590  43.5793317  76.6438841  48.9398342  42.4521622  76.1930031
  47.9764484  61.3120367  84.5738327  47.0260115  61.3122229  84.4602699
  48.2796971  60.5653102  84.0574361  51.8627040  39.2294253  80.7416507
  51.0959436  38.6752740  80.8873189  52.2737745  39.3016122  81.6030658
  43.8668801  45.5179049  94.8321688  44.7300263  45.1615854  95.0425013
  43.2934212  45.1792944  95.5197092  55.8848886  69.7103915  77.2744104
  56.6579762  69.1632902  77.1356980  56.2374285  70.5748164  77.4858565
  58.2215164  65.8696581  74.9062554  58.4740684  65.3478102  74.1446017
  57.2839723  65.7062727  75.0089237  57.9411452  67.7724687  77.1086929
  57.8247710  67.0969590  77.7768013  58.0513712  67.2857061  76.2919082
  59.9248480  62.2624734  75.8094967  60.0922883  63.1304970  76.1765438
  59.7345649  62.4252016  74.8856256  59.9037701  64.7182391  76.7941633
  59.7837326  65.1639442  77.6327114  59.2090289  65.0667709  76.2355172
  54.3929277  64.6555375  81.3475809  53.5960440  64.7674070  81.8659305
  54.1654869  64.9942028  80.4816700  51.3561276  68.6932278  80.5124800
  52.1936498  69.1029287  80.2958508  51.5339544  67.7531721  80.4824994
  63.2525708  66.3607359  76.2008633  62.7372332  67.1311964  76.4397020
  62.9803017  65.6872495  76.8241694  60.8372819  61.2057060  81.2593871
  59.9814416  60.8163910  81.0799510  61.2499771  61.2849021  80.3993657
  63.0412012  64.2334451  78.0268414  62.7362147  64.5480600  78.8778557
  63.9942454  64.3115871  78.0695747  56.2177171  61.0544341  82.0367980
  56.7920923  60.8319522  81.3041173  56.8048153  61.1233035  82.7896581
  56.5446758  63.0848802  76.0563865  55.7084070  63.4223488  76.3773140
  56.4051528  62.9497782  75.1191002  58.5199839  57.9285590  80.7643049
  57.8664251  57.6134607  80.1399664  58.4780313  57.3061330  81.4902872
  59.6311044  68.2104885  72.6796341  58.7238105  67.9794138  72.8787490
  60.1282076  67.4142504  72.8670323  60.8099277  68.3117480  77.2020331
  59.9010496  68.0276512  77.2992801  60.8394361  68.7316558  76.3423638
  65.0863091  55.6292307  82.7953935  65.3921968  54.7689671  82.5079851
  65.8115696  56.2209927  82.5952929  51.3787447  66.0322994  81.1835533
  51.1811847  65.4392354  80.4586600  50.8234111  65.7275204  81.9011472
  60.5075365  69.8526223  74.5408410  60.0694795  69.1362082  74.0814047
  61.2485806  70.0802338  73.9793501  53.8733673  65.5587028  78.8676486
  52.9431261  65.4971483  79.0846448  53.9691145  65.0362980  78.0713127
  53.7919222  62.0841840  81.4554727  54.0526039  62.9987174  81.3463888
  54.6136394  61.6166283  81.6051340  64.6286592  68.7110605  74.1340467
  64.0115763  67.9857433  74.0373520  64.1603081  69.4719965  73.7907542
  56.4185138  62.9296029  73.2561772  55.5414605  62.8084830  72.8924018
  56.8942891  62.1382107  73.0040660  51.1463832  64.5237884  78.6974677
  51.4417273  63.6148563  78.6441731  50.2451868  64.5025624  78.3755680
  52.8751674  62.2051982  78.8214002  52.5464380  61.3249361  78.6389108
  53.2291044  62.1499651  79.7090392  55.9893497  62.4924952  79.1889480
  56.3289569  63.0210873  78.4668088  56.4365617  62.8305358  79.9648047
  57.9761644  60.9899573  77.3882773  58.6970007  61.3680826  76.8846490
  57.3526948  61.7088450  77.4917751  62.1192767  61.6944722  78.3241105
  62.3356381  62.5769360  78.0229933  61.6386834  61.3030936  77.5946747
  58.1225267  60.5247364  80.2180310  58.2441178  59.5964010  80.4171197
  57.8327310  60.5386050  79.3058625  60.9916458  58.2102274  83.3547029
  61.0138154  58.2741607  82.3999009  61.4084517  57.3706783  83.5487536
  54.8507959  68.1366674  79.3157266  54.6054001  67.2329004  79.5137476
  55.0203874  68.1383825  78.3736744  54.1203607  63.8695032  76.8143427
  53.4272852  63.9439387  76.1583463  53.8755359  63.1055375  77.3364944
  60.9797530  65.9410440  73.1223997  61.9256635  65.8116648  73.1912415
  60.6011775  65.2025102  73.5993425  59.1640447  63.8660416  73.0578882
  58.2571903  63.5693529  73.1341595  59.4416428  63.5690234  72.1913168
  60.7802513  58.4097306  79.2123123  59.9703241  58.0644391  79.5878369
  61.4686930  58.1004850  79.8010735  62.7093061  57.4875353  80.8347420
  63.2624100  57.9070806  81.4937443  62.9463148  56.5611101  80.8770376
  57.9339232  60.7247351  73.1990861  58.7958396  61.0502250  73.4586678
  58.1189576  59.9378847  72.6863927  66.0871868  59.5975878  80.3426084
  65.5070537  60.2560682  79.9604136  65.8207801  58.7753222  79.9313501
  64.8696746  61.7575968  79.3982432  63.9822601  62.0425619  79.1802627
  65.2850735  61.5969732  78.5509709  64.0139960  71.5220643  73.4930452
  64.7175810  71.7270645  74.1088108  63.2902609  72.0897405  73.7579536
  58.8868675  57.9643394  76.4870570  58.8747345  58.9085234  76.6438841
  59.7792097  57.7813540  76.1930031  62.7020794  54.5586171  80.7416507
  61.9353190  54.0044658  80.8873189  63.1131499  54.6308040  81.6030658
  29.4411996   3.6401147  63.6002276  28.7899976   4.2255228  63.2136290
  30.2356359   4.1707342  63.6597314  23.3667624   0.7290285  63.9989411
  24.1398500   0.1819272  63.8602286  23.7193022   1.5934534  64.2103872
  25.7033901  -3.1117049  61.6307860  25.9559422  -3.6335528  60.8691323
  24.7658460  -3.2750904  61.7334544  30.9187262   1.3291579  64.1371261
  30.2833094   1.4026206  64.8492165  30.5884668   1.9185178  63.4590340
  25.1463331   8.5072403  67.1677071  25.0687361   9.4580228  67.2465552
  24.5424975   8.1618275  67.8251998  33.0841505  -3.7909766  64.3467274
  33.9959361  -3.5582379  64.1714972  32.5751152  -3.2072722  63.7842353
  35.5700319   2.1270490  69.0925219  34.8851357   2.5069392  68.5422253
  35.6544169   2.7365817  69.8257167  42.0303072  -1.0058847  70.2127892
  41.2766780  -1.5751449  70.0571896  42.1650613  -1.0396182  71.1598526
  27.4201700   3.8654556  65.8882611  27.2847375   4.7106091  66.3167459
  27.9611512   4.0673833  65.1248545  30.7344446  -2.6206271  62.9253940
  30.2191070  -1.8501667  63.1642327  30.4621755  -3.2941135  63.5487001
  35.7078720   0.1326083  64.8607113  34.9308163  -0.2062757  64.4162275
  36.3870201   0.1378706  64.1862078  28.9677181   1.4111044  66.4006675
  28.4398543   0.6763804  66.0879912  28.4664684   2.1885720  66.1546643
  27.1129781  -0.7708746  59.4041648  26.2056843  -1.0019492  59.6032797
  27.6100813  -1.5671126  59.5915629  30.0197860   7.9388761  62.3238334
  29.3459559   8.2420458  62.9323292  30.4063682   8.7417842  61.9743791
  28.2918015  -0.6696151  63.9265638  27.3829234  -0.9537118  64.0238108
  28.3213099  -0.2497072  63.0668945  33.5237282   2.9410439  67.6956805
  33.0699609   2.1001349  67.7521996  32.8931249   3.5771837  68.0331586
  31.9670221   4.7786935  68.6306624  32.2593196   5.3391992  67.9118989
  32.4768842   5.0715496  69.3859783  27.9894103   0.8712593  61.2653716
  27.5513533   0.1548452  60.8059354  28.7304543   1.0988708  60.7038808
  36.1067217  -0.8530210  67.3230035  35.9685116  -0.6628614  66.3951224
  35.7503436  -0.0910827  67.7798086  28.2189075   8.1068434  64.5385413
  28.3940831   7.6356477  65.3531036  27.5321863   8.7334200  64.7666674
  32.1105330  -0.2703026  60.8585774  31.4934501  -0.9956197  60.7618827
  31.6421819   0.4906335  60.5152848  27.0867802   6.3008689  67.2269599
  26.3035324   6.8430369  67.3207823  27.7860547   6.8182669  67.6263840
  31.4794233   0.8675006  67.4442228  30.5450512   0.9876468  67.2746932
  31.6570901  -0.0352527  67.1802237  32.9343015   3.0536146  64.9778414
  33.2102859   2.9392741  65.8872288  32.0647514   2.6553631  64.9390587
  29.5697079   7.3022497  68.6211227  29.7519474   6.4844153  69.0838980
  30.3930065   7.5190189  68.1836117  29.9039245   6.2290682  65.8826276
  30.4327011   5.7183137  65.2696438  30.1667465   5.9133213  66.7471809
  32.9979428   6.2007481  66.4981259  33.1716306   5.6353903  65.7455111
  33.4908320   7.0008375  66.3160749  38.8518820  -1.0356097  68.1171559
  39.2949966  -1.7848771  67.7190682  37.9745330  -1.0445960  67.7345291
  33.9854601   5.5174245  63.5978157  34.6805506   6.1380938  63.8165472
  34.3277751   4.6669596  63.8730535  35.8846024   2.9673950  65.1265488
  36.4097348   3.3061223  64.4014808  35.7968377   2.0320966  64.9428622
  27.5686685   9.0345934  69.4860741  27.1291675   8.5422312  70.1793598
  28.3194802   8.4918901  69.2452816  24.5774064   3.1287866  65.0341503
  24.7262184   3.8123331  64.3808176  25.3840507   3.1092956  65.5490959
  38.3951684   0.4349142  70.5094006  39.2298576   0.8738946  70.6731566
  38.5310813  -0.0412205  69.6902252  28.0769469   5.6235997  62.5053251
  27.5043437   6.2426184  62.0523723  28.6502263   6.1735358  63.0393173
  31.2966729   5.9073147  63.6361833  32.2297402   5.8418708  63.8394708
  31.2089942   6.7429414  63.1776366  33.9254746   5.2239017  60.5965781
  33.8468377   4.8898881  61.4901538  34.7464413   5.7160785  60.5957253
  28.4616268  -3.0403191  59.8469303  29.4075373  -3.1696983  59.9157721
  28.0830513  -3.7788529  60.3238731  31.4958698   2.5407013  60.2175759
  32.1994548   2.7457015  60.8333414  30.7721346   3.1083774  60.4824842
  32.3256508  -1.7083126  66.3378029  32.2691709  -1.2514575  65.4985661
  32.8784850  -2.4692442  66.1600872  33.4045395   2.9789542  62.2674219
  34.2390999   2.5470740  62.0851694  33.2429738   2.8071555  63.1951113
  33.0591287  -0.5178345  63.6330558  33.0040091  -0.6834074  62.6919002
  32.4337343   0.1897688  63.7892748  42.0329670  13.4959193  72.3629396
  42.6708080  13.3765940  71.6592736  41.9150513  14.4440037  72.4217348
  38.8419376  13.4486621  72.2990920  38.5037888  13.3327686  71.4111455
  39.7109145  13.0477786  72.2791926  34.7006192  15.3022097  68.2887811
  34.1371057  15.2112034  67.5204099  34.5858587  14.4822002  68.7690304
  32.2470624  16.7973289  71.1272032  33.0391916  16.4564114  70.7118331
  32.4867274  16.9068264  72.0474185  40.2805751  18.9693065  63.6002276
  39.6293731  19.5547145  63.2136290  41.0750114  19.4999260  63.6597314
  34.2061378  16.0582202  63.9989411  34.9792254  15.5111189  63.8602286
  34.5586777  16.9226452  64.2103872  36.0446421  17.3858584  77.2056310
  35.7536287  18.2904215  77.0902976  36.6803405  17.4275112  77.9200379
  36.9702627  14.7635433  73.7957670  37.5666200  14.5391455  73.0814632
  37.0277599  14.0220178  74.3983117  36.5427656  12.2174868  61.6307860
  36.7953177  11.6956390  60.8691323  35.6052215  12.0541014  61.7334544
  41.5870939  11.2210647  69.4382604  42.3734028  10.8030070  69.0873021
  41.8509643  12.1256739  69.6064252  41.7581016  16.6583497  64.1371261
  41.1226849  16.7318123  64.8492165  41.4278422  17.2477096  63.4590340
  46.9879366  11.1585880  70.3415582  47.7204538  10.5885097  70.5753412
  46.2318721  10.7707480  70.7822088  36.2623945  14.1202974  63.8332235
  36.1460203  13.4447878  64.5013320  36.3726204  13.6335348  63.0164388
  38.6055485  13.5813121  67.5378925  38.2413693  13.0543742  68.2491846
  39.4622601  13.1911590  67.3645410  38.2460972   8.6103021  62.5340273
  38.4135375   9.4783257  62.9010744  38.0558142   8.7730303  61.6101562
  41.0036306  17.0720000  74.2006104  40.7037029  17.9745039  74.0921911
  40.6587365  16.8052183  75.0527256  34.4548787  13.5233797  70.2342808
  33.5299284  13.3910011  70.4420500  34.7033200  14.3028016  70.7312750
  44.4033449   9.5902540  71.8803541  43.4950327   9.5217949  71.5862302
  44.3521045  10.0674485  72.7085366  38.2250193  11.0660679  63.5186940
  38.1049819  11.5117729  64.3572420  37.5302782  11.4145996  62.9600478
  31.8157598  13.1667070  71.0686597  31.9449979  13.4201549  71.9826009
  31.1355049  13.7594778  70.7491252  35.9857085  23.8364320  67.1677071
  35.9081115  24.7872145  67.2465552  35.3818729  23.4910193  67.8251998
  46.2695096   7.7918979  73.6581415  45.6269476   8.0851512  73.0121209
  45.7650024   7.6771899  74.4634611  43.9235260  11.5382152  64.3467274
  44.8353116  11.7709538  64.1714972  43.4144907  12.1219196  63.7842353
  42.2076027  15.9606780  77.9828567  42.6159383  15.5189190  77.2383199
  41.4853289  15.3859407  78.2362760  38.5607097  10.8979386  75.3562124
  39.4068292  11.3218800  75.4996773  38.5005735  10.2413011  76.0500687
  42.5304842  16.5207970  71.7380856  41.9013704  16.6853684  71.0356923
  42.1430504  16.9349580  72.5091820  46.4094074  17.4562408  69.0925219
  45.7245112  17.8361309  68.5422253  46.4937923  18.0657735  69.8257167
  43.6645005  15.1022367  75.6920563  43.8761901  15.7454127  75.0154944
  43.6174754  14.2684684  75.2242493  41.2671234   7.7140188  72.5957135
  40.4055713   8.0121441  72.8873873  41.2933669   7.9310587  71.6638168
  38.0832804  16.2582378  69.0030941  38.5471149  16.5370081  68.2135563
  37.8189602  15.3565823  68.8204031  34.9756885  15.8053860  71.9410704
  35.5458242  16.2341128  71.3028188  35.5664997  15.5236445  72.6394890
  37.0201690  12.3805531  65.8120506  37.7225733  12.8326574  66.2794432
  36.6882318  11.7389350  66.4400399  30.7627024  10.6389083  71.1137639
  29.9726078  10.8946612  70.6377750  31.2538271  11.4537421  71.2189680
  44.7790833  17.9794322  73.8642920  45.6008277  17.5774510  73.5825602
  44.7753236  17.8762557  74.8159036  32.7141769  11.0033663  68.0721116
  31.9172932  11.1152357  68.5904612  32.4867361  11.3420315  67.2062007
  38.5447437  17.5278366  76.0203631  38.6091869  17.9898773  76.8561802
  37.8358361  16.8975731  76.1485940  52.8696826  14.3233071  70.2127892
  52.1160535  13.7540469  70.0571896  53.0044368  14.2895735  71.1598526
  38.2595454  19.1946473  65.8882611  38.1241129  20.0398009  66.3167459
  38.8005267  19.3965751  65.1248545  31.7124852  16.7121911  66.4610536
  32.2249372  17.5065162  66.6116101  32.3647565  16.0148202  66.3944138
  33.5219736  19.8287668  68.5433289  33.6986365  20.7505632  68.3554273
  34.3176570  19.5146087  68.9727669  39.8863931  19.8170040  80.0182953
  39.4427785  19.0306418  79.7003858  40.5481144  20.0049190  79.3526844
  34.6451052  21.3465841  74.5443632  35.1958477  21.2182905  73.7720626
  33.8062528  21.6460730  74.1938524  41.9845169  20.0972840  78.0464354
  41.9663644  20.9181721  77.5544623  42.9065089  19.9726915  78.2714495
  38.4418223  17.6116969  78.8887863  38.9746560  16.8505257  78.6587171
  37.9132304  17.3190621  79.6312017  29.6773769  15.0410566  67.2370107
  30.5148991  15.4507574  67.0203814  29.8552036  14.1010008  67.2070300
  41.5738201  12.7085646  62.9253940  41.0584824  13.4790251  63.1642327
  41.3015509  12.0350782  63.5487001  39.1585312   7.5535347  67.9839178
  38.3026908   7.1642197  67.8044817  39.5712263   7.6327308  67.1238963
  40.6884458   5.0881690  72.3830738  40.1849254   5.0511825  71.5698543
  40.9815065   5.9974433  72.4427394  36.9327344   5.1720420  71.3896919
  37.7980341   4.9763229  71.0302809  37.0004853   4.9430772  72.3166276
  46.5472475  15.4618001  64.8607113  45.7701918  15.1229160  64.4162275
  47.2263956  15.4670624  64.1862078  41.3624504  10.5812738  64.7513721
  41.0574639  10.8958888  65.6023864  42.3154946  10.6594158  64.7941054
  39.8070936  16.7402962  66.4006675  39.2792297  16.0055721  66.0879912
  39.3058438  17.5177638  66.1546643  44.7863782  14.9351982  71.5173721
  44.1287456  15.6251244  71.6053850  45.5904181  15.3248414  71.8607707
  34.5389663   7.4022628  68.7613286  35.1133415   7.1797809  68.0286479
  35.1260646   7.4711322  69.5141888  43.5969241  13.2896355  69.5677663
  44.1101122  13.9226347  70.0699372  44.2470464  12.6897550  69.2021023
  34.8659250   9.4327089  62.7809171  34.0296563   9.7701776  63.1018446
  34.7264020   9.2976069  61.8436308  36.8412331   4.2763877  67.4888356
  36.1876743   3.9612894  66.8644970  36.7992805   3.6539617  68.2148179
  37.9523536  14.5583172  59.4041648  37.0450598  14.3272425  59.6032797
  38.4494568  13.7620791  59.5915629  40.8591615  23.2680679  62.3238334
  40.1853314  23.5712376  62.9323292  41.2457437  24.0709759  61.9743791
  40.0750071  10.7645810  71.8136003  39.1572633  10.9860757  71.6557691
  40.4910215  10.8392121  70.9547711  40.8585119  12.1637226  66.9438684
  41.6056938  12.6758623  66.6345806  41.1276709  11.8421279  67.8043077
  39.1311769  14.6595767  63.9265638  38.2222989  14.3754800  64.0238108
  39.1606853  15.0794845  63.0668945  44.3631037  18.2702356  67.6956805
  43.9093364  17.4293266  67.7521996  43.7325003  18.9063755  68.0331586
  43.3063956   9.1994342  68.9257473  42.5686713   8.6871729  69.2567715
  43.5590730   8.7594724  68.1140750  42.8063976  20.1078853  68.6306624
  43.0986950  20.6683910  67.9118989  43.3162597  20.4007414  69.3859783
  43.4075584   1.9770594  69.5199242  43.7134460   1.1167958  69.2325157
  44.1328188   2.5688215  69.3198236  29.6999940  12.3801281  67.9080840
  29.5024339  11.7870642  67.1831907  29.1446604  12.0753491  68.6256779
  37.6796663  12.2724387  70.0275433  37.7345273  11.3198224  69.9517910
  36.8687865  12.4283827  70.5116732  38.8287857  16.2004510  61.2653716
  38.3907287  15.4840369  60.8059354  39.5698298  16.4280625  60.7038808
  35.6189023  10.8901447  67.7865812  34.8056889  11.1895618  68.1931004
  36.1148017  10.4957136  68.5040294  37.7697601  20.8859204  69.7200077
  37.7273780  21.1120050  68.7908609  38.6860300  20.6522579  69.8685878
  41.2163235  11.3543272  76.6180706  41.5712623  11.5814745  77.4775172
  41.8635366  11.6861648  75.9957961  46.9460972  14.4761708  67.3230035
  46.8078870  14.6663303  66.3951224  46.5897191  15.2381090  67.7798086
  35.1103098   8.4619803  73.4027047  35.7502477   8.3208562  72.7050010
  34.2780629   8.1754316  73.0265649  46.9730351  16.5438235  72.3341306
  47.4066858  16.4513524  73.1824361  47.6861932  16.5195735  71.6961322
  35.8863402  17.7622233  69.5162039  36.6804000  17.2672553  69.3144614
  35.1755094  17.2340096  69.1529745  40.7058246  20.1440329  73.8674407
  40.7595269  20.7131265  74.6352123  39.8373028  20.3142214  73.5028444
  32.1946165  11.9065315  65.5921792  31.2643753  11.8449770  65.8091754
  32.2903637  11.3841268  64.7958433  32.1131714   8.4320128  68.1800034
  32.3738532   9.3465461  68.0709194  32.9348887   7.9644570  68.3296647
  47.8345901  16.5861935  74.8674192  48.0281791  17.4907746  75.1133467
  47.7346519  16.1269354  75.7012777  42.8961010  16.7368678  80.4415072
  42.7446516  16.5079230  79.5245156  42.8865689  17.6939279  80.4546418
  39.6646346  14.3100591  75.4261339  40.5938406  14.4611750  75.2530306
  39.2437376  14.3984611  74.5709985  38.4634678  18.3351255  73.1959877
  38.3245764  17.9670039  74.0685815  37.6749274  18.8498895  73.0243834
  39.0582830  23.4360352  64.5385413  39.2334586  22.9648395  65.3531036
  38.3715618  24.0626118  64.7666674  40.0139893  17.7132858  70.5848714
  39.6789726  17.6733628  71.4806364  39.5143839  17.0477574  70.1119125
  42.9499085  15.0588892  60.8585774  42.3328255  14.3335720  60.7618827
  42.4815573  15.8198252  60.5152848  36.6166438  12.8320447  75.5984975
  37.3266056  12.1913639  75.5571594  36.5735746  13.0833342  76.5211156
  44.6053216  19.7687800  78.5191554  44.5465763  19.0847021  77.8522137
  45.0072735  20.5106790  78.0672180  33.6243915  26.5849714  71.3125273
  33.8640513  27.2168238  71.9904292  32.7813112  26.2337754  71.5990633
  34.7397631   9.2774316  59.9807078  33.8627097   9.1563117  59.6169325
  35.2155384   8.4860395  59.7285967  44.6070624  17.7327384  76.7505534
  43.7197402  17.3953306  76.8731933  45.1769175  17.0010416  76.9874299
  26.2599771  14.0651476  70.0748585  26.9470811  13.7513206  69.4869601
  26.1047899  14.9692841  69.8015837  38.1371777  22.3928837  73.7166777
  38.0641949  23.1983808  74.2286082  37.6949170  22.5920803  72.8914799
  37.9261557  21.6300607  67.2269599  37.1429079  22.1722287  67.3207823
  38.6254302  22.1474586  67.6263840  41.2358207   7.4395236  69.8703804
  41.7326906   6.6865199  69.5504874  40.4645188   7.4759553  69.3047013
  49.0887964  13.1435602  71.5122096  49.0777840  14.0260317  71.1416029
  48.2205344  12.7907153  71.3176633  40.5970461  22.2915671  75.8724936
  41.3098433  22.9263136  75.8000837  40.1060489  22.3879537  75.0564938
  42.3187987  16.1966923  67.4442228  41.3844266  16.3168386  67.2746932
  42.4964656  15.2939390  67.1802237  37.8193176   9.5812619  69.5975489
  37.4490963   9.0283660  70.2856394  38.3152268   8.9770753  69.0450489
  45.7060539  12.0384243  67.9792262  46.1720991  12.8712234  67.9052564
  46.1568039  11.5729224  68.6837520  35.6482374  20.0410114  76.6930507
  36.3491834  20.6746597  76.8459901  35.1777489  20.3824846  75.9326146
  43.7736770  18.3828064  64.9778414  44.0496614  18.2684659  65.8872288
  42.9041269  17.9845549  64.9390587  43.6777202   4.4064830  72.0183163
  42.7640281   4.6369057  72.1865370  44.1070303   4.4903274  72.8697195
  43.4483660  12.5954722  74.5183057  42.7955110  12.8430629  73.8635510
  43.8264040  11.7818860  74.1845534  40.4090834  22.6314415  68.6211227
  40.5913228  21.8136071  69.0838980  41.2323820  22.8482107  68.1836117
  40.7432999  21.5582600  65.8826276  41.2720766  21.0475055  65.2696438
  41.0061219  21.2425130  66.7471809  31.2450092  19.5746469  73.6261609
  31.8303529  18.8290157  73.7589514  31.0474931  19.8850426  74.5098273
  34.0988747  22.6097717  68.6424052  33.4299123  23.0943844  68.1588092
  33.9601617  22.8566937  69.5567430  38.2394016  24.6441460  75.2406710
  38.7912324  24.8073082  76.0055795  38.5800209  25.2345898  74.5686735
  43.0904890  19.4702718  81.0955365  43.6344794  20.0832676  80.6010319
  42.5091735  20.0282296  81.6122378  29.4676324  10.8716172  65.4219984
  29.7629766   9.9626850  65.3687038  28.5664360  10.8503911  65.1000986
  41.3762403  22.5923436  72.2270392  41.2513543  21.7913176  71.7181338
  42.0341494  23.0869629  71.7384362  32.9970571   8.9472168  71.4047533
  32.2757157   9.5608136  71.2655006  33.7863827   9.4829933  71.3264178
  43.4397312  20.3932456  73.8549942  42.4927647  20.2737807  73.7828269
  43.7880085  19.5054954  73.9376204  31.1964166   8.5530269  65.5459309
  30.8676872   7.6727648  65.3634415  31.5503537   8.4977938  66.4335698
  40.4443745  20.1885172  70.0554295  40.2968707  19.2601879  70.2361865
  41.2697238  20.2105263  69.5711370  34.3105989   8.8403239  65.9134787
  34.6502062   9.3689160  65.1913395  34.7578110   9.1783645  66.6893353
  44.0477867  21.0113731  71.1419167  44.9724414  20.8056592  71.0043619
  43.8793170  20.7630132  72.0508509  36.2974136   7.3377861  64.1128080
  37.0182499   7.7159114  63.6091796  35.6739440   8.0566738  64.2163057
  40.4405259   8.0423010  65.0486412  40.6568874   8.9247648  64.7475240
  39.9599326   7.6509223  64.3192054  35.1804481  11.0008723  71.6257156
  35.0349061  11.3149026  72.5181438  34.7029684  11.6193623  71.0728055
  37.0400863   7.9911271  71.6738046  37.0262432   7.0952364  71.3370344
  37.7573292   7.9981935  72.3076332  38.8926994   8.4248611  73.7191173
  38.6344772   9.3465682  73.7175504  38.3612035   8.0279046  74.4091638
  43.8373183  21.5299398  66.4981259  44.0110061  20.9645821  65.7455111
  44.3302074  22.3300293  66.3160749  36.4437759   6.8725651  66.9425616
  36.5653671   5.9442297  67.1416504  36.1539802   6.8864337  66.0303932
  39.3128950   4.5580562  70.0792336  39.3350647   4.6219895  69.1244316
  39.7297009   3.7185070  70.2732842  49.6912574  14.2935821  68.1171559
  50.1343720  13.5443146  67.7190682  48.8139084  14.2845958  67.7345291
  44.8248355  20.8466163  63.5978157  45.5199260  21.4672855  63.8165472
  45.1671506  19.9961514  63.8730535  46.7239779  18.2965868  65.1265488
  47.2491103  18.6353141  64.4014808  46.6362131  17.3612883  64.9428622
  38.3859827  22.2099942  77.2555365  38.6946954  21.9649089  78.1278064
  39.1835309  22.4146580  76.7674235  38.4080439  24.3637851  69.4860741
  37.9685430  23.8714230  70.1793598  39.1588556  23.8210819  69.2452816
  30.8872778  20.5549392  69.4885369  31.7130798  20.2553164  69.1084013
  30.5366830  19.7857015  69.9375158  35.8554311  19.9075861  71.5583043
  35.2334321  19.2446566  71.2585271  36.5259178  19.9336992  70.8756691
  29.0881383  18.4735719  70.4474303  28.2513292  18.0457893  70.2658304
  29.0605029  18.6668162  71.3845094  46.4133685  18.9298772  80.4316686
  45.6229228  18.9122911  79.8921185  46.1767039  19.4687065  81.1865722
  46.5331560  15.7791238  77.7449414  46.5829565  15.6141246  78.6864937
  46.4245483  14.9118497  77.3547295  35.4167818  18.4579784  65.0341503
  35.5655939  19.1415248  64.3808176  36.2234262  18.4384874  65.5490959
  48.0349757  18.1988180  77.9891436  47.7434565  18.5618160  78.8254897
  47.4221888  17.4855188  77.8104768  49.2345439  15.7641059  70.5094006
  50.0692330  16.2030864  70.6731566  49.3704568  15.2879713  69.6902252
  46.2836945  13.3220794  76.4571494  46.7591066  13.5148441  75.6490345
  45.3602510  13.3779980  76.2114878  33.1720451  14.4844961  66.0402572
  32.9266493  13.5807291  66.2382782  33.3416366  14.4862112  65.0982050
  32.4416099  10.2173319  63.5388734  31.7485344  10.2917674  62.8828770
  32.1967851   9.4533663  64.0610251  41.1129755   1.7768920  70.9428224
  41.3931509   1.1092109  71.5688651  41.8980362   1.9698016  70.4302888
  38.9163224  20.9527914  62.5053251  38.3437191  21.5718101  62.0523723
  39.4896018  21.5027276  63.0393173  44.9838614  10.1986554  74.6899799
  45.9356037  10.2984652  74.7112024  44.8142064   9.4064823  75.1997884
  43.0052993   7.2842138  74.8759200  42.4102925   7.5647150  74.1805689
  42.7202690   7.7736039  75.6475942  42.1360484  21.2365064  63.6361833
  43.0691157  21.1710626  63.8394708  42.0483697  22.0721331  63.1776366
  44.7648500  20.5530935  60.5965781  44.6862132  20.2190798  61.4901538
  45.5858167  21.0452703  60.5957253  47.4626692  13.4192674  73.8042099
  47.4303012  12.4808675  73.9901783  48.0727315  13.4976711  73.0707924
  39.3010022  12.2888727  59.8469303  40.2469127  12.1594935  59.9157721
  38.9224267  11.5503389  60.3238731  47.6121180  10.2103718  73.8500382
  47.0960229   9.4262174  73.6630311  48.4961129   9.8822434  74.0146902
  45.2731907   3.9544733  69.8096195  45.0756728   3.6459821  70.6939527
  45.8831613   4.6806372  69.9394125  53.2803241  14.4808681  72.9448136
  54.0106630  14.2193969  73.5055839  52.6710187  13.7437403  72.9850204
  51.3618539  12.6216544  73.5422587  50.6351702  12.4872508  72.9339079
  50.9465825  12.9293372  74.3479305  37.4852940  10.2138703  59.7824188
  36.5784395   9.9171816  59.8586902  37.7628921   9.9168522  58.9158475
  28.4030880  11.5345067  70.2323235  28.0833664  10.6810375  69.9397609
  27.8564308  11.7493645  70.9881202  32.1810787  14.2507508  73.9492741
  32.3996797  15.1824616  73.9680775  32.5936561  13.8915482  74.7347545
  39.1015005   4.7575593  65.9368430  38.2915734   4.4122678  66.3123676
  39.7899422   4.4483137  66.5256041  41.0305554   3.8353640  67.5592726
  41.5836592   4.2549093  68.2182749  41.2675640   2.9089388  67.6015682
  36.2551724   7.0725639  59.9236168  37.1170888   7.3980537  60.1831985
  36.4402068   6.2857135  59.4109233  28.2719140  15.1547978  72.2016356
  27.5782611  14.7401931  71.6886311  29.0192131  15.1968515  71.6049775
  44.4084361   5.9454165  67.0671391  43.8283030   6.6038969  66.6849443
  44.1420293   5.1231510  66.6558808  42.8587927   5.3459223  69.2692711
  43.3587705   5.4575757  68.4607030  43.5023535   5.0420276  69.9093519
  30.1855882  15.0866232  70.0782371  30.1626571  15.1853919  69.1264254
  30.4956519  15.9331383  70.3999537  32.8443260  17.1442387  74.1928986
  33.7986514  17.1126329  74.1258917  32.6455784  16.6833011  75.0079212
  33.4342642  15.7143503  76.7599783  34.2535531  16.2087582  76.7834621
  33.7079450  14.7975471  76.7317351  43.1909239   8.1054256  66.1227739
  42.3035094   8.3903906  65.9047934  43.6063228   7.9448019  65.2755016
  46.5423775   8.1300776  69.8382078  47.3184165   8.6197229  70.1106695
  45.8171909   8.5558831  70.2953948  48.9796333   8.8428396  70.8956019
  49.5740824   8.6024132  70.1849327  49.0522917   8.1235526  71.5229555
  31.1993489  22.6862007  71.2099184  31.0647957  21.9262408  70.6437182
  30.7825551  23.4102907  70.7427972  42.3352452  17.8698930  60.2175759
  43.0388302  18.0748933  60.8333414  41.6115101  18.4375692  60.4824842
  43.1650262  13.6208791  66.3378029  43.1085464  14.0777343  65.4985661
  43.7178605  12.8599476  66.1600872  46.9755068   9.4098523  67.1628149
  46.7192003   9.0095159  67.9936356  46.3507936  10.1242317  67.0378288
  51.2867406  12.1494597  69.6699440  50.7266964  12.2187786  70.4431002
  50.6810910  11.9735581  68.9498936  34.3562615  23.5831324  71.4217626
  34.2394999  24.5276756  71.3196316  33.5355061  23.2804885  71.8103425
  44.2439150  18.3081459  62.2674219  45.0784753  17.8762658  62.0851694
  44.0823492  18.1363473  63.1951113  43.8985042  14.8113573  63.6330558
  43.8433846  14.6457844  62.6919002  43.2731097  15.5189606  63.7892748
  37.2081167   4.3121682  63.2115877  37.1959837   5.2563522  63.3684147
  38.1004589   4.1291827  62.9175338  35.3817129  24.2359586  74.6373555
  36.2844376  24.2683196  74.9540050  35.1554499  23.3060037  74.6519890
  37.1370731  22.9890572  71.2983633  36.1866362  22.9892434  71.1848006
  37.4403217  22.2423307  70.7819668  41.0233287   0.9064458  67.4661813
  40.2565682   0.3522945  67.6118496  41.4343992   0.9786327  68.3275965
  52.8723425  28.8251111  72.3629396  53.5101835  28.7057858  71.6592736
  52.7544268  29.7731954  72.4217348  49.6813131  28.7778539  72.2990920
  49.3431642  28.6619603  71.4111455  50.5502899  28.3769704  72.2791926
  45.5399947  30.6314015  68.2887811  44.9764812  30.5403952  67.5204099
  45.4252342  29.8113919  68.7690304  50.1632914  29.9313390  78.2577126
  50.1521555  29.5366189  77.3857630  50.3253553  29.1979463  78.8510897
  43.0864379  32.1265207  71.1272032  43.8785670  31.7856031  70.7118331
  43.3261029  32.2360182  72.0474185  51.1199505  34.2984983  63.6002276
  50.4687485  34.8839063  63.2136290  51.9143868  34.8291178  63.6597314
  45.0455132  31.3874120  63.9989411  45.8186008  30.8403107  63.8602286
  45.3980531  32.2518369  64.2103872  46.8840175  32.7150502  77.2056310
  46.5930041  33.6196133  77.0902976  47.5197159  32.7567030  77.9200379
  47.8096382  30.0927351  73.7957670  48.4059954  29.8683373  73.0814632
  47.8671353  29.3512096  74.3983117  47.3821410  27.5466786  61.6307860
  47.6346931  27.0248307  60.8691323  46.4445969  27.3832931  61.7334544
  52.4264693  26.5502564  69.4382604  53.2127782  26.1321988  69.0873021
  52.6903397  27.4548657  69.6064252  52.5974770  31.9875415  64.1371261
  51.9620603  32.0610041  64.8492165  52.2672177  32.5769013  63.4590340
  57.8273120  26.4877798  70.3415582  58.5598292  25.9177014  70.5753412
  57.0712476  26.0999398  70.7822088  47.1017699  29.4494892  63.8332235
  46.9853957  28.7739795  64.5013320  47.2119959  28.9627266  63.0164388
  49.4449240  28.9105039  67.5378925  49.0807447  28.3835660  68.2491846
  50.3016356  28.5203508  67.3645410  55.3498541  20.1999372  74.8010191
  55.0181865  21.0694783  74.5771406  54.7544154  19.8835656  75.4804221
  49.0854727  23.9394939  62.5340273  49.2529129  24.8075175  62.9010744
  48.8951896  24.1022220  61.6101562  51.8430060  32.4011918  74.2006104
  51.5430783  33.3036956  74.0921911  51.4981120  32.1344101  75.0527256
  45.2942542  28.8525714  70.2342808  44.3693038  28.7201929  70.4420500
  45.5426955  29.6319934  70.7312750  55.2427204  24.9194458  71.8803541
  54.3344081  24.8509866  71.5862302  55.1914800  25.3966403  72.7085366
  49.0643948  26.3952596  63.5186940  48.9443573  26.8409647  64.3572420
  48.3696536  26.7437914  62.9600478  42.6551353  28.4958988  71.0686597
  42.7843734  28.7493467  71.9826009  41.9748804  29.0886696  70.7491252
  46.8250840  39.1656238  67.1677071  46.7474870  40.1164063  67.2465552
  46.2212484  38.8202110  67.8251998  49.3168070  26.3384103  79.8238438
  48.5401404  26.8978024  79.8141303  49.9558633  26.8240886  80.3453308
  57.1088850  23.1210896  73.6581415  56.4663231  23.4143429  73.0121209
  56.6043779  23.0063817  74.4634611  54.7629014  26.8674069  64.3467274
  55.6746870  27.1001456  64.1714972  54.2538661  27.4511114  63.7842353
  47.5714442  29.1469557  79.3856405  48.3129126  29.6854601  79.1091229
  46.8651427  29.7735846  79.5427957  53.0469782  31.2898697  77.9828567
  53.4553138  30.8481108  77.2383199  52.3247043  30.7151325  78.2362760
  49.4000852  26.2271304  75.3562124  50.2462047  26.6510718  75.4996773
  49.3399489  25.5704928  76.0500687  53.3698596  31.8499888  71.7380856
  52.7407459  32.0145602  71.0356923  52.9824258  32.2641497  72.5091820
  57.2487828  32.7854326  69.0925219  56.5638866  33.1653227  68.5422253
  57.3331678  33.3949652  69.8257167  52.5500297  23.8875672  77.0143297
  52.3061229  24.6417733  76.4777573  52.8260228  24.2661020  77.8490544
  54.5038760  30.4314285  75.6920563  54.7155655  31.0746045  75.0154944
  54.4568508  29.5976601  75.2242493  52.1064989  23.0432105  72.5957135
  51.2449468  23.3413359  72.8873873  52.1327423  23.2602504  71.6638168
  48.9226558  31.5874296  69.0030941  49.3864904  31.8661999  68.2135563
  48.6583356  30.6857741  68.8204031  45.8150639  31.1345778  71.9410704
  46.3851996  31.5633046  71.3028188  46.4058751  30.8528362  72.6394890
  47.8595444  27.7097448  65.8120506  48.5619488  28.1618492  66.2794432
  47.5276073  27.0681267  66.4400399  46.3075806  26.3009205  80.1871715
  45.6774466  26.9825486  80.4207112  46.2011894  26.1892287  79.2424853
  41.6020778  25.9681001  71.1137639  40.8119832  26.2238530  70.6377750
  42.0932026  26.7829339  71.2189680  55.6184588  33.3086240  73.8642920
  56.4402031  32.9066427  73.5825602  55.6146991  33.2054474  74.8159036
  43.5535524  26.3325580  68.0721116  42.7566687  26.4444274  68.5904612
  43.3261116  26.6712232  67.2062007  49.3841191  32.8570283  76.0203631
  49.4485624  33.3190691  76.8561802  48.6752115  32.2267648  76.1485940
  39.8858481  26.2211491  73.5452630  40.1366520  27.1058501  73.8110206
  40.4218030  26.0416093  72.7727722  63.7090581  29.6524989  70.2127892
  62.9554289  29.0832387  70.0571896  63.8438122  29.6187653  71.1598526
  49.0989209  34.5238391  65.8882611  48.9634884  35.3689927  66.3167459
  49.6399021  34.7257669  65.1248545  45.5856548  20.6029971  82.5496966
  45.1923494  20.0496169  83.2244610  46.4022689  20.9140549  82.9403484
  42.5518606  32.0413829  66.4610536  43.0643127  32.8357079  66.6116101
  43.2041319  31.3440119  66.3944138  44.3613491  35.1579585  68.5433289
  44.5380119  36.0797550  68.3554273  45.1570324  34.8438004  68.9727669
  48.5024509  22.0187850  80.1417223  49.2434223  22.6195003  80.0621685
  48.7342432  21.2765488  79.5835265  43.6465847  27.2044217  78.4195452
  43.5319363  26.3029474  78.7202551  42.7910365  27.4507914  78.0680269
  50.7257685  35.1461957  80.0182953  50.2821539  34.3598336  79.7003858
  51.3874899  35.3341108  79.3526844  45.4844806  36.6757759  74.5443632
  46.0352232  36.5474822  73.7720626  44.6456282  36.9752648  74.1938524
  52.8238923  35.4264757  78.0464354  52.8057399  36.2473638  77.5544623
  53.7458843  35.3018833  78.2714495  49.2811977  32.9408887  78.8887863
  49.8140314  32.1797175  78.6587171  48.7526059  32.6482539  79.6312017
  52.4481672  18.0468953  74.4181504  52.1045942  18.9370595  74.3420615
  52.8160635  17.8570610  73.5551089  40.5167523  30.3702483  67.2370107
  41.3542745  30.7799492  67.0203814  40.6945791  29.4301925  67.2070300
  52.4131955  28.0377564  62.9253940  51.8978579  28.8082169  63.1642327
  52.1409264  27.3642700  63.5487001  49.9979066  22.8827265  67.9839178
  49.1420663  22.4934115  67.8044817  50.4106018  22.9619226  67.1238963
  51.5278213  20.4173608  72.3830738  51.0243008  20.3803743  71.5698543
  51.8208820  21.3266351  72.4427394  47.7721099  20.5012338  71.3896919
  48.6374095  20.3055146  71.0302809  47.8398608  20.2722689  72.3166276
  57.3866229  30.7909919  64.8607113  56.6095672  30.4521078  64.4162275
  58.0657710  30.7962542  64.1862078  52.2018258  25.9104656  64.7513721
  51.8968394  26.2250805  65.6023864  53.1548700  25.9886076  64.7941054
  50.6464690  32.0694879  66.4006675  50.1186052  31.3347639  66.0879912
  50.1452193  32.8469556  66.1546643  55.6257536  30.2643900  71.5173721
  54.9681211  30.9543161  71.6053850  56.4297935  30.6540332  71.8607707
  45.3783418  22.7314546  68.7613286  45.9527170  22.5089727  68.0286479
  45.9654400  22.8003240  69.5141888  54.4362995  28.6188273  69.5677663
  54.9494877  29.2518264  70.0699372  55.0864219  28.0189468  69.2021023
  45.7053005  24.7619007  62.7809171  44.8690317  25.0993693  63.1018446
  45.5657775  24.6267986  61.8436308  47.6806085  19.6055795  67.4888356
  47.0270498  19.2904812  66.8644970  47.6386560  18.9831535  68.2148179
  48.7917290  29.8875090  59.4041648  47.8844352  29.6564343  59.6032797
  49.2888322  29.0912709  59.5915629  51.6985369  38.5972597  62.3238334
  51.0247068  38.9004294  62.9323292  52.0851191  39.4001677  61.9743791
  50.9143826  26.0937728  71.8136003  49.9966387  26.3152675  71.6557691
  51.3303969  26.1684039  70.9547711  51.6978874  27.4929144  66.9438684
  52.4450693  28.0050541  66.6345806  51.9670463  27.1713196  67.8043077
  49.9705524  29.9887684  63.9265638  49.0616743  29.7046717  64.0238108
  50.0000608  30.4086763  63.0668945  55.2024791  33.5994274  67.6956805
  54.7487118  32.7585184  67.7521996  54.5718758  34.2355672  68.0331586
  54.1457711  24.5286260  68.9257473  53.4080468  24.0163646  69.2567715
  54.3984484  24.0886642  68.1140750  53.6457730  35.4370771  68.6306624
  53.9380705  35.9975828  67.9118989  54.1556351  35.7299332  69.3859783
  54.2469338  17.3062512  69.5199242  54.5528215  16.4459875  69.2325157
  54.9721943  17.8980132  69.3198236  40.5393694  27.7093199  67.9080840
  40.3418094  27.1162559  67.1831907  39.9840358  27.4045409  68.6256779
  48.5190418  27.6016305  70.0275433  48.5739028  26.6490141  69.9517910
  47.7081620  27.7575744  70.5116732  49.6681612  31.5296428  61.2653716
  49.2301042  30.8132287  60.8059354  50.4092052  31.7572543  60.7038808
  46.4582778  26.2193365  67.7865812  45.6450643  26.5187535  68.1931004
  46.9541772  25.8249054  68.5040294  48.6091356  36.2151122  69.7200077
  48.5667534  36.4411968  68.7908609  49.5254054  35.9814496  69.8685878
  52.0556989  26.6835189  76.6180706  52.4106377  26.9106662  77.4775172
  52.7029121  27.0153566  75.9957961  57.7854726  29.8053625  67.3230035
  57.6472625  29.9955221  66.3951224  57.4290945  30.5673008  67.7798086
  45.9496853  23.7911720  73.4027047  46.5896232  23.6500479  72.7050010
  45.1174383  23.5046234  73.0265649  57.8124106  31.8730152  72.3341306
  58.2460613  31.7805441  73.1824361  58.5255687  31.8487653  71.6961322
  46.7257156  33.0914151  69.5162039  47.5197755  32.5964471  69.3144614
  46.0148849  32.5632014  69.1529745  51.5452001  35.4732246  73.8674407
  51.5989023  36.0423183  74.6352123  50.6766782  35.6434131  73.5028444
  43.0339920  27.2357233  65.5921792  42.1037508  27.1741688  65.8091754
  43.1297392  26.7133185  64.7958433  42.9525469  23.7612045  68.1800034
  43.2132286  24.6757379  68.0709194  43.7742641  23.2936488  68.3296647
  44.4250394  25.1749803  75.3498858  45.0973448  24.9667165  74.7011507
  43.5980181  24.9771889  74.9104091  58.6739656  31.9153853  74.8674192
  58.8675546  32.8199663  75.1133467  58.5740274  31.4561272  75.7012777
  50.3275966  21.8011743  77.3664519  49.6803881  22.5001693  77.2728996
  51.0976982  22.2347887  77.7340767  53.7354764  32.0660596  80.4415072
  53.5840271  31.8371147  79.5245156  53.7259444  33.0231197  80.4546418
  50.5040101  29.6392508  75.4261339  51.4332161  29.7903668  75.2530306
  50.0831131  29.7276529  74.5709985  49.3028432  33.6643173  73.1959877
  49.1639518  33.2961957  74.0685815  48.5143029  34.1790812  73.0243834
  49.8976584  38.7652269  64.5385413  50.0728340  38.2940312  65.3531036
  49.2109372  39.3918035  64.7666674  50.8533648  33.0424775  70.5848714
  50.5183480  33.0025545  71.4806364  50.3537593  32.3769491  70.1119125
  44.8277892  28.4492405  76.1101295  44.6897689  27.7172644  76.7112835
  45.7382815  28.3601306  75.8285483  53.7892839  30.3880810  60.8585774
  53.1722010  29.6627638  60.7618827  53.3209328  31.1490170  60.5152848
  47.4560192  28.1612365  75.5984975  48.1659811  27.5205557  75.5571594
  47.4129500  28.4125260  76.5211156  55.4446971  35.0979718  78.5191554
  55.3859517  34.4138938  77.8522137  55.8466489  35.8398708  78.0672180
  46.1689126  25.1477583  77.4180615  45.6326483  24.6968321  78.0702211
  45.5805835  25.2823492  76.6751079  44.4637670  41.9141632  71.3125273
  44.7034268  42.5460156  71.9904292  43.6206866  41.5629672  71.5990633
  45.5791385  24.6066234  59.9807078  44.7020851  24.4855035  59.6169325
  46.0549138  23.8152312  59.7285967  55.4464378  33.0619302  76.7505534
  54.5591157  32.7245224  76.8731933  56.0162929  32.3302333  76.9874299
  37.0993525  29.3943394  70.0748585  37.7864565  29.0805124  69.4869601
  36.9441654  30.2984758  69.8015837  41.9028247  24.2833590  74.5033609
  41.8186436  23.6759260  73.7684019  41.0810954  24.7742609  74.5043105
  48.9765532  37.7220754  73.7166777  48.9035703  38.5275726  74.2286082
  48.5342925  37.9212720  72.8914799  48.7655311  36.9592524  67.2269599
  47.9822833  37.5014205  67.3207823  49.4648056  37.4766504  67.6263840
  52.0751961  22.7687154  69.8703804  52.5720661  22.0157116  69.5504874
  51.3038943  22.8051471  69.3047013  59.9281719  28.4727519  71.5122096
  59.9171595  29.3552235  71.1416029  59.0599098  28.1199070  71.3176633
  51.4364215  37.6207588  75.8724936  52.1492187  38.2555053  75.8000837
  50.9454244  37.7171454  75.0564938  53.1581742  31.5258841  67.4442228
  52.2238021  31.6460304  67.2746932  53.3358410  30.6231308  67.1802237
  48.6586930  24.9104537  69.5975489  48.2884718  24.3575577  70.2856394
  49.1546022  24.3062670  69.0450489  56.5454293  27.3676160  67.9792262
  57.0114746  28.2004152  67.9052564  56.9961794  26.9021142  68.6837520
  46.4876129  35.3702032  76.6930507  47.1885588  36.0038515  76.8459901
  46.0171244  35.7116763  75.9326146  54.6130524  33.7119982  64.9778414
  54.8890368  33.5976576  65.8872288  53.7435023  33.3137467  64.9390587
  54.5170956  19.7356747  72.0183163  53.6034036  19.9660974  72.1865370
  54.9464058  19.8195191  72.8697195  54.2877415  27.9246639  74.5183057
  53.6348865  28.1722547  73.8635510  54.6657794  27.1110778  74.1845534
  51.2484588  37.9606333  68.6211227  51.4306983  37.1427988  69.0838980
  52.0717574  38.1774025  68.1836117  51.5826754  36.8874518  65.8826276
  52.1114520  36.3766972  65.2696438  51.8454974  36.5717048  66.7471809
  50.3364988  28.6666450  81.0049094  49.6605625  28.5660580  81.6751469
  51.1592621  28.5105664  81.4685091  42.0843847  34.9038387  73.6261609
  42.6697283  34.1582075  73.7589514  41.8868685  35.2142344  74.5098273
  44.9382502  37.9389634  68.6424052  44.2692877  38.4235762  68.1588092
  44.7995372  38.1858855  69.5567430  36.6761501  27.4743987  72.3466053
  36.7145601  26.9407578  73.1403171  36.1701794  26.9479193  71.7277030
  49.0787770  39.9733378  75.2406710  49.6306078  40.1364999  76.0055795
  49.4193964  40.5637816  74.5686735  44.0552264  22.3208528  75.8428595
  44.1193590  23.1823359  75.4305993  43.9919384  21.7082529  75.1100953
  43.5304536  24.3931660  79.4901629  44.1576575  24.0108738  80.1039153
  42.6732455  24.1745862  79.8557322  53.9298645  34.7994635  81.0955365
  54.4738549  35.4124594  80.6010319  53.3485490  35.3574214  81.6122378
  40.3070079  26.2008089  65.4219984  40.6023520  25.2918768  65.3687038
  39.4058115  26.1795829  65.1000986  52.2156158  37.9215353  72.2270392
  52.0907297  37.1205093  71.7181338  52.8735249  38.4161547  71.7384362
  43.8364326  24.2764086  71.4047533  43.1150912  24.8900054  71.2655006
  44.6257582  24.8121851  71.3264178  54.2791066  35.7224374  73.8549942
  53.3321402  35.6029725  73.7828269  54.6273839  34.8346872  73.9376204
  46.6390639  21.6118512  77.6788184  47.1625041  21.8580809  78.4414494
  46.4202973  22.4438547  77.2591322  42.0357921  23.8822187  65.5459309
  41.7070627  23.0019566  65.3634415  42.3897291  23.8269856  66.4335698
  51.2837499  35.5177090  70.0554295  51.1362462  34.5893797  70.2361865
  52.1090993  35.5397180  69.5711370  45.1499744  24.1695157  65.9134787
  45.4895816  24.6981078  65.1913395  45.5971864  24.5075563  66.6893353
  54.8871621  36.3405648  71.1419167  55.8118169  36.1348510  71.0043619
  54.7186925  36.0922050  72.0508509  47.8443185  22.5532208  75.3637855
  47.5040005  21.7540021  75.7658535  47.1382191  22.8533918  74.7914688
  48.4959656  19.6381520  73.8165178  49.3185726  19.1641998  73.6944068
  48.7397720  20.4172004  74.3163864  47.1367891  22.6669778  64.1128080
  47.8576253  23.0451031  63.6091796  46.5133195  23.3858655  64.2163057
  51.2799014  23.3714927  65.0486412  51.4962628  24.2539565  64.7475240
  50.7993081  22.9801141  64.3192054  46.0198235  26.3300641  71.6257156
  45.8742816  26.6440944  72.5181438  45.5423439  26.9485541  71.0728055
  47.8794618  23.3203189  71.6738046  47.8656187  22.4244282  71.3370344
  48.5967046  23.3273852  72.3076332  49.7320749  23.7540529  73.7191173
  49.4738527  24.6757599  73.7175504  49.2005789  23.3570963  74.4091638
  54.6766937  36.8591316  66.4981259  54.8503815  36.2937738  65.7455111
  55.1695829  37.6592211  66.3160749  40.4943897  28.8705985  74.5644818
  39.9497365  29.6465793  74.6965092  41.3723247  29.2176789  74.4063939
  47.2831514  22.2017569  66.9425616  47.4047425  21.2734215  67.1416504
  46.9933556  22.2156255  66.0303932  50.1522704  19.8872479  70.0792336
  50.1744401  19.9511812  69.1244316  50.5690763  19.0476988  70.2732842
  60.5306329  29.6227739  68.1171559  60.9737475  28.8735064  67.7190682
  59.6532839  29.6137875  67.7345291  55.6642110  36.1758080  63.5978157
  56.3593015  36.7964773  63.8165472  56.0065260  35.3253432  63.8730535
  41.2809919  27.9975881  77.4574974  40.5391655  28.1458517  78.0439605
  40.9602663  28.2584147  76.5941724  57.5633533  33.6257786  65.1265488
  58.0884857  33.9645059  64.4014808  57.4755886  32.6904801  64.9428622
  49.2253582  37.5391859  77.2555365  49.5340708  37.2941006  78.1278064
  50.0229064  37.7438498  76.7674235  49.2474194  39.6929769  69.4860741
  48.8079184  39.2006148  70.1793598  49.9982311  39.1502737  69.2452816
  41.7266533  35.8841310  69.4885369  42.5524553  35.5845082  69.1084013
  41.3760585  35.1148932  69.9375158  46.6948066  35.2367778  71.5583043
  46.0728075  34.5738483  71.2585271  47.3652933  35.2628910  70.8756691
  39.9275138  33.8027636  70.4474303  39.0907046  33.3749811  70.2658304
  39.8998783  33.9960080  71.3845094  46.7672593  23.7149566  81.1515549
  46.8160749  24.5911689  80.7693318  47.3095108  23.1726959  80.5787192
  57.2527439  34.2590689  80.4316686  56.4622983  34.2414828  79.8921185
  57.0160794  34.7978983  81.1865722  57.3725314  31.1083156  77.7449414
  57.4223319  30.9433163  78.6864937  57.2639238  30.2410415  77.3547295
  46.2561573  33.7871702  65.0341503  46.4049693  34.4707166  64.3808176
  47.0628016  33.7676792  65.5490959  54.6629077  27.0914084  79.0608721
  55.5638939  26.9520549  78.7692719  54.7377051  27.2568539  80.0006899
  48.9971882  24.4680939  77.9061907  48.1275191  24.7614505  77.6344496
  49.2331362  25.0521384  78.6269171  58.8743511  33.5280097  77.9891436
  58.5828319  33.8910078  78.8254897  58.2615642  32.8147106  77.8104768
  60.0739193  31.0932977  70.5094006  60.9086085  31.5322781  70.6731566
  60.2098322  30.6171630  69.6902252  57.1230699  28.6512712  76.4571494
  57.5984821  28.8440358  75.6490345  56.1996265  28.7071898  76.2114878
  44.0114206  29.8136879  66.0402572  43.7660248  28.9099209  66.2382782
  44.1810120  29.8154030  65.0982050  51.7010916  20.6860556  75.4227328
  52.2192860  21.4221582  75.0973816  51.3466049  20.9924549  76.2574087
  43.2809853  25.5465237  63.5388734  42.5879098  25.6209592  62.8828770
  43.0361605  24.7825580  64.0610251  51.9523510  17.1060838  70.9428224
  52.2325264  16.4384027  71.5688651  52.7374117  17.2989934  70.4302888
  49.7556978  36.2819832  62.5053251  49.1830945  36.9010019  62.0523723
  50.3289772  36.8319194  63.0393173  55.8232368  25.5278472  74.6899799
  56.7749791  25.6276570  74.7112024  55.6535819  24.7356741  75.1997884
  53.8446748  22.6134055  74.8759200  53.2496680  22.8939068  74.1805689
  53.5596444  23.1027956  75.6475942  52.9754238  36.5656982  63.6361833
  53.9084911  36.5002544  63.8394708  52.8877451  37.4013249  63.1776366
  55.6042255  35.8822852  60.5965781  55.5255886  35.5482716  61.4901538
  56.4251922  36.3744620  60.5957253  58.3020446  28.7484592  73.8042099
  58.2696766  27.8100592  73.9901783  58.9121070  28.8268628  73.0707924
  50.1403777  27.6180645  59.8469303  51.0862882  27.4886853  59.9157721
  49.7618022  26.8795307  60.3238731  58.4514935  25.5395635  73.8500382
  57.9353983  24.7554092  73.6630311  59.3354883  25.2114352  74.0146902
  56.1125661  19.2836651  69.8096195  55.9150483  18.9751739  70.6939527
  56.7225367  20.0098290  69.9394125  64.1196996  29.8100599  72.9448136
  64.8500384  29.5485887  73.5055839  63.5103941  29.0729321  72.9850204
  62.2012293  27.9508461  73.5422587  61.4745457  27.8164426  72.9339079
  61.7859580  28.2585290  74.3479305  50.0242469  31.6698391  81.3069960
  50.9445479  31.8476990  81.5010007  49.9892052  30.7254436  81.1549659
  48.3246694  25.5430621  59.7824188  47.4178149  25.2463734  59.8586902
  48.6022675  25.2460439  58.9158475  39.2424634  26.8636985  70.2323235
  38.9227419  26.0102293  69.9397609  38.6958063  27.0785563  70.9881202
  43.0204542  29.5799426  73.9492741  43.2390552  30.5116533  73.9680775
  43.4330316  29.2207400  74.7347545  49.9408760  20.0867511  65.9368430
  49.1309488  19.7414596  66.3123676  50.6293177  19.7775055  66.5256041
  51.8699308  19.1645558  67.5592726  52.4230347  19.5841011  68.2182749
  52.1069394  18.2381306  67.6015682  47.8932407  25.1532631  83.3395490
  47.7929134  26.1026988  83.2707581  47.6753949  24.8250870  82.4671560
  47.0945479  22.4017556  59.9236168  47.9564643  22.7272455  60.1831985
  47.2795823  21.6149052  59.4109233  39.1112894  30.4839896  72.2016356
  38.4176366  30.0693849  71.6886311  39.8585885  30.5260433  71.6049775
  55.2478115  21.2746083  67.0671391  54.6676784  21.9330887  66.6849443
  54.9814048  20.4523427  66.6558808  53.6981682  20.6751141  69.2692711
  54.1981460  20.7867675  68.4607030  54.3417289  20.3712193  69.9093519
  47.7563677  28.5829770  82.1560552  47.2730759  29.3830130  82.3624441
  47.8424616  28.5937715  81.2027996  41.0249637  30.4158150  70.0782371
  41.0020325  30.5145837  69.1264254  41.3350273  31.2623301  70.3999537
  43.6837015  32.4734305  74.1928986  44.6380268  32.4418247  74.1258917
  43.4849538  32.0124929  75.0079212  44.2736397  31.0435421  76.7599783
  45.0929286  31.5379500  76.7834621  44.5473205  30.1267389  76.7317351
  54.0302993  23.4346173  66.1227739  53.1428848  23.7195824  65.9047934
  54.4456982  23.2739937  65.2755016  57.3817529  23.4592694  69.8382078
  58.1577919  23.9489147  70.1106695  56.6565663  23.8850748  70.2953948
  59.8190088  24.1720313  70.8956019  60.4134579  23.9316049  70.1849327
  59.8916672  23.4527444  71.5229555  42.0387244  38.0153924  71.2099184
  41.9041712  37.2554325  70.6437182  41.6219306  38.7394824  70.7427972
  53.1746207  33.1990848  60.2175759  53.8782057  33.4040850  60.8333414
  52.4508855  33.7667610  60.4824842  54.0044017  28.9500709  66.3378029
  53.9479218  29.4069261  65.4985661  54.5572359  28.1891394  66.1600872
  57.8148823  24.7390441  67.1628149  57.5585757  24.3387077  67.9936356
  57.1901691  25.4534235  67.0378288  62.1261161  27.4786514  69.6699440
  61.5660719  27.5479704  70.4431002  61.5204664  27.3027499  68.9498936
  45.1956370  38.9123241  71.4217626  45.0788754  39.8568674  71.3196316
  44.3748816  38.6096803  71.8103425  55.0832904  33.6373377  62.2674219
  55.9178508  33.2054576  62.0851694  54.9217247  33.4655391  63.1951113
  54.7378796  30.1405490  63.6330558  54.6827600  29.9749762  62.6919002
  54.1124851  30.8481523  63.7892748  39.5271311  25.3773555  77.4591980
  40.1730175  24.8672509  77.9479206  39.3188462  26.1142236  78.0335406
  52.0524703  32.4454402  82.9584121  52.9215863  32.6195055  82.5970756
  51.5731455  33.2648819  82.8359850  48.0474922  19.6413599  63.2115877
  48.0353592  20.5855439  63.3684147  48.9398344  19.4583745  62.9175338
  46.2210884  39.5651503  74.6373555  47.1238130  39.5975114  74.9540050
  45.9948254  38.6351954  74.6519890  47.9764486  38.3182490  71.2983633
  47.0260117  38.3184351  71.1848006  48.2796972  37.5715224  70.7819668
  51.8627041  16.2356376  67.4661813  51.0959437  15.6814863  67.6118496
  52.2737746  16.3078245  68.3275965  43.8668802  22.5241172  81.5566995
  44.7300264  22.1677977  81.7670319  43.2934213  22.1855067  82.2442399
  63.7117179  44.1543028  72.3629396  64.3495589  44.0349776  71.6592736
  63.5938022  45.1023872  72.4217348  60.5206885  44.1070456  72.2990920
  60.1825397  43.9911521  71.4111455  61.3896654  43.7061621  72.2791926
  56.3793701  45.9605933  68.2887811  55.8158566  45.8695870  67.5204099
  56.2646096  45.1405837  68.7690304  61.0026668  45.2605308  78.2577126
  60.9915309  44.8658106  77.3857630  61.1647308  44.5271381  78.8510897
  53.9258133  47.4557124  71.1272032  54.7179425  47.1147949  70.7118331
  54.1654783  47.5652099  72.0474185  61.9593260  49.6276900  63.6002276
  61.3081240  50.2130981  63.2136290  62.7537623  50.1583095  63.6597314
  55.8848887  46.7166038  63.9989411  56.6579763  46.1695025  63.8602286
  56.2374286  47.5810287  64.2103872  57.7233930  48.0442420  77.2056310
  57.4323796  48.9488051  77.0902976  58.3590914  48.0858947  77.9200379
  58.6490136  45.4219268  73.7957670  59.2453709  45.1975291  73.0814632
  58.7065108  44.6804014  74.3983117  58.2215165  42.8758704  61.6307860
  58.4740685  42.3540225  60.8691323  57.2839724  42.7124849  61.7334544
  63.2658448  41.8794482  69.4382604  64.0521537  41.4613905  69.0873021
  63.5297152  42.7840574  69.6064252  63.4368525  47.3167332  64.1371261
  62.8014358  47.3901959  64.8492165  63.1065931  47.9060931  63.4590340
  68.6666875  41.8169715  70.3415582  69.3992047  41.2468932  70.5753412
  67.9106230  41.4291316  70.7822088  57.9411454  44.7786810  63.8332235
  57.8247712  44.1031713  64.5013320  58.0513713  44.2919184  63.0164388
  60.2842994  44.2396957  67.5378925  59.9201202  43.7127578  68.2491846
  61.1410110  43.8495426  67.3645410  66.1892295  35.5291289  74.8010191
  65.8575620  36.3986700  74.5771406  65.5937908  35.2127573  75.4804221
  59.9248481  39.2686856  62.5340273  60.0922884  40.1367093  62.9010744
  59.7345651  39.4314138  61.6101562  62.6823815  47.7303835  74.2006104
  62.3824538  48.6328874  74.0921911  62.3374874  47.4636019  75.0527256
  56.1336296  44.1817632  70.2342808  55.2086793  44.0493846  70.4420500
  56.3820709  44.9611851  70.7312750  66.0820958  40.2486376  71.8803541
  65.1737836  40.1801784  71.5862302  66.0308554  40.7258320  72.7085366
  59.9037702  41.7244514  63.5186940  59.7837328  42.1701565  64.3572420
  59.2090291  42.0729832  62.9600478  53.4945107  43.8250906  71.0686597
  53.6237488  44.0785385  71.9826009  52.8142558  44.4178614  70.7491252
  57.6644594  54.4948156  67.1677071  57.5868624  55.4455981  67.2465552
  57.0606238  54.1494028  67.8251998  60.1561824  41.6676021  79.8238438
  59.3795158  42.2269941  79.8141303  60.7952387  42.1532804  80.3453308
  67.9482605  38.4502814  73.6581415  67.3056985  38.7435347  73.0121209
  67.4437533  38.3355734  74.4634611  65.6022768  42.1965987  64.3467274
  66.5140625  42.4293374  64.1714972  65.0932416  42.7803031  63.7842353
  58.4108197  44.4761474  79.3856405  59.1522881  45.0146518  79.1091229
  57.7045182  45.1027763  79.5427957  63.8863536  46.6190615  77.9828567
  64.2946892  46.1773025  77.2383199  63.1640798  46.0443242  78.2362760
  60.2394606  41.5563222  75.3562124  61.0855801  41.9802635  75.4996773
  60.1793244  40.8996846  76.0500687  64.2092351  47.1791806  71.7380856
  63.5801213  47.3437520  71.0356923  63.8218013  47.5933415  72.5091820
  68.0881583  48.1146243  69.0925219  67.4032621  48.4945145  68.5422253
  68.1725432  48.7241570  69.8257167  63.3894052  39.2167590  77.0143297
  63.1454983  39.9709651  76.4777573  63.6653982  39.5952938  77.8490544
  65.3432514  45.7606202  75.6920563  65.5549410  46.4037962  75.0154944
  65.2962263  44.9268519  75.2242493  62.9458743  38.3724023  72.5957135
  62.0843222  38.6705277  72.8873873  62.9721178  38.5894422  71.6638168
  59.7620313  46.9166214  69.0030941  60.2258658  47.1953917  68.2135563
  59.4977111  46.0149658  68.8204031  56.6544394  46.4637695  71.9410704
  57.2245751  46.8924964  71.3028188  57.2452506  46.1820280  72.6394890
  58.6989199  43.0389366  65.8120506  59.4013242  43.4910410  66.2794432
  58.3669827  42.3973185  66.4400399  57.1469560  41.6301123  80.1871715
  56.5168221  42.3117403  80.4207112  57.0405648  41.5184204  79.2424853
  52.4414533  41.2972919  71.1137639  51.6513587  41.5530447  70.6377750
  52.9325780  42.1121257  71.2189680  66.4578342  48.6378158  73.8642920
  67.2795786  48.2358345  73.5825602  66.4540745  48.5346392  74.8159036
  54.3929278  41.6617498  68.0721116  53.5960441  41.7736192  68.5904612
  54.1654870  42.0004150  67.2062007  60.2234946  48.1862201  76.0203631
  60.2879378  48.6482608  76.8561802  59.5145870  47.5559566  76.1485940
  50.7252236  41.5503409  73.5452630  50.9760274  42.4350419  73.8110206
  51.2611784  41.3708011  72.7727722  74.5484335  44.9816906  70.2127892
  73.7948044  44.4124304  70.0571896  74.6831877  44.9479571  71.1598526
  59.9382963  49.8530309  65.8882611  59.8028638  50.6981844  66.3167459
  60.4792776  50.0549586  65.1248545  56.4250303  35.9321888  82.5496966
  56.0317249  35.3788087  83.2244610  57.2416443  36.2432467  82.9403484
  53.3912361  47.3705747  66.4610536  53.9036881  48.1648997  66.6116101
  54.0435074  46.6732037  66.3944138  55.2007245  50.4871503  68.5433289
  55.3773874  51.4089468  68.3554273  55.9964079  50.1729922  68.9727669
  59.3418264  37.3479768  80.1417223  60.0827977  37.9486921  80.0621685
  59.5736187  36.6057405  79.5835265  54.4859602  42.5336135  78.4195452
  54.3713117  41.6321392  78.7202551  53.6304120  42.7799832  78.0680269
  61.5651440  50.4753875  80.0182953  61.1215294  49.6890254  79.7003858
  62.2268653  50.6633026  79.3526844  56.3238561  52.0049677  74.5443632
  56.8745986  51.8766740  73.7720626  55.4850037  52.3044566  74.1938524
  63.6632678  50.7556675  78.0464354  63.6451153  51.5765556  77.5544623
  64.5852598  50.6310750  78.2714495  60.1205732  48.2700805  78.8887863
  60.6534069  47.5089093  78.6587171  59.5919813  47.9774456  79.6312017
  63.2875427  33.3760871  74.4181504  62.9439696  34.2662512  74.3420615
  63.6554390  33.1862528  73.5551089  51.3561278  45.6994401  67.2370107
  52.1936500  46.1091409  67.0203814  51.5339545  44.7593843  67.2070300
  63.2525710  43.3669482  62.9253940  62.7372333  44.1374086  63.1642327
  62.9803018  42.6934618  63.5487001  60.8372821  38.2119182  67.9839178
  59.9814417  37.8226033  67.8044817  61.2499772  38.2911143  67.1238963
  62.3671967  35.7465526  72.3830738  61.8636763  35.7095661  71.5698543
  62.6602574  36.6558268  72.4427394  58.6114853  35.8304255  71.3896919
  59.4767850  35.6347064  71.0302809  58.6792362  35.6014607  72.3166276
  68.2259984  46.1201836  64.8607113  67.4489427  45.7812996  64.4162275
  68.9051465  46.1254459  64.1862078  63.0412013  41.2396574  64.7513721
  62.7362148  41.5542723  65.6023864  63.9942455  41.3177994  64.7941054
  61.4858445  47.3986797  66.4006675  60.9579806  46.6639557  66.0879912
  60.9845947  48.1761473  66.1546643  66.4651291  45.5935818  71.5173721
  65.8074965  46.2835079  71.6053850  67.2691690  45.9832249  71.8607707
  56.2177172  38.0606463  68.7613286  56.7920924  37.8381645  68.0286479
  56.8048155  38.1295158  69.5141888  65.2756749  43.9480190  69.5677663
  65.7888631  44.5810182  70.0699372  65.9257973  43.3481386  69.2021023
  56.5446759  40.0910924  62.7809171  55.7084072  40.4285611  63.1018446
  56.4051529  39.9559904  61.8436308  58.5199840  34.9347712  67.4888356
  57.8664252  34.6196729  66.8644970  58.4780314  34.3123453  68.2148179
  59.6311045  45.2167007  59.4041648  58.7238107  44.9856261  59.6032797
  60.1282077  44.4204627  59.5915629  62.5379124  53.9264514  62.3238334
  61.8640822  54.2296211  62.9323292  62.9244946  54.7293595  61.9743791
  61.7537580  41.4229646  71.8136003  60.8360142  41.6444593  71.6557691
  62.1697724  41.4975956  70.9547711  62.5372628  42.8221061  66.9438684
  63.2844447  43.3342459  66.6345806  62.8064218  42.5005114  67.8043077
  60.8099278  45.3179602  63.9265638  59.9010498  45.0338635  64.0238108
  60.8394362  45.7378681  63.0668945  66.0418546  48.9286192  67.6956805
  65.5880873  48.0877102  67.7521996  65.4112512  49.5647590  68.0331586
  64.9851465  39.8578178  68.9257473  64.2474222  39.3455564  69.2567715
  65.2378239  39.4178559  68.1140750  64.4851485  50.7662688  68.6306624
  64.7774459  51.3267745  67.9118989  64.9950106  51.0591249  69.3859783
  65.0863093  32.6354430  69.5199242  65.3921969  31.7751793  69.2325157
  65.8115697  33.2272050  69.3198236  51.3787449  43.0385116  67.9080840
  51.1811848  42.4454477  67.1831907  50.8234113  42.7337326  68.6256779
  59.3584172  42.9308223  70.0275433  59.4132782  41.9782059  69.9517910
  58.5475374  43.0867662  70.5116732  60.5075366  46.8588346  61.2653716
  60.0694796  46.1424205  60.8059354  61.2485807  47.0864461  60.7038808
  57.2976532  41.5485283  67.7865812  56.4844398  41.8479453  68.1931004
  57.7935526  41.1540971  68.5040294  59.4485110  51.5443039  69.7200077
  59.4061289  51.7703886  68.7908609  60.3647809  51.3106414  69.8685878
  62.8950744  42.0127107  76.6180706  63.2500132  42.2398580  77.4775172
  63.5422875  42.3445484  75.9957961  68.6248481  45.1345543  67.3230035
  68.4866379  45.3247139  66.3951224  68.2684700  45.8964926  67.7798086
  56.7890607  39.1203638  73.4027047  57.4289986  38.9792397  72.7050010
  55.9568138  38.8338151  73.0265649  68.6517860  47.2022070  72.3341306
  69.0854367  47.1097359  73.1824361  69.3649441  47.1779570  71.6961322
  57.5650911  48.4206068  69.5162039  58.3591509  47.9256389  69.3144614
  56.8542603  47.8923932  69.1529745  62.3845755  50.8024164  73.8674407
  62.4382778  51.3715100  74.6352123  61.5160537  50.9726049  73.5028444
  53.8733674  42.5649150  65.5921792  52.9431262  42.5033606  65.8091754
  53.9691146  42.0425103  64.7958433  53.7919223  39.0903963  68.1800034
  54.0526041  40.0049296  68.0709194  54.6136396  38.6228406  68.3296647
  55.2644149  40.5041720  75.3498858  55.9367202  40.2959082  74.7011507
  54.4373935  40.3063806  74.9104091  69.5133410  47.2445771  74.8674192
  69.7069300  48.1491581  75.1133467  69.4134028  46.7853190  75.7012777
  61.1669721  37.1303661  77.3664519  60.5197636  37.8293611  77.2728996
  61.9370736  37.5639805  77.7340767  64.5748519  47.3952513  80.4415072
  64.4234025  47.1663065  79.5245156  64.5653198  48.3523115  80.4546418
  61.3433855  44.9684426  75.4261339  62.2725915  45.1195586  75.2530306
  60.9224885  45.0568447  74.5709985  60.1422187  48.9935090  73.1959877
  60.0033273  48.6253875  74.0685815  59.3536783  49.5082730  73.0243834
  60.7370339  54.0944187  64.5385413  60.9122095  53.6232230  65.3531036
  60.0503127  54.7209953  64.7666674  61.6927402  48.3716693  70.5848714
  61.3577235  48.3317463  71.4806364  61.1931348  47.7061409  70.1119125
  55.6671646  43.7784323  76.1101295  55.5291444  43.0464562  76.7112835
  56.5776569  43.6893223  75.8285483  64.6286594  45.7172727  60.8585774
  64.0115764  44.9919556  60.7618827  64.1603082  46.4782088  60.5152848
  58.2953947  43.4904282  75.5984975  59.0053565  42.8497475  75.5571594
  58.2523255  43.7417177  76.5211156  66.2840725  50.4271636  78.5191554
  66.2253272  49.7430856  77.8522137  66.6860244  51.1690626  78.0672180
  57.0082881  40.4769500  77.4180615  56.4720238  40.0260239  78.0702211
  56.4199589  40.6115409  76.6751079  55.3031424  57.2433550  71.3125273
  55.5428022  57.8752074  71.9904292  54.4600621  56.8921590  71.5990633
  56.4185140  39.9358152  59.9807078  55.5414606  39.8146953  59.6169325
  56.8942893  39.1444230  59.7285967  66.2858133  48.3911220  76.7505534
  65.3984911  48.0537142  76.8731933  66.8556684  47.6594251  76.9874299
  47.9387280  44.7235312  70.0748585  48.6258320  44.4097042  69.4869601
  47.7835408  45.6276676  69.8015837  52.7422002  39.6125508  74.5033609
  52.6580191  39.0051178  73.7684019  51.9204708  40.1034526  74.5043105
  59.8159286  53.0512672  73.7166777  59.7429457  53.8567644  74.2286082
  59.3736679  53.2504638  72.8914799  59.6049066  52.2884442  67.2269599
  58.8216588  52.8306122  67.3207823  60.3041811  52.8058422  67.6263840
  62.9145716  38.0979072  69.8703804  63.4114415  37.3449034  69.5504874
  62.1432697  38.1343388  69.3047013  70.7675473  43.8019437  71.5122096
  70.7565349  44.6844153  71.1416029  69.8992853  43.4490988  71.3176633
  62.2757970  52.9499506  75.8724936  62.9885942  53.5846971  75.8000837
  61.7847998  53.0463372  75.0564938  63.9975496  46.8550759  67.4442228
  63.0631775  46.9752221  67.2746932  64.1752165  45.9523226  67.1802237
  59.4980685  40.2396455  69.5975489  59.1278472  39.6867495  70.2856394
  59.9939777  39.6354588  69.0450489  67.3848048  42.6968078  67.9792262
  67.8508500  43.5296070  67.9052564  67.8355548  42.2313060  68.6837520
  57.3269883  50.6993950  76.6930507  58.0279343  51.3330433  76.8459901
  56.8564998  51.0408681  75.9326146  65.4524279  49.0411899  64.9778414
  65.7284123  48.9268494  65.8872288  64.5828778  48.6429384  64.9390587
  65.3564711  35.0648665  72.0183163  64.4427790  35.2952892  72.1865370
  65.7857812  35.1487109  72.8697195  65.1271169  43.2538557  74.5183057
  64.4742619  43.5014465  73.8635510  65.5051549  42.4402695  74.1845534
  62.0878343  53.2898250  68.6211227  62.2700737  52.4719906  69.0838980
  62.9111329  53.5065942  68.1836117  62.4220508  52.2166435  65.8826276
  62.9508275  51.7058890  65.2696438  62.6848728  51.9008966  66.7471809
  61.1758742  43.9958368  81.0049094  60.4999379  43.8952497  81.6751469
  61.9986376  43.8397582  81.4685091  52.9237601  50.2330305  73.6261609
  53.5091038  49.4873993  73.7589514  52.7262440  50.5434261  74.5098273
  55.7776256  53.2681552  68.6424052  55.1086632  53.7527680  68.1588092
  55.6389126  53.5150772  69.5567430  47.5155256  42.8035905  72.3466053
  47.5539355  42.2699496  73.1403171  47.0095549  42.2771110  71.7277030
  59.9181525  55.3025296  75.2406710  60.4699833  55.4656917  76.0055795
  60.2587718  55.8929733  74.5686735  54.8946018  37.6500445  75.8428595
  54.9587345  38.5115276  75.4305993  54.8313138  37.0374447  75.1100953
  54.3698291  39.7223578  79.4901629  54.9970330  39.3400655  80.1039153
  53.5126210  39.5037780  79.8557322  64.7692399  50.1286553  81.0955365
  65.3132303  50.7416511  80.6010319  64.1879244  50.6866131  81.6122378
  51.1463833  41.5300007  65.4219984  51.4417275  40.6210685  65.3687038
  50.2451869  41.5087746  65.1000986  63.0549912  53.2507271  72.2270392
  62.9301052  52.4497011  71.7181338  63.7129003  53.7453464  71.7384362
  54.6758080  39.6056004  71.4047533  53.9544666  40.2191971  71.2655006
  55.4651336  40.1413768  71.3264178  65.1184821  51.0516291  73.8549942
  64.1715156  50.9321642  73.7828269  65.4667594  50.1638789  73.9376204
  57.4784394  36.9410430  77.6788184  58.0018796  37.1872727  78.4414494
  57.2596727  37.7730465  77.2591322  52.8751675  39.2114105  65.5459309
  52.5464381  38.3311484  65.3634415  53.2291046  39.1561773  66.4335698
  62.1231254  50.8469007  70.0554295  61.9756216  49.9185715  70.2361865
  62.9484747  50.8689098  69.5711370  55.9893498  39.4987074  65.9134787
  56.3289571  40.0272996  65.1913395  56.4365619  39.8367481  66.6893353
  65.7265376  51.6697566  71.1419167  66.6511923  51.4640427  71.0043619
  65.5580679  51.4213967  72.0508509  58.6836939  37.8824125  75.3637855
  58.3433759  37.0831938  75.7658535  57.9775945  38.1825836  74.7914688
  59.3353411  34.9673438  73.8165178  60.1579480  34.4933916  73.6944068
  59.5791474  35.7463921  74.3163864  57.9761645  37.9961696  64.1128080
  58.6970008  38.3742949  63.6091796  57.3526949  38.7150573  64.2163057
  62.1192768  38.7006845  65.0486412  62.3356383  39.5831483  64.7475240
  61.6386835  38.3093058  64.3192054  56.8591990  41.6592558  71.6257156
  56.7136570  41.9732861  72.5181438  56.3817193  42.2777459  71.0728055
  58.7188372  38.6495106  71.6738046  58.7049941  37.7536200  71.3370344
  59.4360801  38.6565770  72.3076332  60.5714503  39.0832446  73.7191173
  60.3132281  40.0049517  73.7175504  60.0399544  38.6862881  74.4091638
  65.5160692  52.1883234  66.4981259  65.6897569  51.6229656  65.7455111
  66.0089583  52.9884128  66.3160749  51.3337652  44.1997903  74.5644818
  50.7891120  44.9757711  74.6965092  52.2117002  44.5468707  74.4063939
  58.1225268  37.5309487  66.9425616  58.2441180  36.6026133  67.1416504
  57.8327311  37.5448172  66.0303932  60.9916459  35.2164397  70.0792336
  61.0138156  35.2803730  69.1244316  61.4084518  34.3768906  70.2732842
  71.3700083  44.9519657  68.1171559  71.8131229  44.2026982  67.7190682
  70.4926593  44.9429793  67.7345291  66.5035864  51.5049998  63.5978157
  67.1986769  52.1256691  63.8165472  66.8459015  50.6545349  63.8730535
  52.1203674  43.3267799  77.4574974  51.3785410  43.4750434  78.0439605
  51.7996418  43.5876065  76.5941724  68.4027288  48.9549704  65.1265488
  68.9278612  49.2936976  64.4014808  68.3149640  48.0196719  64.9428622
  60.0647336  52.8683777  77.2555365  60.3734463  52.6232924  78.1278064
  60.8622818  53.0730416  76.7674235  60.0867948  55.0221687  69.4860741
  59.6472939  54.5298065  70.1793598  60.8376065  54.4794654  69.2452816
  52.5660287  51.2133228  69.4885369  53.3918307  50.9137000  69.1084013
  52.2154339  50.4440850  69.9375158  57.5341820  50.5659696  71.5583043
  56.9121830  49.9030401  71.2585271  58.2046687  50.5920828  70.8756691
  50.7668892  49.1319554  70.4474303  49.9300801  48.7041728  70.2658304
  50.7392538  49.3251997  71.3845094  57.6066348  39.0441484  81.1515549
  57.6554503  39.9203607  80.7693318  58.1488862  38.5018877  80.5787192
  68.0921194  49.5882607  80.4316686  67.3016737  49.5706746  79.8921185
  67.8554548  50.1270901  81.1865722  68.2119069  46.4375074  77.7449414
  68.2617074  46.2725081  78.6864937  68.1032992  45.5702333  77.3547295
  57.0955327  49.1163619  65.0341503  57.2443448  49.7999084  64.3808176
  57.9021771  49.0968709  65.5490959  65.5022831  42.4206002  79.0608721
  66.4032694  42.2812466  78.7692719  65.5770806  42.5860456  80.0006899
  59.8365636  39.7972856  77.9061907  58.9668946  40.0906422  77.6344496
  60.0725117  40.3813301  78.6269171  69.7137266  48.8572015  77.9891436
  69.4222074  49.2201996  78.8254897  69.1009397  48.1439023  77.8104768
  70.9132948  46.4224895  70.5094006  71.7479839  46.8614699  70.6731566
  71.0492077  45.9463548  69.6902252  67.9624454  43.9804630  76.4571494
  68.4378575  44.1732276  75.6490345  67.0390019  44.0363815  76.2114878
  54.8507960  45.1428797  66.0402572  54.6054002  44.2391127  66.2382782
  55.0203875  45.1445947  65.0982050  62.5404670  36.0152473  75.4227328
  63.0586614  36.7513500  75.0973816  62.1859803  36.3216467  76.2574087
  54.1203608  40.8757154  63.5388734  53.4272853  40.9501509  62.8828770
  53.8755360  40.1117498  64.0610251  62.7917264  32.4352756  70.9428224
  63.0719018  31.7675945  71.5688651  63.5767871  32.6281851  70.4302888
  66.6626123  40.8570390  74.6899799  67.6143546  40.9568487  74.7112024
  66.4929573  40.0648658  75.1997884  64.6840502  37.9425973  74.8759200
  64.0890434  38.2230986  74.1805689  64.3990199  38.4319874  75.6475942
  63.8147993  51.8948900  63.6361833  64.7478666  51.8294461  63.8394708
  63.7271206  52.7305167  63.1776366  66.4436009  51.2114770  60.5965781
  66.3649641  50.8774634  61.4901538  67.2645676  51.7036538  60.5957253
  69.1414201  44.0776509  73.8042099  69.1090521  43.1392510  73.9901783
  69.7514824  44.1560546  73.0707924  60.9797531  42.9472562  59.8469303
  61.9256636  42.8178771  59.9157721  60.6011776  42.2087224  60.3238731
  69.2908689  40.8687553  73.8500382  68.7747738  40.0846010  73.6630311
  70.1748638  40.5406269  74.0146902  66.9519416  34.6128568  69.8096195
  66.7544237  34.3043657  70.6939527  67.5619122  35.3390207  69.9394125
  74.9590750  45.1392516  72.9448136  75.6894139  44.8777804  73.5055839
  74.3497696  44.4021238  72.9850204  73.0406048  43.2800379  73.5422587
  72.3139211  43.1456344  72.9339079  72.6253334  43.5877207  74.3479305
  60.8636224  46.9990309  81.3069960  61.7839233  47.1768908  81.5010007
  60.8285807  46.0546354  81.1549659  59.1640449  40.8722539  59.7824188
  58.2571904  40.5755652  59.8586902  59.4416430  40.5752357  58.9158475
  50.0818389  42.1928902  70.2323235  49.7621173  41.3394210  69.9397609
  49.5351817  42.4077480  70.9881202  53.8598296  44.9091343  73.9492741
  54.0784306  45.8408451  73.9680775  54.2724070  44.5499318  74.7347545
  60.7802514  35.4159429  65.9368430  59.9703243  35.0706513  66.3123676
  61.4686931  35.1066972  66.5256041  62.7093063  34.4937475  67.5592726
  63.2624101  34.9132929  68.2182749  62.9463149  33.5673223  67.6015682
  58.7326162  40.4824549  83.3395490  58.6322889  41.4318906  83.2707581
  58.5147704  40.1542788  82.4671560  57.9339233  37.7309474  59.9236168
  58.7958397  38.0564372  60.1831985  58.1189577  36.9440970  59.4109233
  49.9506649  45.8131814  72.2016356  49.2570120  45.3985767  71.6886311
  50.6979640  45.8552350  71.6049775  66.0871870  36.6038000  67.0671391
  65.5070539  37.2622805  66.6849443  65.8207802  35.7815345  66.6558808
  64.5375436  36.0043058  69.2692711  65.0375214  36.1159593  68.4607030
  65.1811044  35.7004111  69.9093519  58.5957432  43.9121688  82.1560552
  58.1124514  44.7122048  82.3624441  58.6818371  43.9229633  81.2027996
  51.8643391  45.7450067  70.0782371  51.8414080  45.8437755  69.1264254
  52.1744028  46.5915218  70.3999537  54.5230769  47.8026223  74.1928986
  55.4774023  47.7710165  74.1258917  54.3243293  47.3416846  75.0079212
  55.1130151  46.3727339  76.7599783  55.9323040  46.8671417  76.7834621
  55.3866959  45.4559307  76.7317351  64.8696748  38.7638091  66.1227739
  63.9822603  39.0487741  65.9047934  65.2850737  38.6031854  65.2755016
  68.2211284  38.7884612  69.8382078  68.9971674  39.2781064  70.1106695
  67.4959418  39.2142666  70.2953948  70.6583842  39.5012231  70.8956019
  71.2528333  39.2607967  70.1849327  70.7310426  38.7819362  71.5229555
  52.8780998  53.3445842  71.2099184  52.7435466  52.5846243  70.6437182
  52.4613060  54.0686742  70.7427972  64.0139961  48.5282766  60.2175759
  64.7175811  48.7332768  60.8333414  63.2902610  49.0959527  60.4824842
  64.8437771  44.2792627  66.3378029  64.7872973  44.7361178  65.4985661
  65.3966114  43.5183311  66.1600872  68.6542577  40.0682359  67.1628149
  68.3979512  39.6678994  67.9936356  68.0295445  40.7826153  67.0378288
  72.9654915  42.8078432  69.6699440  72.4054473  42.8771621  70.4431002
  72.3598419  42.6319417  68.9498936  56.0350124  54.2415159  71.4217626
  55.9182508  55.1860592  71.3196316  55.2142570  53.9388721  71.8103425
  65.9226659  48.9665295  62.2674219  66.7572262  48.5346493  62.0851694
  65.7611001  48.7947308  63.1951113  65.5772551  45.4697408  63.6330558
  65.5221355  45.3041679  62.6919002  64.9518606  46.1773441  63.7892748
  50.3665066  40.7065472  77.4591980  51.0123929  40.1964426  77.9479206
  50.1582217  41.4434154  78.0335406  62.8918458  47.7746320  82.9584121
  63.7609618  47.9486972  82.5970756  62.4125209  48.5940737  82.8359850
  58.8868676  34.9705517  63.2115877  58.8747346  35.9147357  63.3684147
  59.7792098  34.7875662  62.9175338  57.0604638  54.8943421  74.6373555
  57.9631885  54.9267031  74.9540050  56.8342008  53.9643872  74.6519890
  58.8158240  53.6474407  71.2983633  57.8653871  53.6476269  71.1848006
  59.1190726  52.9007142  70.7819668  62.7020796  31.5648294  67.4661813
  61.9353191  31.0106780  67.6118496  63.1131501  31.6370162  68.3275965
  54.7062557  37.8533089  81.5566995  55.5694018  37.4969894  81.7670319
  54.1327967  37.5146984  82.2442399  74.5510934  59.4834946  72.3629396
  75.1889344  59.3641693  71.6592736  74.4331777  60.4315790  72.4217348
  71.3600640  59.4362374  72.2990920  71.0219151  59.3203439  71.4111455
  72.2290408  59.0353539  72.2791926  67.2187456  61.2897850  68.2887811
  66.6552321  61.1987787  67.5204099  67.1039851  60.4697755  68.7690304
  64.7651888  62.7849042  71.1272032  65.5573179  62.4439867  70.7118331
  65.0048538  62.8944017  72.0474185  66.7242641  62.0457955  63.9989411
  67.4973517  61.4986942  63.8602286  67.0768040  62.9102205  64.2103872
  69.4883891  60.7511186  73.7957670  70.0847463  60.5267208  73.0814632
  69.5458862  60.0095931  74.3983117  69.0608919  58.2050621  61.6307860
  69.3134440  57.6832143  60.8691323  68.1233478  58.0416767  61.7334544
  74.1052202  57.2086400  69.4382604  74.8915291  56.7905823  69.0873021
  74.3690906  58.1132492  69.6064252  74.2762279  62.6459250  64.1371261
  73.6408112  62.7193877  64.8492165  73.9459686  63.2352849  63.4590340
  79.5060629  57.1461633  70.3415582  80.2385801  56.5760850  70.5753412
  78.7499985  56.7583233  70.7822088  68.7805208  60.1078727  63.8332235
  68.6641466  59.4323631  64.5013320  68.8907468  59.6211101  63.0164388
  71.1236749  59.5688874  67.5378925  70.7594956  59.0419495  68.2491846
  71.9803865  59.1787343  67.3645410  77.0286050  50.8583207  74.8010191
  76.6969374  51.7278618  74.5771406  76.4331663  50.5419491  75.4804221
  70.7642236  54.5978774  62.5340273  70.9316638  55.4659011  62.9010744
  70.5739405  54.7606056  61.6101562  73.5217569  63.0595753  74.2006104
  73.2218292  63.9620792  74.0921911  73.1768629  62.7927936  75.0527256
  66.9730051  59.5109550  70.2342808  66.0480547  59.3785764  70.4420500
  67.2214464  60.2903769  70.7312750  76.9214713  55.5778293  71.8803541
  76.0131590  55.5093702  71.5862302  76.8702309  56.0550238  72.7085366
  70.7431457  57.0536432  63.5186940  70.6231082  57.4993482  64.3572420
  70.0484045  57.4021749  62.9600478  64.3338862  59.1542823  71.0686597
  64.4631243  59.4077302  71.9826009  63.6536313  59.7470531  70.7491252
  68.5038349  69.8240073  67.1677071  68.4262379  70.7747898  67.2465552
  67.8999993  69.4785946  67.8251998  78.7876359  53.7794732  73.6581415
  78.1450740  54.0727265  73.0121209  78.2831288  53.6647652  74.4634611
  76.4416523  57.5257905  64.3467274  77.3534379  57.7585292  64.1714972
  75.9326170  58.1094949  63.7842353  71.0788361  56.8855139  75.3562124
  71.9249556  57.3094553  75.4996773  71.0186998  56.2288764  76.0500687
  75.0486105  62.5083723  71.7380856  74.4194968  62.6729437  71.0356923
  74.6611767  62.9225333  72.5091820  78.9275337  63.4438161  69.0925219
  78.2426375  63.8237062  68.5422253  79.0119186  64.0533488  69.8257167
  74.2287806  54.5459508  77.0143297  73.9848738  55.3001568  76.4777573
  74.5047737  54.9244855  77.8490544  73.7852498  53.7015941  72.5957135
  72.9236977  53.9997194  72.8873873  73.8114932  53.9186340  71.6638168
  70.6014067  62.2458131  69.0030941  71.0652413  62.5245834  68.2135563
  70.3370865  61.3441576  68.8204031  67.4938148  61.7929613  71.9410704
  68.0639505  62.2216881  71.3028188  68.0846260  61.5112198  72.6394890
  69.5382953  58.3681284  65.8120506  70.2406997  58.8202327  66.2794432
  69.2063582  57.7265103  66.4400399  67.9863315  56.9593040  80.1871715
  67.3561975  57.6409321  80.4207112  67.8799403  56.8476122  79.2424853
  63.2808287  56.6264836  71.1137639  62.4907341  56.8822365  70.6377750
  63.7719535  57.4413174  71.2189680  65.2323033  56.9909416  68.0721116
  64.4354196  57.1028110  68.5904612  65.0048625  57.3296068  67.2062007
  61.5645990  56.8795327  73.5452630  61.8154029  57.7642337  73.8110206
  62.1005539  56.6999928  72.7727722  85.3878090  60.3108824  70.2127892
  84.6341798  59.7416222  70.0571896  85.5225631  60.2771489  71.1598526
  70.7776718  65.1822226  65.8882611  70.6422393  66.0273762  66.3167459
  71.3186530  65.3841504  65.1248545  67.2644057  51.2613806  82.5496966
  66.8711003  50.7080005  83.2244610  68.0810198  51.5724385  82.9403484
  64.2306115  62.6997664  66.4610536  64.7430636  63.4940915  66.6116101
  64.8828828  62.0023955  66.3944138  66.0401000  65.8163421  68.5433289
  66.2167628  66.7381385  68.3554273  66.8357833  65.5021840  68.9727669
  70.1812018  52.6771685  80.1417223  70.9221732  53.2778838  80.0621685
  70.4129941  51.9349323  79.5835265  65.3253356  57.8628053  78.4195452
  65.2106872  56.9613310  78.7202551  64.4697874  58.1091749  78.0680269
  67.1632315  67.3341594  74.5443632  67.7139741  67.2058658  73.7720626
  66.3243791  67.6336483  74.1938524  74.1269181  48.7052788  74.4181504
  73.7833451  49.5954430  74.3420615  74.4948144  48.5154446  73.5551089
  62.1955032  61.0286319  67.2370107  63.0330254  61.4383327  67.0203814
  62.3733300  60.0885761  67.2070300  74.0919464  58.6961399  62.9253940
  73.5766088  59.4666004  63.1642327  73.8196773  58.0226535  63.5487001
  71.6766575  53.5411100  67.9839178  70.8208172  53.1517950  67.8044817
  72.0893527  53.6203061  67.1238963  73.2065722  51.0757443  72.3830738
  72.7030517  51.0387579  71.5698543  73.4996329  51.9850186  72.4427394
  69.4508608  51.1596173  71.3896919  70.3161604  50.9638982  71.0302809
  69.5186117  50.9306525  72.3166276  79.0653738  61.4493754  64.8607113
  78.2883181  61.1104913  64.4162275  79.7445219  61.4546377  64.1862078
  73.8805767  56.5688491  64.7513721  73.5755903  56.8834641  65.6023864
  74.8336209  56.6469911  64.7941054  72.3252199  62.7278715  66.4006675
  71.7973561  61.9931474  66.0879912  71.8239702  63.5053391  66.1546643
  77.3045045  60.9227735  71.5173721  76.6468720  61.6126997  71.6053850
  78.1085444  61.3124167  71.8607707  67.0570927  53.3898381  68.7613286
  67.6314679  53.1673562  68.0286479  67.6441909  53.4587075  69.5141888
  76.1150504  59.2772108  69.5677663  76.6282386  59.9102100  70.0699372
  76.7651728  58.6773303  69.2021023  67.3840514  55.4202842  62.7809171
  66.5477826  55.7577529  63.1018446  67.2445284  55.2851822  61.8436308
  69.3593594  50.2639630  67.4888356  68.7058007  49.9488647  66.8644970
  69.3174069  49.6415370  68.2148179  70.4704799  60.5458925  59.4041648
  69.5631861  60.3148178  59.6032797  70.9675831  59.7496544  59.5915629
  73.3772878  69.2556432  62.3238334  72.7034577  69.5588129  62.9323292
  73.7638700  70.0585513  61.9743791  72.5931335  56.7521563  71.8136003
  71.6753896  56.9736510  71.6557691  73.0091478  56.8267874  70.9547711
  73.3766383  58.1512979  66.9438684  74.1238202  58.6634376  66.6345806
  73.6457972  57.8297032  67.8043077  71.6493033  60.6471520  63.9265638
  70.7404252  60.3630553  64.0238108  71.6788117  61.0670598  63.0668945
  76.8812300  64.2578109  67.6956805  76.4274627  63.4169019  67.7521996
  76.2506267  64.8939508  68.0331586  75.8245220  55.1870095  68.9257473
  75.0867977  54.6747482  69.2567715  76.0771993  54.7470477  68.1140750
  75.3245239  66.0954606  68.6306624  75.6168214  66.6559663  67.9118989
  75.8343860  66.3883167  69.3859783  75.9256847  47.9646347  69.5199242
  76.2315724  47.1043711  69.2325157  76.6509452  48.5563968  69.3198236
  62.2181203  58.3677034  67.9080840  62.0205603  57.7746395  67.1831907
  61.6627867  58.0629244  68.6256779  70.1977927  58.2600140  70.0275433
  70.2526537  57.3073977  69.9517910  69.3869129  58.4159580  70.5116732
  71.3469121  62.1880264  61.2653716  70.9088550  61.4716122  60.8059354
  72.0879561  62.4156378  60.7038808  68.1370287  56.8777200  67.7865812
  67.3238152  57.1771371  68.1931004  68.6329281  56.4832889  68.5040294
  70.2878865  66.8734957  69.7200077  70.2455043  67.0995803  68.7908609
  71.2041563  66.6398332  69.8685878  73.7344498  57.3419025  76.6180706
  74.0893886  57.5690498  77.4775172  74.3816630  57.6737401  75.9957961
  79.4642235  60.4637461  67.3230035  79.3260134  60.6539057  66.3951224
  79.1078454  61.2256843  67.7798086  67.6284361  54.4495556  73.4027047
  68.2683741  54.3084315  72.7050010  66.7961892  54.1630069  73.0265649
  79.4911615  62.5313988  72.3341306  79.9248122  62.4389277  73.1824361
  80.2043196  62.5071488  71.6961322  68.4044665  63.7497986  69.5162039
  69.1985264  63.2548306  69.3144614  67.6936358  63.2215849  69.1529745
  64.7127429  57.8941068  65.5921792  63.7825017  57.8325523  65.8091754
  64.8084901  57.3717021  64.7958433  64.6312978  54.4195881  68.1800034
  64.8919795  55.3341214  68.0709194  65.4530150  53.9520323  68.3296647
  66.1037903  55.8333638  75.3498858  66.7760957  55.6251000  74.7011507
  65.2767690  55.6355724  74.9104091  72.0063475  52.4595579  77.3664519
  71.3591390  53.1585528  77.2728996  72.7764491  52.8931723  77.7340767
  72.1827610  60.2976344  75.4261339  73.1119670  60.4487503  75.2530306
  71.7618640  60.3860364  74.5709985  70.9815941  64.3227008  73.1959877
  70.8427027  63.9545793  74.0685815  70.1930538  64.8374648  73.0243834
  71.5764093  69.4236105  64.5385413  71.7515849  68.9524148  65.3531036
  70.8896881  70.0501871  64.7666674  72.5321157  63.7008611  70.5848714
  72.1970989  63.6609381  71.4806364  72.0325102  63.0353327  70.1119125
  66.5065400  59.1076241  76.1101295  66.3685198  58.3756480  76.7112835
  67.4170324  59.0185141  75.8285483  75.4680348  61.0464645  60.8585774
  74.8509519  60.3211473  60.7618827  74.9996837  61.8074005  60.5152848
  69.1347701  58.8196200  75.5984975  69.8447320  58.1789392  75.5571594
  69.0917009  59.0709095  76.5211156  67.8476635  55.8061418  77.4180615
  67.3113992  55.3552157  78.0702211  67.2593344  55.9407327  76.6751079
  66.1425179  72.5725467  71.3125273  66.3821777  73.2043992  71.9904292
  65.2994375  72.2213507  71.5990633  67.2578894  55.2650069  59.9807078
  66.3808360  55.1438870  59.6169325  67.7336647  54.4736148  59.7285967
  58.7781034  60.0527229  70.0748585  59.4652074  59.7388959  69.4869601
  58.6229163  60.9568594  69.8015837  63.5815756  54.9417426  74.5033609
  63.4973945  54.3343095  73.7684019  62.7598463  55.4326444  74.5043105
  70.4442820  67.6176360  67.2269599  69.6610342  68.1598040  67.3207823
  71.1435565  68.1350339  67.6263840  73.7539470  53.4270989  69.8703804
  74.2508170  52.6740952  69.5504874  72.9826452  53.4635306  69.3047013
  81.6069228  59.1311355  71.5122096  81.5959104  60.0136070  71.1416029
  80.7386607  58.7782906  71.3176633  74.8369251  62.1842677  67.4442228
  73.9025530  62.3044139  67.2746932  75.0145919  61.2815143  67.1802237
  70.3374439  55.5688372  69.5975489  69.9672227  55.0159413  70.2856394
  70.8333531  54.9646506  69.0450489  78.2241802  58.0259996  67.9792262
  78.6902254  58.8587987  67.9052564  78.6749303  57.5604977  68.6837520
  76.2918033  64.3703817  64.9778414  76.5677877  64.2560412  65.8872288
  75.4222532  63.9721302  64.9390587  76.1958465  50.3940583  72.0183163
  75.2821545  50.6244810  72.1865370  76.6251566  50.4779027  72.8697195
  75.9664924  58.5830475  74.5183057  75.3136374  58.8306382  73.8635510
  76.3445303  57.7694613  74.1845534  72.9272097  68.6190168  68.6211227
  73.1094492  67.8011824  69.0838980  73.7505083  68.8357860  68.1836117
  73.2614263  67.5458353  65.8826276  73.7902029  67.0350808  65.2696438
  73.5242482  67.2300883  66.7471809  63.7631356  65.5622222  73.6261609
  64.3484792  64.8165910  73.7589514  63.5656194  65.8726179  74.5098273
  66.6170011  68.5973470  68.6424052  65.9480386  69.0819597  68.1588092
  66.4782881  68.8442690  69.5567430  58.3549010  58.1327823  72.3466053
  58.3933110  57.5991413  73.1403171  57.8489303  57.6063028  71.7277030
  65.7339773  52.9792363  75.8428595  65.7981099  53.8407194  75.4305993
  65.6706893  52.3666365  75.1100953  65.2092045  55.0515496  79.4901629
  65.8364084  54.6692573  80.1039153  64.3519964  54.8329698  79.8557322
  61.9857588  56.8591925  65.4219984  62.2811029  55.9502603  65.3687038
  61.0845624  56.8379664  65.1000986  73.8943667  68.5799189  72.2270392
  73.7694806  67.7788929  71.7181338  74.5522758  69.0745382  71.7384362
  65.5151835  54.9347921  71.4047533  64.7938421  55.5483889  71.2655006
  66.3045091  55.4705686  71.3264178  68.3178148  52.2702348  77.6788184
  68.8412550  52.5164644  78.4414494  68.0990482  53.1022383  77.2591322
  63.7145430  54.5406022  65.5459309  63.3858136  53.6603401  65.3634415
  64.0684800  54.4853691  66.4335698  72.9625008  66.1760925  70.0554295
  72.8149971  65.2477632  70.2361865  73.7878502  66.1981016  69.5711370
  66.8287253  54.8278992  65.9134787  67.1683325  55.3564913  65.1913395
  67.2759373  55.1659398  66.6893353  76.5659130  66.9989484  71.1419167
  77.4905678  66.7932345  71.0043619  76.3974434  66.7505885  72.0508509
  69.5230694  53.2116043  75.3637855  69.1827514  52.4123856  75.7658535
  68.8169700  53.5117754  74.7914688  70.1747165  50.2965355  73.8165178
  70.9973235  49.8225833  73.6944068  70.4185229  51.0755839  74.3163864
  68.8155400  53.3253614  64.1128080  69.5363762  53.7034867  63.6091796
  68.1920704  54.0442491  64.2163057  72.9586523  54.0298763  65.0486412
  73.1750137  54.9123401  64.7475240  72.4780590  53.6384976  64.3192054
  67.6985744  56.9884476  71.6257156  67.5530325  57.3024779  72.5181438
  67.2210948  57.6069376  71.0728055  69.5582127  53.9787024  71.6738046
  69.5443696  53.0828117  71.3370344  70.2754555  53.9857688  72.3076332
  71.4108258  54.4124364  73.7191173  71.1526036  55.3341435  73.7175504
  70.8793298  54.0154799  74.4091638  76.3554446  67.5175151  66.4981259
  76.5291324  66.9521574  65.7455111  76.8483338  68.3176046  66.3160749
  62.1731406  59.5289820  74.5644818  61.6284874  60.3049628  74.6965092
  63.0510756  59.8760625  74.4063939  68.9619023  52.8601404  66.9425616
  69.0834934  51.9318050  67.1416504  68.6721065  52.8740090  66.0303932
  71.8310213  50.5456315  70.0792336  71.8531910  50.6095648  69.1244316
  72.2478272  49.7060823  70.2732842  82.2093838  60.2811574  68.1171559
  82.6524984  59.5318899  67.7190682  81.3320348  60.2721711  67.7345291
  77.3429619  66.8341916  63.5978157  78.0380524  67.4548608  63.8165472
  77.6852769  65.9837267  63.8730535  62.9597428  58.6559717  77.4574974
  62.2179164  58.8042352  78.0439605  62.6390172  58.9167982  76.5941724
  79.2421042  64.2841621  65.1265488  79.7672366  64.6228894  64.4014808
  79.1543395  63.3488637  64.9428622  70.9261703  70.3513604  69.4860741
  70.4866693  69.8589983  70.1793598  71.6769820  69.8086572  69.2452816
  63.4054042  66.5425145  69.4885369  64.2312062  66.2428917  69.1084013
  63.0548094  65.7732768  69.9375158  68.3735575  65.8951614  71.5583043
  67.7515584  65.2322319  71.2585271  69.0440442  65.9212745  70.8756691
  61.6062647  64.4611472  70.4474303  60.7694555  64.0333646  70.2658304
  61.5786292  64.6543915  71.3845094  68.4460102  54.3733402  81.1515549
  68.4948258  55.2495524  80.7693318  68.9882617  53.8310795  80.5787192
  67.9349082  64.4455537  65.0341503  68.0837202  65.1291001  64.3808176
  68.7415525  64.4260627  65.5490959  70.6759391  55.1264774  77.9061907
  69.8062700  55.4198340  77.6344496  70.9118871  55.7105219  78.6269171
  81.7526702  61.7516813  70.5094006  82.5873594  62.1906617  70.6731566
  81.8885831  61.2755466  69.6902252  65.6901715  60.4720715  66.0402572
  65.4447757  59.5683045  66.2382782  65.8597629  60.4737865  65.0982050
  73.3798425  51.3444391  75.4227328  73.8980369  52.0805418  75.0973816
  73.0253557  51.6508384  76.2574087  64.9597362  56.2049072  63.5388734
  64.2666607  56.2793427  62.8828770  64.7149114  55.4409416  64.0610251
  73.6311019  47.7644673  70.9428224  73.9112773  47.0967863  71.5688651
  74.4161626  47.9573769  70.4302888  71.4344487  66.9403667  62.5053251
  70.8618454  67.5593854  62.0523723  72.0077281  67.4903029  63.0393173
  77.5019877  56.1862307  74.6899799  78.4537300  56.2860405  74.7112024
  77.3323328  55.3940576  75.1997884  75.5234257  53.2717891  74.8759200
  74.9284189  53.5522903  74.1805689  75.2383953  53.7611792  75.6475942
  74.6541747  67.2240817  63.6361833  75.5872420  67.1586379  63.8394708
  74.5664960  68.0597084  63.1776366  77.2829764  66.5406688  60.5965781
  77.2043395  66.2066551  61.4901538  78.1039431  67.0328456  60.5957253
  79.9807955  59.4068427  73.8042099  79.9484275  58.4684428  73.9901783
  80.5908579  59.4852464  73.0707924  71.8191286  58.2764480  59.8469303
  72.7650391  58.1470688  59.9157721  71.4405531  57.5379142  60.3238731
  80.1302444  56.1979471  73.8500382  79.6141492  55.4137927  73.6630311
  81.0142392  55.8698187  74.0146902  77.7913170  49.9420486  69.8096195
  77.5937992  49.6335574  70.6939527  78.4012876  50.6682125  69.9394125
  70.0034203  56.2014456  59.7824188  69.0965658  55.9047569  59.8586902
  70.2810184  55.9044275  58.9158475  60.9212143  57.5220820  70.2323235
  60.6014928  56.6686128  69.9397609  60.3745572  57.7369398  70.9881202
  64.6992051  60.2383261  73.9492741  64.9178061  61.1700369  73.9680775
  65.1117825  59.8791235  74.7347545  71.6196269  50.7451346  65.9368430
  70.8096997  50.3998431  66.3123676  72.3080686  50.4358890  66.5256041
  73.5486817  49.8229393  67.5592726  74.1017856  50.2424846  68.2182749
  73.7856903  48.8965141  67.6015682  68.7732988  53.0601392  59.9236168
  69.6352152  53.3856290  60.1831985  68.9583332  52.2732888  59.4109233
  60.7900403  61.1423731  72.2016356  60.0963875  60.7277684  71.6886311
  61.5373394  61.1844268  71.6049775  76.9265624  51.9329918  67.0671391
  76.3464293  52.5914722  66.6849443  76.6601557  51.1107263  66.6558808
  75.3769191  51.3334976  69.2692711  75.8768969  51.4451510  68.4607030
  76.0204798  51.0296029  69.9093519  62.7037146  61.0741985  70.0782371
  62.6807834  61.1729672  69.1264254  63.0137782  61.9207136  70.3999537
  65.3624524  63.1318140  74.1928986  66.3167777  63.1002083  74.1258917
  65.1637047  62.6708764  75.0079212  65.9523906  61.7019256  76.7599783
  66.7716795  62.1963335  76.7834621  66.2260714  60.7851224  76.7317351
  75.7090502  54.0930009  66.1227739  74.8216357  54.3779659  65.9047934
  76.1244491  53.9323772  65.2755016  79.0605038  54.1176530  69.8382078
  79.8365428  54.6072982  70.1106695  78.3353172  54.5434584  70.2953948
  81.4977597  54.8304149  70.8956019  82.0922088  54.5899885  70.1849327
  81.5704181  54.1111279  71.5229555  63.7174753  68.6737760  71.2099184
  63.5829221  67.9138161  70.6437182  63.3006815  69.3978660  70.7427972
  74.8533716  63.8574683  60.2175759  75.5569566  64.0624686  60.8333414
  74.1296364  64.4251445  60.4824842  75.6831526  59.6084544  66.3378029
  75.6266727  60.0653096  65.4985661  76.2359868  58.8475229  66.1600872
  79.4936332  55.3974276  67.1628149  79.2373266  54.9970912  67.9936356
  78.8689200  56.1118070  67.0378288  83.8048670  58.1370350  69.6699440
  83.2448228  58.2063539  70.4431002  83.1992173  57.9611334  68.9498936
  66.8743878  69.5707077  71.4217626  66.7576263  70.5152509  71.3196316
  66.0536325  69.2680638  71.8103425  76.7620413  64.2957212  62.2674219
  77.5966017  63.8638411  62.0851694  76.6004756  64.1239226  63.1951113
  76.4166305  60.7989326  63.6330558  76.3615109  60.6333597  62.6919002
  75.7912360  61.5065359  63.7892748  61.2058820  56.0357390  77.4591980
  61.8517684  55.5256344  77.9479206  60.9975971  56.7726072  78.0335406
  69.7262431  50.2997435  63.2115877  69.7141100  51.2439275  63.3684147
  70.6185853  50.1167580  62.9175338  69.6551995  68.9766325  71.2983633
  68.7047626  68.9768187  71.1848006  69.9584481  68.2299060  70.7819668
  73.5414550  46.8940211  67.4661813  72.7746946  46.3398698  67.6118496
  73.9525255  46.9662080  68.3275965  65.5456311  53.1825007  81.5566995
  66.4087773  52.8261812  81.7670319  64.9721722  52.8438902  82.2442399
  77.5636396  77.3749873  63.9989411  78.3367272  76.8278860  63.8602286
  77.9161795  78.2394122  64.2103872  79.9002674  73.5342539  61.6307860
  80.1528194  73.0124060  60.8691323  78.9627233  73.3708684  61.7334544
  79.6198963  75.4370645  63.8332235  79.5035221  74.7615548  64.5013320
  79.7301222  74.9503019  63.0164388  81.6035990  69.9270692  62.5340273
  81.7710393  70.7950928  62.9010744  81.4133160  70.0897973  61.6101562
  81.5825211  72.3828349  63.5186940  81.4624837  72.8285400  64.3572420
  80.8877800  72.7313667  62.9600478  76.0716787  72.3201333  68.0721116
  75.2747950  72.4320028  68.5904612  75.8442379  72.6587985  67.2062007
  73.0348787  76.3578236  67.2370107  73.8724009  76.7675245  67.0203814
  73.2127054  75.4177678  67.2070300  84.9313219  74.0253317  62.9253940
  84.4159842  74.7957922  63.1642327  84.6590527  73.3518453  63.5487001
  82.5160330  68.8703018  67.9839178  81.6601926  68.4809868  67.8044817
  82.9287281  68.9494979  67.1238963  84.7199522  71.8980409  64.7513721
  84.4149657  72.2126558  65.6023864  85.6729964  71.9761829  64.7941054
  77.8964681  68.7190299  68.7613286  78.4708433  68.4965480  68.0286479
  78.4835664  68.7878993  69.5141888  78.2234268  70.7494760  62.7809171
  77.3871581  71.0869446  63.1018446  78.0839038  70.6143739  61.8436308
  80.1987349  65.5931548  67.4888356  79.5451761  65.2780565  66.8644970
  80.1567823  64.9707288  68.2148179  81.3098554  75.8750843  59.4041648
  80.4025616  75.6440096  59.6032797  81.8069586  75.0788462  59.5915629
  82.4886787  75.9763438  63.9265638  81.5798007  75.6922470  64.0238108
  82.5181871  76.3962516  63.0668945  86.7650602  63.2938265  69.5199242
  87.0709478  62.4335628  69.2325157  87.4903206  63.8855885  69.3198236
  73.0574958  73.6968952  67.9080840  72.8599357  73.1038312  67.1831907
  72.5021622  73.3921162  68.6256779  82.1862875  77.5172181  61.2653716
  81.7482305  76.8008040  60.8059354  82.9273316  77.7448296  60.7038808
  75.5521183  73.2232986  65.5921792  74.6218771  73.1617441  65.8091754
  75.6478655  72.7008938  64.7958433  75.4706732  69.7487798  68.1800034
  75.7313550  70.6633132  68.0709194  76.2923905  69.2812241  68.3296647
  86.3074103  76.3756563  60.8585774  85.6903273  75.6503391  60.7618827
  85.8390591  77.1365923  60.5152848  78.0972649  70.5941987  59.9807078
  77.2202115  70.4730788  59.6169325  78.5730402  69.8028065  59.7285967
  72.8251342  72.1883842  65.4219984  73.1204784  71.2794521  65.3687038
  71.9239378  72.1671582  65.1000986  74.5539184  69.8697940  65.5459309
  74.2251890  68.9895319  65.3634415  74.9078555  69.8145609  66.4335698
  77.6681007  70.1570910  65.9134787  78.0077080  70.6856831  65.1913395
  78.1153128  70.4951316  66.6893353  79.6549154  68.6545531  64.1128080
  80.3757517  69.0326784  63.6091796  79.0314458  69.3734408  64.2163057
  83.7980277  69.3590680  65.0486412  84.0143892  70.2415318  64.7475240
  83.3174344  68.9676894  64.3192054  79.8012777  68.1893322  66.9425616
  79.9228689  67.2609968  67.1416504  79.5114820  68.2032008  66.0303932
  82.6703968  65.8748232  70.0792336  82.6925665  65.9387565  69.1244316
  83.0872027  65.0352741  70.2732842  76.5295469  75.8012632  66.0402572
  76.2841511  74.8974962  66.2382782  76.6991384  75.8029783  65.0982050
  75.7991117  71.5340990  63.5388734  75.1060362  71.6085345  62.8828770
  75.5542869  70.7701333  64.0610251  82.6585040  73.6056398  59.8469303
  83.6044145  73.4762606  59.9157721  82.2799285  72.8671060  60.3238731
  80.8427958  71.5306374  59.7824188  79.9359413  71.2339487  59.8586902
  81.1203939  71.2336192  58.9158475  82.4590023  66.0743264  65.9368430
  81.6490752  65.7290349  66.3123676  83.1474440  65.7650808  66.5256041
  84.3880572  65.1521311  67.5592726  84.9411610  65.5716764  68.2182749
  84.6250658  64.2257059  67.6015682  79.6126742  68.3893309  59.9236168
  80.4745906  68.7148208  60.1831985  79.7977086  67.6024805  59.4109233
  87.7659379  67.2621836  67.0671391  87.1858048  67.9206640  66.6849443
  87.4995311  66.4399180  66.6558808  86.5484257  69.4221926  66.1227739
  85.6610112  69.7071577  65.9047934  86.9638246  69.2615690  65.2755016
  80.5656185  65.6289352  63.2115877  80.5534855  66.5731192  63.3684147
  81.4579607  65.4459498  62.9175338  84.3808305  62.2232129  67.4661813
  83.6140700  61.6690616  67.6118496  84.7919010  62.2953998  68.3275965
  35.9857087   0.8426443  53.8922378  35.9081116   1.7934268  53.9710858
  35.3818730   0.4972315  54.5497304  38.2595456  -3.7991404  52.6127918
  38.1241130  -2.9539868  53.0412765  38.8005268  -3.5972126  51.8493851
  33.5219738  -3.1650210  55.2678596  33.6986366  -2.2432245  55.0799580
  34.3176571  -3.4791791  55.6972976  39.8863932  -3.1767838  66.7428260
  39.4427786  -3.9631459  66.4249164  40.5481146  -2.9888687  66.0772150
  34.6451053  -1.6472036  61.2688938  35.1958478  -1.7754973  60.4965932
  33.8062529  -1.3477147  60.9183831  40.8591616   0.2742802  49.0483641
  40.1853315   0.5774498  49.6568598  41.2457438   1.0771882  48.6989098
  42.8063977  -2.8859024  55.3551930  43.0986952  -2.3253967  54.6364296
  43.3162598  -2.5930463  56.1105089  37.7697602  -2.1078673  56.4445383
  37.7273781  -1.8817827  55.5153915  38.6860301  -2.3415299  56.5931185
  40.7058248  -2.8497549  60.5919714  40.7595270  -2.2806612  61.3597430
  39.8373029  -2.6795664  60.2273751  39.0582831   0.4422474  51.2630720
  39.2334587  -0.0289483  52.0776342  38.3715619   1.0688240  51.4911980
  33.6243916   3.5911837  58.0370580  33.8640515   4.2230361  58.7149598
  32.7813113   3.2399877  58.3235939  38.1371778  -0.6009041  60.4412084
  38.0641950   0.2045931  60.9531388  37.6949171  -0.4017075  59.6160105
  37.9261558  -1.3637271  53.9514905  37.1429080  -0.8215590  54.0453130
  38.6254303  -0.8463291  54.3509147  40.5970462  -0.7022207  62.5970243
  41.3098434  -0.0674742  62.5246144  40.1060490  -0.6058341  61.7810244
  35.6482375  -2.9527763  63.4175813  36.3491835  -2.3191280  63.5705208
  35.1777490  -2.6113032  62.6571453  40.4090835  -0.3623463  55.3456534
  40.5913230  -1.1801807  55.8084286  41.2323821  -0.1455770  54.9081424
  40.7433001  -1.4355277  52.6071582  41.2720767  -1.9462823  51.9941745
  41.0061220  -1.7512747  53.4717116  31.2450093  -3.4191408  60.3506916
  31.8303530  -4.1647720  60.4834820  31.0474932  -3.1087451  61.2343580
  34.0988749  -0.3840161  55.3669358  33.4299124   0.1005967  54.8833398
  33.9601618  -0.1370940  56.2812737  38.2394017   1.6503583  61.9652017
  38.7912325   1.8135204  62.7301102  38.5800211   2.2408021  61.2932042
  41.3762404  -0.4014442  58.9515699  41.2513544  -1.2024702  58.4426644
  42.0341496   0.0931752  58.4629669  40.4443746  -2.8052705  56.7799601
  40.2968709  -3.7335998  56.9607171  41.2697240  -2.7832615  56.2956676
  44.0477868  -1.9824147  57.8664474  44.9724415  -2.1881285  57.7288925
  43.8793171  -2.2307745  58.7753815  43.8373184  -1.4638479  53.2226565
  44.0110062  -2.0292057  52.4700418  44.3302075  -0.6637584  53.0406055
  38.3859829  -0.7837936  63.9800671  38.6946955  -1.0288789  64.8523371
  39.1835311  -0.5791297  63.4919541  38.4080441   1.3699974  56.2106048
  37.9685431   0.8776353  56.9038904  39.1588558   0.8272942  55.9698123
  30.8872780  -2.4388485  56.2130676  31.7130799  -2.7384713  55.8329319
  30.5366832  -3.2080863  56.6620464  35.8554313  -3.0862017  58.2828349
  35.2334322  -3.7491312  57.9830577  36.5259180  -3.0600885  57.6001997
  29.0881385  -4.5202159  57.1719609  28.2513293  -4.9479984  56.9903611
  29.0605030  -4.3269715  58.1090401  35.4167820  -4.5358094  51.7586810
  35.5655940  -3.8522629  51.1053483  36.2234263  -4.5553003  52.2736266
  38.9163225  -2.0409963  49.2298557  38.3437192  -1.4219776  48.7769029
  39.4896019  -1.4910601  49.7638479  42.1360485  -1.7572813  50.3607140
  43.0691158  -1.8227251  50.5640015  42.0483698  -0.9216546  49.9021672
  32.8443262  -5.8495490  60.9174292  33.7986515  -5.8811548  60.8504224
  32.6455785  -6.3104867  61.7324518  31.1993490  -0.3075871  57.9344490
  31.0647958  -1.0675470  57.3682488  30.7825553   0.4165029  57.4673279
  34.3562616   0.5893446  58.1462933  34.2395000   1.5338879  58.0441623
  33.5355063   0.2867008  58.5348732  35.3817130   1.2421708  61.3618861
  36.2844377   1.2745318  61.6785356  35.1554500   0.3122159  61.3765197
  37.1370732  -0.0047305  58.0228940  36.1866363  -0.0045444  57.9093312
  37.4403219  -0.7514571  57.5064975  52.8723426   5.8313233  59.0874702
  53.5101836   5.7119980  58.3838042  52.7544269   6.7794077  59.1462654
  49.6813132   5.7840661  59.0236227  49.3431644   5.6681726  58.1356762
  50.5502900   5.3831826  59.0037233  45.5399948   7.6376138  55.0133118
  44.9764813   7.5466075  54.2449406  45.4252343   6.8176042  55.4935610
  50.1632915   6.9375513  64.9822433  50.1521556   6.5428311  64.1102936
  50.3253555   6.2041586  65.5756204  43.0864380   9.1327329  57.8517338
  43.8785672   8.7918154  57.4363638  43.3261030   9.2422304  58.7719492
  51.1199507  11.3047105  50.3247583  50.4687486  11.8901186  49.9381597
  51.9143869  11.8353300  50.3842620  45.0455134   8.3936242  50.7234717
  45.8186010   7.8465230  50.5847593  45.3980533   9.2580492  50.9349179
  46.8840176   9.7212625  63.9301616  46.5930042  10.6258256  63.8148283
  47.5197161   9.7629152  64.6445686  47.8096383   7.0989473  60.5202976
  48.4059955   6.8745496  59.8059939  47.8671355   6.3574219  61.1228424
  47.3821412   4.5528909  48.3553167  47.6346932   4.0310430  47.5936630
  46.4445971   4.3895054  48.4579851  52.4264694   3.5564687  56.1627910
  53.2127784   3.1384110  55.8118327  52.6903399   4.4610779  56.3309559
  52.5974772   8.9937537  50.8616567  51.9620605   9.0672164  51.5737472
  52.2672178   9.5831136  50.1835646  57.8273122   3.4939920  57.0660889
  58.5598293   2.9239137  57.2998718  57.0712477   3.1061521  57.5067394
  47.1017700   6.4557015  50.5577542  46.9853958   5.7801918  51.2258626
  47.2119960   5.9689388  49.7409695  49.4449241   5.9167162  54.2624231
  49.0807448   5.3897783  54.9737153  50.3016357   5.5265631  54.0890717
  49.0854728   0.9457061  49.2585580  49.2529131   1.8137298  49.6256051
  48.8951897   1.1084343  48.3346869  51.8430061   9.4074040  60.9251410
  51.5430784  10.3099079  60.8167217  51.4981121   9.1406223  61.7772563
  45.2942543   5.8587837  56.9588115  44.3693039   5.7264051  57.1665806
  45.5426956   6.6382056  57.4558057  55.2427205   1.9256580  58.6048847
  54.3344083   1.8571989  58.3107608  55.1914801   2.4028525  59.4330673
  49.0643949   3.4014719  50.2432247  48.9443574   3.8471770  51.0817727
  48.3696537   3.7500037  49.6845785  42.6551354   5.5021111  57.7931904
  42.7843735   5.7555590  58.7071315  41.9748805   6.0948819  57.4736559
  46.8250841  16.1718361  53.8922378  46.7474871  17.1226186  53.9710858
  46.2212485  15.8264233  54.5497304  49.3168071   3.3446226  66.5483745
  48.5401405   3.9040146  66.5386609  49.9558634   3.8303009  67.0698615
  54.7629015   3.8736192  51.0712581  55.6746871   4.1063579  50.8960278
  54.2538662   4.4573236  50.5087659  47.5714443   6.1531679  66.1101712
  48.3129128   6.6916723  65.8336535  46.8651429   6.7797968  66.2673264
  53.0469783   8.2960820  64.7073873  53.4553139   7.8543230  63.9628506
  52.3247044   7.7213447  64.9608066  49.4000853   3.2333427  62.0807430
  50.2462048   3.6572840  62.2242079  49.3399491   2.5767051  62.7745993
  53.3698598   8.8562010  58.4626162  52.7407460   9.0207725  57.7602230
  52.9824260   9.2703620  59.2337126  57.2487829   9.7916448  55.8170526
  56.5638868  10.1715350  55.2667559  57.3331679  10.4011775  56.5502474
  52.5500298   0.8937795  63.7388604  52.3061230   1.6479856  63.2022880
  52.8260229   1.2723143  64.5735851  54.5038761   7.4376407  62.4165869
  54.7155656   8.0808167  61.7400251  54.4568509   6.6038724  61.9487800
  48.9226559   8.5936419  55.7276247  49.3864905   8.8724122  54.9380870
  48.6583358   7.6919863  55.5449338  45.8150641   8.1407900  58.6656010
  46.3851998   8.5695168  58.0273495  46.4058752   7.8590485  59.3640196
  47.8595446   4.7159571  52.5365812  48.5619489   5.1680615  53.0039739
  47.5276074   4.0743390  53.1645706  46.3075807   3.3071328  66.9117022
  45.6774468   3.9887608  67.1452419  46.2011895   3.1954409  65.9670160
  41.6020779   2.9743124  57.8382946  40.8119833   3.2300652  57.3623057
  42.0932027   3.7891461  57.9434986  55.6184589  10.3148363  60.5888227
  56.4402033   9.9128550  60.3070908  55.6146992  10.2116597  61.5404343
  43.5535525   3.3387703  54.7966423  42.7566688   3.4506397  55.3149918
  43.3261117   3.6774355  53.9307313  49.3841192   9.8632406  62.7448937
  49.4485625  10.3252813  63.5807109  48.6752116   9.2329771  62.8731247
  39.8858482   3.2273614  60.2697937  40.1366521   4.1120624  60.5355513
  40.4218031   3.0478216  59.4973029  63.7090582   6.6587111  56.9373198
  62.9554290   6.0894509  56.7817203  63.8438123   6.6249776  57.8843833
  49.0989210  11.5300514  52.6127918  48.9634885  12.3752049  53.0412765
  49.6399023  11.7319791  51.8493851  42.5518608   9.0475952  53.1855843
  43.0643128   9.8419202  53.3361407  43.2041320   8.3502242  53.1189444
  44.3613492  12.1641708  55.2678596  44.5380121  13.0859673  55.0799580
  45.1570326  11.8500127  55.6972976  43.6465849   4.2106340  65.1440759
  43.5319364   3.3091597  65.4447858  42.7910367   4.4570037  64.7925576
  50.7257687  12.1524080  66.7428260  50.2821541  11.3660459  66.4249164
  51.3874900  12.3403231  66.0772150  45.4844808  13.6819882  61.2688938
  46.0352233  13.5536945  60.4965932  44.6456284  13.9814771  60.9183831
  52.8238925  12.4326880  64.7709661  52.8057400  13.2535761  64.2789930
  53.7458845  12.3080955  64.9959802  49.2811979   9.9471009  65.6133169
  49.8140316   9.1859298  65.3832477  48.7526060   9.6544661  66.3557324
  40.5167524   7.3764606  53.9615413  41.3542746   7.7861614  53.7449121
  40.6945792   6.4364048  53.9315607  52.4131956   5.0439687  49.6499246
  51.8978580   5.8144291  49.8887634  52.1409265   4.3704823  50.2732308
  49.9979067  -0.1110613  54.7084485  49.1420664  -0.5003762  54.5290123
  50.4106019  -0.0318652  53.8484270  57.3866231   7.7972041  51.5852420
  56.6095673   7.4583201  51.1407582  58.0657712   7.8024664  50.9107385
  52.2018260   2.9166779  51.4759027  51.8968395   3.2312928  52.3269171
  53.1548702   2.9948199  51.5186360  50.6464691   9.0757002  53.1251981
  50.1186053   8.3409762  52.8125219  50.1452194   9.8531678  52.8791950
  55.6257537   7.2706022  58.2419028  54.9681212   7.9605284  58.3299156
  56.4297937   7.6602454  58.5853014  45.3783419  -0.2623332  55.4858593
  45.9527171  -0.4848150  54.7531786  45.9654401  -0.1934637  56.2387194
  54.4362996   5.6250395  56.2922969  54.9494878   6.2580387  56.7944679
  55.0864220   5.0251591  55.9266329  45.7053006   1.7681129  49.5054478
  44.8690318   2.1055816  49.8263753  45.5657776   1.6330109  48.5681615
  48.7917292   6.8937212  46.1286954  47.8844353   6.6626466  46.3278103
  49.2888324   6.0974831  46.3160936  51.6985370  15.6034719  49.0483641
  51.0247069  15.9066416  49.6568598  52.0851192  16.4063800  48.6989098
  50.9143827   3.0999851  58.5381310  49.9966388   3.3214798  58.3802998
  51.3303971   3.1746161  57.6793017  51.6978875   4.4991266  53.6683990
  52.4450694   5.0112664  53.3591112  51.9670464   4.1775319  54.5288384
  49.9705525   6.9949807  50.6510944  49.0616744   6.7108840  50.7483414
  50.0000609   7.4148886  49.7914251  55.2024792  10.6056397  54.4202112
  54.7487120   9.7647306  54.4767303  54.5718759  11.2417795  54.7576892
  53.6457732  12.4432893  55.3551930  53.9380706  13.0037950  54.6364296
  54.1556352  12.7361454  56.1105089  40.5393695   4.7155321  54.6326147
  40.3418095   4.1224682  53.9077213  39.9840359   4.4107531  55.3502085
  48.5190419   4.6078428  56.7520740  48.5739029   3.6552264  56.6763216
  47.7081621   4.7637867  57.2362038  49.6681613   8.5358551  47.9899023
  49.2301043   7.8194410  47.5304660  50.4092054   8.7634666  47.4284114
  46.4582779   3.2255487  54.5111119  45.6450645   3.5249658  54.9176311
  46.9541773   2.8311176  55.2285601  48.6091357  13.2213244  56.4445383
  48.5667536  13.4474091  55.5153915  49.5254056  12.9876619  56.5931185
  52.0556991   3.6897312  63.3426013  52.4106378   3.9168785  64.2020478
  52.7029122   4.0215689  62.7203268  57.7854728   6.8115748  54.0475342
  57.6472626   7.0017344  53.1196531  57.4290946   7.5735131  54.5043393
  45.9496854   0.7973843  60.1272354  46.5896233   0.6562602  59.4295317
  45.1174384   0.5108356  59.7510956  57.8124107   8.8792275  59.0586613
  58.2460614   8.7867564  59.9069667  58.5255688   8.8549775  58.4206629
  46.7257158  10.0976273  56.2407346  47.5197756   9.6026594  56.0389921
  46.0148850   9.5694137  55.8775052  51.5452002  12.4794369  60.5919714
  51.5989024  13.0485305  61.3597430  50.6766784  12.6496254  60.2273751
  43.0339921   4.2419355  52.3167099  42.1037509   4.1803811  52.5337061
  43.1297393   3.7195308  51.5203740  42.9525470   0.7674168  54.9045340
  43.2132287   1.6819501  54.7954501  43.7742643   0.2998611  55.0541953
  44.4250396   2.1811925  62.0744165  45.0973449   1.9729287  61.4256814
  43.5980182   1.9834011  61.6349397  58.6739657   8.9215975  61.5919499
  58.8675547   9.8261786  61.8378773  58.5740275   8.4623395  62.4258084
  53.7354765   9.0722718  67.1660379  53.5840272   8.8433270  66.2490463
  53.7259445  10.0293320  67.1791724  50.5040102   6.6454631  62.1506646
  51.4332162   6.7965791  61.9775613  50.0831132   6.7338652  61.2955292
  49.3028434  10.6705295  59.9205183  49.1639519  10.3024080  60.7931121
  48.5143030  11.1852935  59.7489141  49.8976586  15.7714392  51.2630720
  50.0728341  15.3002435  52.0776342  49.2109374  16.3980158  51.4911980
  50.8533649  10.0486898  57.3094021  50.5183481  10.0087668  58.2051671
  50.3537594   9.3831614  56.8364431  44.8277893   5.4554528  62.8346602
  44.6897691   4.7234767  63.4358141  45.7382816   5.3663428  62.5530790
  53.7892840   7.3942932  47.5831081  53.1722011   6.6689761  47.4864133
  53.3209329   8.1552293  47.2398155  47.4560193   5.1674487  62.3230282
  48.1659812   4.5267680  62.2816900  47.4129502   5.4187382  63.2456463
  55.4446972  12.1041841  65.2436861  55.3859518  11.4201061  64.5767444
  55.8466490  12.8460831  64.7917487  46.1689127   2.1539705  64.1425921
  45.6326484   1.7030444  64.7947518  45.5805836   2.2885614  63.3996386
  44.4637671  18.9203755  58.0370580  44.7034269  19.5522279  58.7149598
  43.6206867  18.5691795  58.3235939  45.5791386   1.6128357  46.7052385
  44.7020853   1.4917157  46.3414632  46.0549139   0.8214435  46.4531274
  55.4464379  10.0681425  63.4750841  54.5591158   9.7307346  63.5977240
  56.0162930   9.3364456  63.7119606  37.0993527   6.4005516  56.7993892
  37.7864566   6.0867246  56.2114907  36.9441655   7.3046881  56.5261143
  41.9028249   1.2895713  61.2278916  41.8186437   0.6821383  60.4929326
  41.0810955   1.7804731  61.2288412  48.9765533  14.7282877  60.4412084
  48.9035704  15.5337849  60.9531388  48.5342926  14.9274843  59.6160105
  48.7655312  13.9654647  53.9514905  47.9822834  14.5076327  54.0453130
  49.4648058  14.4828627  54.3509147  59.9281720   5.4789642  58.2367402
  59.9171596   6.3614357  57.8661335  59.0599099   5.1261193  58.0421939
  51.4364216  14.6269711  62.5970243  52.1492189  15.2617176  62.5246144
  50.9454245  14.7233577  61.7810244  53.1581743   8.5320964  54.1687534
  52.2238022   8.6522426  53.9992239  53.3358412   7.6293431  53.9047544
  48.6586931   1.9166660  56.3220795  48.2884719   1.3637700  57.0101701
  49.1546024   1.3124793  55.7695795  56.5454295   4.3738283  54.7037568
  57.0114747   5.2066275  54.6297871  56.9961795   3.9083265  55.4082827
  46.4876130  12.3764155  63.4175813  47.1885589  13.0100637  63.5705208
  46.0171245  12.7178886  62.6571453  54.6130526  10.7182104  51.7023720
  54.8890370  10.6038699  52.6117594  53.7435024  10.3199589  51.6635893
  54.2877416   4.9308762  61.2428364  53.6348866   5.1784669  60.5880816
  54.6657796   4.1172900  60.9090841  51.2484590  14.9668455  55.3456534
  51.4306984  14.1490111  55.8084286  52.0717576  15.1836147  54.9081424
  51.5826755  13.8936640  52.6071582  52.1114522  13.3829095  51.9941745
  51.8454975  13.5779170  53.4717116  50.3364989   5.6728573  67.7294401
  49.6605626   5.5722702  68.3996776  51.1592623   5.5167787  68.1930398
  42.0843848  11.9100510  60.3506916  42.6697285  11.1644197  60.4834820
  41.8868686  12.2204466  61.2343580  44.9382503  14.9451757  55.3669358
  44.2692878  15.4297885  54.8833398  44.7995373  15.1920977  56.2812737
  36.6761503   4.4806110  59.0711359  36.7145602   3.9469700  59.8648477
  36.1701795   3.9541315  58.4522336  49.0787772  16.9795500  61.9652017
  49.6306080  17.1427122  62.7301102  49.4193965  17.5699938  61.2932042
  44.0552265  -0.6729350  62.5673901  44.1193591   0.1885481  62.1551299
  43.9919385  -1.2855348  61.8346260  43.5304537   1.3993783  66.2146936
  44.1576576   1.0170860  66.8284460  42.6732456   1.1807985  66.5802628
  53.9298646  11.8056758  67.8200671  54.4738550  12.4186716  67.3255626
  53.3485491  12.3636336  68.3367684  40.3070080   3.2070212  52.1465291
  40.6023521   2.2980890  52.0932344  39.4058116   3.1857951  51.8246293
  52.2156159  14.9277476  58.9515699  52.0907298  14.1267216  58.4426644
  52.8735250  15.4223669  58.4629669  43.8364327   1.2826209  58.1292839
  43.1150913   1.8962176  57.9900312  44.6257583   1.8183973  58.0509485
  54.2791067  12.7286496  60.5795249  53.3321403  12.6091847  60.5073576
  54.6273840  11.8408994  60.6621510  46.6390641  -1.3819365  64.4033491
  47.1625043  -1.1357068  65.1659800  46.4202974  -0.5499330  63.9836628
  42.0357922   0.8884310  52.2704616  41.7070628   0.0081689  52.0879722
  42.3897292   0.8331978  53.1581005  51.2837501  12.5239212  56.7799601
  51.1362463  11.5955920  56.9607171  52.1090994  12.5459303  56.2956676
  45.1499745   1.1757279  52.6380093  45.4895817   1.7043201  51.9158702
  45.5971865   1.5137686  53.4138660  54.8871623  13.3467771  57.8664474
  55.8118170  13.1410632  57.7288925  54.7186926  13.0984172  58.7753815
  47.8443186  -0.4405670  62.0883161  47.5040006  -1.2397857  62.4903841
  47.1382192  -0.1403959  61.5159995  47.1367892  -0.3268099  50.8373386
  47.8576255   0.0513154  50.3337103  46.5133196   0.3920778  50.9408364
  51.2799015   0.3777050  51.7731718  51.4962629   1.2601688  51.4720547
  50.7993082  -0.0136737  51.0437360  46.0198236   3.3362763  58.3502463
  45.8742817   3.6503066  59.2426745  45.5423440   3.9547664  57.7973362
  47.8794619   0.3265311  58.3983353  47.8656188  -0.5693596  58.0615651
  48.5967047   0.3335975  59.0321639  49.7320750   0.7602651  60.4436480
  49.4738528   1.6819722  60.4420811  49.2005790   0.3633086  61.1336944
  54.6766939  13.8653438  53.2226565  54.8503816  13.2999861  52.4700418
  55.1695830  14.6654333  53.0406055  40.4943899   5.8768108  61.2890124
  39.9497367   6.6527916  61.4210399  41.3723248   6.2238912  61.1309246
  60.5306330   6.6289861  54.8416865  60.9737476   5.8797187  54.4435988
  59.6532840   6.6199998  54.4590597  55.6642111  13.1820203  50.3223464
  56.3593016  13.8026896  50.5410778  56.0065261  12.3315554  50.5975842
  41.2809920   5.0038004  64.1820281  40.5391656   5.1520639  64.7684912
  40.9602665   5.2646269  63.3187031  57.5633534  10.6319908  51.8510795
  58.0884858  10.9707181  51.1260115  57.4755887   9.6966924  51.6673929
  49.2253583  14.5453982  63.9800671  49.5340709  14.3003129  64.8523371
  50.0229065  14.7500621  63.4919541  49.2474195  16.6991892  56.2106048
  48.8079185  16.2068270  56.9038904  49.9982312  16.1564859  55.9698123
  41.7266534  12.8903433  56.2130676  42.5524554  12.5907204  55.8329319
  41.3760586  12.1211055  56.6620464  46.6948067  12.2429901  58.2828349
  46.0728077  11.5800606  57.9830577  47.3652934  12.2691033  57.6001997
  39.9275139  10.8089759  57.1719609  39.0907047  10.3811933  56.9903611
  39.8998785  11.0022202  58.1090401  46.7672595   0.7211689  67.8760855
  46.8160750   1.5973812  67.4938625  47.3095109   0.1789082  67.3032499
  57.2527440  11.2652812  67.1561992  56.4622984  11.2476951  66.6166492
  57.0160795  11.8041106  67.9111029  57.3725315   8.1145278  64.4694721
  57.4223320   7.9495286  65.4110244  57.2639239   7.2472537  64.0792602
  46.2561574  10.7933824  51.7586810  46.4049695  11.4769289  51.1053483
  47.0628018  10.7738914  52.2736266  54.6629078   4.0976206  65.7854028
  55.5638941   3.9582671  65.4938026  54.7377052   4.2630661  66.7252205
  48.9971883   1.4743061  64.6307214  48.1275193   1.7676627  64.3589803
  49.2331364   2.0583506  65.3514478  58.8743512  10.5342220  64.7136743
  58.5828321  10.8972201  65.5500204  58.2615644   9.8209228  64.5350075
  60.0739195   8.0995100  57.2339313  60.9086086   8.5384904  57.3976873
  60.2098323   7.6233753  56.4147559  57.1230701   5.6574835  63.1816801
  57.5984822   5.8502481  62.3735652  56.1996266   5.7134020  62.9360184
  44.0114207   6.8199002  52.7647879  43.7660249   5.9161332  52.9628089
  44.1810122   6.8216152  51.8227357  43.2809855   2.5527359  50.2634040
  42.5879100   2.6271714  49.6074076  43.0361607   1.7887703  50.7855557
  49.7556980  13.2881955  49.2298557  49.1830947  13.9072142  48.7769029
  50.3289773  13.8381316  49.7638479  55.8232370   2.5340595  61.4145106
  56.7749792   2.6338692  61.4357330  55.6535820   1.7418863  61.9243191
  52.9754239  13.5719105  50.3607140  53.9084913  13.5064666  50.5640015
  52.8877452  14.4075372  49.9021672  55.6042256  12.8884975  47.3211087
  55.5255888  12.5544839  48.2146845  56.4251923  13.3806743  47.3202560
  58.3020447   5.7546714  60.5287406  58.2696767   4.8162715  60.7147090
  58.9121071   5.8330751  59.7953231  50.1403778   4.6242767  46.5714610
  51.0862883   4.4948975  46.6403028  49.7618023   3.8857429  47.0484038
  64.1196997   6.8162721  59.6693443  64.8500386   6.5548009  60.2301146
  63.5103943   6.0791443  59.7095511  62.2012294   4.9570584  60.2667894
  61.4745458   4.8226549  59.6584385  61.7859581   5.2647412  61.0724612
  50.0242471   8.6760513  68.0315267  50.9445480   8.8539112  68.2255313
  49.9892054   7.7316559  67.8794966  48.3246695   2.5492744  46.5069495
  47.4178151   2.2525856  46.5832209  48.6022676   2.2522562  45.6403781
  39.2424636   3.8699107  56.9568541  38.9227420   3.0164415  56.6642915
  38.6958064   4.0847685  57.7126509  43.0204543   6.5861548  60.6738048
  43.2390553   7.5178656  60.6926082  43.4330317   6.2269523  61.4592852
  47.8932409   2.1594754  70.0640797  47.7929135   3.1089111  69.9952888
  47.6753951   1.8312993  69.1916867  47.0945480  -0.5920321  46.6481474
  47.9564644  -0.2665423  46.9077292  47.2795824  -1.3788825  46.1354540
  39.1112896   7.4902019  58.9261663  38.4176367   7.0755971  58.4131617
  39.8585887   7.5322555  58.3295082  47.7563679   5.5891893  68.8805859
  47.2730760   6.3892253  69.0869748  47.8424618   5.5999838  67.9273303
  41.0249638   7.4220272  56.8027678  41.0020326   7.5207960  55.8509561
  41.3350275   8.2685423  57.1244844  43.6837016   9.4796427  60.9174292
  44.6380270   9.4480370  60.8504224  43.4849540   9.0187051  61.7324518
  44.2736398   8.0497543  63.4845090  45.0929287   8.5441622  63.5079927
  44.5473206   7.1329512  63.4562658  42.0387245  15.0216047  57.9344490
  41.9041713  14.2616448  57.3682488  41.6219307  15.7456947  57.4673279
  53.1746208  10.2052970  46.9421065  53.8782058  10.4102973  47.5578721
  52.4508857  10.7729732  47.2070149  54.0044018   5.9562832  53.0623336
  53.9479220   6.4131383  52.2230968  54.5572361   5.1953516  52.8846178
  62.1261162   4.4848637  56.3944747  61.5660720   4.5541826  57.1676309
  61.5204665   4.3089621  55.6744243  45.1956371  15.9185364  58.1462933
  45.0788755  16.8630796  58.0441623  44.3748817  15.6158925  58.5348732
  55.0832905  10.6435500  48.9919526  55.9178509  10.2116698  48.8097000
  54.9217248  10.4717513  49.9196420  54.7378797   7.1467613  50.3575865
  54.6827601   6.9811884  49.4164309  54.1124853   7.8543646  50.5138055
  39.5271312   2.3835677  64.1837287  40.1730176   1.8734631  64.6724512
  39.3188464   3.1204359  64.7580712  52.0524705   9.4516525  69.6829428
  52.9215864   9.6257177  69.3216063  51.5731456  10.2710942  69.5605157
  46.2210885  16.5713626  61.3618861  47.1238132  16.6037236  61.6785356
  45.9948255  15.6414077  61.3765197  47.9764487  15.3244612  58.0228940
  47.0260118  15.3246474  57.9093312  48.2796973  14.5777347  57.5064975
  43.8668803  -0.4696706  68.2812301  44.7300265  -0.8259901  68.4915626
  43.2934214  -0.8082811  68.9687706  63.7117180  21.1605151  59.0874702
  64.3495590  21.0411898  58.3838042  63.5938023  22.1085995  59.1462654
  60.5206887  21.1132579  59.0236227  60.1825398  20.9973644  58.1356762
  61.3896655  20.7123744  59.0037233  56.3793702  22.9668055  55.0133118
  55.8158568  22.8757992  54.2449406  56.2646097  22.1467960  55.4935610
  61.0026670  22.2667431  64.9822433  60.9915310  21.8720229  64.1102936
  61.1647309  21.5333503  65.5756204  53.9258134  24.4619247  57.8517338
  54.7179426  24.1210072  57.4363638  54.1654784  24.5714222  58.7719492
  55.8848888  23.7228160  50.7234717  56.6579764  23.1757147  50.5847593
  56.2374287  24.5872409  50.9349179  57.7233931  25.0504542  63.9301616
  57.4323797  25.9550173  63.8148283  58.3590915  25.0921070  64.6445686
  58.6490138  22.4281391  60.5202976  59.2453710  22.2037413  59.8059939
  58.7065109  21.6866136  61.1228424  58.2215166  19.8820826  48.3553167
  58.4740687  19.3602348  47.5936630  57.2839725  19.7186972  48.4579851
  63.2658449  18.8856605  56.1627910  64.0521538  18.4676028  55.8118327
  63.5297153  19.7902697  56.3309559  63.4368526  24.3229455  50.8616567
  62.8014359  24.3964081  51.5737472  63.1065933  24.9123054  50.1835646
  68.6666876  18.8231838  57.0660889  69.3992048  18.2531055  57.2998718
  67.9106232  18.4353438  57.5067394  57.9411455  21.7848932  50.5577542
  57.8247713  21.1093836  51.2258626  58.0513715  21.2981306  49.7409695
  60.2842996  21.2459079  54.2624231  59.9201203  20.7189700  54.9737153
  61.1410112  20.8557548  54.0890717  66.1892296  12.5353412  61.5255497
  65.8575621  13.4048823  61.3016712  65.5937910  12.2189696  62.2049528
  59.9248483  16.2748979  49.2585580  60.0922885  17.1429215  49.6256051
  59.7345652  16.4376261  48.3346869  62.6823816  24.7365958  60.9251410
  62.3824539  25.6390997  60.8167217  62.3374875  24.4698141  61.7772563
  56.1336297  21.1879755  56.9588115  55.2086794  21.0555969  57.1665806
  56.3820711  21.9673974  57.4558057  66.0820960  17.2548498  58.6048847
  65.1737837  17.1863907  58.3107608  66.0308555  17.7320443  59.4330673
  59.9037704  18.7306637  50.2432247  59.7837329  19.1763687  51.0817727
  59.2090292  19.0791954  49.6845785  53.4945108  20.8313028  57.7931904
  53.6237490  21.0847507  58.7071315  52.8142560  21.4240736  57.4736559
  57.6644596  31.5010278  53.8922378  57.5868625  32.4518103  53.9710858
  57.0606239  31.1556151  54.5497304  60.1561825  18.6738144  66.5483745
  59.3795160  19.2332064  66.5386609  60.7952389  19.1594927  67.0698615
  67.9482606  15.4564937  60.3826721  67.3056986  15.7497470  59.7366516
  67.4437535  15.3417857  61.1879918  65.6022770  19.2028110  51.0712581
  66.5140626  19.4355496  50.8960278  65.0932417  19.7865154  50.5087659
  58.4108198  21.4823597  66.1101712  59.1522882  22.0208641  65.8336535
  57.7045183  22.1089886  66.2673264  63.8863537  23.6252738  64.7073873
  64.2946893  23.1835148  63.9628506  63.1640799  23.0505365  64.9608066
  60.2394607  18.5625344  62.0807430  61.0855803  18.9864758  62.2242079
  60.1793245  17.9058969  62.7745993  64.2092352  24.1853928  58.4626162
  63.5801214  24.3499642  57.7602230  63.8218014  24.5995538  59.2337126
  68.0881584  25.1208366  55.8170526  67.4032622  25.5007267  55.2667559
  68.1725433  25.7303693  56.5502474  63.3894053  16.2229713  63.7388604
  63.1454985  16.9771773  63.2022880  63.6653983  16.6015060  64.5735851
  65.3432516  22.7668325  62.4165869  65.5549411  23.4100085  61.7400251
  65.2962264  21.9330642  61.9487800  62.9458745  15.3786146  59.3202442
  62.0843224  15.6767399  59.6119179  62.9721179  15.5956545  58.3883474
  59.7620314  23.9228336  55.7276247  60.2258659  24.2016039  54.9380870
  59.4977112  23.0211781  55.5449338  56.6544395  23.4699818  58.6656010
  57.2245752  23.8987086  58.0273495  57.2452507  23.1882402  59.3640196
  58.6989200  20.0451489  52.5365812  59.4013243  20.4972532  53.0039739
  58.3669828  19.4035307  53.1645706  57.1469562  18.6363245  66.9117022
  56.5168222  19.3179526  67.1452419  57.0405649  18.5246327  65.9670160
  52.4414534  18.3035041  57.8382946  51.6513588  18.5592570  57.3623057
  52.9325781  19.1183379  57.9434986  66.4578344  25.6440280  60.5888227
  67.2795787  25.2420468  60.3070908  66.4540746  25.5408515  61.5404343
  54.3929279  18.6679621  54.7966423  53.5960443  18.7798315  55.3149918
  54.1654872  19.0066273  53.9307313  60.2234947  25.1924324  62.7448937
  60.2879379  25.6544731  63.5807109  59.5145871  24.5621689  62.8731247
  50.7252237  18.5565532  60.2697937  50.9760275  19.4412542  60.5355513
  51.2611785  18.3770133  59.4973029  74.5484337  21.9879029  56.9373198
  73.7948045  21.4186427  56.7817203  74.6831878  21.9541693  57.8843833
  59.9382965  26.8592431  52.6127918  59.8028639  27.7043967  53.0412765
  60.4792777  27.0611709  51.8493851  56.4250304  12.9384011  69.2742273
  56.0317250  12.3850210  69.9489917  57.2416445  13.2494590  69.6648790
  53.3912362  24.3767869  53.1855843  53.9036883  25.1711120  53.3361407
  54.0435075  23.6794160  53.1189444  55.2007247  27.4933626  55.2678596
  55.3773875  28.4151590  55.0799580  55.9964080  27.1792045  55.6972976
  59.3418265  14.3541890  66.8662529  60.0827979  14.9549043  66.7866992
  59.5736188  13.6119528  66.3080572  54.4859603  19.5398257  65.1440759
  54.3713118  18.6383515  65.4447858  53.6304121  19.7861954  64.7925576
  61.5651441  27.4815998  66.7428260  61.1215295  26.6952376  66.4249164
  62.2268655  27.6695148  66.0772150  56.3238562  29.0111799  61.2688938
  56.8745987  28.8828863  60.4965932  55.4850038  29.3106688  60.9183831
  63.6632679  27.7618798  64.7709661  63.6451154  28.5827679  64.2789930
  64.5852599  27.6372873  64.9959802  60.1205733  25.2762927  65.6133169
  60.6534070  24.5151215  65.3832477  59.5919814  24.9836579  66.3557324
  63.2875428  10.3822993  61.1426811  62.9439698  11.2724635  61.0665922
  63.6554391  10.1924651  60.2796396  51.3561279  22.7056524  53.9615413
  52.1936501  23.1153532  53.7449121  51.5339546  21.7655966  53.9315607
  63.2525711  20.3731604  49.6499246  62.7372334  21.1436209  49.8887634
  62.9803019  19.6996740  50.2732308  60.8372822  15.2181305  54.7084485
  59.9814418  14.8288155  54.5290123  61.2499774  15.2973266  53.8484270
  62.3671969  12.7527648  59.1076044  61.8636764  12.7157783  58.2943850
  62.6602575  13.6620391  59.1672701  58.6114854  12.8366378  58.1142226
  59.4767851  12.6409187  57.7548116  58.6792363  12.6076730  59.0411583
  68.2259985  23.1263959  51.5852420  67.4489428  22.7875118  51.1407582
  68.9051466  23.1316582  50.9107385  63.0412014  18.2458696  51.4759027
  62.7362150  18.5604845  52.3269171  63.9942456  18.3240116  51.5186360
  61.4858446  24.4048920  53.1251981  60.9579807  23.6701679  52.8125219
  60.9845949  25.1823596  52.8791950  66.4651292  22.5997940  58.2419028
  65.8074966  23.2897202  58.3299156  67.2691691  22.9894372  58.5853014
  56.2177174  15.0668586  55.4858593  56.7920925  14.8443767  54.7531786
  56.8048156  15.1357280  56.2387194  65.2756751  20.9542313  56.2922969
  65.7888632  21.5872305  56.7944679  65.9257975  20.3543508  55.9266329
  56.5446761  17.0973047  49.5054478  55.7084073  17.4347733  49.8263753
  56.4051530  16.9622027  48.5681615  58.5199841  11.9409835  54.2133662
  57.8664254  11.6258852  53.5890277  58.4780315  11.3185575  54.9393485
  59.6311046  22.2229130  46.1286954  58.7238108  21.9918383  46.3278103
  60.1282078  21.4266749  46.3160936  61.7537582  18.4291768  58.5381310
  60.8360143  18.6506715  58.3802998  62.1697725  18.5038079  57.6793017
  62.5372629  19.8283184  53.6683990  63.2844448  20.3404581  53.3591112
  62.8064219  19.5067237  54.5288384  60.8099280  22.3241725  50.6510944
  59.9010499  22.0400758  50.7483414  60.8394363  22.7440803  49.7914251
  66.0418547  25.9348314  54.4202112  65.5880874  25.0939224  54.4767303
  65.4112514  26.5709713  54.7576892  64.9851467  16.8640300  55.6502779
  64.2474223  16.3517686  55.9813022  65.2378240  16.4240682  54.8386056
  64.4851486  27.7724811  55.3551930  64.7774461  28.3329868  54.6364296
  64.9950107  28.0653372  56.1105089  65.0863094   9.6416552  56.2444549
  65.3921971   8.7813916  55.9570464  65.8115699  10.2334172  56.0443543
  51.3787450  20.0447239  54.6326147  51.1811850  19.4516600  53.9077213
  50.8234114  19.7399449  55.3502085  59.3584174  19.9370345  56.7520740
  59.4132783  18.9844182  56.6763216  58.5475376  20.0929784  57.2362038
  60.5075367  23.8650468  47.9899023  60.0694797  23.1486327  47.5304660
  61.2485808  24.0926583  47.4284114  57.2976533  18.5547405  54.5111119
  56.4844399  18.8541576  54.9176311  57.7935528  18.1603094  55.2285601
  59.4485111  28.5505162  56.4445383  59.4061290  28.7766008  55.5153915
  60.3647810  28.3168537  56.5931185  62.8950745  19.0189230  63.3426013
  63.2500133  19.2460703  64.2020478  63.5422876  19.3507606  62.7203268
  68.6248482  22.1407665  54.0475342  68.4866381  22.3309261  53.1196531
  68.2684701  22.9027048  54.5043393  56.7890608  16.1265761  60.1272354
  57.4289988  15.9854520  59.4295317  55.9568139  15.8400274  59.7510956
  68.6517862  24.2084192  59.0586613  69.0854368  24.1159482  59.9069667
  69.3649442  24.1841693  58.4206629  57.5650912  25.4268191  56.2407346
  58.3591511  24.9318511  56.0389921  56.8542605  24.8986054  55.8775052
  62.3845757  27.8086287  60.5919714  62.4382779  28.3777223  61.3597430
  61.5160538  27.9788172  60.2273751  53.8733676  19.5711273  52.3167099
  52.9431264  19.5095728  52.5337061  53.9691148  19.0487226  51.5203740
  53.7919225  16.0966086  54.9045340  54.0526042  17.0111419  54.7954501
  54.6136397  15.6290528  55.0541953  55.2644150  17.5103843  62.0744165
  55.9367203  17.3021205  61.4256814  54.4373937  17.3125929  61.6349397
  69.5133411  24.2507893  61.5919499  69.7069301  25.1553704  61.8378773
  69.4134029  23.7915312  62.4258084  61.1669722  14.1365784  64.0909826
  60.5197637  14.8355733  63.9974302  61.9370737  14.5701928  64.4586074
  64.5748520  24.4014636  67.1660379  64.4234026  24.1725188  66.2490463
  64.5653199  25.3585237  67.1791724  61.3433856  21.9746549  62.1506646
  62.2725916  22.1257708  61.9775613  60.9224886  22.0630569  61.2955292
  60.1422188  25.9997213  59.9205183  60.0033274  25.6315997  60.7931121
  59.3536784  26.5144852  59.7489141  60.7370340  31.1006309  51.2630720
  60.9122096  30.6294353  52.0776342  60.0503128  31.7272076  51.4911980
  61.6927403  25.3778816  57.3094021  61.3577236  25.3379586  58.2051671
  61.1931349  24.7123532  56.8364431  55.6671647  20.7846446  62.8346602
  55.5291445  20.0526685  63.4358141  56.5776571  20.6955346  62.5530790
  64.6286595  22.7234850  47.5831081  64.0115766  21.9981678  47.4864133
  64.1603083  23.4844210  47.2398155  58.2953948  20.4966405  62.3230282
  59.0053566  19.8559597  62.2816900  58.2523256  20.7479300  63.2456463
  66.2840727  27.4333758  65.2436861  66.2253273  26.7492979  64.5767444
  66.6860245  28.1752748  64.7917487  57.0082882  17.4831623  64.1425921
  56.4720239  17.0322361  64.7947518  56.4199590  17.6177532  63.3996386
  55.3031425  34.2495672  58.0370580  55.5428024  34.8814196  58.7149598
  54.4600622  33.8983712  58.3235939  56.4185141  16.9420274  46.7052385
  55.5414607  16.8209075  46.3414632  56.8942894  16.1506353  46.4531274
  66.2858134  25.3973342  63.4750841  65.3984913  25.0599264  63.5977240
  66.8556685  24.6656374  63.7119606  47.9387281  21.7297434  56.7993892
  48.6258321  21.4159164  56.2114907  47.7835410  22.6338799  56.5261143
  52.7422003  16.6187631  61.2278916  52.6580192  16.0113300  60.4929326
  51.9204710  17.1096649  61.2288412  59.8159287  30.0574795  60.4412084
  59.7429459  30.8629766  60.9531388  59.3736680  30.2566761  59.6160105
  59.6049067  29.2946565  53.9514905  58.8216589  29.8368245  54.0453130
  60.3041812  29.8120544  54.3509147  62.9145717  15.1041194  56.5949111
  63.4114417  14.3511157  56.2750181  62.1432699  15.1405511  56.0292320
  70.7675474  20.8081560  58.2367402  70.7565351  21.6906275  57.8661335
  69.8992854  20.4553111  58.0421939  62.2757971  29.9561629  62.5970243
  62.9885943  30.5909094  62.5246144  61.7847999  30.0525495  61.7810244
  63.9975498  23.8612881  54.1687534  63.0631776  23.9814344  53.9992239
  64.1752166  22.9585348  53.9047544  59.4980686  17.2458577  56.3220795
  59.1278473  16.6929618  57.0101701  59.9939778  16.6416711  55.7695795
  67.3848049  19.7030201  54.7037568  67.8508501  20.5358192  54.6297871
  67.8355550  19.2375182  55.4082827  57.3269884  27.7056072  63.4175813
  58.0279344  28.3392555  63.5705208  56.8564999  28.0470804  62.6571453
  65.4524280  26.0474022  51.7023720  65.7284124  25.9330617  52.6117594
  64.5828779  25.6491507  51.6635893  65.3564712  12.0710788  58.7428470
  64.4427792  12.3015015  58.9110677  65.7857813  12.1549232  59.5942502
  65.1271170  20.2600680  61.2428364  64.4742621  20.5076587  60.5880816
  65.5051550  19.4464818  60.9090841  62.0878344  30.2960373  55.3456534
  62.2700739  29.4782029  55.8084286  62.9111330  30.5128065  54.9081424
  62.4220510  29.2228558  52.6071582  62.9508276  28.7121013  51.9941745
  62.6848729  28.9071088  53.4717116  61.1758743  21.0020491  67.7294401
  60.4999380  20.9014620  68.3996776  61.9986377  20.8459704  68.1930398
  52.9237602  27.2392427  60.3506916  53.5091039  26.4936115  60.4834820
  52.7262441  27.5496384  61.2343580  55.7776258  30.2743675  55.3669358
  55.1086633  30.7589802  54.8833398  55.6389127  30.5212895  56.2812737
  47.5155257  19.8098027  59.0711359  47.5539357  19.2761618  59.8648477
  47.0095550  19.2833233  58.4522336  59.9181526  32.3087418  61.9652017
  60.4699834  32.4719040  62.7301102  60.2587720  32.8991856  61.2932042
  54.8946019  14.6562568  62.5673901  54.9587346  15.5177399  62.1551299
  54.8313140  14.0436570  61.8346260  54.3698292  16.7285701  66.2146936
  54.9970331  16.3462778  66.8284460  53.5126211  16.5099902  66.5802628
  64.7692401  27.1348676  67.8200671  65.3132304  27.7478634  67.3255626
  64.1879245  27.6928254  68.3367684  51.1463835  18.5362130  52.1465291
  51.4417276  17.6272808  52.0932344  50.2451870  18.5149869  51.8246293
  63.0549913  30.2569394  58.9515699  62.9301053  29.4559134  58.4426644
  63.7129005  30.7515587  58.4629669  54.6758082  16.6118126  58.1292839
  53.9544667  17.2254094  57.9900312  55.4651337  17.1475891  58.0509485
  65.1184822  28.0578414  60.5795249  64.1715157  27.9383765  60.5073576
  65.4667595  27.1700912  60.6621510  57.4784395  13.9472553  64.4033491
  58.0018797  14.1934849  65.1659800  57.2596728  14.7792588  63.9836628
  52.8751676  16.2176227  52.2704616  52.5464382  15.3373606  52.0879722
  53.2291047  16.1623896  53.1581005  62.1231255  27.8531130  56.7799601
  61.9756218  26.9247837  56.9607171  62.9484749  27.8751221  56.2956676
  55.9893499  16.5049197  52.6380093  56.3289572  17.0335118  51.9158702
  56.4365620  16.8429603  53.4138660  65.7265377  28.6759689  57.8664474
  66.6511924  28.4702550  57.7288925  65.5580680  28.4276090  58.7753815
  58.6836940  14.8886248  62.0883161  58.3433761  14.0894061  62.4903841
  57.9775947  15.1887959  61.5159995  59.3353412  11.9735560  60.5410484
  60.1579481  11.4996038  60.4189375  59.5791476  12.7526044  61.0409171
  57.9761647  15.0023819  50.8373386  58.6970009  15.3805071  50.3337103
  57.3526951  15.7212695  50.9408364  62.1192769  15.7068968  51.7731718
  62.3356384  16.5893606  51.4720547  61.6386837  15.3155181  51.0437360
  56.8591991  18.6654681  58.3502463  56.7136572  18.9794984  59.2426745
  56.3817194  19.2839581  57.7973362  58.7188374  15.6557229  58.3983353
  58.7049942  14.7598322  58.0615651  59.4360802  15.6627893  59.0321639
  60.5714504  16.0894569  60.4436480  60.3132282  17.0111640  60.4420811
  60.0399545  15.6925004  61.1336944  65.5160693  29.1945356  53.2226565
  65.6897571  28.6291779  52.4700418  66.0089584  29.9946251  53.0406055
  51.3337653  21.2060025  61.2890124  50.7891121  21.9819833  61.4210399
  52.2117003  21.5530830  61.1309246  58.1225270  14.5371609  53.6670923
  58.2441181  13.6088255  53.8661810  57.8327312  14.5510295  52.7549238
  60.9916460  12.2226520  56.8037643  61.0138157  12.2865853  55.8489622
  61.4084519  11.3831028  56.9978149  71.3700084  21.9581779  54.8416865
  71.8131230  21.2089104  54.4435988  70.4926595  21.9491915  54.4590597
  52.1203675  20.3329922  64.1820281  51.3785411  20.4812557  64.7684912
  51.7996419  20.5938187  63.3187031  68.4027289  25.9611826  51.8510795
  68.9278613  26.2999099  51.1260115  68.3149641  25.0258841  51.6673929
  60.0647338  29.8745900  63.9800671  60.3734464  29.6295047  64.8523371
  60.8622820  30.0792538  63.4919541  60.0867950  32.0283809  56.2106048
  59.6472940  31.5360188  56.9038904  60.8376067  31.4856777  55.9698123
  52.5660289  28.2195350  56.2130676  53.3918308  27.9199122  55.8329319
  52.2154341  27.4502973  56.6620464  57.5341822  27.5721818  58.2828349
  56.9121831  26.9092523  57.9830577  58.2046689  27.5982950  57.6001997
  50.7668894  26.1381677  57.1719609  49.9300802  25.7103851  56.9903611
  50.7392539  26.3314120  58.1090401  57.6066349  16.0503606  67.8760855
  57.6554505  16.9265729  67.4938625  58.1488863  15.5081000  67.3032499
  68.0921195  26.5944730  67.1561992  67.3016739  26.5768869  66.6166492
  67.8554549  27.1333023  67.9111029  68.2119070  23.4437196  64.4694721
  68.2617075  23.2787204  65.4110244  68.1032993  22.5764455  64.0792602
  57.0955329  26.1225742  51.7586810  57.2443449  26.8061206  51.1053483
  57.9021772  26.1030832  52.2736266  65.5022832  19.4268124  65.7854028
  66.4032695  19.2874589  65.4938026  65.5770807  19.5922579  66.7252205
  59.8365638  16.8034979  64.6307214  58.9668947  17.0968545  64.3589803
  60.0725118  17.3875424  65.3514478  69.7137267  25.8634138  64.7136743
  69.4222075  26.2264118  65.5500204  69.1009398  25.1501146  64.5350075
  70.9132949  23.4287017  57.2339313  71.7479840  23.8676821  57.3976873
  71.0492078  22.9525671  56.4147559  67.9624455  20.9866752  63.1816801
  68.4378577  21.1794399  62.3735652  67.0390020  21.0425938  62.9360184
  54.8507962  22.1490919  52.7647879  54.6054004  21.2453249  52.9628089
  55.0203876  22.1508070  51.8227357  62.5404671  13.0214596  62.1472634
  63.0586615  13.7575623  61.8219123  62.1859804  13.3278589  62.9819394
  54.1203609  17.8819277  50.2634040  53.4272854  17.9563632  49.6074076
  53.8755361  17.1179621  50.7855557  62.7917266   9.4414878  57.6673531
  63.0719019   8.7738067  58.2933958  63.5767873   9.6343974  57.1548195
  66.6626124  17.8632512  61.4145106  67.6143547  17.9630610  61.4357330
  66.4929574  17.0710781  61.9243191  64.6840503  14.9488096  61.6004507
  64.0890436  15.2293108  60.9050996  64.3990200  15.4381996  62.3721248
  69.1414202  21.0838632  60.5287406  69.1090522  20.1454633  60.7147090
  69.7514825  21.1622669  59.7953231  60.9797533  19.9534685  46.5714610
  61.9256637  19.8240893  46.6403028  60.6011778  19.2149347  47.0484038
  69.2908690  17.8749675  60.5745689  68.7747739  17.0908132  60.3875618
  70.1748639  17.5468392  60.7392208  66.9519417  11.6190691  56.5341502
  66.7544238  11.3105779  57.4184834  67.5619123  12.3452330  56.6639432
  74.9590752  22.1454639  59.6693443  75.6894140  21.8839927  60.2301146
  74.3497697  21.4083361  59.7095511  73.0406049  20.2862501  60.2667894
  72.3139212  20.1518466  59.6584385  72.6253336  20.5939330  61.0724612
  60.8636225  24.0052431  68.0315267  61.7839235  24.1831030  68.2255313
  60.8285808  23.0608477  67.8794966  59.1640450  17.8784661  46.5069495
  58.2571905  17.5817774  46.5832209  59.4416431  17.5814479  45.6403781
  50.0818390  19.1991025  56.9568541  49.7621175  18.3456333  56.6642915
  49.5351818  19.4139603  57.7126509  53.8598298  21.9153466  60.6738048
  54.0784308  22.8470574  60.6926082  54.2724072  21.5561440  61.4592852
  60.7802516  12.4221551  52.6613736  59.9703244  12.0768636  53.0368982
  61.4686932  12.1129095  53.2501348  62.7093064  11.4999598  54.2838033
  63.2624102  11.9195051  54.9428056  62.9463150  10.5735346  54.3260989
  58.7326163  17.4886672  70.0640797  58.6322890  18.4381029  69.9952888
  58.5147705  17.1604910  69.1916867  57.9339234  14.7371597  46.6481474
  58.7958398  15.0626495  46.9077292  58.1189579  13.9503093  46.1354540
  49.9506650  22.8193936  58.9261663  49.2570122  22.4047889  58.4131617
  50.6979641  22.8614473  58.3295082  66.0871871  13.6100123  53.7916697
  65.5070540  14.2684927  53.4094750  65.8207804  12.7877468  53.3804115
  64.5375437  13.0105181  55.9938018  65.0375216  13.1221715  55.1852336
  65.1811045  12.7066234  56.6338826  58.5957433  20.9183810  68.8805859
  58.1124515  21.7184171  69.0869748  58.6818372  20.9291755  67.9273303
  51.8643393  22.7512190  56.8027678  51.8414081  22.8499877  55.8509561
  52.1744029  23.5977341  57.1244844  54.5230771  24.8088345  60.9174292
  55.4774024  24.7772287  60.8504224  54.3243294  24.3478969  61.7324518
  55.1130153  23.3789461  63.4845090  55.9323042  23.8733540  63.5079927
  55.3866960  22.4621429  63.4562658  64.8696749  15.7700213  52.8473046
  63.9822604  16.0549864  52.6293240  65.2850738  15.6093977  52.0000322
  68.2211285  15.7946734  56.5627385  68.9971675  16.2843187  56.8352002
  67.4959419  16.2204789  57.0199254  70.6583844  16.5074354  57.6201325
  71.2528334  16.2670090  56.9094634  70.7310427  15.7881484  58.2474862
  52.8780999  30.3507965  57.9344490  52.7435467  29.5908365  57.3682488
  52.4613062  31.0748864  57.4673279  64.0139962  25.5344888  46.9421065
  64.7175813  25.7394891  47.5578721  63.2902611  26.1021650  47.2070149
  64.8437773  21.2854749  53.0623336  64.7872974  21.7423301  52.2230968
  65.3966115  20.5245434  52.8846178  68.6542579  17.0744481  53.8873455
  68.3979513  16.6741117  54.7181663  68.0295447  17.7888275  53.7623594
  72.9654916  19.8140555  56.3944747  72.4054474  19.8833744  57.1676309
  72.3598420  19.6381539  55.6744243  56.0350125  31.2477282  58.1462933
  55.9182509  32.1922714  58.0441623  55.2142572  30.9450843  58.5348732
  65.5772552  22.4759531  50.3575865  65.5221356  22.3103802  49.4164309
  64.9518607  23.1835564  50.5138055  50.3665067  17.7127595  64.1837287
  51.0123931  17.2026549  64.6724512  50.1582218  18.4496277  64.7580712
  62.8918459  24.7808443  69.6829428  63.7609619  24.9549095  69.3216063
  62.4125211  25.6002859  69.5605157  58.8868677  11.9767640  49.9361183
  58.8747347  12.9209480  50.0929454  59.7792099  11.7937785  49.6420644
  57.0604639  31.9005544  61.3618861  57.9631886  31.9329154  61.6785356
  56.8342009  30.9705994  61.3765197  58.8158241  30.6536530  58.0228940
  57.8653872  30.6538392  57.9093312  59.1190728  29.9069265  57.5064975
  62.7020797   8.5710416  54.1907120  61.9353193   8.0168903  54.3363802
  63.1131502   8.6432285  55.0521272  54.7062558  14.8595212  68.2812301
  55.5694020  14.5032017  68.4915626  54.1327969  14.5209107  68.9687706
  74.5510935  36.4897068  59.0874702  75.1889345  36.3703816  58.3838042
  74.4331778  37.4377912  59.1462654  71.3600641  36.4424497  59.0236227
  71.0219153  36.3265561  58.1356762  72.2290409  36.0415662  59.0037233
  67.2187457  38.2959973  55.0133118  66.6552322  38.2049910  54.2449406
  67.1039852  37.4759877  55.4935610  71.8420424  37.5959348  64.9822433
  71.8309065  37.2012147  64.1102936  72.0041064  36.8625421  65.5756204
  64.7651889  39.7911165  57.8517338  65.5573181  39.4501989  57.4363638
  65.0048539  39.9006140  58.7719492  72.7987016  41.9630941  50.3247583
  72.1474995  42.5485021  49.9381597  73.5931378  42.4937136  50.3842620
  68.5627685  40.3796460  63.9301616  68.2717551  41.2842091  63.8148283
  69.1984670  40.4212988  64.6445686  69.4883892  37.7573309  60.5202976
  70.0847464  37.5329331  59.8059939  69.5458864  37.0158054  61.1228424
  74.1052203  34.2148522  56.1627910  74.8915293  33.7967945  55.8118327
  74.3690908  35.1194614  56.3309559  74.2762281  39.6521373  50.8616567
  73.6408114  39.7255999  51.5737472  73.9459687  40.2414971  50.1835646
  79.5060631  34.1523755  57.0660889  80.2385802  33.5822972  57.2998718
  78.7499986  33.7645356  57.5067394  71.1236750  36.5750997  54.2624231
  70.7594957  36.0481618  54.9737153  71.9803866  36.1849466  54.0890717
  77.0286051  27.8645330  61.5255497  76.6969376  28.7340741  61.3016712
  76.4331664  27.5481614  62.2049528  73.5217570  40.0657876  60.9251410
  73.2218293  40.9682914  60.8167217  73.1768630  39.7990059  61.7772563
  66.9730052  36.5171672  56.9588115  66.0480548  36.3847887  57.1665806
  67.2214465  37.2965892  57.4558057  76.9214714  32.5840416  58.6048847
  76.0131592  32.5155824  58.3107608  76.8702310  33.0612361  59.4330673
  64.3338863  36.1604946  57.7931904  64.4631244  36.4139425  58.7071315
  63.6536314  36.7532654  57.4736559  68.5038350  46.8302196  53.8922378
  68.4262380  47.7810021  53.9710858  67.8999994  46.4848068  54.5497304
  70.9955580  34.0030061  66.5483745  70.2188914  34.5623982  66.5386609
  71.6346143  34.4886844  67.0698615  78.7876361  30.7856854  60.3826721
  78.1450741  31.0789387  59.7366516  78.2831289  30.6709775  61.1879918
  76.4416524  34.5320027  51.0712581  77.3534380  34.7647414  50.8960278
  75.9326171  35.1157072  50.5087659  69.2501952  36.8115515  66.1101712
  69.9916637  37.3500559  65.8336535  68.5438938  37.4381803  66.2673264
  74.7257292  38.9544655  64.7073873  75.1340648  38.5127066  63.9628506
  74.0034553  38.3797283  64.9608066  71.0788362  33.8917262  62.0807430
  71.9249557  34.3156676  62.2242079  71.0187000  33.2350886  62.7745993
  75.0486107  39.5145846  58.4626162  74.4194969  39.6791560  57.7602230
  74.6611769  39.9287455  59.2337126  78.9275338  40.4500284  55.8170526
  78.2426377  40.8299185  55.2667559  79.0119188  41.0595610  56.5502474
  74.2287807  31.5521630  63.7388604  73.9848739  32.3063691  63.2022880
  74.5047738  31.9306978  64.5735851  76.1826270  38.0960243  62.4165869
  76.3943165  38.7392003  61.7400251  76.1356018  37.2622559  61.9487800
  73.7852499  30.7078063  59.3202442  72.9236978  31.0059317  59.6119179
  73.8114934  30.9248462  58.3883474  70.6014068  39.2520254  55.7276247
  71.0652414  39.5307957  54.9380870  70.3370867  38.3503698  55.5449338
  67.4938149  38.7991735  58.6656010  68.0639507  39.2279004  58.0273495
  68.0846261  38.5174320  59.3640196  67.9863316  33.9655163  66.9117022
  67.3561977  34.6471444  67.1452419  67.8799404  33.8538245  65.9670160
  63.2808288  33.6326959  57.8382946  62.4907342  33.8884487  57.3623057
  63.7719536  34.4475297  57.9434986  77.2972098  40.9732198  60.5888227
  78.1189542  40.5712385  60.3070908  77.2934501  40.8700432  61.5404343
  65.2323034  33.9971538  54.7966423  64.4354197  34.1090232  55.3149918
  65.0048626  34.3358190  53.9307313  71.0628701  40.5216241  62.7448937
  71.1273134  40.9836649  63.5807109  70.3539625  39.8913606  62.8731247
  61.5645991  33.8857449  60.2697937  61.8154030  34.7704459  60.5355513
  62.1005540  33.7062051  59.4973029  85.3878091  37.3170947  56.9373198
  84.6341799  36.7478345  56.7817203  85.5225632  37.2833611  57.8843833
  70.7776719  42.1884349  52.6127918  70.6422394  43.0335885  53.0412765
  71.3186532  42.3903627  51.8493851  67.2644059  28.2675929  69.2742273
  66.8711004  27.7142127  69.9489917  68.0810199  28.5786507  69.6648790
  64.2306116  39.7059787  53.1855843  64.7430637  40.5003037  53.3361407
  64.8828829  39.0086077  53.1189444  70.1812020  29.6833808  66.8662529
  70.9221733  30.2840961  66.7866992  70.4129943  28.9411446  66.3080572
  65.3253358  34.8690175  65.1440759  65.2106873  33.9675432  65.4447858
  64.4697875  35.1153872  64.7925576  72.4045195  42.8107915  66.7428260
  71.9609050  42.0244294  66.4249164  73.0662409  42.9987066  66.0772150
  67.1632317  44.3403717  61.2688938  67.7139742  44.2120780  60.4965932
  66.3243793  44.6398606  60.9183831  74.5026434  43.0910715  64.7709661
  74.4844909  43.9119596  64.2789930  75.4246354  42.9664791  64.9959802
  70.9599488  40.6054845  65.6133169  71.4927824  39.8443133  65.3832477
  70.4313569  40.3128497  66.3557324  74.1269183  25.7114911  61.1426811
  73.7833452  26.6016552  61.0665922  74.4948145  25.5216568  60.2796396
  62.1955033  38.0348441  53.9615413  63.0330255  38.4445450  53.7449121
  62.3733301  37.0947883  53.9315607  74.0919465  35.7023522  49.6499246
  73.5766089  36.4728127  49.8887634  73.8196774  35.0288658  50.2732308
  71.6766576  30.5473223  54.7084485  70.8208173  30.1580073  54.5290123
  72.0893528  30.6265183  53.8484270  73.2065723  28.0819566  59.1076044
  72.7030519  28.0449701  58.2943850  73.4996330  28.9912309  59.1672701
  69.4508609  28.1658296  58.1142226  70.3161606  27.9701104  57.7548116
  69.5186118  27.9368647  59.0411583  79.0653740  38.4555877  51.5852420
  78.2883182  38.1167036  51.1407582  79.7445220  38.4608500  50.9107385
  73.8805769  33.5750614  51.4759027  73.5755904  33.8896763  52.3269171
  74.8336211  33.6532034  51.5186360  72.3252200  39.7340837  53.1251981
  71.7973562  38.9993597  52.8125219  71.8239703  40.5115514  52.8791950
  77.3045046  37.9289858  58.2419028  76.6468721  38.6189119  58.3299156
  78.1085446  38.3186290  58.5853014  67.0570928  30.3960504  55.4858593
  67.6314680  30.1735685  54.7531786  67.6441910  30.4649198  56.2387194
  76.1150505  36.2834230  56.2922969  76.6282387  36.9164222  56.7944679
  76.7651729  35.6835426  55.9266329  69.3593596  27.2701752  54.2133662
  68.7058008  26.9550770  53.5890277  69.3174070  26.6477493  54.9393485
  73.3772879  46.2618555  49.0483641  72.7034578  46.5650252  49.6568598
  73.7638701  47.0647635  48.6989098  72.5931336  33.7583686  58.5381310
  71.6753897  33.9798633  58.3802998  73.0091480  33.8329997  57.6793017
  73.3766384  35.1575102  53.6683990  74.1238203  35.6696499  53.3591112
  73.6457973  34.8359154  54.5288384  71.6493034  37.6533642  50.6510944
  70.7404253  37.3692675  50.7483414  71.6788118  38.0732721  49.7914251
  76.8812301  41.2640232  54.4202112  76.4274629  40.4231142  54.4767303
  76.2506268  41.9001630  54.7576892  75.8245221  32.1932218  55.6502779
  75.0867978  31.6809604  55.9813022  76.0771995  31.7532600  54.8386056
  75.3245241  43.1016729  55.3551930  75.6168215  43.6621786  54.6364296
  75.8343861  43.3945290  56.1105089  75.9256848  24.9708470  56.2444549
  76.2315725  24.1105833  55.9570464  76.6509453  25.5626090  56.0443543
  62.2181204  35.3739157  54.6326147  62.0205604  34.7808517  53.9077213
  61.6627868  35.0691367  55.3502085  70.1977928  35.2662263  56.7520740
  70.2526538  34.3136099  56.6763216  69.3869130  35.4221702  57.2362038
  71.3469122  39.1942386  47.9899023  70.9088552  38.4778245  47.5304660
  72.0879563  39.4218501  47.4284114  68.1370288  33.8839323  54.5111119
  67.3238154  34.1833493  54.9176311  68.6329282  33.4895012  55.2285601
  70.2878866  43.8797080  56.4445383  70.2455045  44.1057926  55.5153915
  71.2041565  43.6460454  56.5931185  73.7344500  34.3481147  63.3426013
  74.0893887  34.5752620  64.2020478  74.3816631  34.6799524  62.7203268
  79.4642237  37.4699583  54.0475342  79.3260135  37.6601179  53.1196531
  79.1078455  38.2318966  54.5043393  67.6284363  31.4557678  60.1272354
  68.2683742  31.3146437  59.4295317  66.7961893  31.1692192  59.7510956
  79.4911616  39.5376110  59.0586613  79.9248123  39.4451399  59.9069667
  80.2043197  39.5133611  58.4206629  68.4044667  40.7560109  56.2407346
  69.1985265  40.2610429  56.0389921  67.6936359  40.2277972  55.8775052
  73.2239511  43.1378204  60.5919714  73.2776533  43.7069141  61.3597430
  72.3554292  43.3080089  60.2273751  64.6312979  31.4258003  54.9045340
  64.8919796  32.3403337  54.7954501  65.4530151  30.9582446  55.0541953
  66.1037904  32.8395760  62.0744165  66.7760958  32.6313123  61.4256814
  65.2767691  32.6417846  61.6349397  80.3527166  39.5799811  61.5919499
  80.5463056  40.4845621  61.8378773  80.2527784  39.1207230  62.4258084
  72.0063477  29.4657701  64.0909826  71.3591392  30.1647651  63.9974302
  72.7764492  29.8993845  64.4586074  75.4142274  39.7306554  67.1660379
  75.2627781  39.5017105  66.2490463  75.4046954  40.6877155  67.1791724
  72.1827611  37.3038466  62.1506646  73.1119671  37.4549626  61.9775613
  71.7618641  37.3922487  61.2955292  70.9815943  41.3289131  59.9205183
  70.8427028  40.9607915  60.7931121  70.1930539  41.8436770  59.7489141
  71.5764095  46.4298227  51.2630720  71.7515850  45.9586270  52.0776342
  70.8896883  47.0563993  51.4911980  72.5321158  40.7070733  57.3094021
  72.1970990  40.6671503  58.2051671  72.0325103  40.0415449  56.8364431
  66.5065402  36.1138363  62.8346602  66.3685200  35.3818602  63.4358141
  67.4170325  36.0247264  62.5530790  75.4680349  38.0526768  47.5831081
  74.8509520  37.3273596  47.4864133  74.9996838  38.8136128  47.2398155
  69.1347702  35.8258323  62.3230282  69.8447321  35.1851515  62.2816900
  69.0917011  36.0771218  63.2456463  77.1234481  42.7625676  65.2436861
  77.0647027  42.0784896  64.5767444  77.5253999  43.5044666  64.7917487
  67.8476636  32.8123541  64.1425921  67.3113993  32.3614279  64.7947518
  67.2593345  32.9469449  63.3996386  66.1425180  49.5787590  58.0370580
  66.3821778  50.2106114  58.7149598  65.2994376  49.2275630  58.3235939
  77.1251888  40.7265260  63.4750841  76.2378667  40.3891182  63.5977240
  77.6950439  39.9948291  63.7119606  58.7781035  37.0589352  56.7993892
  59.4652075  36.7451082  56.2114907  58.6229164  37.9630716  56.5261143
  63.5815758  31.9479548  61.2278916  63.4973946  31.3405218  60.4929326
  62.7598464  32.4388567  61.2288412  70.6553042  45.3866712  60.4412084
  70.5823213  46.1921684  60.9531388  70.2130435  45.5858678  59.6160105
  70.4442821  44.6238482  53.9514905  69.6610343  45.1660163  54.0453130
  71.1435567  45.1412462  54.3509147  73.7539471  30.4333112  56.5949111
  74.2508171  29.6803074  56.2750181  72.9826453  30.4697429  56.0292320
  81.6069229  36.1373477  58.2367402  81.5959105  37.0198193  57.8661335
  80.7386608  35.7845028  58.0421939  73.1151725  45.2853546  62.5970243
  73.8279697  45.9201011  62.5246144  72.6241754  45.3817412  61.7810244
  74.8369252  39.1904799  54.1687534  73.9025531  39.3106262  53.9992239
  75.0145921  38.2877266  53.9047544  70.3374440  32.5750495  56.3220795
  69.9672228  32.0221535  57.0101701  70.8333533  31.9708628  55.7695795
  78.2241804  35.0322118  54.7037568  78.6902256  35.8650110  54.6297871
  78.6749304  34.5667100  55.4082827  68.1663639  43.0347990  63.4175813
  68.8673098  43.6684473  63.5705208  67.6958754  43.3762721  62.6571453
  76.2918035  41.3765940  51.7023720  76.5677879  41.2622534  52.6117594
  75.4222533  40.9783425  51.6635893  76.1958466  27.4002705  58.7428470
  75.2821546  27.6306932  58.9110677  76.6251568  27.4841149  59.5942502
  75.9664925  35.5892597  61.2428364  75.3136375  35.8368505  60.5880816
  76.3445305  34.7756736  60.9090841  72.9272099  45.6252291  55.3456534
  73.1094493  44.8073946  55.8084286  73.7505085  45.8419983  54.9081424
  73.2614264  44.5520476  52.6071582  73.7902031  44.0412930  51.9941745
  73.5242484  44.2363006  53.4717116  72.0152498  36.3312408  67.7294401
  71.3393135  36.2306538  68.3996776  72.8380132  36.1751622  68.1930398
  63.7631357  42.5684345  60.3506916  64.3484794  41.8228033  60.4834820
  63.5656195  42.8788302  61.2343580  66.6170012  45.6035592  55.3669358
  65.9480387  46.0881720  54.8833398  66.4782882  45.8504813  56.2812737
  58.3549012  35.1389945  59.0711359  58.3933111  34.6053536  59.8648477
  57.8489304  34.6125151  58.4522336  70.7575281  47.6379336  61.9652017
  71.3093589  47.8010957  62.7301102  71.0981474  48.2283774  61.2932042
  65.7339774  29.9854486  62.5673901  65.7981100  30.8469317  62.1551299
  65.6706894  29.3728487  61.8346260  65.2092046  32.0577618  66.2146936
  65.8364085  31.6754696  66.8284460  64.3519965  31.8391820  66.5802628
  75.6086155  42.4640593  67.8200671  76.1526059  43.0770552  67.3255626
  75.0273000  43.0220172  68.3367684  61.9857589  33.8654047  52.1465291
  62.2811030  32.9564726  52.0932344  61.0845625  33.8441787  51.8246293
  73.8943668  45.5861311  58.9515699  73.7694807  44.7851051  58.4426644
  74.5522759  46.0807505  58.4629669  65.5151836  31.9410044  58.1292839
  64.7938422  32.5546012  57.9900312  66.3045092  32.4767809  58.0509485
  75.9578576  43.3870331  60.5795249  75.0108912  43.2675683  60.5073576
  76.3061349  42.4992829  60.6621510  68.3178150  29.2764470  64.4033491
  68.8412552  29.5226767  65.1659800  68.0990483  30.1084505  63.9836628
  72.9625010  43.1823048  56.7799601  72.8149972  42.2539755  56.9607171
  73.7878503  43.2043138  56.2956676  76.5659131  44.0051606  57.8664474
  77.4905679  43.7994468  57.7288925  76.3974435  43.7568008  58.7753815
  69.5230695  30.2178165  62.0883161  69.1827515  29.4185979  62.4903841
  68.8169701  30.5179876  61.5159995  70.1747167  27.3027478  60.5410484
  70.9973236  26.8287956  60.4189375  70.4185230  28.0817962  61.0409171
  72.9586524  31.0360885  51.7731718  73.1750138  31.9185523  51.4720547
  72.4780591  30.6447099  51.0437360  67.6985745  33.9946599  58.3502463
  67.5530326  34.3086902  59.2426745  67.2210949  34.6131499  57.7973362
  69.5582128  30.9849147  58.3983353  69.5443697  30.0890240  58.0615651
  70.2754556  30.9919810  59.0321639  71.4108259  31.4186487  60.4436480
  71.1526037  32.3403557  60.4420811  70.8793299  31.0216921  61.1336944
  76.3554448  44.5237274  53.2226565  76.5291325  43.9583696  52.4700418
  76.8483339  45.3238169  53.0406055  62.1731407  36.5351943  61.2890124
  61.6284876  37.3111751  61.4210399  63.0510757  36.8822747  61.1309246
  68.9619024  29.8663527  53.6670923  69.0834935  28.9380173  53.8661810
  68.6721067  29.8802213  52.7549238  71.8310215  27.5518437  56.8037643
  71.8531911  27.6157770  55.8489622  72.2478274  26.7122946  56.9978149
  82.2093839  37.2873697  54.8416865  82.6524985  36.5381022  54.4435988
  81.3320349  37.2783833  54.4590597  77.3429620  43.8404038  50.3223464
  78.0380525  44.4610731  50.5410778  77.6852770  42.9899389  50.5975842
  62.9597429  35.6621839  64.1820281  62.2179165  35.8104475  64.7684912
  62.6390174  35.9230105  63.3187031  79.2421043  41.2903744  51.8510795
  79.7672367  41.6291017  51.1260115  79.1543396  40.3550759  51.6673929
  70.9041092  45.2037817  63.9800671  71.2128218  44.9586964  64.8523371
  71.7016574  45.4084456  63.4919541  70.9261704  47.3575727  56.2106048
  70.4866694  46.8652106  56.9038904  71.6769821  46.8148695  55.9698123
  63.4054043  43.5487268  56.2130676  64.2312063  43.2491040  55.8329319
  63.0548095  42.7794890  56.6620464  68.3735576  42.9013736  58.2828349
  67.7515585  42.2384441  57.9830577  69.0440443  42.9274868  57.6001997
  61.6062648  41.4673594  57.1719609  60.7694556  41.0395769  56.9903611
  61.5786294  41.6606038  58.1090401  68.4460104  31.3795524  67.8760855
  68.4948259  32.2557647  67.4938625  68.9882618  30.8372917  67.3032499
  78.9314949  41.9236647  67.1561992  78.1410493  41.9060786  66.6166492
  78.6948304  42.4624941  67.9111029  79.0512824  38.7729114  64.4694721
  79.1010829  38.6079121  65.4110244  78.9426748  37.9056373  64.0792602
  67.9349083  41.4517659  51.7586810  68.0837203  42.1353124  51.1053483
  68.7415527  41.4322750  52.2736266  76.3416587  34.7560042  65.7854028
  77.2426450  34.6166507  65.4938026  76.4164561  34.9214497  66.7252205
  70.6759392  32.1326897  64.6307214  69.8062702  32.4260463  64.3589803
  70.9118873  32.7167342  65.3514478  80.5531021  41.1926055  64.7136743
  80.2615830  41.5556036  65.5500204  79.9403153  40.4793064  64.5350075
  81.7526704  38.7578935  57.2339313  82.5873595  39.1968739  57.3976873
  81.8885832  38.2817588  56.4147559  78.8018209  36.3158670  63.1816801
  79.2772331  36.5086316  62.3735652  77.8783775  36.3717856  62.9360184
  65.6901716  37.4782837  52.7647879  65.4447758  36.5745167  52.9628089
  65.8597631  37.4799988  51.8227357  73.3798426  28.3506514  62.1472634
  73.8980370  29.0867540  61.8219123  73.0253559  28.6570507  62.9819394
  73.6311020  24.7706796  57.6673531  73.9112774  24.1029985  58.2933958
  74.4161627  24.9635892  57.1548195  71.4344489  43.9465790  49.2298557
  70.8618456  44.5655977  48.7769029  72.0077282  44.4965152  49.7638479
  77.5019878  33.1924430  61.4145106  78.4537301  33.2922528  61.4357330
  77.3323329  32.4002699  61.9243191  75.5234258  30.2780013  61.6004507
  74.9284190  30.5585026  60.9050996  75.2383955  30.7673914  62.3721248
  74.6541748  44.2302940  50.3607140  75.5872422  44.1648502  50.5640015
  74.5664961  45.0659207  49.9021672  77.2829765  43.5468810  47.3211087
  77.2043397  43.2128674  48.2146845  78.1039432  44.0390578  47.3202560
  79.9807956  36.4130550  60.5287406  79.9484276  35.4746550  60.7147090
  80.5908580  36.4914586  59.7953231  80.1302445  33.2041593  60.5745689
  79.6141493  32.4200050  60.3875618  81.0142393  32.8760310  60.7392208
  77.7913172  26.9482609  56.5341502  77.5937993  26.6397697  57.4184834
  78.4012877  27.6744248  56.6639432  85.7984506  37.4746557  59.6693443
  86.5287895  37.2131845  60.2301146  85.1891452  36.7375279  59.7095511
  83.8799803  35.6154419  60.2667894  83.1532967  35.4810384  59.6584385
  83.4647090  35.9231248  61.0724612  71.7029980  39.3344349  68.0315267
  72.6232989  39.5122948  68.2255313  71.6679563  38.3900394  67.8794966
  60.9212145  34.5282942  56.9568541  60.6014929  33.6748251  56.6642915
  60.3745573  34.7431521  57.7126509  64.6992052  37.2445383  60.6738048
  64.9178062  38.1762491  60.6926082  65.1117826  36.8853358  61.4592852
  71.6196270  27.7513469  52.6613736  70.8096998  27.4060554  53.0368982
  72.3080687  27.4421013  53.2501348  73.5486818  26.8291516  54.2838033
  74.1017857  27.2486969  54.9428056  73.7856905  25.9027264  54.3260989
  69.5719918  32.8178589  70.0640797  69.4716644  33.7672946  69.9952888
  69.3541460  32.4896828  69.1916867  60.7900405  38.1485854  58.9261663
  60.0963876  37.7339807  58.4131617  61.5373396  38.1906390  58.3295082
  76.9265625  28.9392041  53.7916697  76.3464294  29.5976845  53.4094750
  76.6601558  28.1169385  53.3804115  75.3769192  28.3397098  55.9938018
  75.8768970  28.4513633  55.1852336  76.0204800  28.0358151  56.6338826
  69.4351188  36.2475728  68.8805859  68.9518269  37.0476088  69.0869748
  69.5212127  36.2583673  67.9273303  62.7037147  38.0804108  56.8027678
  62.6807835  38.1791795  55.8509561  63.0137784  38.9269259  57.1244844
  65.3624525  40.1380263  60.9174292  66.3167779  40.1064205  60.8504224
  65.1637049  39.6770887  61.7324518  65.9523907  38.7081379  63.4845090
  66.7716796  39.2025458  63.5079927  66.2260715  37.7913347  63.4562658
  75.7090503  31.0992131  52.8473046  74.8216358  31.3841782  52.6293240
  76.1244492  30.9385895  52.0000322  79.0605040  31.1238652  56.5627385
  79.8365430  31.6135105  56.8352002  78.3353174  31.5496706  57.0199254
  81.4977598  31.8366271  57.6201325  82.0922089  31.5962007  56.9094634
  81.5704182  31.1173402  58.2474862  63.7174754  45.6799882  57.9344490
  63.5829222  44.9200283  57.3682488  63.3006816  46.4040782  57.4673279
  74.8533717  40.8636806  46.9421065  75.5569567  41.0686808  47.5578721
  74.1296366  41.4313568  47.2070149  75.6831527  36.6146667  53.0623336
  75.6266729  37.0715219  52.2230968  76.2359870  35.8537352  52.8846178
  79.4936333  32.4036399  53.8873455  79.2373267  32.0033035  54.7181663
  78.8689201  33.1180193  53.7623594  83.8048671  35.1432472  56.3944747
  83.2448229  35.2125662  57.1676309  83.1992174  34.9673457  55.6744243
  66.8743880  46.5769199  58.1462933  66.7576264  47.5214632  58.0441623
  66.0536326  46.2742761  58.5348732  76.7620414  41.3019335  48.9919526
  77.5966018  40.8700533  48.8097000  76.6004757  41.1301349  49.9196420
  76.4166306  37.8051448  50.3575865  76.3615110  37.6395720  49.4164309
  75.7912362  38.5127481  50.5138055  61.2058821  33.0419513  64.1837287
  61.8517685  32.5318467  64.6724512  60.9975973  33.7788194  64.7580712
  73.7312214  40.1100360  69.6829428  74.6003373  40.2841012  69.3216063
  73.2518965  40.9294777  69.5605157  69.7262432  27.3059557  49.9361183
  69.7141102  28.2501397  50.0929454  70.6185854  27.1229703  49.6420644
  67.8998394  47.2297461  61.3618861  68.8025641  47.2621071  61.6785356
  67.6735764  46.2997912  61.3765197  69.6551996  45.9828448  58.0228940
  68.7047627  45.9830309  57.9093312  69.9584482  45.2361182  57.5064975
  73.5414551  23.9002334  54.1907120  72.7746947  23.3460821  54.3363802
  73.9525256  23.9724203  55.0521272  65.5456312  30.1887130  68.2812301
  66.4087774  29.8323935  68.4915626  64.9721723  29.8501025  68.9687706
  85.3904689  51.8188986  59.0874702  86.0283099  51.6995733  58.3838042
  85.2725532  52.7669830  59.1462654  82.1994396  51.7716414  59.0236227
  81.8612907  51.6557479  58.1356762  83.0684164  51.3707579  59.0037233
  78.0581211  53.6251891  55.0133118  77.4946076  53.5341828  54.2449406
  77.9433606  52.8051795  55.4935610  82.6814179  52.9251266  64.9822433
  82.6702819  52.5304064  64.1102936  82.8434818  52.1917339  65.5756204
  75.6045643  55.1203082  57.8517338  76.3966935  54.7793907  57.4363638
  75.8442293  55.2298057  58.7719492  83.6380770  57.2922858  50.3247583
  82.9868750  57.8776939  49.9381597  84.4325133  57.8229053  50.3842620
  77.5636397  54.3811995  50.7234717  78.3367273  53.8340983  50.5847593
  77.9161796  55.2456245  50.9349179  79.4021440  55.7088378  63.9301616
  79.1111306  56.6134009  63.8148283  80.0378424  55.7504905  64.6445686
  80.3277647  53.0865226  60.5202976  80.9241219  52.8621249  59.8059939
  80.3852618  52.3449972  61.1228424  79.9002675  50.5404662  48.3553167
  80.1528196  50.0186183  47.5936630  78.9627234  50.3770807  48.4579851
  84.9445958  49.5440440  56.1627910  85.7309047  49.1259863  55.8118327
  85.2084662  50.4486532  56.3309559  85.1156035  54.9813290  50.8616567
  84.4801868  55.0547917  51.5737472  84.7853442  55.5706889  50.1835646
  79.6198964  52.4432768  50.5577542  79.5035222  51.7677671  51.2258626
  79.7301224  51.9565141  49.7409695  81.9630505  51.9042915  54.2624231
  81.5988712  51.3773536  54.9737153  82.8197621  51.5141384  54.0890717
  87.8679805  43.1937247  61.5255497  87.5363130  44.0632658  61.3016712
  87.2725419  42.8773531  62.2049528  81.6035992  46.9332814  49.2585580
  81.7710394  47.8013051  49.6256051  81.4133161  47.0960096  48.3346869
  84.3611325  55.3949793  60.9251410  84.0612048  56.2974832  60.8167217
  84.0162384  55.1281976  61.7772563  77.8123806  51.8463590  56.9588115
  76.8874303  51.7139804  57.1665806  78.0608220  52.6257809  57.4558057
  87.7608469  47.9132333  58.6048847  86.8525346  47.8447742  58.3107608
  87.7096064  48.3904278  59.4330673  81.5825213  49.3890472  50.2432247
  81.4624838  49.8347523  51.0817727  80.8877801  49.7375790  49.6845785
  75.1732617  51.4896864  57.7931904  75.3024999  51.7431343  58.7071315
  74.4930069  52.0824572  57.4736559  79.3432105  62.1594114  53.8922378
  79.2656134  63.1101939  53.9710858  78.7393748  61.8139986  54.5497304
  81.8349334  49.3321979  66.5483745  81.0582669  49.8915899  66.5386609
  82.4739897  49.8178762  67.0698615  87.2810279  49.8611945  51.0712581
  88.1928135  50.0939332  50.8960278  86.7719926  50.4448989  50.5087659
  80.0895707  52.1407432  66.1101712  80.8310391  52.6792476  65.8336535
  79.3832692  52.7673721  66.2673264  85.5651046  54.2836573  64.7073873
  85.9734402  53.8418983  63.9628506  84.8428308  53.7089200  64.9608066
  81.9182116  49.2209180  62.0807430  82.7643312  49.6448593  62.2242079
  81.8580754  48.5642804  62.7745993  85.8879861  54.8437763  58.4626162
  85.2588723  55.0083478  57.7602230  85.5005523  55.2579373  59.2337126
  85.0681562  46.8813548  63.7388604  84.8242494  47.6355609  63.2022880
  85.3441492  47.2598896  64.5735851  87.0220025  53.4252160  62.4165869
  87.2336920  54.0683920  61.7400251  86.9749773  52.5914477  61.9487800
  84.6246253  46.0369981  59.3202442  83.7630733  46.3351235  59.6119179
  84.6508688  46.2540380  58.3883474  81.4407823  54.5812172  55.7276247
  81.9046168  54.8599875  54.9380870  81.1764621  53.6795616  55.5449338
  78.3331904  54.1283653  58.6656010  78.9033261  54.5570921  58.0273495
  78.9240016  53.8466238  59.3640196  80.3776709  50.7035324  52.5365812
  81.0800752  51.1556368  53.0039739  80.0457337  50.0619143  53.1645706
  78.8257070  49.2947081  66.9117022  78.1955731  49.9763361  67.1452419
  78.7193158  49.1830162  65.9670160  74.1202043  48.9618877  57.8382946
  73.3301097  49.2176405  57.3623057  74.6113290  49.7767214  57.9434986
  76.0716788  49.3263456  54.7966423  75.2747952  49.4382150  55.3149918
  75.8442381  49.6650108  53.9307313  81.9022456  55.8508159  62.7448937
  81.9666888  56.3128566  63.5807109  81.1933380  55.2205524  62.8731247
  72.4039746  49.2149367  60.2697937  72.6547784  50.0996377  60.5355513
  72.9399294  49.0353969  59.4973029  81.6170474  57.5176267  52.6127918
  81.4816148  58.3627802  53.0412765  82.1580286  57.7195544  51.8493851
  78.1037813  43.5967846  69.2742273  77.7104759  43.0434045  69.9489917
  78.9203954  43.9078425  69.6648790  75.0699871  55.0351705  53.1855843
  75.5824392  55.8294955  53.3361407  75.7222584  54.3377995  53.1189444
  76.8794756  58.1517461  55.2678596  77.0561384  59.0735426  55.0799580
  77.6751589  57.8375880  55.6972976  81.0205774  45.0125726  66.8662529
  81.7615488  45.6132879  66.7866992  81.2523697  44.2703363  66.3080572
  76.1647112  50.1982093  65.1440759  76.0500627  49.2967350  65.4447858
  75.3091630  50.4445790  64.7925576  83.2438950  58.1399833  66.7428260
  82.8002804  57.3536212  66.4249164  83.9056164  58.3278984  66.0772150
  78.0026071  59.6695635  61.2688938  78.5533496  59.5412698  60.4965932
  77.1637547  59.9690524  60.9183831  85.3420188  58.4202633  64.7709661
  85.3238663  59.2411514  64.2789930  86.2640108  58.2956708  64.9959802
  81.7993242  55.9346763  65.6133169  82.3321579  55.1735051  65.3832477
  81.2707323  55.6420414  66.3557324  84.9662937  41.0406828  61.1426811
  84.6227207  41.9308470  61.0665922  85.3341900  40.8508486  60.2796396
  73.0348788  53.3640359  53.9615413  73.8724010  53.7737367  53.7449121
  73.2127055  52.4239801  53.9315607  84.9313220  51.0315440  49.6499246
  84.4159843  51.8020044  49.8887634  84.6590528  50.3580576  50.2732308
  82.5160331  45.8765140  54.7084485  81.6601927  45.4871991  54.5290123
  82.9287283  45.9557101  53.8484270  84.0459478  43.4111484  59.1076044
  83.5424273  43.3741619  58.2943850  84.3390084  44.3204226  59.1672701
  80.2902363  43.4950213  58.1142226  81.1555360  43.2993022  57.7548116
  80.3579872  43.2660565  59.0411583  84.7199523  48.9042532  51.4759027
  84.4149659  49.2188681  52.3269171  85.6729965  48.9823952  51.5186360
  83.1645955  55.0632755  53.1251981  82.6367316  54.3285515  52.8125219
  82.6633458  55.8407431  52.8791950  77.8964683  45.7252421  55.4858593
  78.4708434  45.5027603  54.7531786  78.4835665  45.7941116  56.2387194
  86.9544260  51.6126148  56.2922969  87.4676141  52.2456140  56.7944679
  87.6045484  51.0127344  55.9266329  78.2234270  47.7556882  49.5054478
  77.3871582  48.0931569  49.8263753  78.0839039  47.6205862  48.5681615
  80.1987350  42.5993670  54.2133662  79.5451763  42.2842687  53.5890277
  80.1567824  41.9769411  54.9393485  81.3098555  52.8812965  46.1286954
  80.4025617  52.6502219  46.3278103  81.8069587  52.0850584  46.3160936
  84.2166634  61.5910472  49.0483641  83.5428333  61.8942169  49.6568598
  84.6032456  62.3939553  48.6989098  83.4325091  49.0875604  58.5381310
  82.5147652  49.3090551  58.3802998  83.8485234  49.1621914  57.6793017
  84.2160138  50.4867019  53.6683990  84.9631957  50.9988417  53.3591112
  84.4851728  50.1651072  54.5288384  82.4886789  52.9825560  50.6510944
  81.5798008  52.6984593  50.7483414  82.5181872  53.4024639  49.7914251
  87.7206056  56.5932150  54.4202112  87.2668383  55.7523059  54.4767303
  87.0900023  57.2293548  54.7576892  86.6638975  47.5224136  55.6502779
  85.9261732  47.0101522  55.9813022  86.9165749  47.0824517  54.8386056
  86.1638995  58.4308646  55.3551930  86.4561970  58.9913703  54.6364296
  86.6737616  58.7237207  56.1105089  86.7650603  40.3000388  56.2444549
  87.0709480  39.4397751  55.9570464  87.4903208  40.8918008  56.0443543
  73.0574959  50.7031074  54.6326147  72.8599359  50.1100435  53.9077213
  72.5021623  50.3983284  55.3502085  81.0371683  50.5954181  56.7520740
  81.0920292  49.6428017  56.6763216  80.2262885  50.7513620  57.2362038
  82.1862876  54.5234304  47.9899023  81.7482306  53.8070163  47.5304660
  82.9273317  54.7510419  47.4284114  78.9764042  49.2131240  54.5111119
  78.1631908  49.5125411  54.9176311  79.4723037  48.8186929  55.2285601
  81.1272620  59.2088997  56.4445383  81.0848799  59.4349844  55.5153915
  82.0435319  58.9752372  56.5931185  84.5738254  49.6773065  63.3426013
  84.9287642  49.9044538  64.2020478  85.2210385  50.0091442  62.7203268
  78.4678117  46.7849596  60.1272354  79.1077497  46.6438355  59.4295317
  77.6355648  46.4984109  59.7510956  79.2438421  56.0852026  56.2407346
  80.0379020  55.5902347  56.0389921  78.5330114  55.5569890  55.8775052
  84.0633266  58.4670122  60.5919714  84.1170288  59.0361058  61.3597430
  83.1948047  58.6372007  60.2273751  75.5521185  50.2295108  52.3167099
  74.6218773  50.1679564  52.5337061  75.6478657  49.7071061  51.5203740
  75.4706734  46.7549921  54.9045340  75.7313551  47.6695254  54.7954501
  76.2923906  46.2874364  55.0541953  76.9431659  48.1687678  62.0744165
  77.6154712  47.9605040  61.4256814  76.1161446  47.9709764  61.6349397
  82.8457231  44.7949619  64.0909826  82.1985146  45.4939569  63.9974302
  83.6158246  45.2285763  64.4586074  86.2536029  55.0598471  67.1660379
  86.1021535  54.8309023  66.2490463  86.2440708  56.0169073  67.1791724
  83.0221365  52.6330384  62.1506646  83.9513425  52.7841544  61.9775613
  82.6012395  52.7214405  61.2955292  81.8209697  56.6581048  59.9205183
  81.6820783  56.2899833  60.7931121  81.0324293  57.1728688  59.7489141
  82.4157849  61.7590145  51.2630720  82.5909605  61.2878188  52.0776342
  81.7290637  62.3855911  51.4911980  83.3714912  56.0362651  57.3094021
  83.0364745  55.9963421  58.2051671  82.8718858  55.3707367  56.8364431
  77.3459156  51.4430281  62.8346602  77.2078954  50.7110520  63.4358141
  78.2564080  51.3539181  62.5530790  86.3074104  53.3818685  47.5831081
  85.6903275  52.6565514  47.4864133  85.8390592  54.1428046  47.2398155
  79.9741457  51.1550240  62.3230282  80.6841075  50.5143433  62.2816900
  79.9310765  51.4063135  63.2456463  87.9628236  58.0917594  65.2436861
  87.9040782  57.4076814  64.5767444  88.3647754  58.8336584  64.7917487
  78.6870391  48.1415458  64.1425921  78.1507748  47.6906197  64.7947518
  78.0987099  48.2761367  63.3996386  76.9818934  64.9079508  58.0370580
  77.2215533  65.5398032  58.7149598  76.1388131  64.5567548  58.3235939
  78.0972650  47.6004110  46.7052385  77.2202116  47.4792911  46.3414632
  78.5730403  46.8090188  46.4531274  69.6174790  52.3881269  56.7993892
  70.3045830  52.0742999  56.2114907  69.4622919  53.2922634  56.5261143
  74.4209512  47.2771466  61.2278916  74.3367701  46.6697136  60.4929326
  73.5992219  47.7680484  61.2288412  81.4946796  60.7158630  60.4412084
  81.4216968  61.5213602  60.9531388  81.0524189  60.9150596  59.6160105
  81.2836576  59.9530400  53.9514905  80.5004098  60.4952080  54.0453130
  81.9829321  60.4704380  54.3509147  84.5933226  45.7625030  56.5949111
  85.0901926  45.0094992  56.2750181  83.8220207  45.7989346  56.0292320
  83.9545480  60.6145464  62.5970243  84.6673452  61.2492929  62.5246144
  83.4635508  60.7109330  61.7810244  85.6763007  54.5196717  54.1687534
  84.7419285  54.6398179  53.9992239  85.8539675  53.6169184  53.9047544
  81.1768195  47.9042413  56.3220795  80.8065982  47.3513453  57.0101701
  81.6727287  47.3000546  55.7695795  79.0057393  58.3639908  63.4175813
  79.7066853  58.9976391  63.5705208  78.5352508  58.7054639  62.6571453
  87.1311789  56.7057857  51.7023720  87.4071633  56.5914452  52.6117594
  86.2616288  56.3075342  51.6635893  87.0352221  42.7294623  58.7428470
  86.1215301  42.9598850  58.9110677  87.4645322  42.8133067  59.5942502
  86.8058679  50.9184515  61.2428364  86.1530130  51.1660422  60.5880816
  87.1839059  50.1048653  60.9090841  83.7665853  60.9544208  55.3456534
  83.9488248  60.1365864  55.8084286  84.5898839  61.1711900  54.9081424
  84.1008019  59.8812393  52.6071582  84.6295785  59.3704848  51.9941745
  84.3636238  59.5654924  53.4717116  82.8546252  51.6604326  67.7294401
  82.1786889  51.5598455  68.3996776  83.6773886  51.5043540  68.1930398
  74.6025111  57.8976263  60.3506916  75.1878548  57.1519951  60.4834820
  74.4049950  58.2080219  61.2343580  77.4563767  60.9327510  55.3669358
  76.7874142  61.4173638  54.8833398  77.3176636  61.1796730  56.2812737
  69.1942766  50.4681863  59.0711359  69.2326866  49.9345454  59.8648477
  68.6883059  49.9417068  58.4522336  81.5969035  62.9671254  61.9652017
  82.1487343  63.1302875  62.7301102  81.9375229  63.5575691  61.2932042
  76.5733528  45.3146403  62.5673901  76.6374855  46.1761234  62.1551299
  76.5100649  44.7020405  61.8346260  76.0485801  47.3869536  66.2146936
  76.6757840  47.0046613  66.8284460  75.1913720  47.1683738  66.5802628
  86.4479909  57.7932511  67.8200671  86.9919813  58.4062469  67.3255626
  85.8666754  58.3512089  68.3367684  72.8251344  49.1945965  52.1465291
  73.1204785  48.2856643  52.0932344  71.9239379  49.1733704  51.8246293
  84.7337422  60.9153229  58.9515699  84.6088562  60.1142969  58.4426644
  85.3916514  61.4099422  58.4629669  76.3545591  47.2701962  58.1292839
  75.6332176  47.8837929  57.9900312  77.1438846  47.8059726  58.0509485
  86.7972331  58.7162249  60.5795249  85.8502666  58.5967600  60.5073576
  87.1455104  57.8284747  60.6621510  79.1571904  44.6056388  64.4033491
  79.6806306  44.8518685  65.1659800  78.9384237  45.4376423  63.9836628
  74.5539185  46.8760063  52.2704616  74.2251891  45.9957442  52.0879722
  74.9078556  46.8207731  53.1581005  83.8018764  58.5114965  56.7799601
  83.6543727  57.5831673  56.9607171  84.6272258  58.5335056  56.2956676
  77.6681008  47.1633032  52.6380093  78.0077081  47.6918954  51.9158702
  78.1153129  47.5013439  53.4138660  87.4052886  59.3343524  57.8664474
  88.3299433  59.1286385  57.7288925  87.2368189  59.0859925  58.7753815
  80.3624449  45.5470083  62.0883161  80.0221270  44.7477896  62.4903841
  79.6563456  45.8471794  61.5159995  81.0140921  42.6319396  60.5410484
  81.8366990  42.1579874  60.4189375  81.2578985  43.4109879  61.0409171
  79.6549156  45.6607654  50.8373386  80.3757518  46.0388907  50.3337103
  79.0314460  46.3796531  50.9408364  83.7980278  46.3652803  51.7731718
  84.0143893  47.2477441  51.4720547  83.3174346  45.9739016  51.0437360
  78.5379500  49.3238516  58.3502463  78.3924081  49.6378819  59.2426745
  78.0604703  49.9423417  57.7973362  80.3975883  46.3141064  58.3983353
  80.3837451  45.4182158  58.0615651  81.1148311  46.3211728  59.0321639
  82.2502013  46.7478404  60.4436480  81.9919791  47.6695475  60.4420811
  81.7187054  46.3508839  61.1336944  87.1948202  59.8529192  53.2226565
  87.3685080  59.2875614  52.4700418  87.6877093  60.6530086  53.0406055
  73.0125162  51.8643861  61.2890124  72.4678630  52.6403669  61.4210399
  73.8904512  52.2114665  61.1309246  79.8012779  45.1955444  53.6670923
  79.9228690  44.2672091  53.8661810  79.5114821  45.2094130  52.7549238
  82.6703969  42.8810355  56.8037643  82.6925666  42.9449688  55.8489622
  83.0872028  42.0414864  56.9978149  73.7991184  50.9913757  64.1820281
  73.0572920  51.1396392  64.7684912  73.4783928  51.2522022  63.3187031
  81.7434846  60.5329735  63.9800671  82.0521973  60.2878882  64.8523371
  82.5410329  60.7376374  63.4919541  81.7655459  62.6867645  56.2106048
  81.3260449  62.1944023  56.9038904  82.5163575  62.1440612  55.9698123
  74.2447798  58.8779186  56.2130676  75.0705817  58.5782957  55.8329319
  73.8941850  58.1086808  56.6620464  79.2129331  58.2305654  58.2828349
  78.5909340  57.5676359  57.9830577  79.8834198  58.2566786  57.6001997
  72.4456403  56.7965512  57.1719609  71.6088311  56.3687686  56.9903611
  72.4180048  56.9897955  58.1090401  79.2853858  46.7087442  67.8760855
  79.3342014  47.5849565  67.4938625  79.8276372  46.1664835  67.3032499
  78.7742838  56.7809577  51.7586810  78.9230958  57.4645042  51.1053483
  79.5809281  56.7614667  52.2736266  87.1810341  50.0851959  65.7854028
  88.0820204  49.9458424  65.4938026  87.2558316  50.2506414  66.7252205
  81.5153147  47.4618814  64.6307214  80.6456456  47.7552380  64.3589803
  81.7512627  48.0459259  65.3514478  76.5295471  52.8074755  52.7647879
  76.2841513  51.9037085  52.9628089  76.6991385  52.8091905  51.8227357
  84.2192180  43.6798431  62.1472634  84.7374124  44.4159458  61.8219123
  83.8647313  43.9862424  62.9819394  75.7991118  48.5403112  50.2634040
  75.1060363  48.6147467  49.6074076  75.5542870  47.7763456  50.7855557
  84.4704775  40.0998714  57.6673531  84.7506528  39.4321903  58.2933958
  85.2555382  40.2927809  57.1548195  82.2738243  59.2757708  49.2298557
  81.7012210  59.8947895  48.7769029  82.8471037  59.8257069  49.7638479
  86.3628012  45.6071931  61.6004507  85.7677945  45.8876944  60.9050996
  86.0777709  46.0965832  62.3721248  85.4935503  59.5594858  50.3607140
  86.4266176  59.4940419  50.5640015  85.4058716  60.3951125  49.9021672
  82.6585042  50.6118520  46.5714610  83.6044146  50.4824728  46.6403028
  82.2799287  49.8733182  47.0484038  82.5423734  54.6636266  68.0315267
  83.4626744  54.8414866  68.2255313  82.5073317  53.7192312  67.8794966
  80.8427959  48.5368497  46.5069495  79.9359414  48.2401609  46.5832209
  81.1203940  48.2398315  45.6403781  71.7605899  49.8574860  56.9568541
  71.4408684  49.0040168  56.6642915  71.2139327  50.0723438  57.7126509
  75.5385807  52.5737301  60.6738048  75.7571816  53.5054409  60.6926082
  75.9511581  52.2145276  61.4592852  82.4590025  43.0805386  52.6613736
  81.6490753  42.7352471  53.0368982  83.1474441  42.7712930  53.2501348
  84.3880573  42.1583433  54.2838033  84.9411611  42.5778887  54.9428056
  84.6250659  41.2319181  54.3260989  80.4113672  48.1470507  70.0640797
  80.3110399  49.0964864  69.9952888  80.1935214  47.8188746  69.1916867
  79.6126743  45.3955432  46.6481474  80.4745907  45.7210330  46.9077292
  79.7977088  44.6086928  46.1354540  71.6294159  53.4777772  58.9261663
  70.9357631  53.0631724  58.4131617  72.3767150  53.5198308  58.3295082
  87.7659380  44.2683958  53.7916697  87.1858049  44.9268762  53.4094750
  87.4995313  43.4461303  53.3804115  86.2162946  43.6689016  55.9938018
  86.7162725  43.7805551  55.1852336  86.8598554  43.3650069  56.6338826
  80.2744942  51.5767646  68.8805859  79.7912024  52.3768006  69.0869748
  80.3605881  51.5875591  67.9273303  73.5430902  53.4096025  56.8027678
  73.5201590  53.5083713  55.8509561  73.8531538  54.2561176  57.1244844
  76.2018280  55.4672180  60.9174292  77.1561533  55.4356123  60.8504224
  76.0030803  55.0062804  61.7324518  76.7917662  54.0373297  63.4845090
  77.6110551  54.5317375  63.5079927  77.0654469  53.1205265  63.4562658
  86.5484258  46.4284049  52.8473046  85.6610113  46.7133699  52.6293240
  86.9638247  46.2677812  52.0000322  74.5568508  61.0091800  57.9344490
  74.4222976  60.2492201  57.3682488  74.1400571  61.7332700  57.4673279
  85.6927471  56.1928723  46.9421065  86.3963321  56.3978726  47.5578721
  84.9690120  56.7605485  47.2070149  86.5225282  51.9438585  53.0623336
  86.4660483  52.4007136  52.2230968  87.0753624  51.1829269  52.8846178
  77.7137634  61.9061117  58.1462933  77.5970018  62.8506549  58.0441623
  76.8930081  61.6034679  58.5348732  87.6014169  56.6311253  48.9919526
  88.4359773  56.1992451  48.8097000  87.4398512  56.4593266  49.9196420
  87.2560061  53.1343366  50.3575865  87.2008865  52.9687637  49.4164309
  86.6306116  53.8419399  50.5138055  72.0452576  48.3711430  64.1837287
  72.6911440  47.8610384  64.6724512  71.8369727  49.1080112  64.7580712
  84.5705968  55.4392278  69.6829428  85.4397128  55.6132930  69.3216063
  84.0912720  56.2586695  69.5605157  80.5656186  42.6351475  49.9361183
  80.5534856  43.5793315  50.0929454  81.4579608  42.4521620  49.6420644
  78.7392148  62.5589379  61.3618861  79.6419395  62.5912989  61.6785356
  78.5129518  61.6289830  61.3765197  80.4945750  61.3120365  58.0228940
  79.5441381  61.3122227  57.9093312  80.7978237  60.5653100  57.5064975
  84.3808306  39.2294252  54.1907120  83.6140702  38.6752738  54.3363802
  84.7919011  39.3016120  55.0521272  76.3850067  45.5179047  68.2812301
  77.2481528  45.1615852  68.4915626  75.8115478  45.1792942  68.9687706
  86.4439398  70.4495000  57.8517338  87.2360690  70.1085825  57.4363638
  86.6836048  70.5589975  58.7719492  86.0126372  66.8188781  57.7931904
  86.1418753  67.0723260  58.7071315  85.3323823  67.4116489  57.4736559
  84.9595797  64.2910794  57.8382946  84.1694851  64.5468323  57.3623057
  85.4507045  65.1059132  57.9434986  86.9110543  64.6555374  54.7966423
  86.1141706  64.7674068  55.3149918  86.6836135  64.9942026  53.9307313
  83.2433500  64.5441285  60.2697937  83.4941539  65.4288295  60.5355513
  83.7793049  64.3645886  59.4973029  85.9093625  70.3643622  53.1855843
  86.4218146  71.1586873  53.3361407  86.5616338  69.6669913  53.1189444
  87.0040867  65.5274010  65.1440759  86.8894382  64.6259268  65.4447858
  86.1485384  65.7737707  64.7925576  83.8742542  68.6932277  53.9615413
  84.7117764  69.1029285  53.7449121  84.0520810  67.7531719  53.9315607
  83.8968713  66.0322992  54.6326147  83.6993113  65.4392353  53.9077213
  83.3415377  65.7275202  55.3502085  86.3914939  65.5587026  52.3167099
  85.4612527  65.4971481  52.5337061  86.4872411  65.0362979  51.5203740
  86.3100488  62.0841839  54.9045340  86.5707305  62.9987172  54.7954501
  87.1317660  61.6166281  55.0541953  87.7825413  63.4979596  62.0744165
  88.4548467  63.2896958  61.4256814  86.9555200  63.3001682  61.6349397
  80.4568544  67.7173187  56.7993892  81.1439584  67.4034917  56.2114907
  80.3016673  68.6214552  56.5261143  85.2603267  62.6063384  61.2278916
  85.1761455  61.9989053  60.4929326  84.4385973  63.0972402  61.2288412
  85.4418866  73.2268180  60.3506916  86.0272303  72.4811868  60.4834820
  85.2443704  73.5372137  61.2343580  80.0336521  65.7973780  59.0711359
  80.0720620  65.2637371  59.8648477  79.5276813  65.2708986  58.4522336
  87.4127283  60.6438321  62.5673901  87.4768609  61.5053152  62.1551299
  87.3494403  60.0312323  61.8346260  86.8879555  62.7161454  66.2146936
  87.5151594  62.3338531  66.8284460  86.0307474  62.4975655  66.5802628
  83.6645098  64.5237883  52.1465291  83.9598539  63.6148561  52.0932344
  82.7633134  64.5025622  51.8246293  87.1939345  62.5993879  58.1292839
  86.4725931  63.2129847  57.9900312  87.9832601  63.1351644  58.0509485
  85.3932940  62.2051980  52.2704616  85.0645646  61.3249359  52.0879722
  85.7472310  62.1499649  53.1581005  83.8518916  67.1935778  61.2890124
  83.3072385  67.9695586  61.4210399  84.7298266  67.5406583  61.1309246
  84.6384938  66.3205675  64.1820281  83.8966674  66.4688310  64.7684912
  84.3177683  66.5813940  63.3187031  85.0841552  74.2071103  56.2130676
  85.9099572  73.9074875  55.8329319  84.7335604  73.4378726  56.6620464
  83.2850157  72.1257430  57.1719609  82.4482065  71.6979604  56.9903611
  83.2573802  72.3189873  58.1090401  87.3689225  68.1366672  52.7647879
  87.1235267  67.2329002  52.9628089  87.5385140  68.1383823  51.8227357
  86.6384873  63.8695030  50.2634040  85.9454118  63.9439385  49.6074076
  86.3936625  63.1055374  50.7855557  82.5999654  65.1866778  56.9568541
  82.2802438  64.3332086  56.6642915  82.0533082  65.4015356  57.7126509
  86.3779561  67.9029219  60.6738048  86.5965571  68.8346327  60.6926082
  86.7905335  67.5437193  61.4592852  82.4687914  68.8069689  58.9261663
  81.7751385  68.3923642  58.4131617  83.2160905  68.8490226  58.3295082
  84.3824656  68.7387943  56.8027678  84.3595344  68.8375630  55.8509561
  84.6925293  69.5853094  57.1244844  87.0412034  70.7964098  60.9174292
  87.9955288  70.7648040  60.8504224  86.8424558  70.3354722  61.7324518
  87.6311416  69.3665214  63.4845090  88.4504305  69.8609293  63.5079927
  87.9048224  68.4497182  63.4562658  85.3962263  76.3383718  57.9344490
  85.2616731  75.5784119  57.3682488  84.9794325  77.0624617  57.4673279
  82.8846330  63.7003348  64.1837287  83.5305194  63.1902302  64.6724512
  82.6763482  64.4372030  64.7580712  87.2243821  60.8470965  68.2812301
  88.0875283  60.4907770  68.4915626  86.6509232  60.5084860  68.9687706
  57.6644597   8.5072401  40.6167685  57.5868627   9.4580226  40.6956165
  57.0606241   8.1618273  41.2742611  59.9382966   3.8654554  39.3373224
  59.8028641   4.7106090  39.7658072  60.4792778   4.0673831  38.5739158
  55.2007248   4.4995748  41.9923903  55.3773876   5.4213713  41.8044886
  55.9964081   4.1854167  42.4218282  61.5651442   4.4878120  53.4673566
  61.1215296   3.7014499  53.1494471  62.2268656   4.6757271  52.8017457
  56.3238563   6.0173922  47.9934245  56.8745989   5.8890985  47.2211239
  55.4850039   6.3168811  47.6429138  62.5379126   7.9388760  35.7728947
  61.8640825   8.2420456  36.3813905  62.9244948   8.7417840  35.4234404
  64.4851487   4.7786934  42.0797237  64.7774462   5.3391991  41.3609602
  64.9950108   5.0715495  42.8350396  59.4485113   5.5567285  43.1690690
  59.4061291   5.7828131  42.2399222  60.3647811   5.3230659  43.3176491
  62.3845758   4.8148409  47.3165020  62.4382780   5.3839345  48.0842736
  61.5160539   4.9850294  46.9519057  60.7370341   8.1068432  37.9876026
  60.9122097   7.6356475  38.8021649  60.0503129   8.7334198  38.2157287
  55.3031427  11.2557795  44.7615887  55.5428025  11.8876319  45.4394905
  54.4600623  10.9045835  45.0481246  59.8159289   7.0636917  47.1657391
  59.7429460   7.8691889  47.6776695  59.3736682   7.2628883  46.3405412
  59.6049068   6.3008687  40.6760212  58.8216590   6.8430368  40.7698437
  60.3041813   6.8182667  41.0754453  62.2757972   6.9623751  49.3215549
  62.9885944   7.5971216  49.2491451  61.7848001   7.0587617  48.5055551
  57.3269886   4.7118195  50.1421120  58.0279345   5.3454678  50.2950514
  56.8565001   5.0532926  49.3816759  62.0878345   7.3022495  42.0701841
  62.2700740   6.4844151  42.5329593  62.9111331   7.5190188  41.6326731
  62.4220511   6.2290681  39.3316889  62.9508277   5.7183135  38.7187051
  62.6848731   5.9133211  40.1962422  52.9237604   4.2454550  47.0752223
  53.5091040   3.4998238  47.2080127  52.7262442   4.5558507  47.9588887
  55.7776259   7.2805797  42.0914665  55.1086634   7.7651925  41.6078705
  55.6389129   7.5275018  43.0058044  59.9181527   9.3149541  48.6897323
  60.4699835   9.4781162  49.4546409  60.2587721   9.9053979  48.0177348
  63.0549915   7.2631516  45.6761006  62.9301054   6.4621256  45.1671951
  63.7129006   7.7577710  45.1874976  62.1231256   4.8593253  43.5044908
  61.9756219   3.9309960  43.6852478  62.9484750   4.8813343  43.0201983
  65.7265378   5.6821811  44.5909781  66.6511926   5.4764673  44.4534232
  65.5580682   5.4338212  45.4999122  65.5160694   6.2007479  39.9471872
  65.6897572   5.6353901  39.1945725  66.0089586   7.0008374  39.7651362
  60.0647339   6.8808022  50.7045978  60.3734465   6.6357169  51.5768677
  60.8622821   7.0854661  50.2164848  60.0867951   9.0345932  42.9351354
  59.6472941   8.5422311  43.6284211  60.8376068   8.4918900  42.6943430
  52.5660290   5.2257473  42.9375982  53.3918310   4.9261245  42.5574626
  52.2154342   4.4565095  43.3865771  57.5341823   4.5783941  45.0073656
  56.9121832   3.9154646  44.7075884  58.2046690   4.6045073  44.3247304
  50.7668895   3.1443799  43.8964916  49.9300803   2.7165974  43.7148917
  50.7392540   3.3376243  44.8335707  57.0955330   3.1287864  38.4832117
  57.2443450   3.8123329  37.8298789  57.9021773   3.1092954  38.9981572
  60.5950735   5.6235995  35.9543864  60.0224702   6.2426182  35.5014336
  61.1683529   6.1735357  36.4883786  63.8147995   5.9073145  37.0852446
  64.7478668   5.8418707  37.2885322  63.7271208   6.7429412  36.6266979
  49.9506651  -0.1743941  45.6506970  49.2570123  -0.5889988  45.1376924
  50.6979642  -0.1323405  45.0540389  54.5230772   1.8150468  47.6419599
  55.4774025   1.7834410  47.5749531  54.3243295   1.3541091  48.4569825
  52.8781001   7.3570087  44.6589797  52.7435469   6.5970488  44.0927795
  52.4613063   8.0810987  44.1918586  56.0350127   8.2539404  44.8708239
  55.9182511   9.1984837  44.7686930  55.2142573   7.9512966  45.2594039
  57.0604641   8.9067666  48.0864168  57.9631887   8.9391276  48.4030663
  56.8342011   7.9768117  48.1010504  58.8158243   7.6598653  44.7474247
  57.8653874   7.6600514  44.6338619  59.1190729   6.9131387  44.2310281
  74.5510936  13.4959191  45.8120009  75.1889346  13.3765938  45.1083349
  74.4331779  14.4440035  45.8707961  71.3600642  13.4486619  45.7481534
  71.0219154  13.3327684  44.8602068  72.2290411  13.0477784  45.7282540
  67.2187458  15.3022096  41.7378425  66.6552323  15.2112033  40.9694712
  67.1039853  14.4822000  42.2180917  71.8420425  14.6021471  51.7067739
  71.8309066  14.2074269  50.8348243  72.0041065  13.8687543  52.3001511
  64.7651890  16.7973287  44.5762645  65.5573182  16.4564112  44.1608944
  65.0048540  16.9068262  45.4964798  72.7987017  18.9693063  37.0492889
  72.1474997  19.5547144  36.6626903  73.5931380  19.4999258  37.1087927
  66.7242644  16.0582200  37.4480024  67.4973520  15.5111187  37.3092900
  67.0768043  16.9226450  37.6594485  68.5627687  17.3858583  50.6546923
  68.2717553  18.2904214  50.5393589  69.1984671  17.4275110  51.3690993
  69.4883893  14.7635431  47.2448283  70.0847466  14.5391454  46.5305246
  69.5458865  14.0220177  47.8473731  69.0608922  12.2174867  35.0798474
  69.3134442  11.6956388  34.3181937  68.1233481  12.0541012  35.1825157
  74.1052205  11.2210645  42.8873217  74.8915294  10.8030068  42.5363634
  74.3690909  12.1256737  43.0554865  74.2762282  16.6583495  37.5861874
  73.6408115  16.7318122  38.2982778  73.9459688  17.2477094  36.9080953
  79.5060632  11.1585878  43.7906195  80.2385804  10.5885095  44.0244025
  78.7499987  10.7707479  44.2312701  68.7805211  14.1202972  37.2822849
  68.6641469  13.4447876  37.9503933  68.8907470  13.6335346  36.4655002
  71.1236751  13.5813120  40.9869538  70.7594959  13.0543741  41.6982459
  71.9803867  13.1911589  40.8136023  70.7642238   8.6103019  35.9830886
  70.9316641   9.4783256  36.3501358  70.5739408   8.7730301  35.0592176
  73.5217572  17.0719998  47.6496717  73.2218295  17.9745037  47.5412524
  73.1768631  16.8052181  48.5017870  66.9730053  13.5233795  43.6833421
  66.0480550  13.3910009  43.8911113  67.2214466  14.3028014  44.1803364
  76.9214715   9.5902538  45.3294154  76.0131593   9.5217947  45.0352915
  76.8702311  10.0674483  46.1575980  70.7431459  11.0660677  36.9677553
  70.6231085  11.5117728  37.8063034  70.0484048  11.4145994  36.4091091
  64.3338864  13.1667069  44.5177210  64.4631245  13.4201548  45.4316622
  63.6536315  13.7594777  44.1981865  68.5038351  23.8364319  40.6167685
  68.4262381  24.7872144  40.6956165  67.8999995  23.4910191  41.2742611
  70.9955581  11.0092184  53.2729051  70.2188915  11.5686104  53.2631916
  71.6346144  11.4948967  53.7943922  76.4416525  11.5382150  37.7957887
  77.3534382  11.7709537  37.6205585  75.9326173  12.1219194  37.2332966
  69.2501954  13.8177637  52.8347018  69.9916638  14.3562681  52.5581842
  68.5438939  14.4443926  52.9918570  74.7257293  15.9606778  51.4319180
  75.1340649  15.5189188  50.6873812  74.0034555  15.3859405  51.6853373
  71.0788363  10.8979385  48.8052737  71.9249558  11.3218798  48.9487386
  71.0187001  10.2413009  49.4991300  75.0486108  16.5207968  45.1871469
  74.4194970  16.6853683  44.4847537  74.6611770  16.9349578  45.9582433
  78.9275340  17.4562406  42.5415833  78.2426378  17.8361308  41.9912866
  79.0119189  18.0657733  43.2747780  74.2287809   8.5583753  50.4633910
  73.9848740   9.3125813  49.9268186  74.5047739   8.9369101  51.2981158
  76.1826271  15.1022365  49.1411176  76.3943167  15.7454125  48.4645557
  76.1356020  14.2684682  48.6733106  70.6014070  16.2582377  42.4521554
  71.0652415  16.5370079  41.6626176  70.3370868  15.3565821  42.2694645
  67.4938151  15.8053858  45.3901317  68.0639508  16.2341126  44.7518802
  68.0846263  15.5236443  46.0885503  69.5382956  12.3805529  39.2611119
  70.2406999  12.8326573  39.7285045  69.2063584  11.7389348  39.8891012
  67.9863317  10.9717286  53.6362328  67.3561978  11.6533566  53.8697725
  67.8799405  10.8600367  52.6915467  63.2808290  10.6389082  44.5628253
  62.4907344  10.8946610  44.0868363  63.7719537  11.4537419  44.6680293
  77.2972099  17.9794321  47.3133533  78.1189543  17.5774508  47.0316215
  77.2934502  17.8762555  48.2649649  65.2323035  11.0033661  41.5211729
  64.4354198  11.1152355  42.0395225  65.0048627  11.3420313  40.6552620
  71.0628703  17.5278364  49.4694244  71.1273135  17.9898771  50.3052416
  70.3539627  16.8975729  49.5976554  61.5645993  10.8919572  46.9943243
  61.8154031  11.7766582  47.2600819  62.1005541  10.7124174  46.2218335
  85.3878092  14.3233069  43.6618505  84.6341801  13.7540467  43.5062509
  85.5225634  14.2895734  44.6089140  70.7776720  19.1946472  39.3373224
  70.6422395  20.0398007  39.7658072  71.3186533  19.3965749  38.5739158
  64.2306118  16.7121910  39.9101149  64.7430638  17.5065160  40.0606714
  64.8828831  16.0148200  39.8434751  66.0401002  19.8287666  41.9923903
  66.2167631  20.7505631  41.8044886  66.8357836  19.5146085  42.4218282
  65.3253359  11.8752298  51.8686066  65.2106874  10.9737555  52.1693165
  64.4697877  12.1215994  51.5170882  72.4045197  19.8170038  53.4673566
  71.9609051  19.0306417  53.1494471  73.0662410  20.0049189  52.8017457
  67.1632318  21.3465840  47.9934245  67.7139743  21.2182903  47.2211239
  66.3243794  21.6460729  47.6429138  74.5026435  20.0972838  51.4954968
  74.4844910  20.9181719  51.0035237  75.4246355  19.9726913  51.7205109
  70.9599489  17.6116967  52.3378476  71.4927826  16.8505256  52.1077784
  70.4313570  17.3190619  53.0802630  62.1955035  15.0410564  40.6860720
  63.0330257  15.4507572  40.4694428  62.3733302  14.1010006  40.6560914
  74.0919467  12.7085644  36.3744553  73.5766090  13.4790249  36.6132940
  73.8196775  12.0350781  36.9977614  71.6766578   7.5535345  41.4329791
  70.8208174   7.1642196  41.2535430  72.0893529   7.6327306  40.5729577
  79.0653741  15.4617999  38.3097726  78.2883184  15.1229159  37.8652888
  79.7445222  15.4670622  37.6352691  73.8805770  10.5812737  38.2004334
  73.5755905  10.8958886  39.0514477  74.8336212  10.6594156  38.2431667
  72.3252202  16.7402960  39.8497288  71.7973563  16.0055719  39.5370525
  71.8239704  17.5177636  39.6037256  77.3045048  14.9351980  44.9664334
  76.6468722  15.6251242  45.0544463  78.1085447  15.3248412  45.3098321
  67.0570929   7.4022626  42.2103900  67.6314681   7.1797808  41.4777092
  67.6441912   7.4711321  42.9632501  76.1150506  13.2896353  43.0168276
  76.6282388  13.9226345  43.5189986  76.7651730  12.6897549  42.6511636
  67.3840516   9.4327087  36.2299785  66.5477829   9.7701774  36.5509059
  67.2445286   9.2976067  35.2926922  70.4704802  14.5583170  32.8532261
  69.5631864  14.3272424  33.0523410  70.9675834  13.7620789  33.0406243
  73.3772881  23.2680677  35.7728947  72.7034579  23.5712374  36.3813905
  73.7638703  24.0709758  35.4234404  72.5931337  10.7645809  45.2626617
  71.6753899  10.9860756  45.1048305  73.0091481  10.8392119  44.4038324
  73.3766385  12.1637224  40.3929297  74.1238204  12.6758622  40.0836419
  73.6457975  11.8421277  41.2533690  71.6493035  14.6595765  37.3756251
  70.7404255  14.3754798  37.4728721  71.6788119  15.0794844  36.5159558
  76.8812303  18.2702355  41.1447419  76.4274630  17.4293264  41.2012609
  76.2506269  18.9063753  41.4822199  75.3245242  20.1078851  42.0797237
  75.6168216  20.6683908  41.3609602  75.8343863  20.4007412  42.8350396
  62.2181206  12.3801279  41.3571453  62.0205605  11.7870640  40.6322520
  61.6627870  12.0753489  42.0747392  70.1977929  12.2724386  43.4766046
  70.2526539  11.3198222  43.4008523  69.3869131  12.4283825  43.9607345
  71.3469123  16.2004509  34.7144330  70.9088553  15.4840368  34.2549967
  72.0879564  16.4280624  34.1529421  68.1370289  10.8901445  41.2356425
  67.3238155  11.1895616  41.6421617  68.6329283  10.4957134  41.9530908
  70.2878867  20.8859202  43.1690690  70.2455046  21.1120049  42.2399222
  71.2041566  20.6522577  43.3176491  73.7344501  11.3543270  50.0671319
  74.0893889  11.5814743  50.9265785  74.3816632  11.6861647  49.4448575
  79.4642238  14.4761706  40.7720648  79.3260136  14.6663302  39.8441837
  79.1078457  15.2381089  41.2288699  67.6284364   8.4619801  46.8517660
  68.2683743   8.3208560  46.1540624  66.7961895   8.1754314  46.4756262
  79.4911617  16.5438233  45.7831920  79.9248124  16.4513522  46.6314974
  80.2043198  16.5195733  45.1451936  68.4044668  17.7622231  42.9652653
  69.1985266  17.2672551  42.7635228  67.6936360  17.2340094  42.6020358
  73.2239512  20.1440327  47.3165020  73.2776535  20.7131263  48.0842736
  72.3554294  20.3142212  46.9519057  64.7127431  11.9065313  39.0412405
  63.7825019  11.8449769  39.2582368  64.8084903  11.3841266  38.2449047
  64.6312980   8.4320126  41.6290647  64.8919798   9.3465459  41.5199808
  65.4530153   7.9644568  41.7787260  66.1037906   9.8457883  48.7989472
  66.7760959   9.6375245  48.1502121  65.2767692   9.6479969  48.3594704
  80.3527167  16.5861933  48.3164805  80.5463057  17.4907744  48.5624080
  80.2527785  16.1269352  49.1503390  75.4142276  16.7368676  53.8905686
  75.2627782  16.5079228  52.9735769  75.4046955  17.6939278  53.9037031
  72.1827612  14.3100589  48.8751952  73.1119672  14.4611749  48.7020920
  71.7618642  14.3984610  48.0200599  70.9815944  18.3351253  46.6450490
  70.8427030  17.9670038  47.5176428  70.1930540  18.8498893  46.4734448
  71.5764096  23.4360350  37.9876026  71.7515852  22.9648393  38.8021649
  70.8896884  24.0626116  38.2157287  72.5321159  17.7132856  44.0339328
  72.1970992  17.6733626  44.9296978  72.0325105  17.0477572  43.5609738
  66.5065403  13.1200486  49.5591909  66.3685201  12.3880725  50.1603448
  67.4170326  13.0309386  49.2776097  75.4680351  15.0588890  34.3076387
  74.8509521  14.3335719  34.2109440  74.9996839  15.8198251  33.9643462
  69.1347704  12.8320445  49.0475588  69.8447322  12.1913638  49.0062207
  69.0917012  13.0833340  49.9701769  77.1234482  19.7687799  51.9682168
  77.0647029  19.0847019  51.3012751  77.5254001  20.5106789  51.5162794
  67.8476638   9.8185663  50.8671228  67.3113995   9.3676402  51.5192824
  67.2593346   9.9531572  50.1241692  67.2578897   9.2774315  33.4297692
  66.3808363   9.1563115  33.0659938  67.7336650   8.4860393  33.1776580
  77.1251890  17.7327383  50.1996147  76.2378668  17.3953304  50.3222546
  77.6950441  17.0010414  50.4364913  58.7781037  14.0651474  43.5239199
  59.4652077  13.7513204  42.9360214  58.6229165  14.9692839  43.2506450
  63.5815759   8.9541671  47.9524222  63.4973948   8.3467340  47.2174632
  62.7598465   9.4450689  47.9533719  70.6553043  22.3928835  47.1657391
  70.5823215  23.1983806  47.6776695  70.2130436  22.5920801  46.3405412
  70.4442823  21.6300605  40.6760212  69.6610345  22.1722285  40.7698437
  71.1435568  22.1474585  41.0754453  81.6069230  13.1435600  44.9612709
  81.5959106  14.0260315  44.5906642  80.7386610  12.7907151  44.7667246
  73.1151727  22.2915669  49.3215549  73.8279699  22.9263134  49.2491451
  72.6241755  22.3879535  48.5055551  74.8369253  16.1966922  40.8932841
  73.9025532  16.3168384  40.7237545  75.0145922  15.2939388  40.6292851
  70.3374442   9.5812617  43.0466102  69.9672229   9.0283658  43.7347008
  70.8333534   8.9770751  42.4941102  78.2241805  12.0384241  41.4282875
  78.6902257  12.8712233  41.3543178  78.6749305  11.5729223  42.1328133
  68.1663640  20.0410112  50.1421120  68.8673100  20.6746595  50.2950514
  67.6958755  20.3824844  49.3816759  76.2918036  18.3828062  38.4269027
  76.5677880  18.2684657  39.3362901  75.4222535  17.9845547  38.3881200
  75.9664926  12.5954720  47.9673670  75.3136376  12.8430627  47.3126123
  76.3445306  11.7818858  47.6336148  72.9272100  22.6314413  42.0701841
  73.1094494  21.8136069  42.5329593  73.7505086  22.8482105  41.6326731
  73.2614265  21.5582598  39.3316889  73.7902032  21.0475053  38.7187051
  73.5242485  21.2425128  40.1962422  72.0152499  13.3374531  54.4539707
  71.3393136  13.2368660  55.1242083  72.8380133  13.1813745  54.9175705
  63.7631358  19.5746468  47.0752223  64.3484795  18.8290155  47.2080127
  63.5656197  19.8850424  47.9588887  66.6170013  22.6097715  42.0914665
  65.9480389  23.0943843  41.6078705  66.4782883  22.8566935  43.0058044
  58.3549013  12.1452068  45.7956666  58.3933112  11.6115658  46.5893784
  57.8489306  11.6187273  45.1767643  70.7575282  24.6441458  48.6897323
  71.3093590  24.8073080  49.4546409  71.0981475  25.2345896  48.0177348
  65.7339775   6.9916608  49.2919208  65.7981102   7.8531439  48.8796606
  65.6706895   6.3790610  48.5591567  65.2092048   9.0639741  52.9392242
  65.8364087   8.6816818  53.5529767  64.3519967   8.8453943  53.3047935
  75.6086156  19.4702716  54.5445978  76.1526060  20.0832674  54.0500933
  75.0273001  20.0282294  55.0612991  61.9857590  10.8716170  38.8710597
  62.2811032   9.9626848  38.8177651  61.0845626  10.8503909  38.5491600
  73.8943669  22.5923434  45.6761006  73.7694809  21.7913174  45.1671951
  74.5522760  23.0869627  45.1874976  65.5151837   8.9472166  44.8538146
  64.7938423   9.5608134  44.7145619  66.3045093   9.4829931  44.7754792
  75.9578578  20.3932454  47.3040556  75.0108913  20.2737805  47.2318882
  76.3061351  19.5054952  47.3866817  68.3178151   6.2826593  51.1278798
  68.8412553   6.5288890  51.8905107  68.0990484   7.1146628  50.7081935
  63.7145432   8.5530268  38.9949922  63.3858138   7.6727646  38.8125028
  64.0684803   8.4977936  39.8826312  72.9625011  20.1885170  43.5044908
  72.8149973  19.2601878  43.6852478  73.7878504  20.2105261  43.0201983
  66.8287255   8.8403237  39.3625400  67.1683328   9.3689159  38.6404008
  67.2759376   9.1783643  40.1383967  76.5659133  21.0113729  44.5909781
  77.4905680  20.8056590  44.4534232  76.3974436  20.7630130  45.4999122
  69.5230696   7.2240288  48.8128468  69.1827516   6.4248101  49.2149148
  68.8169702   7.5241999  48.2405301  68.8155402   7.3377859  37.5618693
  69.5363765   7.7159112  37.0582410  68.1920706   8.0566736  37.6653671
  72.9586525   8.0423008  38.4977025  73.1750140   8.9247646  38.1965853
  72.4780592   7.6509221  37.7682667  67.6985747  11.0008721  45.0747770
  67.5530327  11.3149024  45.9672051  67.2210950  11.6193621  44.5218668
  69.5582129   7.9911269  45.1228659  69.5443698   7.0952362  44.7860957
  70.2754558   7.9981933  45.7566945  71.4108260   8.4248609  47.1681787
  71.1526038   9.3465680  47.1666117  70.8793301   8.0279044  47.8582251
  76.3554449  21.5299396  39.9471872  76.5291326  20.9645819  39.1945725
  76.8483340  22.3300291  39.7651362  62.1731409  13.5414066  48.0135431
  61.6284877  14.3173873  48.1455705  63.0510759  13.8884870  47.8554552
  82.2093840  14.2935819  41.5662172  82.6524986  13.5443145  41.1681295
  81.3320350  14.2845956  41.1835904  77.3429621  20.8466161  37.0468770
  78.0380526  21.4672854  37.2656085  77.6852772  19.9961512  37.3221148
  62.9597431  12.6683962  50.9065588  62.2179167  12.8166597  51.4930218
  62.6390175  12.9292227  50.0432337  79.2421045  18.2965866  38.5756101
  79.7672369  18.6353139  37.8505421  79.1543397  17.3612882  38.3919236
  70.9041093  22.2099940  50.7045978  71.2128220  21.9649087  51.5768677
  71.7016575  22.4146578  50.2164848  70.9261705  24.3637850  42.9351354
  70.4866696  23.8714228  43.6284211  71.6769822  23.8210817  42.6943430
  63.4054044  20.5549391  42.9375982  64.2312064  20.2553162  42.5574626
  63.0548096  19.7857013  43.3865771  68.3735577  19.9075859  45.0073656
  67.7515587  19.2446564  44.7075884  69.0440444  19.9336991  44.3247304
  61.6062649  18.4735717  43.8964916  60.7694558  18.0457891  43.7148917
  61.5786295  18.6668160  44.8335707  68.4460105   8.3857647  54.6006162
  68.4948260   9.2619770  54.2183932  68.9882619   7.8435040  54.0277805
  78.9314951  18.9298770  53.8807299  78.1410494  18.9122909  53.3411799
  78.6948305  19.4687064  54.6356336  79.0512826  15.7791236  51.1940028
  79.1010831  15.6141244  52.1355550  78.9426749  14.9118495  50.8037908
  67.9349084  18.4579782  38.4832117  68.0837205  19.1415246  37.8298789
  68.7415528  18.4384872  38.9981572  76.3416588  11.7622164  52.5099334
  77.2426451  11.6228629  52.2183332  76.4164563  11.9276619  53.4497512
  70.6759393   9.1389019  51.3552521  69.8062703   9.4322585  51.0835109
  70.9118874   9.7229464  52.0759784  80.5531023  18.1988178  51.4382049
  80.2615831  18.5618158  52.2745510  79.9403154  17.4855186  51.2595381
  81.7526705  15.7641058  43.9584619  82.5873596  16.2030862  44.1222180
  81.8885834  15.2879711  43.1392865  78.8018211  13.3220793  49.9062107
  79.2772332  13.5148439  49.0980959  77.8783776  13.3779978  49.6605491
  65.6901717  14.4844960  39.4893185  65.4447759  13.5807290  39.6873396
  65.8597632  14.4862110  38.5472663  64.9597365  10.2173317  36.9879347
  64.2666610  10.2917672  36.3319383  64.7149117   9.4533661  37.5100864
  71.4344490  20.9527913  35.9543864  70.8618457  21.5718100  35.5014336
  72.0077284  21.5027274  36.4883786  77.5019880  10.1986553  48.1390413
  78.4537303  10.2984650  48.1602637  77.3323330   9.4064821  48.6488497
  74.6541750  21.2365063  37.0852446  75.5872423  21.1710624  37.2885322
  74.5664963  22.0721330  36.6266979  77.2829766  20.5530933  34.0456394
  77.2043398  20.2190797  34.9392152  78.1039433  21.0452701  34.0447866
  79.9807958  13.4192672  47.2532712  79.9484278  12.4808673  47.4392396
  80.5908581  13.4976709  46.5198537  71.8191288  12.2888725  33.2959916
  72.7650393  12.1594933  33.3648335  71.4405533  11.5503387  33.7729345
  85.7984507  14.4808679  46.3938749  86.5287896  14.2193967  46.9546453
  85.1891453  13.7437401  46.4340817  83.8799805  12.6216542  46.9913200
  83.1532968  12.4872507  46.3829692  83.4647091  12.9293370  47.7969918
  71.7029981  16.3406471  54.7560573  72.6232990  16.5185070  54.9500620
  71.6679564  15.3962517  54.6040273  70.0034206  10.2138702  33.2314802
  69.0965661   9.9171814  33.3077515  70.2810187   9.9168520  32.3649088
  60.9212146  11.5345065  43.6813848  60.6014930  10.6810373  43.3888222
  60.3745574  11.7493643  44.4371815  64.6992053  14.2507506  47.3983355
  64.9178063  15.1824614  47.4171388  65.1117827  13.8915480  48.1838158
  69.5719919   9.8240712  56.7886104  69.4716646  10.7735069  56.7198195
  69.3541461   9.4958951  55.9162174  68.7732990   7.0725637  33.3726781
  69.6352154   7.3980535  33.6322598  68.9583334   6.2857133  32.8599847
  60.7900406  15.1547977  45.6506970  60.0963877  14.7401929  45.1376924
  61.5373397  15.1968513  45.0540389  69.4351189  13.2537851  55.6051165
  68.9518271  14.0538211  55.8115054  69.5212128  13.2645796  54.6518609
  62.7037148  15.0866230  43.5272985  62.6807837  15.1853918  42.5754868
  63.0137785  15.9331381  43.8490151  65.3624526  17.1442385  47.6419599
  66.3167780  17.1126328  47.5749531  65.1637050  16.6833009  48.4569825
  65.9523908  15.7143501  50.2090397  66.7716797  16.2087580  50.2325234
  66.2260716  14.7975470  50.1807964  63.7174755  22.6862005  44.6589797
  63.5829223  21.9262406  44.0927795  63.3006817  23.4102905  44.1918586
  74.8533718  17.8698928  33.6666372  75.5569568  18.0748931  34.2824028
  74.1296367  18.4375690  33.9315456  75.6831528  13.6208790  39.7868642
  75.6266730  14.0777341  38.9476275  76.2359871  12.8599474  39.6091485
  83.8048672  12.1494595  43.1190053  83.2448230  12.2187784  43.8921615
  83.1992176  11.9735579  42.3989549  66.8743881  23.5831322  44.8708239
  66.7576265  24.5276754  44.7686930  66.0536327  23.2804883  45.2594039
  76.7620416  18.3081458  35.7164832  77.5966019  17.8762656  35.5342307
  76.6004758  18.1363471  36.6441727  76.4166308  14.8113571  37.0821172
  76.3615112  14.6457842  36.1409616  75.7912363  15.5189604  37.2383361
  61.2058823  10.0481635  50.9082594  61.8517686   9.5380589  51.3969819
  60.9975974  10.7850317  51.4826019  73.7312215  17.1162483  56.4074734
  74.6003375  17.2903135  56.0461369  73.2518966  17.9356900  56.2850464
  67.8998395  24.2359584  48.0864168  68.8025642  24.2683194  48.4030663
  67.6735765  23.3060035  48.1010504  69.6551997  22.9890570  44.7474247
  68.7047628  22.9892432  44.6338619  69.9584483  22.2423305  44.2310281
  65.5456314   7.1949252  55.0057608  66.4087775   6.8386057  55.2160933
  64.9721724   6.8563147  55.6933012  85.3904691  28.8251109  45.8120009
  86.0283101  28.7057856  45.1083349  85.2725534  29.7731953  45.8707961
  82.1994397  28.7778537  45.7481534  81.8612908  28.6619602  44.8602068
  83.0684165  28.3769702  45.7282540  78.0581213  30.6314013  41.7378425
  77.4946078  30.5403950  40.9694712  77.9433608  29.8113918  42.2180917
  82.6814180  29.9313389  51.7067739  82.6702821  29.5366187  50.8348243
  82.8434819  29.1979461  52.3001511  75.6045645  32.1265205  44.5762645
  76.3966936  31.7856029  44.1608944  75.8442295  32.2360180  45.4964798
  83.6380771  34.2984981  37.0492889  82.9868751  34.8839061  36.6626903
  84.4325134  34.8291176  37.1087927  77.5636398  31.3874118  37.4480024
  78.3367274  30.8403105  37.3092900  77.9161797  32.2518367  37.6594485
  79.4021441  32.7150500  50.6546923  79.1111307  33.6196131  50.5393589
  80.0378425  32.7567028  51.3690993  80.3277648  30.0927349  47.2448283
  80.9241220  29.8683371  46.5305246  80.3852619  29.3512094  47.8473731
  79.9002676  27.5466784  35.0798474  80.1528197  27.0248305  34.3181937
  78.9627235  27.3832930  35.1825157  84.9445959  26.5502563  42.8873217
  85.7309048  26.1321986  42.5363634  85.2084663  27.4548655  43.0554865
  85.1156036  31.9875413  37.5861874  84.4801869  32.0610039  38.2982778
  84.7853443  32.5769012  36.9080953  79.6198965  29.4494890  37.2822849
  79.5035223  28.7739794  37.9503933  79.7301225  28.9627264  36.4655002
  81.9630506  28.9105037  40.9869538  81.5988713  28.3835658  41.6982459
  82.8197622  28.5203506  40.8136023  87.8679807  20.1999370  48.2500804
  87.5363131  21.0694781  48.0262019  87.2725420  19.8835654  48.9294834
  81.6035993  23.9394937  35.9830886  81.7710395  24.8075173  36.3501358
  81.4133162  24.1022219  35.0592176  84.3611326  32.4011916  47.6496717
  84.0612049  33.3036955  47.5412524  84.0162386  32.1344099  48.5017870
  77.8123808  28.8525713  43.6833421  76.8874304  28.7201927  43.8911113
  78.0608221  29.6319932  44.1803364  87.7608470  24.9194456  45.3294154
  86.8525347  24.8509864  45.0352915  87.7096066  25.3966401  46.1575980
  81.5825214  26.3952594  36.9677553  81.4624839  26.8409645  37.8063034
  80.8877802  26.7437912  36.4091091  75.1732619  28.4958986  44.5177210
  75.3025000  28.7493465  45.4316622  74.4930070  29.0886694  44.1981865
  79.3432106  39.1656236  40.6167685  79.2656136  40.1164061  40.6956165
  78.7393750  38.8202109  41.2742611  81.8349336  26.3384102  53.2729051
  81.0582670  26.8978022  53.2631916  82.4739899  26.8240885  53.7943922
  87.2810280  26.8674068  37.7957887  88.1928136  27.1001454  37.6205585
  86.7719927  27.4511112  37.2332966  80.0895708  29.1469555  52.8347018
  80.8310392  29.6854599  52.5581842  79.3832693  29.7735844  52.9918570
  85.5651048  31.2898695  51.4319180  85.9734404  30.8481106  50.6873812
  84.8428309  30.7151323  51.6853373  81.9182118  26.2271302  48.8052737
  82.7643313  26.6510716  48.9487386  81.8580755  25.5704927  49.4991300
  85.8879862  31.8499886  45.1871469  85.2588725  32.0145600  44.4847537
  85.5005524  32.2641496  45.9582433  85.0681563  23.8875671  50.4633910
  84.8242495  24.6417731  49.9268186  85.3441494  24.2661018  51.2981158
  87.0220026  30.4314283  49.1411176  87.2336921  31.0746043  48.4645557
  86.9749774  29.5976600  48.6733106  84.6246255  23.0432104  46.0447748
  83.7630734  23.3413357  46.3364486  84.6508689  23.2602503  45.1128781
  81.4407824  31.5874294  42.4521554  81.9046170  31.8661997  41.6626176
  81.1764622  30.6857739  42.2694645  78.3331905  31.1345776  45.3901317
  78.9033262  31.5633044  44.7518802  78.9240017  30.8528360  46.0885503
  80.3776710  27.7097447  39.2611119  81.0800754  28.1618490  39.7285045
  80.0457339  27.0681265  39.8891012  78.8257072  26.3009203  53.6362328
  78.1955732  26.9825484  53.8697725  78.7193160  26.1892285  52.6915467
  74.1202044  25.9680999  44.5628253  73.3301098  26.2238528  44.0868363
  74.6113292  26.7829337  44.6680293  76.0716790  26.3325578  41.5211729
  75.2747953  26.4444273  42.0395225  75.8442382  26.6712231  40.6552620
  81.9022457  32.8570282  49.4694244  81.9666890  33.3190689  50.3052416
  81.1933381  32.2267647  49.5976554  72.4039747  26.2211490  46.9943243
  72.6547786  27.1058500  47.2600819  72.9399296  26.0416091  46.2218335
  81.6170475  34.5238389  39.3373224  81.4816150  35.3689925  39.7658072
  82.1580287  34.7257667  38.5739158  78.1037814  20.6029969  55.9987579
  77.7104760  20.0496168  56.6735224  78.9203955  20.9140548  56.3894097
  75.0699872  32.0413827  39.9101149  75.5824393  32.8357077  40.0606714
  75.7222585  31.3440118  39.8434751  76.8794757  35.1579583  41.9923903
  77.0561385  36.0797548  41.8044886  77.6751590  34.8438003  42.4218282
  81.0205775  22.0187848  53.5907836  81.7615489  22.6195001  53.5112299
  81.2523698  21.2765486  53.0325879  76.1647113  27.2044215  51.8686066
  76.0500629  26.3029473  52.1693165  75.3091631  27.4507912  51.5170882
  83.2438951  35.1461956  53.4673566  82.8002805  34.3598334  53.1494471
  83.9056165  35.3341106  52.8017457  78.0026072  36.6757757  47.9934245
  78.5533498  36.5474821  47.2211239  77.1637548  36.9752646  47.6429138
  85.3420189  35.4264756  51.4954968  85.3238665  36.2473637  51.0035237
  86.2640109  35.3018831  51.7205109  81.7993243  32.9408885  52.3378476
  82.3321580  32.1797173  52.1077784  81.2707325  32.6482537  53.0802630
  84.9662938  18.0468951  47.8672118  84.6227208  18.9370593  47.7911228
  85.3341901  17.8570609  47.0041703  73.0348789  30.3702482  40.6860720
  73.8724011  30.7799490  40.4694428  73.2127057  29.4301924  40.6560914
  84.9313221  28.0377562  36.3744553  84.4159845  28.8082167  36.6132940
  84.6590530  27.3642698  36.9977614  82.5160332  22.8827263  41.4329791
  81.6601929  22.4934113  41.2535430  82.9287284  22.9619224  40.5729577
  84.0459479  20.4173606  45.8321351  83.5424274  20.3803741  45.0189156
  84.3390086  21.3266349  45.8918008  80.2902365  20.5012336  44.8387533
  81.1555361  20.3055145  44.4793422  80.3579874  20.2722688  45.7656889
  84.7199524  25.9104654  38.2004334  84.4149660  26.2250803  39.0514477
  85.6729966  25.9886074  38.2431667  83.1645956  32.0694878  39.8497288
  82.6367318  31.3347637  39.5370525  82.6633459  32.8469554  39.6037256
  77.8964684  22.7314544  42.2103900  78.4708436  22.5089725  41.4777092
  78.4835666  22.8003238  42.9632501  86.9544261  28.6188271  43.0168276
  87.4676143  29.2518263  43.5189986  87.6045485  28.0189466  42.6511636
  78.2234271  24.7619005  36.2299785  77.3871583  25.0993691  36.5509059
  78.0839041  24.6267985  35.2926922  80.1987351  19.6055793  40.9378969
  79.5451764  19.2904810  40.3135584  80.1567826  18.9831533  41.6638792
  81.3098556  29.8875088  32.8532261  80.4025618  29.6564341  33.0523410
  81.8069588  29.0912707  33.0406243  84.2166635  38.5972595  35.7728947
  83.5428334  38.9004292  36.3813905  84.6032457  39.4001675  35.4234404
  83.4325092  26.0937726  45.2626617  82.5147653  26.3152673  45.1048305
  83.8485235  26.1684037  44.4038324  84.2160140  27.4929142  40.3929297
  84.9631959  28.0050539  40.0836419  84.4851729  27.1713195  41.2533690
  82.4886790  29.9887683  37.3756251  81.5798009  29.7046716  37.4728721
  82.5181874  30.4086761  36.5159558  87.7206057  33.5994272  41.1447419
  87.2668384  32.7585182  41.2012609  87.0900024  34.2355671  41.4822199
  86.6638977  24.5286258  42.3748086  85.9261734  24.0163644  42.7058329
  86.9165750  24.0886640  41.5631363  86.1638996  35.4370769  42.0797237
  86.4561971  35.9975826  41.3609602  86.6737617  35.7299330  42.8350396
  86.7650604  17.3062510  42.9689855  87.0709481  16.4459874  42.6815770
  87.4903209  17.8980130  42.7688849  73.0574960  27.7093197  41.3571453
  72.8599360  27.1162558  40.6322520  72.5021624  27.4045407  42.0747392
  81.0371684  27.6016303  43.4766046  81.0920294  26.6490140  43.4008523
  80.2262886  27.7575742  43.9607345  82.1862878  31.5296426  34.7144330
  81.7482308  30.8132285  34.2549967  82.9273318  31.7572541  34.1529421
  78.9764044  26.2193363  41.2356425  78.1631909  26.5187534  41.6421617
  79.4723038  25.8249052  41.9530908  81.1272622  36.2151120  43.1690690
  81.0848800  36.4411966  42.2399222  82.0435320  35.9814495  43.3176491
  84.5738255  26.6835188  50.0671319  84.9287643  26.9106661  50.9265785
  85.2210387  27.0153564  49.4448575  78.4678118  23.7911719  46.8517660
  79.1077498  23.6500478  46.1540624  77.6355649  23.5046232  46.4756262
  79.2438422  33.0914149  42.9652653  80.0379021  32.5964469  42.7635228
  78.5330115  32.5632012  42.6020358  84.0633267  35.4732245  47.3165020
  84.1170289  36.0423181  48.0842736  83.1948048  35.6434130  46.9519057
  75.5521186  27.2357231  39.0412405  74.6218774  27.1741686  39.2582368
  75.6478658  26.7133183  38.2449047  75.4706735  23.7612044  41.6290647
  75.7313552  24.6757377  41.5199808  76.2923907  23.2936486  41.7787260
  76.9431660  25.1749801  48.7989472  77.6154714  24.9667163  48.1502121
  76.1161447  24.9771887  48.3594704  82.8457232  21.8011742  50.8155132
  82.1985147  22.5001691  50.7219609  83.6158248  22.2347886  51.1831381
  86.2536030  32.0660594  53.8905686  86.1021537  31.8371146  52.9735769
  86.2440710  33.0231195  53.9037031  83.0221367  29.6392507  48.8751952
  83.9513427  29.7903666  48.7020920  82.6012397  29.7276527  48.0200599
  81.8209698  33.6643171  46.6450490  81.6820784  33.2961955  47.5176428
  81.0324295  34.1790810  46.4734448  82.4157850  38.7652267  37.9876026
  82.5909606  38.2940311  38.8021649  81.7290638  39.3918034  38.2157287
  83.3714914  33.0424774  44.0339328  83.0364746  33.0025544  44.9296978
  82.8718859  32.3769490  43.5609738  77.3459157  28.4492404  49.5591909
  77.2078955  27.7172643  50.1603448  78.2564081  28.3601304  49.2776097
  86.3074105  30.3880808  34.3076387  85.6903276  29.6627636  34.2109440
  85.8390594  31.1490168  33.9643462  79.9741458  28.1612363  49.0475588
  80.6841077  27.5205555  49.0062207  79.9310766  28.4125258  49.9701769
  87.9628237  35.0979716  51.9682168  87.9040783  34.4138937  51.3012751
  88.3647755  35.8398706  51.5162794  78.6870392  25.1477581  50.8671228
  78.1507749  24.6968319  51.5192824  78.0987101  25.2823490  50.1241692
  76.9818936  41.9141630  44.7615887  77.2215534  42.5460154  45.4394905
  76.1388132  41.5629670  45.0481246  78.0972651  24.6066232  33.4297692
  77.2202117  24.4855033  33.0659938  78.5730404  23.8152311  33.1776580
  69.6174791  29.3943392  43.5239199  70.3045831  29.0805122  42.9360214
  69.4622920  30.2984757  43.2506450  74.4209513  24.2833589  47.9524222
  74.3367702  23.6759258  47.2174632  73.5992220  24.7742607  47.9533719
  81.4946798  37.7220753  47.1657391  81.4216969  38.5275724  47.6776695
  81.0524191  37.9212718  46.3405412  81.2836577  36.9592523  40.6760212
  80.5004099  37.5014203  40.7698437  81.9829322  37.4766502  41.0754453
  84.5933227  22.7687152  43.3194417  85.0901927  22.0157114  42.9995488
  83.8220209  22.8051469  42.7537627  83.9545481  37.6207587  49.3215549
  84.6673453  38.2555052  49.2491451  83.4635510  37.7171453  48.5055551
  85.6763008  31.5258839  40.8932841  84.7419287  31.6460302  40.7237545
  85.8539676  30.6231306  40.6292851  81.1768196  24.9104535  43.0466102
  80.8065984  24.3575576  43.7347008  81.6727288  24.3062669  42.4941102
  79.0057395  35.3702030  50.1421120  79.7066854  36.0038513  50.2950514
  78.5352510  35.7116762  49.3816759  87.1311790  33.7119980  38.4269027
  87.4071634  33.5976575  39.3362901  86.2616289  33.3137465  38.3881200
  87.0352222  19.7356746  45.4673776  86.1215302  19.9660972  45.6355983
  87.4645323  19.8195190  46.3187809  86.8058681  27.9246638  47.9673670
  86.1530131  28.1722545  47.3126123  87.1839060  27.1110776  47.6336148
  83.7665854  37.9606331  42.0701841  83.9488249  37.1427987  42.5329593
  84.5898840  38.1774023  41.6326731  84.1008020  36.8874516  39.3316889
  84.6295786  36.3766970  38.7187051  84.3636239  36.5717046  40.1962422
  82.8546254  28.6666449  54.4539707  82.1786891  28.5660578  55.1242083
  83.6773887  28.5105662  54.9175705  74.6025113  34.9038385  47.0752223
  75.1878549  34.1582073  47.2080127  74.4049951  35.2142342  47.9588887
  77.4563768  37.9389633  42.0914665  76.7874143  38.4235760  41.6078705
  77.3176638  38.1858853  43.0058044  69.1942767  27.4743985  45.7956666
  69.2326867  26.9407576  46.5893784  68.6883060  26.9479191  45.1767643
  81.5969036  39.9733376  48.6897323  82.1487344  40.1364998  49.4546409
  81.9375230  40.5637814  48.0177348  76.5733530  22.3208526  49.2919208
  76.6374856  23.1823357  48.8796606  76.5100650  21.7082528  48.5591567
  76.0485802  24.3931658  52.9392242  76.6757841  24.0108736  53.5529767
  75.1913721  24.1745860  53.3047935  86.4479911  34.7994634  54.5445978
  86.9919815  35.4124592  54.0500933  85.8666756  35.3574212  55.0612991
  72.8251345  26.2008088  38.8710597  73.1204786  25.2918766  38.8177651
  71.9239381  26.1795827  38.5491600  84.7337424  37.9215352  45.6761006
  84.6088563  37.1205091  45.1671951  85.3916515  38.4161545  45.1874976
  76.3545592  24.2764084  44.8538146  75.6332178  24.8900052  44.7145619
  77.1438848  24.8121849  44.7754792  86.7972332  35.7224372  47.3040556
  85.8502668  35.6029723  47.2318882  87.1455105  34.8346870  47.3866817
  79.1571905  21.6118511  51.1278798  79.6806307  21.8580807  51.8905107
  78.9384239  22.4438545  50.7081935  74.5539187  23.8822185  38.9949922
  74.2251893  23.0019564  38.8125028  74.9078557  23.8269854  39.8826312
  83.8018765  35.5177088  43.5044908  83.6543728  34.5893795  43.6852478
  84.6272259  35.5397179  43.0201983  77.6681010  24.1695155  39.3625400
  78.0077082  24.6981076  38.6404008  78.1153130  24.5075561  40.1383967
  87.4052887  36.3405647  44.5909781  88.3299435  36.1348508  44.4534232
  87.2368191  36.0922048  45.4999122  80.3624451  22.5532206  48.8128468
  80.0221271  21.7540019  49.2149148  79.6563457  22.8533917  48.2405301
  81.0140922  19.6381518  47.2655791  81.8366992  19.1641996  47.1434681
  81.2578986  20.4172002  47.7654477  79.6549157  22.6669777  37.5618693
  80.3757519  23.0451029  37.0582410  79.0314461  23.3858653  37.6653671
  83.7980280  23.3714926  38.4977025  84.0143894  24.2539563  38.1965853
  83.3174347  22.9801139  37.7682667  78.5379501  26.3300639  45.0747770
  78.3924082  26.6440942  45.9672051  78.0604705  26.9485539  44.5218668
  80.3975884  23.3203187  45.1228659  80.3837453  22.4244280  44.7860957
  81.1148312  23.3273851  45.7566945  82.2502015  23.7540527  47.1681787
  81.9919793  24.6757598  47.1666117  81.7187055  23.3570962  47.8582251
  87.1948203  36.8591314  39.9471872  87.3685081  36.2937737  39.1945725
  87.6877095  37.6592209  39.7651362  73.0125163  28.8705983  48.0135431
  72.4678631  29.6465791  48.1455705  73.8904513  29.2176788  47.8554552
  79.8012780  22.2017567  40.3916229  79.9228691  21.2734213  40.5907117
  79.5114822  22.2156253  39.4794545  82.6703970  19.8872478  43.5282949
  82.6925667  19.9511811  42.5734929  83.0872029  19.0476986  43.7223455
  73.7991185  27.9975879  50.9065588  73.0572921  28.1458515  51.4930218
  73.4783929  28.2584145  50.0432337  81.7434848  37.5391858  50.7045978
  82.0521974  37.2941004  51.5768677  82.5410330  37.7438496  50.2164848
  81.7655460  39.6929767  42.9351354  81.3260450  39.2006146  43.6284211
  82.5163577  39.1502735  42.6943430  74.2447799  35.8841308  42.9375982
  75.0705819  35.5845080  42.5574626  73.8941851  35.1148931  43.3865771
  79.2129332  35.2367776  45.0073656  78.5909341  34.5738481  44.7075884
  79.8834199  35.2628908  44.3247304  79.2853859  23.7149564  54.6006162
  79.3342015  24.5911687  54.2183932  79.8276374  23.1726957  54.0277805
  78.7742839  33.7871700  38.4832117  78.9230959  34.4707164  37.8298789
  79.5809282  33.7676790  38.9981572  87.1810343  27.0914082  52.5099334
  88.0820205  26.9520547  52.2183332  87.2558317  27.2568537  53.4497512
  81.5153148  24.4680937  51.3552521  80.6456457  24.7614503  51.0835109
  81.7512628  25.0521382  52.0759784  76.5295472  29.8136877  39.4893185
  76.2841514  28.9099207  39.6873396  76.6991386  29.8154028  38.5472663
  84.2192182  20.6860554  48.8717941  84.7374126  21.4221581  48.5464430
  83.8647314  20.9924547  49.7064700  75.7991119  25.5465235  36.9879347
  75.1060364  25.6209590  36.3319383  75.5542871  24.7825579  37.5100864
  84.4704776  17.1060836  44.3918838  84.7506530  16.4384025  45.0179264
  85.2555383  17.2989932  43.8793502  82.2738244  36.2819830  35.9543864
  81.7012211  36.9010017  35.5014336  82.8471038  36.8319192  36.4883786
  86.3628014  22.6134054  48.3249814  85.7677946  22.8939066  47.6296302
  86.0777710  23.1027954  49.0966555  85.4935504  36.5656980  37.0852446
  86.4266177  36.5002542  37.2885322  85.4058717  37.4013247  36.6266979
  82.6585043  27.6180643  33.2959916  83.6044148  27.4886851  33.3648335
  82.2799288  26.8795305  33.7729345  82.5423735  31.6698389  54.7560573
  83.4626745  31.8476988  54.9500620  82.5073318  30.7254434  54.6040273
  80.8427960  25.5430619  33.2314802  79.9359415  25.2463732  33.3077515
  81.1203941  25.2460437  32.3649088  71.7605900  26.8636983  43.6813848
  71.4408685  26.0102291  43.3888222  71.2139329  27.0785561  44.4371815
  75.5385808  29.5799424  47.3983355  75.7571818  30.5116532  47.4171388
  75.9511582  29.2207398  48.1838158  82.4590026  20.0867509  39.3859043
  81.6490754  19.7414594  39.7614289  83.1474443  19.7775053  39.9746655
  84.3880574  19.1645556  41.0083340  84.9411613  19.5841009  41.6673363
  84.6250660  18.2381304  41.0506296  80.4113673  25.1532630  56.7886104
  80.3110400  26.1026986  56.7198195  80.1935215  24.8250868  55.9162174
  79.6126745  22.4017555  33.3726781  80.4745909  22.7272453  33.6322598
  79.7977089  21.6149050  32.8599847  87.7659381  21.2746081  40.5162004
  87.1858050  21.9330885  40.1340056  87.4995314  20.4523426  40.1049421
  86.2162948  20.6751139  42.7183324  86.7162726  20.7867673  41.9097643
  86.8598555  20.3712192  43.3584133  80.2744943  28.5829768  55.6051165
  79.7912025  29.3830128  55.8115054  80.3605882  28.5937713  54.6518609
  73.5430903  30.4158148  43.5272985  73.5201591  30.5145835  42.5754868
  73.8531539  31.2623299  43.8490151  76.2018281  32.4734303  47.6419599
  77.1561534  32.4418245  47.5749531  76.0030804  32.0124927  48.4569825
  76.7917663  31.0435419  50.2090397  77.6110552  31.5379498  50.2325234
  77.0654471  30.1267387  50.1807964  86.5484259  23.4346171  39.5718352
  85.6610114  23.7195822  39.3538547  86.9638248  23.2739935  38.7245629
  74.5568510  38.0153923  44.6589797  74.4222978  37.2554323  44.0927795
  74.1400572  38.7394822  44.1918586  85.6927473  33.1990846  33.6666372
  86.3963323  33.4040849  34.2824028  84.9690121  33.7667608  33.9315456
  86.5225283  28.9500707  39.7868642  86.4660484  29.4069259  38.9476275
  87.0753625  28.1891392  39.6091485  77.7137635  38.9123240  44.8708239
  77.5970020  39.8568672  44.7686930  76.8930082  38.6096801  45.2594039
  87.6014170  33.6373375  35.7164832  88.4359774  33.2054574  35.5342307
  87.4398513  33.4655389  36.6441727  87.2560062  30.1405489  37.0821172
  87.2008866  29.9749760  36.1409616  86.6306117  30.8481522  37.2383361
  72.0452577  25.3773553  50.9082594  72.6911441  24.8672507  51.3969819
  71.8369728  26.1142235  51.4826019  84.5705969  32.4454400  56.4074734
  85.4397129  32.6195053  56.0461369  84.0912721  33.2648817  56.2850464
  80.5656188  19.6413598  36.6606490  80.5534858  20.5855438  36.8174761
  81.4579610  19.4583743  36.3665951  78.7392150  39.5651501  48.0864168
  79.6419396  39.5975112  48.4030663  78.5129520  38.6351952  48.1010504
  80.4945752  38.3182488  44.7474247  79.5441383  38.3184350  44.6338619
  80.7978238  37.5715223  44.2310281  84.3808307  16.2356374  40.9152427
  83.6140703  15.6814861  41.0609109  84.7919012  16.3078243  41.7766578
  76.3850068  22.5241170  55.0057608  77.2481530  22.1677975  55.2160933
  75.8115479  22.1855065  55.6933012  86.4439399  47.4557123  44.5762645
  87.2360691  47.1147947  44.1608944  86.6836049  47.5652098  45.4964798
  86.0126373  43.8250904  44.5177210  86.1418754  44.0785383  45.4316622
  85.3323824  44.4178612  44.1981865  84.9595799  41.2972917  44.5628253
  84.1694853  41.5530445  44.0868363  85.4507046  42.1121255  44.6680293
  86.9110544  41.6617496  41.5211729  86.1141707  41.7736190  42.0395225
  86.6836136  42.0004148  40.6552620  83.2433502  41.5503407  46.9943243
  83.4941540  42.4350417  47.2600819  83.7793050  41.3708009  46.2218335
  85.9093627  47.3705745  39.9101149  86.4218147  48.1648995  40.0606714
  86.5616340  46.6732035  39.8434751  87.0040868  42.5336133  51.8686066
  86.8894383  41.6321390  52.1693165  86.1485386  42.7799830  51.5170882
  83.8742544  45.6994399  40.6860720  84.7117766  46.1091408  40.4694428
  84.0520811  44.7593841  40.6560914  83.8968715  43.0385115  41.3571453
  83.6993114  42.4454475  40.6322520  83.3415379  42.7337325  42.0747392
  86.3914940  42.5649148  39.0412405  85.4612528  42.5033604  39.2582368
  86.4872412  42.0425101  38.2449047  86.3100489  39.0903961  41.6290647
  86.5707307  40.0049294  41.5199808  87.1317662  38.6228404  41.7787260
  87.7825415  40.5041718  48.7989472  88.4548468  40.2959081  48.1502121
  86.9555201  40.3063804  48.3594704  87.8212690  57.2433548  44.7615887
  88.0609288  57.8752072  45.4394905  86.9781887  56.8921588  45.0481246
  80.4568546  44.7235310  43.5239199  81.1439586  44.4097040  42.9360214
  80.3016674  45.6276674  43.2506450  85.2603268  39.6125506  47.9524222
  85.1761457  39.0051176  47.2174632  84.4385974  40.1034525  47.9533719
  85.4418867  50.2330303  47.0752223  86.0272304  49.4873991  47.2080127
  85.2443706  50.5434260  47.9588887  88.2957522  53.2681550  42.0914665
  87.6267898  53.7527678  41.6078705  88.1570392  53.5150771  43.0058044
  80.0336522  42.8035903  45.7956666  80.0720621  42.2699494  46.5893784
  79.5276815  42.2771109  45.1767643  87.4127284  37.6500444  49.2919208
  87.4768611  38.5115274  48.8796606  87.3494404  37.0374445  48.5591567
  86.8879557  39.7223576  52.9392242  87.5151595  39.3400653  53.5529767
  86.0307476  39.5037778  53.3047935  83.6645099  41.5300005  38.8710597
  83.9598541  40.6210684  38.8177651  82.7633135  41.5087745  38.5491600
  87.1939346  39.6056002  44.8538146  86.4725932  40.2191970  44.7145619
  87.9832602  40.1413767  44.7754792  85.3932941  39.2114103  38.9949922
  85.0645647  38.3311482  38.8125028  85.7472312  39.1561772  39.8826312
  83.8518918  44.1997901  48.0135431  83.3072386  44.9757709  48.1455705
  84.7298268  44.5468705  47.8554552  84.6384940  43.3267797  50.9065588
  83.8966676  43.4750433  51.4930218  84.3177684  43.5876063  50.0432337
  85.0841553  51.2133226  42.9375982  85.9099573  50.9136998  42.5574626
  84.7335605  50.4440848  43.3865771  83.2850158  49.1319552  43.8964916
  82.4482067  48.7041727  43.7148917  83.2573804  49.3251996  44.8335707
  87.3689226  45.1428795  39.4893185  87.1235268  44.2391125  39.6873396
  87.5385141  45.1445946  38.5472663  86.6384874  40.8757153  36.9879347
  85.9454119  40.9501508  36.3319383  86.3936626  40.1117496  37.5100864
  82.5999655  42.1928900  43.6813848  82.2802439  41.3394209  43.3888222
  82.0533083  42.4077479  44.4371815  86.3779562  44.9091341  47.3983355
  86.5965572  45.8408449  47.4171388  86.7905336  44.5499316  48.1838158
  82.4687915  45.8131812  45.6506970  81.7751386  45.3985765  45.1376924
  83.2160906  45.8552348  45.0540389  84.3824657  45.7450066  43.5272985
  84.3595346  45.8437753  42.5754868  84.6925294  46.5915217  43.8490151
  87.0412035  47.8026221  47.6419599  87.9955289  47.7710163  47.5749531
  86.8424559  47.3416844  48.4569825  87.6311417  46.3727337  50.2090397
  88.4504306  46.8671415  50.2325234  87.9048225  45.4559305  50.1807964
  85.3962264  53.3445840  44.6589797  85.2616732  52.5846241  44.0927795
  84.9794326  54.0686740  44.1918586  82.8846332  40.7065471  50.9082594
  83.5305195  40.1964425  51.3969819  82.6763483  41.4434152  51.4826019
  87.2243823  37.8533088  55.0057608  88.0875284  37.4969893  55.2160933
  86.6509233  37.5146983  55.6933012  79.3432107  16.1718359  27.3412991
  79.2656137  17.1226184  27.4201472  78.7393751  15.8264231  27.9987917
  81.6170476  11.5300512  26.0618531  81.4816151  12.3752047  26.4903379
  82.1580289  11.7319789  25.2984465  76.8794758  12.1641706  28.7169209
  77.0561387  13.0859671  28.5290193  77.6751592  11.8500125  29.1463589
  83.2438952  12.1524078  40.1918873  82.8002807  11.3660457  39.8739777
  83.9056166  12.3403229  39.5262764  78.0026074  13.6819880  34.7179551
  78.5533499  13.5536943  33.9456545  77.1637550  13.9814769  34.3674444
  84.2166636  15.6034718  22.4974254  83.5428335  15.9066414  23.1059212
  84.6032458  16.4063798  22.1479711  86.1638998  12.4432891  28.8042543
  86.4561972  13.0037949  28.0854909  86.6737618  12.7361452  29.5595703
  81.1272623  13.2213243  29.8935997  81.0848802  13.4474089  28.9644529
  82.0435322  12.9876617  30.0421798  84.0633268  12.4794367  34.0410327
  84.1170290  13.0485303  34.8088043  83.1948049  12.6496252  33.6764364
  82.4157852  15.7714390  24.7121333  82.5909607  15.3002433  25.5266956
  81.7290640  16.3980156  24.9402594  76.9818937  18.9203753  31.4861193
  77.2215535  19.5522277  32.1640212  76.1388133  18.5691793  31.7726552
  81.4946799  14.7282875  33.8902697  81.4216970  15.5337847  34.4022002
  81.0524192  14.9274841  33.0650719  81.2836578  13.9654645  27.4005519
  80.5004100  14.5076325  27.4943743  81.9829324  14.4828625  27.7999760
  83.9545482  14.6269709  36.0460856  84.6673454  15.2617174  35.9736757
  83.4635511  14.7233575  35.2300858  79.0057396  12.3764153  36.8666427
  79.7066855  13.0100636  37.0195821  78.5352511  12.7178884  36.1062066
  83.7665856  14.9668453  28.7947147  83.9488250  14.1490109  29.2574900
  84.5898842  15.1836146  28.3572037  84.1008021  13.8936639  26.0562196
  84.6295788  13.3829093  25.4432358  84.3636241  13.5779169  26.9207729
  74.6025114  11.9100508  33.7997529  75.1878551  11.1644196  33.9325434
  74.4049952  12.2204465  34.6834193  77.4563769  14.9451755  28.8159972
  76.7874144  15.4297883  28.3324012  77.3176639  15.1920976  29.7303350
  81.5969038  16.9795499  35.4142630  82.1487346  17.1427120  36.1791715
  81.9375231  17.5699937  34.7422655  84.7337425  14.9277474  32.4006312
  84.6088564  14.1267214  31.8917258  85.3916516  15.4223668  31.9120282
  83.8018767  12.5239211  30.2290215  83.6543729  11.5955918  30.4097785
  84.6272260  12.5459301  29.7447290  87.4052888  13.3467769  31.3155087
  88.3299436  13.1410631  31.1779538  87.2368192  13.0984170  32.2244429
  87.1948205  13.8653437  26.6717179  87.3685082  13.2999859  25.9191031
  87.6877096  14.6654332  26.4896669  81.7434849  14.5453980  37.4291284
  82.0521975  14.3003127  38.3013984  82.5410331  14.7500619  36.9410155
  81.7655461  16.6991890  29.6596661  81.3260451  16.2068269  30.3529518
  82.5163578  16.1564858  29.4188736  74.2447800  12.8903431  29.6621289
  75.0705820  12.5907203  29.2819933  73.8941852  12.1211053  30.1111078
  79.2129333  12.2429899  31.7318963  78.5909342  11.5800604  31.4321191
  79.8834200  12.2691031  31.0492610  72.4456405  10.8089757  30.6210223
  71.6088313  10.3811932  30.4394224  72.4180051  11.0022201  31.5581014
  78.7742840  10.7933822  25.2077423  78.9230960  11.4769287  24.5544096
  79.5809284  10.7738912  25.7226879  82.2738246  13.2881953  22.6789171
  81.7012213  13.9072140  22.2259642  82.8471039  13.8381314  23.2129093
  71.6294162   7.4902017  32.3752276  70.9357633   7.0755970  31.8622231
  72.3767153   7.5322553  31.7785695  76.2018282   9.4796426  34.3664906
  77.1561536   9.4480368  34.2994837  76.0030806   9.0187049  35.1815132
  74.5568511  15.0216045  31.3835103  74.4222979  14.2616446  30.8173102
  74.1400573  15.7456945  30.9163892  77.7137637  15.9185362  31.5953546
  77.5970021  16.8630795  31.4932236  76.8930083  15.6158924  31.9839345
  78.7392151  16.5713624  34.8109475  79.6419398  16.6037234  35.1275970
  78.5129521  15.6414075  34.8255810  80.4945753  15.3244611  31.4719553
  79.5441384  15.3246472  31.3583925  80.7978239  14.5777345  30.9555588
  86.4439400  24.4619245  31.3007952  87.2360692  24.1210070  30.8854251
  86.6836050  24.5714220  32.2210105  86.0126374  20.8313027  31.2422517
  86.1418756  21.0847505  32.1561929  85.3323826  21.4240735  30.9227172
  84.9595800  18.3035039  31.2873559  84.1694854  18.5592568  30.8113670
  85.4507047  19.1183377  31.3925600  86.9110545  18.6679619  28.2457036
  86.1141709  18.7798313  28.7640532  86.6836138  19.0066271  27.3797926
  83.2433503  18.5565530  33.7188550  83.4941541  19.4412540  33.9846126
  83.7793051  18.3770131  32.9463642  85.9093628  24.3767867  26.6346456
  86.4218149  25.1711118  26.7852021  86.5616341  23.6794158  26.5680057
  87.0040869  19.5398256  38.5931372  86.8894384  18.6383513  38.8938471
  86.1485387  19.7861952  38.2416189  83.8742545  22.7056522  27.4106027
  84.7117767  23.1153530  27.1939734  84.0520812  21.7655964  27.3806220
  83.8968716  20.0447237  28.0816760  83.6993116  19.4516598  27.3567827
  83.3415380  19.7399447  28.7992699  86.3914942  19.5711271  25.7657712
  85.4612530  19.5095726  25.9827674  86.4872414  19.0487224  24.9694353
  86.3100491  16.0966084  28.3535954  86.5707308  17.0111417  28.2445114
  87.1317663  15.6290526  28.5032567  87.7825416  17.5103841  35.5234778
  88.4548469  17.3021203  34.8747427  86.9555203  17.3125927  35.0840011
  87.8212691  34.2495670  31.4861193  88.0609290  34.8814195  32.1640212
  86.9781888  33.8983711  31.7726552  80.4568547  21.7297432  30.2484505
  81.1439587  21.4159162  29.6605521  80.3016676  22.6338797  29.9751757
  85.2603269  16.6187629  34.6769529  85.1761458  16.0113298  33.9419939
  84.4385976  17.1096647  34.6779025  85.4418868  27.2392425  33.7997529
  86.0272305  26.4936113  33.9325434  85.2443707  27.5496382  34.6834193
  88.2957524  30.2743673  28.8159972  87.6267899  30.7589800  28.3324012
  88.1570393  30.5212893  29.7303350  80.0336523  19.8098026  32.5201972
  80.0720623  19.2761616  33.3139091  79.5276816  19.2833231  31.9012950
  87.4127285  14.6562566  36.0164515  87.4768612  15.5177397  35.6041912
  87.3494406  14.0436568  35.2836873  86.8879558  16.7285699  39.6637549
  87.5151597  16.3462776  40.2775073  86.0307477  16.5099901  40.0293242
  83.6645101  18.5362128  25.5955904  83.9598542  17.6272806  25.5422958
  82.7633136  18.5149867  25.2736906  87.1939348  16.6118124  31.5783452
  86.4725933  17.2254092  31.4390926  87.9832603  17.1475889  31.5000098
  85.3932942  16.2176225  25.7195229  85.0645648  15.3373604  25.5370335
  85.7472313  16.1623894  26.6071618  83.8518919  21.2060023  34.7380738
  83.3072387  21.9819831  34.8701012  84.7298269  21.5530828  34.5799859
  84.6384941  20.3329920  37.6310894  83.8966677  20.4812555  38.2175525
  84.3177685  20.5938185  36.7677644  85.0841555  28.2195348  29.6621289
  85.9099574  27.9199120  29.2819933  84.7335607  27.4502971  30.1111078
  83.2850160  26.1381675  30.6210223  82.4482068  25.7103849  30.4394224
  83.2573805  26.3314118  31.5581014  87.3689228  22.1490918  26.2138492
  87.1235270  21.2453248  26.4118702  87.5385142  22.1508068  25.2717970
  86.6384875  17.8819275  23.7124654  85.9454120  17.9563630  23.0564690
  86.3936627  17.1179619  24.2346170  82.5999656  19.1991023  30.4059155
  82.2802441  18.3456331  30.1133529  82.0533084  19.4139601  31.1617122
  86.3779564  21.9153464  34.1228661  86.5965573  22.8470572  34.1416695
  86.7905338  21.5561438  34.9083465  82.4687916  22.8193935  32.3752276
  81.7751388  22.4047887  31.8622231  83.2160907  22.8614471  31.7785695
  84.3824659  22.7512188  30.2518291  84.3595347  22.8499876  29.3000174
  84.6925295  23.5977339  30.5735457  87.0412037  24.8088343  34.3664906
  87.9955290  24.7772286  34.2994837  86.8424560  24.3478967  35.1815132
  87.6311419  23.3789459  36.9335703  88.4504308  23.8733538  36.9570541
  87.9048226  22.4621428  36.9053271  85.3962265  30.3507963  31.3835103
  85.2616733  29.5908364  30.8173102  84.9794328  31.0748863  30.9163892
  82.8846333  17.7127593  37.6327900  83.5305197  17.2026547  38.1215126
  82.6763484  18.4496275  38.2071326  87.2243824  14.8595210  41.7302915
  88.0875286  14.5032015  41.9406239  86.6509235  14.5209105  42.4178319
   7.7624486  41.9630942  76.8756966   7.1112466  42.5485023  76.4890980
   8.5568849  42.4937137  76.9352004   1.6880113  39.0520080  77.2744101
   2.4610989  38.5049067  77.1356977   2.0405512  39.9164329  77.4858562
   4.0246391  35.2112746  74.9062551   4.2771912  34.6894267  74.1446014
   3.0870950  35.0478891  75.0089234   9.2399751  39.6521374  77.4125951
   8.6045584  39.7256001  78.1246855   8.9097158  40.2414973  76.7345030
  11.4053995  34.5320029  77.6221964  12.3171851  34.7647416  77.4469662
  10.8963642  35.1157073  77.0597043  13.8912809  40.4500285  82.3679910
  13.2063847  40.8299187  81.8176943  13.9756658  41.0595612  83.1011857
  20.3515562  37.3170948  83.4882582  19.5979270  36.7478346  83.3326586
  20.4863103  37.2833613  84.4353217   5.7414190  42.1884351  79.1637301
   5.6059864  43.0335886  79.5922149   6.2824002  42.3903628  78.4003235
   9.0556936  35.7023524  76.2008630   8.5403559  36.4728128  76.4397017
   8.7834244  35.0288660  76.8241691  14.0291210  38.4555878  78.1361803
  13.2520653  38.1167038  77.6916965  14.7082691  38.4608501  77.4616768
   7.2889671  39.7340839  79.6761365   6.7611033  38.9993599  79.3634602
   6.7877174  40.5115515  79.4301333   5.4342271  37.5521049  72.6796338
   4.5269333  37.3210303  72.8787487   5.9313303  36.7558669  72.8670320
   8.3410350  46.2618557  75.5993024   7.6672049  46.5650253  76.2077982
   8.7276172  47.0647637  75.2498481   6.6130505  37.6533644  77.2020328
   5.7041724  37.3692677  77.2992798   6.6425588  38.0732723  76.3423635
  11.8449772  41.2640234  80.9711496  11.3912099  40.4231144  81.0276686
  11.2143739  41.9001632  81.3086276  10.2882711  43.1016730  81.9061314
  10.5805686  43.6621788  81.1873679  10.7981332  43.3945291  82.6614473
   6.3106592  39.1942388  74.5408407   5.8726022  38.4778247  74.0814044
   7.0517033  39.4218503  73.9793498  14.4279707  37.4699585  80.5984725
  14.2897606  37.6601181  79.6705914  14.0715926  38.2318968  81.0552776
   6.5401565  46.4298229  77.8140103   6.7153321  45.9586272  78.6285726
   5.8534353  47.0563995  78.0421364  10.4317820  38.0526770  74.1340464
   9.8146991  37.3273598  74.0373517   9.9634308  38.8136130  73.7907539
   2.2216366  32.2712194  73.2561769   1.3445832  32.1500995  72.8924015
   2.6974119  31.4798272  73.0040657   5.4080292  44.6238484  80.5024289
   4.6247814  45.1660164  80.5962514   6.1073037  45.1412464  80.9018530
   9.8006723  39.1904801  80.7196918   8.8663001  39.3106263  80.5501622
   9.9783391  38.2877268  80.4556928  11.2555505  41.3765941  78.2533104
  11.5315349  41.2622536  79.1626978  10.3860004  40.9783426  78.2145277
   7.8909569  45.6252292  81.8965918   8.0731964  44.8073948  82.3593670
   8.7142555  45.8419985  81.4590808   8.2251735  44.5520477  79.1580966
   8.7539501  44.0412932  78.5451128   8.4879954  44.2363008  80.0226499
  11.3191918  44.5237276  79.7735949  11.4928796  43.9583698  79.0209802
  11.8120809  45.3238171  79.5915439  17.1731309  37.2873699  81.3926249
  17.6162455  36.5381024  80.9945372  16.2957820  37.2783835  81.0099981
  12.3067091  43.8404040  76.8732847  13.0017995  44.4610733  77.0920162
  12.6490241  42.9899391  77.1485225  14.2058514  41.2903746  78.4020178
  14.7309838  41.6291018  77.6769498  14.1180866  40.3550761  78.2183313
   2.8986554  41.4517661  78.3096194   3.0474674  42.1353126  77.6562866
   3.7052997  41.4322751  78.8245649  16.7164174  38.7578937  83.7848696
  17.5511065  39.1968741  83.9486257  16.8523303  38.2817590  82.9656942
   6.3981959  43.9465792  75.7807941   5.8255926  44.5655979  75.3278413
   6.9714753  44.4965153  76.3147863   9.6179219  44.2302942  76.9116523
  10.5509892  44.1648504  77.1149399   9.5302432  45.0659209  76.4531056
  12.2467236  43.5468812  73.8720471  12.1680867  43.2128676  74.7656229
  13.0676902  44.0390580  73.8711943   6.7828758  35.2826604  73.1223993
   7.7287862  35.1532813  73.1912412   6.4043003  34.5441266  73.5993422
   4.9671675  33.2076581  73.0578879   4.0603130  32.9109694  73.1341592
   5.2447656  32.9106399  72.1913165   3.7370459  30.0663516  73.1990858
   4.5989623  30.3918414  73.4586675   3.9220804  29.2795012  72.6863924
   9.8171187  40.8636808  73.4930449  10.5207038  41.0686810  74.1088105
   9.0933836  41.4313569  73.7579533  10.6468998  36.6146669  79.6132719
  10.5904199  37.0715220  78.7740352  11.1997340  35.8537353  79.4355562
  11.7257885  41.3019337  75.5428909  12.5603489  40.8700535  75.3606384
  11.5642228  41.1301350  76.4705804  11.3803777  37.8051450  76.9085249
  11.3252581  37.6395722  75.9673693  10.7549832  38.5127483  77.0647438
  20.3542160  51.8188988  85.6384086  20.9920570  51.6995735  84.9347426
  20.2363003  52.7669832  85.6972038  17.1631866  51.7716416  85.5745611
  16.8250378  51.6557481  84.6866146  18.0321634  51.3707581  85.5546617
  13.0218682  53.6251892  81.5642502  12.4583547  53.5341829  80.7958789
  12.9071077  52.8051797  82.0444994  18.6018241  57.2922860  76.8756966
  17.9506220  57.8776941  76.4890980  19.3962603  57.8229055  76.9352004
  12.5273868  54.3811997  77.2744101  13.3004744  53.8340984  77.1356977
  12.8799267  55.2456247  77.4858562  15.2915117  53.0865228  87.0712360
  15.8878689  52.8621250  86.3569323  15.3490089  52.3449974  87.6737808
  14.8640146  50.5404663  74.9062551  15.1165666  50.0186185  74.1446014
  13.9264705  50.3770809  75.0089234  19.9083428  49.5440442  82.7137294
  20.6946518  49.1259865  82.3627711  20.1722133  50.4486534  82.8818942
  20.0793506  54.9813292  77.4125951  19.4439339  55.0547919  78.1246855
  19.7490912  55.5706891  76.7345030  25.3091856  49.4815675  83.6170273
  26.0417027  48.9114892  83.8508102  24.5531211  49.0937275  84.0576778
  14.5836434  52.4432769  77.1086926  14.4672692  51.7677673  77.7768010
  14.6938694  51.9565143  76.2919079  16.9267975  51.9042916  80.8133615
  16.5626182  51.3773537  81.5246536  17.7835091  51.5141386  80.6400100
  16.5673462  46.9332816  75.8094963  16.7347865  47.8013053  76.1765435
  16.3770631  47.0960098  74.8856253  19.3248795  55.3949795  87.4760794
  19.0249519  56.2974834  87.3676601  18.9799855  55.1281978  88.3281947
  12.7761277  51.8463592  83.5097498  11.8511773  51.7139806  83.7175190
  13.0245690  52.6257811  84.0067441  22.7245939  47.9132335  85.1558231
  21.8162817  47.8447744  84.8616992  22.6733535  48.3904280  85.9840057
  16.5462683  49.3890474  76.7941630  16.4262308  49.8347524  77.6327111
  15.8515271  49.7375791  76.2355168  24.5907586  46.1148774  86.9336105
  23.9481966  46.4081307  86.2875900  24.0862514  46.0001694  87.7389302
  22.2447749  49.8611947  77.6221964  23.1565605  50.0939334  77.4469662
  21.7357396  50.4448991  77.0597043  16.8819587  49.2209181  88.6316814
  17.7280782  49.6448595  88.7751463  16.8218225  48.5642806  89.3255377
  20.8517332  54.8437765  85.0135546  20.2226194  55.0083479  84.3111614
  20.4642994  55.2579375  85.7846510  24.7306563  55.7792203  82.3679910
  24.0457602  56.1591104  81.8176943  24.8150413  56.3887530  83.1011857
  21.9857495  53.4252162  88.9675253  22.1974390  54.0683922  88.2909634
  21.9387243  52.5914479  88.4997183  19.5883724  46.0369983  85.8711825
  18.7268203  46.3351236  86.1628563  19.6146159  46.2540382  84.9392858
  16.4045293  54.5812173  82.2785631  16.8683639  54.8599876  81.4890253
  16.1402092  53.6795618  82.0958722  15.3414180  50.7035326  79.0875196
  16.0438223  51.1556369  79.5549122  15.0094808  50.0619145  79.7155089
  23.1003323  56.3024118  87.1397610  23.9220767  55.9004305  86.8580292
  23.0965726  56.1992352  88.0913726  11.0354259  49.3263458  81.3475806
  10.2385422  49.4382152  81.8659302  10.8079851  49.6650110  80.4816697
  31.1909316  52.6462866  83.4882582  30.4373024  52.0770264  83.3326586
  31.3256857  52.6125531  84.4353217  16.5807944  57.5176268  79.1637301
  16.4453619  58.3627804  79.5922149  17.1217757  57.7195546  78.4003235
  10.0337342  55.0351706  79.7365226  10.5461862  55.8294957  79.8870791
  10.6860054  54.3377997  79.6698828   7.9986258  53.3640361  80.5124797
   8.8361480  53.7737369  80.2958505   8.1764526  52.4239803  80.4824991
  19.8950690  51.0315441  76.2008630  19.3797314  51.8020046  76.4397017
  19.6227999  50.3580578  76.8241691  17.4797801  45.8765142  81.2593868
  16.6239398  45.4871993  81.0799507  17.8924753  45.9557103  80.3993654
  19.0096948  43.4111485  85.6585428  18.5061744  43.3741621  84.8453233
  19.3027555  44.3204228  85.7182085  15.2539834  43.4950215  84.6651610
  16.1192831  43.2993024  84.3057499  15.3217343  43.2660567  85.5920966
  24.8684965  53.7847796  78.1361803  24.0914407  53.4458955  77.6916965
  25.5476446  53.7900419  77.4616768  19.6836994  48.9042533  78.0268411
  19.3787129  49.2188683  78.8778554  20.6367436  48.9823953  78.0695744
  18.1283425  55.0632757  79.6761365  17.6004787  54.3285516  79.3634602
  17.6270928  55.8407433  79.4301333  23.1076271  53.2581777  84.7928411
  22.4499946  53.9481039  84.8808540  23.9116671  53.6478209  85.1362398
  12.8602153  45.7252423  82.0367977  13.4345905  45.5027605  81.3041169
  13.4473135  45.7941118  82.7896578  21.9181730  51.6126150  82.8432353
  22.4313612  52.2456142  83.3454063  22.5682954  51.0127345  82.4775713
  13.1871740  47.7556884  76.0563862  12.3509052  48.0931571  76.3773137
  13.0476510  47.6205864  75.1190999  15.1624821  42.5993672  80.7643046
  14.5089233  42.2842689  80.1399661  15.1205295  41.9769412  81.4902869
  16.2736026  52.8812967  72.6796338  15.3663087  52.6502220  72.8787487
  16.7707058  52.0850586  72.8670320  19.1804105  61.5910474  75.5993024
  18.5065803  61.8942171  76.2077982  19.5669926  62.3939555  75.2498481
  18.3962561  49.0875605  85.0890694  17.4785122  49.3090552  84.9312382
  18.8122705  49.1621916  84.2302401  19.1797609  50.4867021  80.2193374
  19.9269428  50.9988418  79.9100496  19.4489198  50.1651074  81.0797767
  17.4524259  52.9825562  77.2020328  16.5435478  52.6984595  77.2992798
  17.4819343  53.4024640  76.3423635  22.6843526  56.5932151  80.9711496
  22.2305854  55.7523061  81.0276686  22.0537493  57.2293550  81.3086276
  21.6276446  47.5224137  82.2012163  20.8899203  47.0101524  82.5322406
  21.8803220  47.0824519  81.3895440  21.1276466  58.4308648  81.9061314
  21.4199440  58.9913705  81.1873679  21.6375086  58.7237209  82.6614473
  21.7288073  40.3000389  82.7953932  22.0346950  39.4397753  82.5079847
  22.4540678  40.8918010  82.5952926   8.0212429  50.7031076  81.1835530
   7.8236829  50.1100437  80.4586597   7.4659093  50.3983286  81.9011469
  16.0009153  50.5954182  83.3030123  16.0557763  49.6428019  83.2272600
  15.1900355  50.7513622  83.7871422  17.1500347  54.5234306  74.5408407
  16.7119777  53.8070164  74.0814044  17.8910788  54.7510420  73.9793498
  13.9401513  49.2131242  81.0620502  13.1269379  49.5125413  81.4685694
  14.4360507  48.8186931  81.7794985  16.0910091  59.2088999  82.9954767
  16.0486270  59.4349845  82.0663299  17.0072790  58.9752374  83.1440568
  19.5375725  49.6773067  89.8935396  19.8925112  49.9044540  90.7529862
  20.1847856  50.0091443  89.2712652  25.2673462  52.7991503  80.5984725
  25.1291360  52.9893099  79.6705914  24.9109680  53.5610885  81.0552776
  13.4315588  46.7849598  86.6781737  14.0714967  46.6438357  85.9804701
  12.5993118  46.4984111  86.3020339  25.2942841  54.8668030  85.6095997
  25.7279348  54.7743319  86.4579051  26.0074422  54.8425530  84.9716013
  14.2075892  56.0852028  82.7916730  15.0016490  55.5902348  82.5899305
  13.4967584  55.5569891  82.4284435  10.5158655  50.2295110  78.8676482
   9.5856243  50.1679565  79.0846445  10.6116127  49.7071063  78.0713124
  10.4344204  46.7549923  81.4554724  10.6951021  47.6695256  81.3463885
  11.2561377  46.2874365  81.6051337  26.1558391  54.9091730  88.1428882
  26.3494281  55.8137541  88.3888157  26.0559009  54.4499149  88.9767467
  17.9858836  52.6330386  88.7016029  18.9150896  52.7841545  88.5284997
  17.5649866  52.7214407  87.8464676  17.3795320  61.7590147  77.8140103
  17.5547075  61.2878190  78.6285726  16.6928108  62.3855913  78.0421364
  18.3352383  56.0362653  83.8603405  18.0002215  55.9963423  84.7561055
  17.8356329  55.3707369  83.3873815  21.2711574  53.3818687  74.1340464
  20.6540745  52.6565515  74.0373517  20.8028063  54.1428047  73.7907539
  13.0610120  47.6004112  73.2561769  12.1839587  47.4792912  72.8924015
  13.5367873  46.8090190  73.0040657  22.9283113  56.0557179  90.0260224
  22.0409892  55.7183101  90.1486623  23.4981664  55.3240211  90.2628990
  16.2474046  59.9530402  80.5024289  15.4641568  60.4952082  80.5962514
  16.9466792  60.4704382  80.9018530  19.5570697  45.7625031  83.1458494
  20.0539396  45.0094994  82.8259565  18.7857678  45.7989348  82.5801704
  27.4100454  51.4665397  84.7876786  27.3990330  52.3490112  84.4170719
  26.5417833  51.1136948  84.5931323  20.6400477  54.5196719  80.7196918
  19.7056756  54.6398181  80.5501622  20.8177146  53.6169185  80.4556928
  16.1405665  47.9042414  82.8730179  15.7703453  47.3513455  83.5611085
  16.6364758  47.3000548  82.3205179  24.0273029  50.3614038  81.2546952
  24.4933481  51.1942029  81.1807255  24.4780529  49.8959019  81.9592210
  22.0949260  56.7057859  78.2533104  22.3709104  56.5914454  79.1626978
  21.2253758  56.3075344  78.2145277  21.9989691  42.7294625  85.2937853
  21.0852771  42.9598852  85.4620060  22.4282793  42.8133069  86.1451886
  21.7696150  50.9184517  87.7937747  21.1167600  51.1660424  87.1390200
  22.1476530  50.1048655  87.4600225  18.7303324  60.9544210  81.8965918
  18.9125718  60.1365866  82.3593670  19.5536310  61.1711902  81.4590808
  19.0645489  59.8812395  79.1580966  19.5933256  59.3704850  78.5451128
  19.3273709  59.5654925  80.0226499   7.7888814  49.1945967  78.6974674
   8.0842255  48.2856645  78.6441728   6.8876850  49.1733706  78.3755677
  19.6974893  60.9153231  85.5025083  19.5726032  60.1142971  84.9936028
  20.3553984  61.4099424  85.0139053  11.3183061  47.2701963  84.6802223
  10.5969647  47.8837931  84.5409696  12.1076317  47.8059728  84.6018869
  21.7609801  58.7162251  87.1304633  20.8140137  58.5967602  87.0582959
  22.1092574  57.8284749  87.2130894   9.5176656  46.8760064  78.8213999
   9.1889362  45.9957443  78.6389105   9.8716027  46.8207733  79.7090389
  18.7656235  58.5114967  83.3308985  18.6181197  57.5831675  83.5116555
  19.5909728  58.5335058  82.8466060  12.6318479  47.1633034  79.1889477
  12.9714551  47.6918955  78.4668085  13.0790599  47.5013440  79.9648044
  22.3690357  59.3343526  84.4173858  23.2936904  59.1286387  84.2798309
  22.2005660  59.0859927  85.3263199  14.6186626  45.6607656  77.3882770
  15.3394989  46.0388909  76.8846487  13.9951930  46.3796533  77.4917748
  18.7617749  46.3652805  78.3241102  18.9781363  47.2477443  78.0229930
  18.2811816  45.9739018  77.5946744  13.5016970  49.3238518  84.9011847
  13.3561551  49.6378821  85.7936128  13.0242174  49.9423418  84.3482745
  15.3613353  46.3141066  84.9492736  15.3474922  45.4182159  84.6125034
  16.0785781  46.3211730  85.5831022  17.2139484  46.7478406  86.9945864
  16.9557262  47.6695477  86.9930194  16.6824524  46.3508841  87.6846328
  22.1585673  59.8529193  79.7735949  22.3322550  59.2875616  79.0209802
  22.6514564  60.6530088  79.5915439  14.7650249  45.1955446  80.2180306
  14.8866160  44.2672092  80.4171194  14.4752292  45.2094132  79.3058622
  17.6341440  42.8810357  83.3547026  17.6563136  42.9449690  82.3999006
  18.0509499  42.0414865  83.5487532  28.0125064  52.6165616  81.3926249
  28.4556210  51.8672941  80.9945372  27.1351574  52.6075753  81.0099981
  23.1460845  59.1695958  76.8732847  23.8411750  59.7902650  77.0920162
  23.4883995  58.3191309  77.1485225  25.0452268  56.6195663  78.4020178
  25.5703592  56.9582936  77.6769498  24.9574621  55.6842679  78.2183313
  24.8544049  54.1021033  91.0204105  24.9042054  53.9371041  91.9619627
  24.7457973  53.2348292  90.6301985  13.7380308  56.7809579  78.3096194
  13.8868429  57.4645043  77.6562866  14.5446752  56.7614669  78.8245649
  26.3562246  56.5217975  91.2646126  26.0647055  56.8847955  92.1009587
  25.7434378  55.8084983  91.0859458  27.5557929  54.0870855  83.7848696
  28.3904820  54.5260659  83.9486257  27.6917057  53.6109508  82.9656942
  24.6049435  51.6450589  89.7326184  25.0803556  51.8378236  88.9245036
  23.6815000  51.7009775  89.4869568  11.4932941  52.8074757  79.3157262
  11.2478983  51.9037087  79.5137473  11.6628856  52.8091907  78.3736740
  10.7628589  48.5403114  76.8143424  10.0697834  48.6147469  76.1583460
  10.5180341  47.7763458  77.3364941  19.4342245  40.0998715  84.2182915
  19.7143999  39.4321905  84.8443341  20.2192852  40.2927811  83.7057579
  17.2375714  59.2757709  75.7807941  16.6649681  59.8947897  75.3278413
  17.8108507  59.8257071  76.3147863  23.3051104  48.5216349  87.9654490
  24.2568526  48.6214447  87.9866714  23.1354554  47.7294618  88.4752574
  21.3265483  45.6071933  88.1513891  20.7315415  45.8876945  87.4560379
  21.0415180  46.0965834  88.9230632  20.4572973  59.5594860  76.9116523
  21.3903647  59.4940421  77.1149399  20.3696186  60.3951126  76.4531056
  23.0860990  58.8760730  73.8720471  23.0074622  58.5420593  74.7656229
  23.9070657  59.3682498  73.8711943  25.7839181  51.7422469  87.0796789
  25.7515501  50.8038470  87.2656473  26.3939805  51.8206506  86.3462614
  17.6222512  50.6118522  73.1223993  18.5681617  50.4824730  73.1912412
  17.2436757  49.8733184  73.5993422  25.9333670  48.5333513  87.1255073
  25.4172718  47.7491969  86.9385001  26.8173618  48.2052229  87.2901592
  23.5944397  42.2774528  83.0850885  23.3969218  41.9689616  83.9694217
  24.2044102  43.0036167  83.2148815  31.6015731  52.8038476  86.2202826
  32.3319120  52.5423764  86.7810530  30.9922677  52.0667198  86.2604894
  29.6831028  50.9446339  86.8177277  28.9564192  50.8102304  86.2093769
  29.2678315  51.2523167  87.6233995  15.8065429  48.5368499  73.0578879
  14.8996885  48.2401611  73.1341592  16.0841410  48.2398317  72.1913165
  17.4227495  43.0805388  79.2123120  16.6128223  42.7352473  79.5878366
  18.1111912  42.7712932  79.8010732  19.3518043  42.1583435  80.8347417
  19.9049082  42.5778888  81.4937440  19.5888130  41.2319183  80.8770373
  14.5764214  45.3955434  73.1990858  15.4383378  45.7210332  73.4586675
  14.7614558  44.6086930  72.6863924  22.7296850  44.2683960  80.3426081
  22.1495519  44.9268764  79.9604133  22.4632783  43.4461305  79.9313498
  21.1800417  43.6689018  82.5447401  21.6800195  43.7805552  81.7361720
  21.8236025  43.3650071  83.1848210  21.5121728  46.4284051  79.3982429
  20.6247583  46.7133701  79.1802624  21.9275718  46.2677814  78.5509706
  24.8636265  46.4530572  83.1136768  25.6396655  46.9427024  83.3861385
  24.1384399  46.8788626  83.5708638  27.3008823  47.1658191  84.1710709
  27.8953314  46.9253927  83.4604017  27.3735407  46.4465321  84.7984245
  20.6564942  56.1928725  73.4930449  21.3600792  56.3978728  74.1088105
  19.9327591  56.7605487  73.7579533  21.4862752  51.9438587  79.6132719
  21.4297954  52.4007138  78.7740352  22.0391095  51.1829271  79.4355562
  25.2967558  47.7328318  80.4382839  25.0404492  47.3324954  81.2691047
  24.6720426  48.4472112  80.3132978  29.6079896  50.4724392  82.9454130
  29.0479454  50.5417581  83.7185692  29.0023399  50.2965376  82.2253626
  22.5651639  56.6311254  75.5428909  23.3997243  56.1992453  75.3606384
  22.4035982  56.4593268  76.4705804  22.2197532  53.1343368  76.9085249
  22.1646335  52.9687639  75.9673693  21.5943587  53.8419401  77.0647438
  15.5293657  42.6351477  76.4870567  15.5172327  43.5793317  76.6438838
  16.4217079  42.4521622  76.1930028  19.3445776  39.2294253  80.7416504
  18.5778172  38.6752740  80.8873186  19.7556481  39.3016122  81.6030655
  31.1935914  67.1480906  85.6384086  31.8314324  67.0287653  84.9347426
  31.0756757  68.0961750  85.6972038  28.0025621  67.1008334  85.5745611
  27.6644132  66.9849398  84.6866146  28.8715389  66.6999499  85.5546617
  23.8612436  68.9543810  81.5642502  23.2977302  68.8633747  80.7958789
  23.7464831  68.1343715  82.0444994  29.4411995  72.6214778  76.8756966
  28.7899975  73.2068858  76.4890980  30.2356358  73.1520973  76.9352004
  23.3667622  69.7103915  77.2744101  24.1398498  69.1632902  77.1356977
  23.7193021  70.5748164  77.4858562  26.1308872  68.4157146  87.0712360
  26.7272444  68.1913168  86.3569323  26.1883843  67.6741891  87.6737808
  25.7033900  65.8696581  74.9062551  25.9559421  65.3478102  74.1446014
  24.7658459  65.7062727  75.0089234  30.7477183  64.8732359  82.7137294
  31.5340272  64.4551783  82.3627711  31.0115887  65.7778452  82.8818942
  30.9187260  70.3105210  77.4125951  30.2833093  70.3839836  78.1246855
  30.5884667  70.8998809  76.7345030  36.1485610  64.8107593  83.6170273
  36.8810782  64.2406809  83.8508102  35.3924966  64.4229193  84.0576778
  25.4230189  67.7724687  77.1086926  25.3066447  67.0969590  77.7768010
  25.5332449  67.2857061  76.2919079  27.7661730  67.2334834  80.8133615
  27.4019937  66.7065455  81.5246536  28.6228846  66.8433303  80.6400100
  33.6711030  58.5229167  88.0764881  33.3394355  59.3924578  87.8526096
  33.0756644  58.2065451  88.7558911  27.4067217  62.2624734  75.8094963
  27.5741619  63.1304970  76.1765435  27.2164386  62.4252016  74.8856253
  30.1642550  70.7241713  87.4760794  29.8643273  71.6266752  87.3676601
  29.8193609  70.4573896  88.3281947  23.6155031  67.1755510  83.5097498
  22.6905528  67.0431724  83.7175190  23.8639445  67.9549729  84.0067441
  33.5639694  63.2424253  85.1558231  32.6556571  63.1739661  84.8616992
  33.5127289  63.7196198  85.9840057  27.3856438  64.7182391  76.7941630
  27.2656063  65.1639442  77.6327111  26.6909026  65.0667709  76.2355168
  35.4301340  61.4440691  86.9336105  34.7875720  61.7373224  86.2875900
  34.9256269  61.3293612  87.7389302  33.0841504  65.1903865  77.6221964
  33.9959360  65.4231251  77.4469662  32.5751151  65.7740909  77.0597043
  27.7213341  64.5501099  88.6316814  28.5674537  64.9740513  88.7751463
  27.6611979  63.8934723  89.3255377  31.6911086  70.1729683  85.0135546
  31.0619949  70.3375397  84.3111614  31.3036748  70.5871293  85.7846510
  35.5700318  71.1084121  82.3679910  34.8851356  71.4883022  81.8176943
  35.6544167  71.7179447  83.1011857  30.8712787  62.2105467  90.2897988
  30.6273719  62.9647528  89.7532263  31.1472717  62.5890815  91.1245235
  30.4277479  61.3661900  85.8711825  29.5661958  61.6643154  86.1628563
  30.4539913  61.5832299  84.9392858  27.2439048  69.9104091  82.2785631
  27.7077393  70.1891794  81.4890253  26.9795846  69.0087536  82.0958722
  26.1807934  66.0327243  79.0875196  26.8831977  66.4848287  79.5549122
  25.8488562  65.3911062  79.7155089  21.8748013  64.6555375  81.3475806
  21.0779177  64.7674070  81.8659302  21.6473606  64.9942028  80.4816697
  42.0303071  67.9754784  83.4882582  41.2766779  67.4062182  83.3326586
  42.1650612  67.9417448  84.4353217  27.4201699  72.8468186  79.1637301
  27.2847373  73.6919722  79.5922149  27.9611511  73.0487464  78.4003235
  20.8731096  70.3643624  79.7365226  21.3855617  71.1586874  79.8870791
  21.5253809  69.6669915  79.6698828  30.7694162  56.3698748  87.6936195
  30.4258432  57.2600390  87.6175305  31.1373125  56.1800406  86.8305780
  18.8380013  68.6932278  80.5124797  19.6755235  69.1029287  80.2958505
  19.0158280  67.7531721  80.4824991  30.7344445  66.3607359  76.2008630
  30.2191068  67.1311964  76.4397017  30.4621753  65.6872495  76.8241691
  28.3191556  61.2057060  81.2593868  27.4633152  60.8163910  81.0799507
  28.7318508  61.2849021  80.3993654  29.8490703  58.7403403  85.6585428
  29.3455498  58.7033538  84.8453233  30.1421309  59.6496146  85.7182085
  26.0933588  58.8242133  84.6651610  26.9586585  58.6284941  84.3057499
  26.1611097  58.5952485  85.5920966  35.7078719  69.1139714  78.1361803
  34.9308162  68.7750873  77.6916965  36.3870200  69.1192337  77.4616768
  30.5230748  64.2334451  78.0268411  30.2180884  64.5480600  78.8778554
  31.4761190  64.3115871  78.0695744  28.9677180  70.3924674  79.6761365
  28.4398542  69.6577434  79.3634602  28.4664683  71.1699351  79.4301333
  33.9470026  68.5873695  84.7928411  33.2893700  69.2772956  84.8808540
  34.7510425  68.9770127  85.1362398  23.6995908  61.0544341  82.0367977
  24.2739659  60.8319522  81.3041169  24.2866890  61.1233035  82.7896578
  32.7575485  66.9418068  82.8432353  33.2707366  67.5748059  83.3454063
  33.4076709  66.3419263  82.4775713  24.0265495  63.0848802  76.0563862
  23.1902807  63.4223488  76.3773137  23.8870264  62.9497782  75.1190999
  26.0018575  57.9285590  80.7643046  25.3482988  57.6134607  80.1399661
  25.9599049  57.3061330  81.4902869  27.1129780  68.2104885  72.6796338
  26.2056842  67.9794138  72.8787487  27.6100812  67.4142504  72.8670320
  30.0197859  76.9202392  75.5993024  29.3459558  77.2234089  76.2077982
  30.4063681  77.7231472  75.2498481  29.2356316  64.4167523  85.0890694
  28.3178877  64.6382470  84.9312382  29.6516459  64.4913834  84.2302401
  30.0191363  65.8158939  80.2193374  30.7663182  66.3280336  79.9100496
  30.2882953  65.4942992  81.0797767  28.2918014  68.3117480  77.2020328
  27.3829233  68.0276512  77.2992798  28.3213097  68.7316558  76.3423635
  33.5237281  71.9224069  80.9711496  33.0699608  71.0814979  81.0276686
  32.8931248  72.5585467  81.3086276  32.4670201  62.8516055  82.2012163
  31.7292957  62.3393441  82.5322406  32.7196974  62.4116437  81.3895440
  31.9670220  73.7600566  81.9061314  32.2593195  74.3205623  81.1873679
  32.4768841  74.0529127  82.6614473  32.5681828  55.6292307  82.7953932
  32.8740705  54.7689671  82.5079847  33.2934433  56.2209927  82.5952926
  18.8606184  66.0322994  81.1835530  18.6630584  65.4392354  80.4586597
  18.3052848  65.7275204  81.9011469  26.8402908  65.9246100  83.3030123
  26.8951517  64.9719937  83.2272600  26.0294110  66.0805539  83.7871422
  27.9894101  69.8526223  74.5408407  27.5513531  69.1362082  74.0814044
  28.7304542  70.0802338  73.9793498  24.7795268  64.5423160  81.0620502
  23.9663133  64.8417330  81.4685694  25.2754262  64.1478849  81.7794985
  26.9303845  74.5380917  82.9954767  26.8880024  74.7641763  82.0663299
  27.8466544  74.3044291  83.1440568  30.3769479  65.0064984  89.8935396
  30.7318867  65.2336458  90.7529862  31.0241610  65.3383361  89.2712652
  36.1067216  68.1283420  80.5984725  35.9685115  68.3185016  79.6705914
  35.7503435  68.8902803  81.0552776  24.2709342  62.1141515  86.6781737
  24.9108722  61.9730275  85.9804701  23.4386873  61.8276029  86.3020339
  36.1336596  70.1959947  85.6095997  36.5673102  70.1035236  86.4579051
  36.8468176  70.1717448  84.9716013  25.0469646  71.4143946  82.7916730
  25.8410245  70.9194266  82.5899305  24.3361339  70.8861809  82.4284435
  21.3552410  65.5587028  78.8676482  20.4249998  65.4971483  79.0846445
  21.4509882  65.0362980  78.0713124  21.2737959  62.0841840  81.4554724
  21.5344776  62.9987174  81.3463885  22.0955131  61.6166283  81.6051337
  28.6488456  60.1241539  90.6419209  28.0016371  60.8231488  90.5483686
  29.4189471  60.5577682  91.0095458  28.8252590  67.9622303  88.7016029
  29.7544650  68.1133463  88.5284997  28.4043620  68.0506324  87.8464676
  28.2189074  77.0882064  77.8140103  28.3940830  76.6170108  78.6285726
  27.5321862  77.7147831  78.0421364  29.1746137  71.3654571  83.8603405
  28.8395970  71.3255341  84.7561055  28.6750083  70.6999286  83.3873815
  32.1105329  68.7110605  74.1340464  31.4934500  67.9857433  74.0373517
  31.6421817  69.4719965  73.7907539  23.9003875  62.9296029  73.2561769
  23.0233341  62.8084830  72.8924015  24.3761628  62.1382107  73.0040657
  27.0867801  75.2822320  80.5024289  26.3035323  75.8244000  80.5962514
  27.7860546  75.7996299  80.9018530  30.3964451  61.0916949  83.1458494
  30.8933151  60.3386911  82.8259565  29.6251433  61.1281266  82.5801704
  38.2494208  66.7957315  84.7876786  38.2384085  67.6782030  84.4170719
  37.3811588  66.4428865  84.5931323  31.4794232  69.8488636  80.7196918
  30.5450510  69.9690099  80.5501622  31.6570900  68.9461103  80.4556928
  26.9799420  63.2334332  82.8730179  26.6097207  62.6805372  83.5611085
  27.4758512  62.6292465  82.3205179  34.8666783  65.6905956  81.2546952
  35.3327235  66.5233947  81.1807255  35.3174284  65.2250937  81.9592210
  32.9343014  72.0349777  78.2533104  33.2102858  71.9206371  79.1626978
  32.0647513  71.6367262  78.2145277  32.8383446  58.0586542  85.2937853
  31.9246526  58.2890769  85.4620060  33.2676547  58.1424987  86.1451886
  32.6089904  66.2476434  87.7937747  31.9561355  66.4952342  87.1390200
  32.9870284  65.4340573  87.4600225  29.5697078  76.2836128  81.8965918
  29.7519473  75.4657784  82.3593670  30.3930064  76.5003820  81.4590808
  29.9039244  75.2104313  79.1580966  30.4327010  74.6996767  78.5451128
  30.1667463  74.8946843  80.0226499  18.6282569  64.5237884  78.6974674
  18.9236010  63.6148563  78.6441728  17.7270604  64.5025624  78.3755677
  30.5368647  76.2445148  85.5025083  30.4119787  75.4434888  84.9936028
  31.1947739  76.7391342  85.0139053  22.1576816  62.5993881  84.6802223
  21.4363401  63.2129849  84.5409696  22.9470071  63.1351646  84.6018869
  20.3570410  62.2051982  78.8213999  20.0283116  61.3249361  78.6389105
  20.7109781  62.1499651  79.7090389  29.6049989  73.8406885  83.3308985
  29.4574952  72.9123592  83.5116555  30.4303483  73.8626976  82.8466060
  23.4712233  62.4924952  79.1889477  23.8108306  63.0210873  78.4668085
  23.9184354  62.8305358  79.9648044  33.2084111  74.6635444  84.4173858
  34.1330658  74.4578305  84.2798309  33.0399414  74.4151845  85.3263199
  26.1655674  60.8762003  88.6392545  25.8252495  60.0769816  89.0413225
  25.4594681  61.1763713  88.0669378  26.8172146  57.9611315  87.0919868
  27.6398215  57.4871793  86.9698758  27.0610210  58.7401799  87.5918554
  25.4580381  60.9899573  77.3882770  26.1788743  61.3680826  76.8846487
  24.8345685  61.7088450  77.4917748  29.6011503  61.6944722  78.3241102
  29.8175118  62.5769360  78.0229930  29.1205571  61.3030936  77.5946744
  24.3410725  64.6530436  84.9011847  24.1955306  64.9670739  85.7936128
  23.8635928  65.2715336  84.3482745  26.2007108  61.6432984  84.9492736
  26.1868677  60.7474077  84.6125034  26.9179536  61.6503647  85.5831022
  28.0533238  62.0770324  86.9945864  27.7951016  62.9987395  86.9930194
  27.5218279  61.6800758  87.6846328  32.9979427  75.1821111  79.7735949
  33.1716305  74.6167533  79.0209802  33.4908318  75.9822006  79.5915439
  25.6044004  60.5247364  80.2180306  25.7259915  59.5964010  80.4171194
  25.3146046  60.5386050  79.3058622  28.4735194  58.2102274  83.3547026
  28.4956891  58.2741607  82.3999006  28.8903253  57.3706783  83.5487532
  38.8518818  67.9457534  81.3926249  39.2949964  67.1964859  80.9945372
  37.9745329  67.9367670  81.0099981  33.9854600  74.4987875  76.8732847
  34.6805504  75.1194568  77.0920162  34.3277750  73.6483227  77.1485225
  35.8846023  71.9487581  78.4020178  36.4097347  72.2874854  77.6769498
  35.7968375  71.0134596  78.2183313  24.5774063  72.1101497  78.3096194
  24.7262183  72.7936961  77.6562866  25.3840506  72.0906587  78.8245649
  38.3951683  69.4162772  83.7848696  39.2298574  69.8552576  83.9486257
  38.5310812  68.9401425  82.9656942  22.3326696  68.1366674  79.3157262
  22.0872738  67.2329004  79.5137473  22.5022610  68.1383825  78.3736740
  30.0223405  59.0090351  88.6982018  30.5405349  59.7451378  88.3728507
  29.6678538  59.3154344  89.5328777  21.6022343  63.8695032  76.8143424
  20.9091588  63.9439387  76.1583460  21.3574095  63.1055375  77.3364941
  30.2736000  55.4290633  84.2182915  30.5537753  54.7613822  84.8443341
  31.0586607  55.6219729  83.7057579  28.0769468  74.6049627  75.7807941
  27.5043435  75.2239814  75.3278413  28.6502262  75.1548989  76.3147863
  34.1444858  63.8508267  87.9654490  35.0962281  63.9506365  87.9866714
  33.9748308  63.0586536  88.4752574  32.1659237  60.9363850  88.1513891
  31.5709170  61.2168863  87.4560379  31.8808934  61.4257751  88.9230632
  31.2966728  74.8886777  76.9116523  32.2297401  74.8232339  77.1149399
  31.2089941  75.7243044  76.4531056  33.9254745  74.2052648  73.8720471
  33.8468376  73.8712511  74.7656229  34.7464411  74.6974415  73.8711943
  36.6232936  67.0714387  87.0796789  36.5909256  66.1330388  87.2656473
  37.2333559  67.1498424  86.3462614  28.4616267  65.9410440  73.1223993
  29.4075371  65.8116648  73.1912412  28.0830512  65.2025102  73.5993422
  36.7727424  63.8625430  87.1255073  36.2566473  63.0783887  86.9385001
  37.6567373  63.5344147  87.2901592  34.4338151  57.6066446  83.0850885
  34.2362972  57.2981534  83.9694217  35.0437857  58.3328085  83.2148815
  26.6459184  63.8660416  73.0578879  25.7390639  63.5693529  73.1341592
  26.9235165  63.5690234  72.1913165  28.2621250  58.4097306  79.2123120
  27.4521978  58.0644391  79.5878366  28.9505666  58.1004850  79.8010732
  30.1911798  57.4875353  80.8347417  30.7442836  57.9070806  81.4937440
  30.4281884  56.5611101  80.8770373  25.4157968  60.7247351  73.1990858
  26.2777132  61.0502250  73.4586675  25.6008313  59.9378847  72.6863924
  33.5690605  59.5975878  80.3426081  32.9889274  60.2560682  79.9604133
  33.3026538  58.7753222  79.9313498  32.0194171  58.9980936  82.5447401
  32.5193950  59.1097470  81.7361720  32.6629779  58.6941988  83.1848210
  32.3515483  61.7575968  79.3982429  31.4641338  62.0425619  79.1802624
  32.7669472  61.5969732  78.5509706  35.7030019  61.7822489  83.1136768
  36.4790409  62.2718942  83.3861385  34.9778153  62.2080543  83.5708638
  38.1402578  62.4950108  84.1710709  38.7347069  62.2545844  83.4604017
  38.2129161  61.7757239  84.7984245  31.4958696  71.5220643  73.4930449
  32.1994547  71.7270645  74.1088105  30.7721345  72.0897405  73.7579533
  32.3256507  67.2730504  79.6132719  32.2691708  67.7299056  78.7740352
  32.8784849  66.5121189  79.4355562  36.1361313  63.0620236  80.4382839
  35.8798247  62.6616872  81.2691047  35.5114181  63.7764030  80.3132978
  40.4473650  65.8016309  82.9454130  39.8873208  65.8709499  83.7185692
  39.8417154  65.6257294  82.2253626  33.4045394  71.9603172  75.5428909
  34.2390998  71.5284371  75.3606384  33.2429737  71.7885186  76.4705804
  33.0591286  68.4635285  76.9085249  33.0040090  68.2979557  75.9673693
  32.4337341  69.1711318  77.0647438  26.3687411  57.9643394  76.4870567
  26.3566081  58.9085234  76.6438838  27.2610833  57.7813540  76.1930028
  30.1839531  54.5586171  80.7416504  29.4171927  54.0044658  80.8873186
  30.5950236  54.6308040  81.6030655  34.2061377  85.0395833  77.2744101
  34.9792253  84.4924820  77.1356977  34.5586776  85.9040082  77.4858562
  36.5427655  81.1988499  74.9062551  36.7953175  80.6770020  74.1446014
  35.6052214  81.0354644  75.0089234  36.2623943  83.1016605  77.1086926
  36.1460201  82.4261508  77.7768010  36.3726203  82.6148979  76.2919079
  38.2460971  77.5916651  75.8094963  38.4135374  78.4596888  76.1765435
  38.0558140  77.7543933  74.8856253  38.2250192  80.0474309  76.7941630
  38.1049817  80.4931360  77.6327111  37.5302780  80.3959627  76.2355168
  32.7141768  79.9847293  81.3475806  31.9172931  80.0965987  81.8659302
  32.4867360  80.3233945  80.4816697  29.6773767  84.0224196  80.5124797
  30.5148989  84.4321204  80.2958505  29.8552035  83.0823638  80.4824991
  41.5738199  81.6899277  76.2008630  41.0584823  82.4603881  76.4397017
  41.3015508  81.0164413  76.8241691  39.1585310  76.5348977  81.2593868
  38.3026907  76.1455828  81.0799507  39.5712262  76.6140938  80.3993654
  41.3624503  79.5626369  78.0268411  41.0574638  79.8772518  78.8778554
  42.3154945  79.6407789  78.0695744  34.5389662  76.3836258  82.0367977
  35.1133414  76.1611440  81.3041169  35.1260644  76.4524953  82.7896578
  34.8659249  78.4140719  76.0563862  34.0296561  78.7515406  76.3773137
  34.7264019  78.2789699  75.1190999  36.8412330  73.2577507  80.7643046
  36.1876742  72.9426524  80.1399661  36.7992804  72.6353248  81.4902869
  37.9523535  83.5396802  72.6796338  37.0450596  83.3086056  72.8787487
  38.4494567  82.7434422  72.8670320  39.1311768  83.6409397  77.2020328
  38.2222987  83.3568430  77.2992798  39.1606852  84.0608476  76.3423635
  43.4075582  70.9584225  82.7953932  43.7134459  70.0981588  82.5079847
  44.1328187  71.5501845  82.5952926  29.6999938  81.3614911  81.1835530
  29.5024338  80.7684272  80.4586597  29.1446602  81.0567122  81.9011469
  38.8287856  85.1818141  74.5408407  38.3907286  84.4654000  74.0814044
  39.5698297  85.4094256  73.9793498  32.1946164  80.8878945  78.8676482
  31.2643752  80.8263401  79.0846445  32.2903636  80.3654898  78.0713124
  32.1131713  77.4133758  81.4554724  32.3738530  78.3279091  81.3463885
  32.9348886  76.9458201  81.6051337  42.9499083  84.0402523  74.1340464
  42.3328254  83.3149351  74.0373517  42.4815572  84.8011883  73.7907539
  34.7397629  78.2587947  73.2561769  33.8627096  78.1376748  72.8924015
  35.2155382  77.4674025  73.0040657  29.4676323  79.8529802  78.6974674
  29.7629764  78.9440481  78.6441728  28.5664359  79.8317542  78.3755677
  31.1964165  77.5343900  78.8213999  30.8676871  76.6541279  78.6389105
  31.5503535  77.4791568  79.7090389  34.3105988  77.8216870  79.1889477
  34.6502060  78.3502791  78.4668085  34.7578108  78.1597276  79.9648044
  36.2974135  76.3191491  77.3882770  37.0182498  76.6972744  76.8846487
  35.6739439  77.0380368  77.4917748  40.4405258  77.0236640  78.3241102
  40.6568872  77.9061278  78.0229930  39.9599325  76.6322854  77.5946744
  36.4437758  75.8539282  80.2180306  36.5653669  74.9255928  80.4171194
  36.1539801  75.8677968  79.3058622  39.3128949  73.5394192  83.3547026
  39.3350645  73.6033525  82.3999006  39.7297008  72.6998701  83.5487532
  33.1720450  83.4658592  79.3157262  32.9266492  82.5620922  79.5137473
  33.3416365  83.4675742  78.3736740  32.4416098  79.1986950  76.8143424
  31.7485343  79.2731304  76.1583460  32.1967850  78.4347293  77.3364941
  39.3010021  81.2702358  73.1223993  40.2469126  81.1408566  73.1912412
  38.9224266  80.5317019  73.5993422  37.4852938  79.1952334  73.0578879
  36.5784394  78.8985447  73.1341592  37.7628919  78.8982152  72.1913165
  39.1015004  73.7389224  79.2123120  38.2915732  73.3936309  79.5878366
  39.7899421  73.4296767  79.8010732  41.0305552  72.8167270  80.8347417
  41.5836591  73.2362724  81.4937440  41.2675639  71.8903019  80.8770373
  36.2551723  76.0539269  73.1990858  37.1170887  76.3794167  73.4586675
  36.4402067  75.2670765  72.6863924  44.4084359  74.9267796  80.3426081
  43.8283028  75.5852600  79.9604133  44.1420292  74.1045140  79.9313498
  43.1909237  77.0867886  79.3982429  42.3035092  77.3717537  79.1802624
  43.6063227  76.9261649  78.5509706  42.3352451  86.8512561  73.4930449
  43.0388301  87.0562563  74.1088105  41.6115100  87.4189323  73.7579533
  37.2081166  73.2935312  76.4870567  37.1959836  74.2377152  76.6438838
  38.1004588  73.1105458  76.1930028  41.0233285  69.8878089  80.7416504
  40.2565681  69.3336575  80.8873186  41.4343990  69.9599958  81.6030655
   7.7624487  18.9693065  63.6002273   7.1112467  19.5547145  63.2136287
   8.5568850  19.4999260  63.6597311   1.6880115  16.0582202  63.9989407
   2.4610991  15.5111189  63.8602283   2.0405513  16.9226452  64.2103869
   4.0246392  12.2174868  61.6307857   4.2771913  11.6956390  60.8691320
   3.0870951  12.0541014  61.7334541   9.2399753  16.6583497  64.1371257
   8.6045586  16.7318123  64.8492162   8.9097159  17.2477096  63.4590337
   3.4675822  23.8364320  67.1677068   3.3899852  24.7872145  67.2465549
   2.8637466  23.4910193  67.8251994  11.4053996  11.5382152  64.3467271
  12.3171852  11.7709538  64.1714969  10.8963643  12.1219196  63.7842350
  13.8912810  17.4562408  69.0925216  13.2063848  17.8361309  68.5422250
  13.9756660  18.0657735  69.8257164  20.3515563  14.3233071  70.2127889
  19.5979271  13.7540469  70.0571893  20.4863104  14.2895735  71.1598523
   5.7414191  19.1946473  65.8882608   5.6059866  20.0398009  66.3167456
   6.2824003  19.3965751  65.1248542   9.0556937  12.7085646  62.9253936
   8.5403561  13.4790251  63.1642324   8.7834246  12.0350782  63.5486998
  14.0291211  15.4618001  64.8607110  13.2520654  15.1229160  64.4162272
  14.7082692  15.4670624  64.1862075   7.2889672  16.7402962  66.4006672
   6.7611034  16.0055721  66.0879909   6.7877175  17.5177638  66.1546640
   5.4342272  14.5583172  59.4041645   4.5269334  14.3272425  59.6032794
   5.9313304  13.7620791  59.5915626   8.3410351  23.2680679  62.3238331
   7.6672050  23.5712376  62.9323289   8.7276173  24.0709759  61.9743788
   6.6130506  14.6595767  63.9265635   5.7041725  14.3754800  64.0238104
   6.6425590  15.0794845  63.0668942  11.8449773  18.2702356  67.6956802
  11.3912100  17.4293266  67.7521993  11.2143740  18.9063755  68.0331582
  10.2882712  20.1078853  68.6306620  10.5805687  20.6683910  67.9118986
  10.7981333  20.4007414  69.3859780   6.3106594  16.2004510  61.2653713
   5.8726024  15.4840369  60.8059351   7.0517034  16.4280625  60.7038805
  14.4279708  14.4761708  67.3230032  14.2897607  14.6663303  66.3951221
  14.0715927  15.2381090  67.7798083   6.5401566  23.4360352  64.5385410
   6.7153322  22.9648395  65.3531033   5.8534354  24.0626118  64.7666671
  10.4317821  15.0588892  60.8585771   9.8146992  14.3335720  60.7618824
   9.9634310  15.8198252  60.5152845   5.4080293  21.6300607  67.2269596
   4.6247815  22.1722287  67.3207820   6.1073038  22.1474586  67.6263837
   9.8006724  16.1966923  67.4442224   8.8663003  16.3168386  67.2746929
   9.9783392  15.2939390  67.1802234  11.2555506  18.3828064  64.9778411
  11.5315350  18.2684659  65.8872285  10.3860005  17.9845549  64.9390584
   7.8909570  22.6314415  68.6211224   8.0731965  21.8136071  69.0838977
   8.7142556  22.8482107  68.1836114   8.2251736  21.5582600  65.8826273
   8.7539502  21.0475055  65.2696435   8.4879956  21.2425130  66.7471806
  11.3191920  21.5299398  66.4981256  11.4928797  20.9645821  65.7455108
  11.8120811  22.3300293  66.3160746  17.1731311  14.2935821  68.1171555
  17.6162457  13.5443146  67.7190679  16.2957821  14.2845958  67.7345287
  12.3067092  20.8466163  63.5978154  13.0017997  21.4672855  63.8165469
  12.6490242  19.9961514  63.8730532  14.2058515  18.2965868  65.1265485
  14.7309839  18.6353141  64.4014805  14.1180868  17.3612883  64.9428619
   5.8899176  24.3637851  69.4860738   5.4504166  23.8714230  70.1793595
   6.6407293  23.8210819  69.2452813   2.8986555  18.4579784  65.0341500
   3.0474675  19.1415248  64.3808173   3.7052998  18.4384874  65.5490956
  16.7164175  15.7641059  70.5094003  17.5511067  16.2030864  70.6731563
  16.8523304  15.2879713  69.6902249   6.3981960  20.9527914  62.5053248
   5.8255928  21.5718101  62.0523719   6.9714754  21.5027276  63.0393170
   9.6179220  21.2365064  63.6361830  10.5509893  21.1710626  63.8394705
   9.5302433  22.0721331  63.1776363  12.2467237  20.5530935  60.5965777
  12.1680868  20.2190798  61.4901535  13.0676904  21.0452703  60.5957250
   6.7828759  12.2888727  59.8469300   7.7287864  12.1594935  59.9157718
   6.4043004  11.5503389  60.3238728   9.8171189  17.8698930  60.2175756
  10.5207039  18.0748933  60.8333411   9.0933837  18.4375692  60.4824839
  10.6468999  13.6208791  66.3378026  10.5904200  14.0777343  65.4985658
  11.1997341  12.8599476  66.1600869  11.7257886  18.3081459  62.2674216
  12.5603490  17.8762658  62.0851691  11.5642229  18.1363473  63.1951110
  11.3803778  14.8113573  63.6330555  11.3252582  14.6457844  62.6918999
  10.7549834  15.5189606  63.7892745  20.3542161  28.8251111  72.3629393
  20.9920571  28.7057858  71.6592733  20.2363004  29.7731954  72.4217345
  17.1631867  28.7778539  72.2990917  16.8250379  28.6619603  71.4111452
  18.0321636  28.3769704  72.2791923  13.0218683  30.6314015  68.2887808
  12.4583548  30.5403952  67.5204096  12.9071078  29.8113919  68.7690301
  10.5683115  32.1265207  71.1272029  11.3604407  31.7856031  70.7118328
  10.8079765  32.2360182  72.0474182  18.6018242  34.2984983  63.6002273
  17.9506222  34.8839063  63.2136287  19.3962605  34.8291178  63.6597311
  12.5273869  31.3874120  63.9989407  13.3004745  30.8403107  63.8602283
  12.8799268  32.2518369  64.2103869  14.3658912  32.7150502  77.2056307
  14.0748778  33.6196133  77.0902973  15.0015896  32.7567030  77.9200376
  15.2915118  30.0927351  73.7957666  15.8878691  29.8683373  73.0814629
  15.3490090  29.3512096  74.3983114  14.8640147  27.5466786  61.6307857
  15.1165668  27.0248307  60.8691320  13.9264706  27.3832931  61.7334541
  19.9083430  26.5502564  69.4382601  20.6946519  26.1321988  69.0873018
  20.1722134  27.4548657  69.6064249  20.0793507  31.9875415  64.1371257
  19.4439340  32.0610041  64.8492162  19.7490913  32.5769013  63.4590337
  25.3091857  26.4877798  70.3415579  26.0417029  25.9177014  70.5753409
  24.5531212  26.0999398  70.7822085  14.5836436  29.4494892  63.8332232
  14.4672694  28.7739795  64.5013317  14.6938695  28.9627266  63.0164385
  16.9267977  28.9105039  67.5378922  16.5626184  28.3835660  68.2491843
  17.7835092  28.5203508  67.3645407  16.5673463  23.9394939  62.5340270
  16.7347866  24.8075175  62.9010741  16.3770633  24.1022220  61.6101559
  19.3248797  32.4011918  74.2006100  19.0249520  33.3036956  74.0921908
  18.9799856  32.1344101  75.0527253  12.7761278  28.8525714  70.2342805
  11.8511775  28.7201929  70.4420497  13.0245691  29.6319934  70.7312747
  22.7245940  24.9194458  71.8803538  21.8162818  24.8509866  71.5862299
  22.6733536  25.3966403  72.7085363  16.5462684  26.3952596  63.5186937
  16.4262310  26.8409647  64.3572417  15.8515273  26.7437914  62.9600475
  10.1370089  28.4958988  71.0686594  10.2662470  28.7493467  71.9826006
   9.4567540  29.0886696  70.7491249  14.3069576  39.1656238  67.1677068
  14.2293606  40.1164063  67.2465549  13.7031220  38.8202110  67.8251994
  24.5907587  23.1210896  73.6581412  23.9481967  23.4143429  73.0121206
  24.0862515  23.0063817  74.4634608  20.5288518  31.2898697  77.9828564
  20.9371874  30.8481108  77.2383196  19.8065780  30.7151325  78.2362756
  16.8819588  26.2271304  75.3562120  17.7280783  26.6510718  75.4996769
  16.8218226  25.5704928  76.0500684  20.8517333  31.8499888  71.7380852
  20.2226195  32.0145602  71.0356920  20.4642995  32.2641497  72.5091816
  24.7306565  32.7854326  69.0925216  24.0457603  33.1653227  68.5422250
  24.8150414  33.3949652  69.8257164  21.9857496  30.4314285  75.6920560
  22.1974392  31.0746045  75.0154941  21.9387245  29.5976601  75.2242490
  19.5883725  23.0432105  72.5957132  18.7268204  23.3413359  72.8873869
  19.6146160  23.2602504  71.6638164  16.4045295  31.5874296  69.0030938
  16.8683640  31.8661999  68.2135560  16.1402093  30.6857741  68.8204028
  13.2969376  31.1345778  71.9410701  13.8670733  31.5633046  71.3028185
  13.8877488  30.8528362  72.6394886  15.3414181  27.7097448  65.8120503
  16.0438224  28.1618492  66.2794429  15.0094809  27.0681267  66.4400396
   9.0839515  25.9681001  71.1137636   8.2938569  26.2238530  70.6377747
   9.5750762  26.7829339  71.2189677  23.1003324  33.3086240  73.8642917
  23.9220768  32.9066427  73.5825599  23.0965727  33.2054474  74.8159033
  11.0354260  26.3325580  68.0721113  10.2385423  26.4444274  68.5904609
  10.8079852  26.6712232  67.2062003  16.8659928  32.8570283  76.0203628
  16.9304360  33.3190691  76.8561799  16.1570852  32.2267648  76.1485937
  31.1909317  29.6524989  70.2127889  30.4373026  29.0832387  70.0571893
  31.3256859  29.6187653  71.1598523  16.5807945  34.5238391  65.8882608
  16.4453620  35.3689927  66.3167456  17.1217758  34.7257669  65.1248542
  10.0337343  32.0413829  66.4610533  10.5461863  32.8357079  66.6116098
  10.6860056  31.3440119  66.3944134  11.8432227  35.1579585  68.5433286
  12.0198856  36.0797550  68.3554270  12.6389061  34.8438004  68.9727666
  18.2076422  35.1461957  80.0182950  17.7640276  34.3598336  79.7003854
  18.8693635  35.3341108  79.3526841  12.9663543  36.6757759  74.5443628
  13.5170968  36.5474822  73.7720622  12.1275019  36.9752648  74.1938521
  20.3057660  35.4264757  78.0464351  20.2876135  36.2473638  77.5544620
  21.2277580  35.3018833  78.2714492  16.7630714  32.9408887  78.8887860
  17.2959051  32.1797175  78.6587168  16.2344795  32.6482539  79.6312014
   7.9986260  30.3702483  67.2370104   8.8361482  30.7799492  67.0203811
   8.1764527  29.4301925  67.2070297  19.8950692  28.0377564  62.9253936
  19.3797315  28.8082169  63.1642324  19.6228000  27.3642700  63.5486998
  17.4797803  22.8827265  67.9839175  16.6239399  22.4934115  67.8044814
  17.8924754  22.9619226  67.1238960  19.0096949  20.4173608  72.3830735
  18.5061745  20.3803743  71.5698540  19.3027556  21.3266351  72.4427391
  15.2539835  20.5012338  71.3896916  16.1192832  20.3055146  71.0302806
  15.3217344  20.2722689  72.3166273  24.8684966  30.7909919  64.8607110
  24.0914409  30.4521078  64.4162272  25.5476447  30.7962542  64.1862075
  19.6836995  25.9104656  64.7513718  19.3787130  26.2250805  65.6023861
  20.6367437  25.9886076  64.7941051  18.1283427  32.0694879  66.4006672
  17.6004788  31.3347639  66.0879909  17.6270929  32.8469556  66.1546640
  23.1076273  30.2643900  71.5173718  22.4499947  30.9543161  71.6053847
  23.9116672  30.6540332  71.8607704  12.8602154  22.7314546  68.7613283
  13.4345906  22.5089727  68.0286476  13.4473137  22.8003240  69.5141884
  21.9181732  28.6188273  69.5677660  22.4313613  29.2518264  70.0699369
  22.5682955  28.0189468  69.2021020  13.1871741  24.7619007  62.7809168
  12.3509054  25.0993693  63.1018443  13.0476511  24.6267986  61.8436305
  15.1624822  19.6055795  67.4888353  14.5089234  19.2904812  66.8644967
  15.1205296  18.9831535  68.2148176  16.2736027  29.8875090  59.4041645
  15.3663089  29.6564343  59.6032794  16.7707059  29.0912709  59.5915626
  19.1804106  38.5972597  62.3238331  18.5065805  38.9004294  62.9323289
  19.5669928  39.4001677  61.9743788  18.3962562  26.0937728  71.8136000
  17.4785124  26.3152675  71.6557688  18.8122706  26.1684039  70.9547708
  19.1797610  27.4929144  66.9438680  19.9269429  28.0050541  66.6345803
  19.4489200  27.1713196  67.8043074  17.4524260  29.9887684  63.9265635
  16.5435480  29.7046717  64.0238104  17.4819344  30.4086763  63.0668942
  22.6843528  33.5994274  67.6956802  22.2305855  32.7585184  67.7521993
  22.0537494  34.2355672  68.0331582  21.6276447  24.5286260  68.9257470
  20.8899204  24.0163646  69.2567712  21.8803221  24.0886642  68.1140747
  21.1276467  35.4370771  68.6306620  21.4199441  35.9975828  67.9118986
  21.6375088  35.7299332  69.3859780  21.7288075  17.3062512  69.5199239
  22.0346951  16.4459875  69.2325154  22.4540679  17.8980132  69.3198233
   8.0212431  27.7093199  67.9080837   7.8236831  27.1162559  67.1831904
   7.4659095  27.4045409  68.6256776  16.0009154  27.6016305  70.0275430
  16.0557764  26.6490141  69.9517907  15.1900356  27.7575744  70.5116729
  17.1500348  31.5296428  61.2653713  16.7119778  30.8132287  60.8059351
  17.8910789  31.7572543  60.7038805  13.9401514  26.2193365  67.7865809
  13.1269380  26.5187535  68.1931001  14.4360508  25.8249054  68.5040291
  16.0910092  36.2151122  69.7200074  16.0486271  36.4411968  68.7908606
  17.0072791  35.9814496  69.8685875  19.5375726  26.6835189  76.6180703
  19.8925114  26.9106662  77.4775169  20.1847857  27.0153566  75.9957958
  25.2673463  29.8053625  67.3230032  25.1291361  29.9955221  66.3951221
  24.9109682  30.5673008  67.7798083  13.4315589  23.7911720  73.4027044
  14.0714968  23.6500479  72.7050007  12.5993120  23.5046234  73.0265646
  25.2942843  31.8730152  72.3341303  25.7279349  31.7805441  73.1824357
  26.0074423  31.8487653  71.6961319  14.2075893  33.0914151  69.5162036
  15.0016491  32.5964471  69.3144611  13.4967585  32.5632014  69.1529742
  19.0270737  35.4732246  73.8674404  19.0807760  36.0423183  74.6352120
  18.1585519  35.6434131  73.5028441  10.5158656  27.2357233  65.5921789
   9.5856245  27.1741688  65.8091751  10.6116128  26.7133185  64.7958430
  10.4344205  23.7612045  68.1800031  10.6951023  24.6757379  68.0709191
  11.2561378  23.2936488  68.3296644  26.1558392  31.9153853  74.8674189
  26.3494282  32.8199663  75.1133464  26.0559010  31.4561272  75.7012774
  21.2173501  32.0660596  80.4415069  21.0659007  31.8371147  79.5245153
  21.2078180  33.0231197  80.4546414  17.9858837  29.6392508  75.4261336
  18.9150897  29.7903668  75.2530303  17.5649867  29.7276529  74.5709982
  16.7847169  33.6643173  73.1959873  16.6458255  33.2961957  74.0685812
  15.9961765  34.1790812  73.0243831  17.3795321  38.7652269  64.5385410
  17.5547077  38.2940312  65.3531033  16.6928109  39.3918035  64.7666671
  18.3352384  33.0424775  70.5848711  18.0002217  33.0025545  71.4806361
  17.8356330  32.3769491  70.1119121  21.2711576  30.3880810  60.8585771
  20.6540746  29.6627638  60.7618824  20.8028064  31.1490170  60.5152845
  14.9378929  28.1612365  75.5984972  15.6478547  27.5205557  75.5571590
  14.8948237  28.4125260  76.5211153  22.9265707  35.0979718  78.5191551
  22.8678254  34.4138938  77.8522134  23.3285226  35.8398708  78.0672177
  11.9456406  41.9141632  71.3125270  12.1853004  42.5460156  71.9904289
  11.1025603  41.5629672  71.5990629  13.0610122  24.6066234  59.9807075
  12.1839588  24.4855035  59.6169322  13.5367875  23.8152312  59.7285964
  22.9283115  33.0619302  76.7505531  22.0409893  32.7245224  76.8731930
  23.4981666  32.3302333  76.9874296   4.5812262  29.3943394  70.0748582
   5.2683302  29.0805124  69.4869598   4.4260390  30.2984758  69.8015834
  16.4584268  37.7220754  73.7166774  16.3854440  38.5275726  74.2286079
  16.0161661  37.9212720  72.8914796  16.2474048  36.9592524  67.2269596
  15.4641570  37.5014205  67.3207820  16.9466793  37.4766504  67.6263837
  19.5570698  22.7687154  69.8703801  20.0539397  22.0157116  69.5504871
  18.7857679  22.8051471  69.3047010  27.4100455  28.4727519  71.5122093
  27.3990331  29.3552235  71.1416026  26.5417835  28.1199070  71.3176630
  18.9182952  37.6207588  75.8724933  19.6310924  38.2555053  75.8000834
  18.4272980  37.7171454  75.0564935  20.6400478  31.5258841  67.4442224
  19.7056757  31.6460304  67.2746929  20.8177147  30.6231308  67.1802234
  16.1405667  24.9104537  69.5975486  15.7703454  24.3575577  70.2856391
  16.6364759  24.3062670  69.0450486  24.0273030  27.3676160  67.9792259
  24.4933482  28.2004152  67.9052561  24.4780530  26.9021142  68.6837517
  13.9694865  35.3702032  76.6930504  14.6704325  36.0038515  76.8459898
  13.4989980  35.7116763  75.9326143  22.0949261  33.7119982  64.9778411
  22.3709105  33.5976576  65.8872285  21.2253760  33.3137467  64.9390584
  21.9989693  19.7356747  72.0183160  21.0852772  19.9660974  72.1865367
  22.4282794  19.8195191  72.8697192  21.7696151  27.9246639  74.5183054
  21.1167601  28.1722547  73.8635507  22.1476531  27.1110778  74.1845531
  18.7303325  37.9606333  68.6211224  18.9125719  37.1427988  69.0838977
  19.5536311  38.1774025  68.1836114  19.0645490  36.8874518  65.8826273
  19.5933257  36.3766972  65.2696435  19.3273710  36.5717048  66.7471806
   9.5662583  34.9038387  73.6261606  10.1516020  34.1582075  73.7589511
   9.3687422  35.2142344  74.5098270  12.4201238  37.9389634  68.6424049
  11.7511614  38.4235762  68.1588089  12.2814108  38.1858855  69.5567427
  16.5606507  39.9733378  75.2406707  17.1124815  40.1364999  76.0055792
  16.9012700  40.5637816  74.5686732  21.4117381  34.7994635  81.0955361
  21.9557285  35.4124594  80.6010316  20.8304226  35.3574214  81.6122374
   7.7888815  26.2008089  65.4219981   8.0842257  25.2918768  65.3687035
   6.8876851  26.1795829  65.1000983  19.6974894  37.9215353  72.2270389
  19.5726034  37.1205093  71.7181335  20.3553985  38.4161547  71.7384359
  11.3183062  24.2764086  71.4047529  10.5969648  24.8900054  71.2655003
  12.1076318  24.8121851  71.3264175  21.7609803  35.7224374  73.8549939
  20.8140138  35.6029725  73.7828266  22.1092576  34.8346872  73.9376201
   9.5176657  23.8822187  65.5459306   9.1889363  23.0019566  65.3634412
   9.8716028  23.8269856  66.4335695  18.7656236  35.5177090  70.0554292
  18.6181198  34.5893797  70.2361862  19.5909729  35.5397180  69.5711367
  12.6318480  24.1695157  65.9134784  12.9714553  24.6981078  65.1913392
  13.0790601  24.5075563  66.6893350  22.3690358  36.3405648  71.1419164
  23.2936905  36.1348510  71.0043615  22.2005661  36.0922050  72.0508506
  14.6186627  22.6669778  64.1128076  15.3394990  23.0451031  63.6091793
  13.9951931  23.3858655  64.2163054  18.7617750  23.3714927  65.0486409
  18.9781365  24.2539565  64.7475237  18.2811817  22.9801141  64.3192051
  13.5016972  26.3300641  71.6257153  13.3561552  26.6440944  72.5181435
  13.0242175  26.9485541  71.0728052  15.3613355  23.3203189  71.6738043
  15.3474923  22.4244282  71.3370341  16.0785783  23.3273852  72.3076329
  17.2139485  23.7540529  73.7191170  16.9557263  24.6757599  73.7175501
  16.6824526  23.3570963  74.4091634  22.1585674  36.8591316  66.4981256
  22.3322552  36.2937738  65.7455108  22.6514565  37.6592211  66.3160746
  14.7650250  22.2017569  66.9425613  14.8866162  21.2734215  67.1416501
  14.4752293  22.2156255  66.0303928  17.6341441  19.8872479  70.0792333
  17.6563138  19.9511812  69.1244312  18.0509500  19.0476988  70.2732839
  28.0125065  29.6227739  68.1171555  28.4556211  28.8735064  67.7190679
  27.1351575  29.6137875  67.7345287  23.1460846  36.1758080  63.5978154
  23.8411751  36.7964773  63.8165469  23.4883997  35.3253432  63.8730532
  25.0452270  33.6257786  65.1265485  25.5703594  33.9645059  64.4014805
  24.9574622  32.6904801  64.9428619  16.7072318  37.5391859  77.2555361
  17.0159445  37.2941006  78.1278061  17.5047800  37.7438498  76.7674232
  16.7292930  39.6929769  69.4860738  16.2897921  39.2006148  70.1793595
  17.4801047  39.1502737  69.2452813   9.2085269  35.8841310  69.4885366
  10.0343289  35.5845082  69.1084010   8.8579321  35.1148932  69.9375155
  14.1766803  35.2367778  71.5583040  13.5546812  34.5738483  71.2585268
  14.8471669  35.2628910  70.8756687   7.4093874  33.8027636  70.4474300
   6.5725783  33.3749811  70.2658301   7.3817520  33.9960080  71.3845091
  24.7346176  34.2590689  80.4316683  23.9441719  34.2414828  79.8921182
  24.4979530  34.7978983  81.1865719  24.8544051  31.1083156  77.7449411
  24.9042056  30.9433163  78.6864934  24.7457974  30.2410415  77.3547292
  13.7380309  33.7871702  65.0341500  13.8868430  34.4707166  64.3808173
  14.5446753  33.7676792  65.5490956  26.3562248  33.5280097  77.9891433
  26.0647056  33.8910078  78.8254894  25.7434379  32.8147106  77.8104765
  27.5557930  31.0932977  70.5094003  28.3904821  31.5322781  70.6731563
  27.6917059  30.6171630  69.6902249  24.6049436  28.6512712  76.4571491
  25.0803557  28.8440358  75.6490342  23.6815001  28.7071898  76.2114874
  11.4932942  29.8136879  66.0402569  11.2478984  28.9099209  66.2382779
  11.6628857  29.8154030  65.0982047  10.7628590  25.5465237  63.5388731
  10.0697835  25.6209592  62.8828767  10.5180342  24.7825580  64.0610247
  19.4342246  17.1060838  70.9428221  19.7144000  16.4384027  71.5688648
  20.2192853  17.2989934  70.4302885  17.2375715  36.2819832  62.5053248
  16.6649682  36.9010019  62.0523719  17.8108509  36.8319194  63.0393170
  23.3051105  25.5278472  74.6899796  24.2568528  25.6276570  74.7112020
  23.1354555  24.7356741  75.1997881  21.3265484  22.6134055  74.8759197
  20.7315416  22.8939068  74.1805686  21.0415181  23.1027956  75.6475938
  20.4572975  36.5656982  63.6361830  21.3903648  36.5002544  63.8394705
  20.3696188  37.4013249  63.1776363  23.0860991  35.8822852  60.5965777
  23.0074623  35.5482716  61.4901535  23.9070658  36.3744620  60.5957250
  25.7839183  28.7484592  73.8042096  25.7515503  27.8100592  73.9901780
  26.3939806  28.8268628  73.0707921  17.6222513  27.6180645  59.8469300
  18.5681618  27.4886853  59.9157718  17.2436758  26.8795307  60.3238728
  25.9333671  25.5395635  73.8500379  25.4172720  24.7554092  73.6630308
  26.8173620  25.2114352  74.0146899  23.5944398  19.2836651  69.8096192
  23.3969219  18.9751739  70.6939524  24.2044104  20.0098290  69.9394122
  31.6015732  29.8100599  72.9448133  32.3319121  29.5485887  73.5055836
  30.9922678  29.0729321  72.9850201  29.6831030  27.9508461  73.5422584
  28.9564193  27.8164426  72.9339076  29.2678316  28.2585290  74.3479302
  15.8065431  25.5430621  59.7824185  14.8996886  25.2463734  59.8586899
  16.0841412  25.2460439  58.9158472   6.7243371  26.8636985  70.2323232
   6.4046155  26.0102293  69.9397606   6.1776799  27.0785563  70.9881199
  10.5023279  29.5799426  73.9492738  10.7209288  30.5116533  73.9680772
  10.9149052  29.2207400  74.7347542  17.4227496  20.0867511  65.9368427
  16.6128225  19.7414596  66.3123673  18.1111913  19.7775055  66.5256038
  19.3518045  19.1645558  67.5592723  19.9049083  19.5841011  68.2182746
  19.5888131  18.2381306  67.6015679  14.5764215  22.4017556  59.9236165
  15.4383379  22.7272455  60.1831982  14.7614559  21.6149052  59.4109230
   6.5931631  30.4839896  72.2016353   5.8995102  30.0693849  71.6886308
   7.3404622  30.5260433  71.6049772  22.7296852  21.2746083  67.0671388
  22.1495521  21.9330887  66.6849440  22.4632784  20.4523427  66.6558805
  21.1800418  20.6751141  69.2692708  21.6800196  20.7867675  68.4607027
  21.8236026  20.3712193  69.9093516   8.5068373  30.4158150  70.0782368
   8.4839062  30.5145837  69.1264251   8.8169010  31.2623301  70.3999534
  11.1655751  32.4734305  74.1928983  12.1199005  32.4418247  74.1258914
  10.9668275  32.0124929  75.0079209  11.7555133  31.0435421  76.7599780
  12.5748022  31.5379500  76.7834618  12.0291941  30.1267389  76.7317348
  21.5121730  23.4346173  66.1227736  20.6247585  23.7195824  65.9047931
  21.9275719  23.2739937  65.2755013  24.8636266  23.4592694  69.8382075
  25.6396656  23.9489147  70.1106692  24.1384400  23.8850748  70.2953945
  27.3008824  24.1720313  70.8956016  27.8953315  23.9316049  70.1849324
  27.3735408  23.4527444  71.5229552   9.5205980  38.0153924  71.2099180
   9.3860448  37.2554325  70.6437179   9.1038042  38.7394824  70.7427969
  20.6564943  33.1990848  60.2175756  21.3600793  33.4040850  60.8333411
  19.9327592  33.7667610  60.4824839  21.4862753  28.9500709  66.3378026
  21.4297955  29.4069261  65.4985658  22.0391096  28.1891394  66.1600869
  25.2967559  24.7390441  67.1628145  25.0404494  24.3387077  67.9936353
  24.6720427  25.4534235  67.0378285  29.6079897  27.4786514  69.6699437
  29.0479455  27.5479704  70.4430999  29.0023401  27.3027499  68.9498933
  12.6775106  38.9123241  71.4217623  12.5607490  39.8568674  71.3196313
  11.8567552  38.6096803  71.8103422  22.5651641  33.6373377  62.2674216
  23.3997245  33.2054576  62.0851691  22.4035983  33.4655391  63.1951110
  22.2197533  30.1405490  63.6330555  22.1646337  29.9749762  62.6918999
  21.5943588  30.8481523  63.7892745  15.5293658  19.6413599  63.2115874
  15.5172328  20.5855439  63.3684144  16.4217080  19.4583745  62.9175335
  13.7029620  39.5651503  74.6373552  14.6056867  39.5975114  74.9540047
  13.4766990  38.6351954  74.6519887  15.4583222  38.3182490  71.2983630
  14.5078853  38.3184351  71.1848002  15.7615708  37.5715224  70.7819665
  19.3445778  16.2356376  67.4661810  18.5778173  15.6814863  67.6118493
  19.7556483  16.3078245  68.3275962  31.1935916  44.1543028  72.3629393
  31.8314326  44.0349776  71.6592733  31.0756759  45.1023872  72.4217345
  28.0025622  44.1070456  72.2990917  27.6644133  43.9911521  71.4111452
  28.8715390  43.7061621  72.2791923  23.8612438  45.9605933  68.2887808
  23.2977303  45.8695870  67.5204096  23.7464833  45.1405837  68.7690301
  28.4845405  45.2605308  78.2577123  28.4734046  44.8658106  77.3857626
  28.6466044  44.5271381  78.8510894  21.4076870  47.4557124  71.1272029
  22.1998161  47.1147949  70.7118328  21.6473520  47.5652099  72.0474182
  23.3667624  46.7166038  63.9989407  24.1398500  46.1695025  63.8602283
  23.7193022  47.5810287  64.2103869  25.2052666  48.0442420  77.2056307
  24.9142532  48.9488051  77.0902973  25.8409650  48.0858947  77.9200376
  26.1308873  45.4219268  73.7957666  26.7272445  45.1975291  73.0814629
  26.1883844  44.6804014  74.3983114  25.7033901  42.8758704  61.6307857
  25.9559422  42.3540225  60.8691320  24.7658460  42.7124849  61.7334541
  30.7477184  41.8794482  69.4382601  31.5340273  41.4613905  69.0873018
  31.0115888  42.7840574  69.6064249  36.1485611  41.8169715  70.3415579
  36.8810783  41.2468932  70.5753409  35.3924967  41.4291316  70.7822085
  25.4230190  44.7786810  63.8332232  25.3066448  44.1031713  64.5013317
  25.5332450  44.2919184  63.0164385  27.7661731  44.2396957  67.5378922
  27.4019938  43.7127578  68.2491843  28.6228847  43.8495426  67.3645407
  33.6711032  35.5291289  74.8010188  33.3394356  36.3986700  74.5771403
  33.0756645  35.2127573  75.4804218  27.4067218  39.2686856  62.5340270
  27.5741620  40.1367093  62.9010741  27.2164387  39.4314138  61.6101559
  30.1642551  47.7303835  74.2006100  29.8643274  48.6328874  74.0921908
  29.8193611  47.4636019  75.0527253  23.6155033  44.1817632  70.2342805
  22.6905529  44.0493846  70.4420497  23.8639446  44.9611851  70.7312747
  33.5639695  40.2486376  71.8803538  32.6556572  40.1801784  71.5862299
  33.5127291  40.7258320  72.7085363  27.3856439  41.7244514  63.5186937
  27.2656064  42.1701565  64.3572417  26.6909027  42.0729832  62.9600475
  20.9763844  43.8250906  71.0686594  21.1056225  44.0785385  71.9826006
  20.2961295  44.4178614  70.7491249  25.1463331  54.4948156  67.1677068
  25.0687361  55.4455981  67.2465549  24.5424975  54.1494028  67.8251994
  27.6380561  41.6676021  79.8238435  26.8613895  42.2269941  79.8141300
  28.2771124  42.1532804  80.3453305  35.4301341  38.4502814  73.6581412
  34.7875722  38.7435347  73.0121206  34.9256270  38.3355734  74.4634608
  25.8926933  44.4761474  79.3856402  26.6341617  45.0146518  79.1091226
  25.1863919  45.1027763  79.5427954  31.3682273  46.6190615  77.9828564
  31.7765629  46.1773025  77.2383196  30.6459534  46.0443242  78.2362756
  27.7213343  41.5563222  75.3562120  28.5674538  41.9802635  75.4996769
  27.6611980  40.8996846  76.0500684  31.6911087  47.1791806  71.7380852
  31.0619950  47.3437520  71.0356920  31.3036749  47.5933415  72.5091816
  35.5700319  48.1146243  69.0925216  34.8851357  48.4945145  68.5422250
  35.6544169  48.7241570  69.8257164  30.8712788  39.2167590  77.0143294
  30.6273720  39.9709651  76.4777570  31.1472719  39.5952938  77.8490541
  32.8251251  45.7606202  75.6920560  33.0368146  46.4037962  75.0154941
  32.7780999  44.9268519  75.2242490  30.4277480  38.3724023  72.5957132
  29.5661959  38.6705277  72.8873869  30.4539914  38.5894422  71.6638164
  27.2439049  46.9166214  69.0030938  27.7077395  47.1953917  68.2135560
  26.9795847  46.0149658  68.8204028  24.1363130  46.4637695  71.9410701
  24.7064487  46.8924964  71.3028185  24.7271242  46.1820280  72.6394886
  26.1807935  43.0389366  65.8120503  26.8831979  43.4910410  66.2794429
  25.8488564  42.3973185  66.4400396  24.6288297  41.6301123  80.1871712
  23.9986957  42.3117403  80.4207109  24.5224385  41.5184204  79.2424850
  19.9233269  41.2972919  71.1137636  19.1332323  41.5530447  70.6377747
  20.4144517  42.1121257  71.2189677  33.9397079  48.6378158  73.8642917
  34.7614523  48.2358345  73.5825599  33.9359482  48.5346392  74.8159033
  21.8748015  41.6617498  68.0721113  21.0779178  41.7736192  68.5904609
  21.6473607  42.0004150  67.2062003  27.7053682  48.1862201  76.0203628
  27.7698115  48.6482608  76.8561799  26.9964606  47.5559566  76.1485937
  18.2070972  41.5503409  73.5452627  18.4579011  42.4350419  73.8110203
  18.7430521  41.3708011  72.7727719  42.0303072  44.9816906  70.2127889
  41.2766780  44.4124304  70.0571893  42.1650613  44.9479571  71.1598523
  27.4201700  49.8530309  65.8882608  27.2847375  50.6981844  66.3167456
  27.9611512  50.0549586  65.1248542  23.9069040  35.9321888  82.5496963
  23.5135985  35.3788087  83.2244607  24.7235180  36.2432467  82.9403481
  20.8731097  47.3705747  66.4610533  21.3855618  48.1648997  66.6116098
  21.5253810  46.6732037  66.3944134  22.6825982  50.4871503  68.5433286
  22.8592610  51.4089468  68.3554270  23.4782815  50.1729922  68.9727666
  26.8237001  37.3479768  80.1417220  27.5646714  37.9486921  80.0621682
  27.0554923  36.6057405  79.5835262  21.9678339  42.5336135  78.4195449
  21.8531854  41.6321392  78.7202548  21.1122856  42.7799832  78.0680266
  29.0470176  50.4753875  80.0182950  28.6034030  49.6890254  79.7003854
  29.7087390  50.6633026  79.3526841  23.8057297  52.0049677  74.5443628
  24.3564723  51.8766740  73.7720622  22.9668773  52.3044566  74.1938521
  31.1451414  50.7556675  78.0464351  31.1269890  51.5765556  77.5544620
  32.0671334  50.6310750  78.2714492  27.6024468  48.2700805  78.8887860
  28.1352805  47.5089093  78.6587168  27.0738550  47.9774456  79.6312014
  30.7694163  33.3760871  74.4181501  30.4258433  34.2662512  74.3420612
  31.1373126  33.1862528  73.5551086  18.8380014  45.6994401  67.2370104
  19.6755236  46.1091409  67.0203811  19.0158282  44.7593843  67.2070297
  28.3191557  38.2119182  67.9839175  27.4633154  37.8226033  67.8044814
  28.7318509  38.2911143  67.1238960  29.8490704  35.7465526  72.3830735
  29.3455499  35.7095661  71.5698540  30.1421311  36.6558268  72.4427391
  26.0933590  35.8304255  71.3896916  26.9586586  35.6347064  71.0302806
  26.1611099  35.6014607  72.3166273  30.5230749  41.2396574  64.7513718
  30.2180885  41.5542723  65.6023861  31.4761191  41.3177994  64.7941051
  28.9677181  47.3986797  66.4006672  28.4398543  46.6639557  66.0879909
  28.4664684  48.1761473  66.1546640  33.9470027  45.5935818  71.5173718
  33.2893702  46.2835079  71.6053847  34.7510426  45.9832249  71.8607704
  23.6995909  38.0606463  68.7613283  24.2739661  37.8381645  68.0286476
  24.2866891  38.1295158  69.5141884  32.7575486  43.9480190  69.5677660
  33.2707368  44.5810182  70.0699369  33.4076710  43.3481386  69.2021020
  24.0265496  40.0910924  62.7809168  23.1902808  40.4285611  63.1018443
  23.8870266  39.9559904  61.8436305  26.0018577  34.9347712  67.4888353
  25.3482989  34.6196729  66.8644967  25.9599051  34.3123453  68.2148176
  27.1129781  45.2167007  59.4041645  26.2056843  44.9856261  59.6032794
  27.6100813  44.4204627  59.5915626  30.0197860  53.9264514  62.3238331
  29.3459559  54.2296211  62.9323289  30.4063682  54.7293595  61.9743788
  29.2356317  41.4229646  71.8136000  28.3178878  41.6444593  71.6557688
  29.6516460  41.4975956  70.9547708  30.0191365  42.8221061  66.9438680
  30.7663184  43.3342459  66.6345803  30.2882954  42.5005114  67.8043074
  33.5237282  48.9286192  67.6956802  33.0699609  48.0877102  67.7521993
  32.8931249  49.5647590  68.0331582  32.4670202  39.8578178  68.9257470
  31.7292959  39.3455564  69.2567712  32.7196975  39.4178559  68.1140747
  31.9670221  50.7662688  68.6306620  32.2593196  51.3267745  67.9118986
  32.4768842  51.0591249  69.3859780  32.5681829  32.6354430  69.5199239
  32.8740706  31.7751793  69.2325154  33.2934434  33.2272050  69.3198233
  18.8606185  43.0385116  67.9080837  18.6630585  42.4454477  67.1831904
  18.3052849  42.7337326  68.6256776  26.8402909  42.9308223  70.0275430
  26.8951519  41.9782059  69.9517907  26.0294111  43.0867662  70.5116729
  24.7795269  41.5485283  67.7865809  23.9663134  41.8479453  68.1931001
  25.2754263  41.1540971  68.5040291  26.9303847  51.5443039  69.7200074
  26.8880025  51.7703886  68.7908606  27.8466546  51.3106414  69.8685875
  30.3769480  42.0127107  76.6180703  30.7318868  42.2398580  77.4775169
  31.0241612  42.3445484  75.9957958  36.1067217  45.1345543  67.3230032
  35.9685116  45.3247139  66.3951221  35.7503436  45.8964926  67.7798083
  24.2709344  39.1203638  73.4027044  24.9108723  38.9792397  72.7050007
  23.4386874  38.8338151  73.0265646  36.1336597  47.2022070  72.3341303
  36.5673104  47.1097359  73.1824357  36.8468178  47.1779570  71.6961319
  25.0469647  48.4206068  69.5162036  25.8410246  47.9256389  69.3144611
  24.3361340  47.8923932  69.1529742  29.8664492  50.8024164  73.8674404
  29.9201514  51.3715100  74.6352120  28.9979273  50.9726049  73.5028441
  21.3552411  42.5649150  65.5921789  20.4249999  42.5033606  65.8091751
  21.4509883  42.0425103  64.7958430  21.2737960  39.0903963  68.1800031
  21.5344777  40.0049296  68.0709191  22.0955132  38.6228406  68.3296644
  22.7462885  40.5041720  75.3498855  23.4185939  40.2959082  74.7011504
  21.9192672  40.3063806  74.9104088  36.9952147  47.2445771  74.8674189
  37.1888037  48.1491581  75.1133464  36.8952765  46.7853190  75.7012774
  28.6488457  37.1303661  77.3664516  28.0016372  37.8293611  77.2728993
  29.4189473  37.5639805  77.7340764  32.0567255  47.3952513  80.4415069
  31.9052762  47.1663065  79.5245153  32.0471935  48.3523115  80.4546414
  28.8252592  44.9684426  75.4261336  29.7544652  45.1195586  75.2530303
  28.4043622  45.0568447  74.5709982  27.6240923  48.9935090  73.1959873
  27.4852009  48.6253875  74.0685812  26.8355520  49.5082730  73.0243831
  28.2189075  54.0944187  64.5385410  28.3940831  53.6232230  65.3531033
  27.5321863  54.7209953  64.7666671  29.1746139  48.3716693  70.5848711
  28.8395971  48.3317463  71.4806361  28.6750084  47.7061409  70.1119121
  23.1490383  43.7784323  76.1101292  23.0110180  43.0464562  76.7112831
  24.0595306  43.6893223  75.8285480  25.7772683  43.4904282  75.5984972
  26.4872302  42.8497475  75.5571590  25.7341991  43.7417177  76.5211153
  33.7659462  50.4271636  78.5191551  33.7072008  49.7430856  77.8522134
  34.1678980  51.1690626  78.0672177  24.4901617  40.4769500  77.4180612
  23.9538974  40.0260239  78.0702208  23.9018326  40.6115409  76.6751076
  22.7850161  57.2433550  71.3125270  23.0246759  57.8752074  71.9904289
  21.9419357  56.8921590  71.5990629  23.9003876  39.9358152  59.9807075
  23.0233342  39.8146953  59.6169322  24.3761629  39.1444230  59.7285964
  33.7676869  48.3911220  76.7505531  32.8803648  48.0537142  76.8731930
  34.3375420  47.6594251  76.9874296  15.4206016  44.7235312  70.0748582
  16.1077056  44.4097042  69.4869598  15.2654145  45.6276676  69.8015834
  20.2240738  39.6125508  74.5033606  20.1398927  39.0051178  73.7684016
  19.4023445  40.1034526  74.5043102  27.2978023  53.0512672  73.7166774
  27.2248194  53.8567644  74.2286079  26.8555416  53.2504638  72.8914796
  27.0867802  52.2884442  67.2269596  26.3035324  52.8306122  67.3207820
  27.7860547  52.8058422  67.6263837  30.3964452  38.0979072  69.8703801
  30.8933152  37.3449034  69.5504871  29.6251434  38.1343388  69.3047010
  38.2494210  43.8019437  71.5122093  38.2384086  44.6844153  71.1416026
  37.3811589  43.4490988  71.3176630  29.7576706  52.9499506  75.8724933
  30.4704678  53.5846971  75.8000834  29.2666735  53.0463372  75.0564935
  31.4794233  46.8550759  67.4442224  30.5450512  46.9752221  67.2746929
  31.6570901  45.9523226  67.1802234  26.9799421  40.2396455  69.5975486
  26.6097209  39.6867495  70.2856391  27.4758513  39.6354588  69.0450486
  34.8666784  42.6968078  67.9792259  35.3327237  43.5296070  67.9052561
  35.3174285  42.2313060  68.6837517  24.8088620  50.6993950  76.6930504
  25.5098079  51.3330433  76.8459898  24.3383735  51.0408681  75.9326143
  32.8383447  35.0648665  72.0183160  31.9246527  35.2952892  72.1865367
  33.2676549  35.1487109  72.8697192  32.6089906  43.2538557  74.5183054
  31.9561356  43.5014465  73.8635507  32.9870285  42.4402695  74.1845531
  29.5697079  53.2898250  68.6211224  29.7519474  52.4719906  69.0838977
  30.3930065  53.5065942  68.1836114  29.9039245  52.2166435  65.8826273
  30.4327011  51.7058890  65.2696435  30.1667465  51.9008966  66.7471806
  28.6577479  43.9958368  81.0049091  27.9818116  43.8952497  81.6751466
  29.4805112  43.8397582  81.4685088  20.4056338  50.2330305  73.6261606
  20.9909774  49.4873993  73.7589511  20.2081176  50.5434261  74.5098270
  23.2594993  53.2681552  68.6424049  22.5905368  53.7527680  68.1588089
  23.1207863  53.5150772  69.5567427  14.9973992  42.8035905  72.3466049
  15.0358092  42.2699496  73.1403168  14.4914285  42.2771110  71.7277027
  27.4000261  55.3025296  75.2406707  27.9518569  55.4656917  76.0055792
  27.7406455  55.8929733  74.5686732  22.3764755  37.6500445  75.8428592
  22.4406081  38.5115276  75.4305989  22.3131875  37.0374447  75.1100950
  21.8517027  39.7223578  79.4901626  22.4789066  39.3400655  80.1039150
  20.9944946  39.5037780  79.8557319  32.2511136  50.1286553  81.0955361
  32.7951040  50.7416511  80.6010316  31.6697981  50.6866131  81.6122374
  18.6282570  41.5300007  65.4219981  18.9236011  40.6210685  65.3687035
  17.7270606  41.5087746  65.1000983  30.5368649  53.2507271  72.2270389
  30.4119788  52.4497011  71.7181335  31.1947740  53.7453464  71.7384359
  22.1576817  39.6056004  71.4047529  21.4363403  40.2191971  71.2655003
  22.9470073  40.1413768  71.3264175  32.6003557  51.0516291  73.8549939
  31.6533893  50.9321642  73.7828266  32.9486330  50.1638789  73.9376201
  24.9603131  36.9410430  77.6788181  25.4837532  37.1872727  78.4414491
  24.7415464  37.7730465  77.2591319  20.3570412  39.2114105  65.5459306
  20.0283118  38.3311484  65.3634412  20.7109782  39.1561773  66.4335695
  29.6049990  50.8469007  70.0554292  29.4574953  49.9185715  70.2361862
  30.4303484  50.8689098  69.5711367  23.4712235  39.4987074  65.9134784
  23.8108307  40.0272996  65.1913392  23.9184355  39.8367481  66.6893350
  33.2084112  51.6697566  71.1419164  34.1330660  51.4640427  71.0043615
  33.0399416  51.4213967  72.0508506  26.1655676  37.8824125  75.3637852
  25.8252496  37.0831938  75.7658532  25.4594682  38.1825836  74.7914685
  26.8172147  34.9673438  73.8165175  27.6398217  34.4933916  73.6944065
  27.0610211  35.7463921  74.3163861  25.4580382  37.9961696  64.1128076
  26.1788744  38.3742949  63.6091793  24.8345686  38.7150573  64.2163054
  29.6011505  38.7006845  65.0486409  29.8175119  39.5831483  64.7475237
  29.1205572  38.3093058  64.3192051  24.3410726  41.6592558  71.6257153
  24.1955307  41.9732861  72.5181435  23.8635930  42.2777459  71.0728052
  26.2007109  38.6495106  71.6738043  26.1868678  37.7536200  71.3370341
  26.9179537  38.6565770  72.3076329  28.0533240  39.0832446  73.7191170
  27.7951018  40.0049517  73.7175501  27.5218280  38.6862881  74.4091634
  32.9979428  52.1883234  66.4981256  33.1716306  51.6229656  65.7455108
  33.4908320  52.9884128  66.3160746  18.8156388  44.1997903  74.5644815
  18.2709856  44.9757711  74.6965089  19.6935738  44.5468707  74.4063936
  25.6044005  37.5309487  66.9425613  25.7259916  36.6026133  67.1416501
  25.3146047  37.5448172  66.0303928  28.4735195  35.2164397  70.0792333
  28.4956892  35.2803730  69.1244312  28.8903254  34.3768906  70.2732839
  38.8518820  44.9519657  68.1171555  39.2949966  44.2026982  67.7190679
  37.9745330  44.9429793  67.7345287  33.9854601  51.5049998  63.5978154
  34.6805506  52.1256691  63.8165469  34.3277751  50.6545349  63.8730532
  19.6022410  43.3267799  77.4574971  18.8604146  43.4750434  78.0439602
  19.2815154  43.5876065  76.5941721  27.5466073  52.8683777  77.2555361
  27.8553199  52.6232924  78.1278061  28.3441555  53.0730416  76.7674232
  27.5686685  55.0221687  69.4860738  27.1291675  54.5298065  70.1793595
  28.3194802  54.4794654  69.2452813  20.0479024  51.2133228  69.4885366
  20.8737044  50.9137000  69.1084010  19.6973076  50.4440850  69.9375155
  25.0160557  50.5659696  71.5583040  24.3940566  49.9030401  71.2585268
  25.6865424  50.5920828  70.8756687  18.2487629  49.1319554  70.4474300
  17.4119537  48.7041728  70.2658301  18.2211274  49.3251997  71.3845091
  25.0885084  39.0441484  81.1515546  25.1373240  39.9203607  80.7693315
  25.6307599  38.5018877  80.5787189  35.5739930  49.5882607  80.4316683
  34.7835474  49.5706746  79.8921182  35.3373285  50.1270901  81.1865719
  35.6937805  46.4375074  77.7449411  35.7435810  46.2725081  78.6864934
  35.5851729  45.5702333  77.3547292  24.5774064  49.1163619  65.0341500
  24.7262184  49.7999084  64.3808173  25.3840507  49.0968709  65.5490956
  32.9841568  42.4206002  79.0608718  33.8851430  42.2812466  78.7692716
  33.0589542  42.5860456  80.0006895  27.3184373  39.7972856  77.9061904
  26.4487682  40.0906422  77.6344493  27.5543853  40.3813301  78.6269168
  37.1956002  48.8572015  77.9891433  36.9040810  49.2201996  78.8254894
  36.5828133  48.1439023  77.8104765  38.3951684  46.4224895  70.5094003
  39.2298576  46.8614699  70.6731563  38.5310813  45.9463548  69.6902249
  35.4443190  43.9804630  76.4571491  35.9197312  44.1732276  75.6490342
  34.5208756  44.0363815  76.2114874  22.3326697  45.1428797  66.0402569
  22.0872739  44.2391127  66.2382779  22.5022611  45.1445947  65.0982047
  30.0223407  36.0152473  75.4227325  30.5405351  36.7513500  75.0973813
  29.6678540  36.3216467  76.2574084  21.6022344  40.8757154  63.5388731
  20.9091589  40.9501509  62.8828767  21.3574096  40.1117498  64.0610247
  30.2736001  32.4352756  70.9428221  30.5537755  31.7675945  71.5688648
  31.0586608  32.6281851  70.4302885  28.0769469  51.6111750  62.5053248
  27.5043437  52.2301937  62.0523719  28.6502263  52.1611111  63.0393170
  34.1444859  40.8570390  74.6899796  35.0962282  40.9568487  74.7112020
  33.9748310  40.0648658  75.1997881  32.1659239  37.9425973  74.8759197
  31.5709171  38.2230986  74.1805686  31.8808935  38.4319874  75.6475938
  36.6232937  44.0776509  73.8042096  36.5909257  43.1392510  73.9901780
  37.2333561  44.1560546  73.0707921  36.7727426  40.8687553  73.8500379
  36.2566474  40.0846010  73.6630308  37.6567374  40.5406269  74.0146899
  34.4338152  34.6128568  69.8096192  34.2362974  34.3043657  70.6939524
  35.0437858  35.3390207  69.9394122  42.4409487  45.1392516  72.9448133
  43.1712875  44.8777804  73.5055836  41.8316432  44.4021238  72.9850201
  40.5224784  43.2800379  73.5422584  39.7957948  43.1456344  72.9339076
  40.1072071  43.5877207  74.3479302  28.3454960  46.9990309  81.3069957
  29.2657970  47.1768908  81.5010004  28.3104543  46.0546354  81.1549656
  17.5637125  42.1928902  70.2323232  17.2439910  41.3394210  69.9397606
  17.0170554  42.4077480  70.9881199  21.3417033  44.9091343  73.9492738
  21.5603043  45.8408451  73.9680772  21.7542807  44.5499318  74.7347542
  28.2621251  35.4159429  65.9368427  27.4521979  35.0706513  66.3123673
  28.9505668  35.1066972  66.5256038  30.1911799  34.4937475  67.5592723
  30.7442838  34.9132929  68.2182746  30.4281885  33.5673223  67.6015679
  26.2144898  40.4824549  83.3395487  26.1141625  41.4318906  83.2707578
  25.9966440  40.1542788  82.4671557  25.4157970  37.7309474  59.9236165
  26.2777134  38.0564372  60.1831982  25.6008314  36.9440970  59.4109230
  17.4325385  45.8131814  72.2016353  16.7388857  45.3985767  71.6886308
  18.1798376  45.8552350  71.6049772  33.5690606  36.6038000  67.0671388
  32.9889275  37.2622805  66.6849440  33.3026539  35.7815345  66.6558805
  32.0194173  36.0043058  69.2692708  32.5193951  36.1159593  68.4607027
  32.6629780  35.7004111  69.9093516  26.0776168  43.9121688  82.1560549
  25.5943250  44.7122048  82.3624438  26.1637107  43.9229633  81.2027993
  19.3462128  45.7450067  70.0782368  19.3232816  45.8437755  69.1264251
  19.6562764  46.5915218  70.3999534  22.0049506  47.8026223  74.1928983
  22.9592759  47.7710165  74.1258914  21.8062029  47.3416846  75.0079209
  22.5948888  46.3727339  76.7599780  23.4141777  46.8671417  76.7834618
  22.8685696  45.4559307  76.7317348  32.3515484  38.7638091  66.1227736
  31.4641339  39.0487741  65.9047931  32.7669473  38.6031854  65.2755013
  35.7030020  38.7884612  69.8382075  36.4790410  39.2781064  70.1106692
  34.9778154  39.2142666  70.2953945  38.1402579  39.5012231  70.8956016
  38.7347070  39.2607967  70.1849324  38.2129163  38.7819362  71.5229552
  20.3599735  53.3445842  71.2099180  20.2254203  52.5846243  70.6437179
  19.9431797  54.0686742  70.7427969  32.3256508  44.2792627  66.3378026
  32.2691709  44.7361178  65.4985658  32.8784850  43.5183311  66.1600869
  36.1361314  40.0682359  67.1628145  35.8798248  39.6678994  67.9936353
  35.5114182  40.7826153  67.0378285  40.4473652  42.8078432  69.6699437
  39.8873210  42.8771621  70.4430999  39.8417155  42.6319417  68.9498933
  23.5168861  54.2415159  71.4217623  23.4001245  55.1860592  71.3196313
  22.6961307  53.9388721  71.8103422  17.8483802  40.7065472  77.4591977
  18.4942666  40.1964426  77.9479203  17.6400953  41.4434154  78.0335403
  30.3737194  47.7746320  82.9584118  31.2428354  47.9486972  82.5970753
  29.8943946  48.5940737  82.8359847  26.3687413  34.9705517  63.2115874
  26.3566083  35.9147357  63.3684144  27.2610835  34.7875662  62.9175335
  24.5423375  54.8943421  74.6373552  25.4450621  54.9267031  74.9540047
  24.3160745  53.9643872  74.6519887  26.2976977  53.6474407  71.2983630
  25.3472608  53.6476269  71.1848002  26.6009463  52.9007142  70.7819665
  30.1839532  31.5648294  67.4661810  29.4171928  31.0106780  67.6118493
  30.5950237  31.6370162  68.3275962  22.1881293  37.8533089  81.5566992
  23.0512755  37.4969894  81.7670316  21.6146704  37.5146984  82.2442396
  42.0329670  59.4834946  72.3629393  42.6708080  59.3641693  71.6592733
  41.9150513  60.4315790  72.4217345  38.8419376  59.4362374  72.2990917
  38.5037888  59.3203439  71.4111452  39.7109145  59.0353539  72.2791923
  34.7006192  61.2897850  68.2887808  34.1371057  61.1987787  67.5204096
  34.5858587  60.4697755  68.7690301  39.3239159  60.5897226  78.2577123
  39.3127800  60.1950024  77.3857626  39.4859799  59.8563298  78.8510894
  32.2470624  62.7849042  71.1272029  33.0391916  62.4439867  70.7118328
  32.4867274  62.8944017  72.0474182  36.0446421  63.3734337  77.2056307
  35.7536287  64.2779968  77.0902973  36.6803405  63.4150865  77.9200376
  36.9702627  60.7511186  73.7957666  37.5666200  60.5267208  73.0814629
  37.0277599  60.0095931  74.3983114  41.5870939  57.2086400  69.4382601
  42.3734028  56.7905823  69.0873018  41.8509643  58.1132492  69.6064249
  46.9879366  57.1461633  70.3415579  47.7204538  56.5760850  70.5753409
  46.2318721  56.7583233  70.7822085  44.5104786  50.8583207  74.8010188
  44.1788111  51.7278618  74.5771403  43.9150400  50.5419491  75.4804218
  41.0036306  63.0595753  74.2006100  40.7037029  63.9620792  74.0921908
  40.6587365  62.7927936  75.0527253  34.4548787  59.5109550  70.2342805
  33.5299284  59.3785764  70.4420497  34.7033200  60.2903769  70.7312747
  44.4033449  55.5778293  71.8803538  43.4950327  55.5093702  71.5862299
  44.3521045  56.0550238  72.7085363  31.8157598  59.1542823  71.0686594
  31.9449979  59.4077302  71.9826006  31.1355049  59.7470531  70.7491249
  35.9857085  69.8240073  67.1677068  35.9081115  70.7747898  67.2465549
  35.3818729  69.4785946  67.8251994  38.4774315  56.9967939  79.8238435
  37.7007649  57.5561859  79.8141300  39.1164878  57.4824722  80.3453305
  46.2695096  53.7794732  73.6581412  45.6269476  54.0727265  73.0121206
  45.7650024  53.6647652  74.4634608  36.7320688  59.8053392  79.3856402
  37.4735372  60.3438436  79.1091226  36.0257673  60.4319681  79.5427954
  42.2076027  61.9482533  77.9828564  42.6159383  61.5064943  77.2383196
  41.4853289  61.3735160  78.2362756  38.5607097  56.8855139  75.3562120
  39.4068292  57.3094553  75.4996769  38.5005735  56.2288764  76.0500684
  42.5304842  62.5083723  71.7380852  41.9013704  62.6729437  71.0356920
  42.1430504  62.9225333  72.5091816  41.7106543  54.5459508  77.0143294
  41.4667474  55.3001568  76.4777570  41.9866473  54.9244855  77.8490541
  43.6645005  61.0898120  75.6920560  43.8761901  61.7329880  75.0154941
  43.6174754  60.2560437  75.2242490  41.2671234  53.7015941  72.5957132
  40.4055713  53.9997194  72.8873869  41.2933669  53.9186340  71.6638164
  38.0832804  62.2458131  69.0030938  38.5471149  62.5245834  68.2135560
  37.8189602  61.3441576  68.8204028  34.9756885  61.7929613  71.9410701
  35.5458242  62.2216881  71.3028185  35.5664997  61.5112198  72.6394886
  35.4682051  56.9593040  80.1871712  34.8380712  57.6409321  80.4207109
  35.3618139  56.8476122  79.2424850  30.7627024  56.6264836  71.1137636
  29.9726078  56.8822365  70.6377747  31.2538271  57.4413174  71.2189677
  44.7790833  63.9670076  73.8642917  45.6008277  63.5650263  73.5825599
  44.7753236  63.8638310  74.8159033  32.7141769  56.9909416  68.0721113
  31.9172932  57.1028110  68.5904609  32.4867361  57.3296068  67.2062003
  38.5447437  63.5154119  76.0203628  38.6091869  63.9774526  76.8561799
  37.8358361  62.8851484  76.1485937  29.0464727  56.8795327  73.5452627
  29.2972765  57.7642337  73.8110203  29.5824275  56.6999928  72.7727719
  52.8696826  60.3108824  70.2127889  52.1160535  59.7416222  70.0571893
  53.0044368  60.2771489  71.1598523  38.2595454  65.1822226  65.8882608
  38.1241129  66.0273762  66.3167456  38.8005267  65.3841504  65.1248542
  34.7462794  51.2613806  82.5496963  34.3529740  50.7080005  83.2244607
  35.5628934  51.5724385  82.9403481  31.7124852  62.6997664  66.4610533
  32.2249372  63.4940915  66.6116098  32.3647565  62.0023955  66.3944134
  33.5219736  65.8163421  68.5433286  33.6986365  66.7381385  68.3554270
  34.3176570  65.5021840  68.9727666  37.6630755  52.6771685  80.1417220
  38.4040468  53.2778838  80.0621682  37.8948678  51.9349323  79.5835262
  32.8072093  57.8628053  78.4195449  32.6925608  56.9613310  78.7202548
  31.9516611  58.1091749  78.0680266  39.8863931  65.8045793  80.0182950
  39.4427785  65.0182171  79.7003854  40.5481144  65.9924943  79.3526841
  34.6451052  67.3341594  74.5443628  35.1958477  67.2058658  73.7720622
  33.8062528  67.6336483  74.1938521  41.9845169  66.0848593  78.0464351
  41.9663644  66.9057474  77.5544620  42.9065089  65.9602668  78.2714492
  38.4418223  63.5992722  78.8887860  38.9746560  62.8381010  78.6587168
  37.9132304  63.3066374  79.6312014  41.6087918  48.7052788  74.4181501
  41.2652187  49.5954430  74.3420612  41.9766881  48.5154446  73.5551086
  29.6773769  61.0286319  67.2370104  30.5148991  61.4383327  67.0203811
  29.8552036  60.0885761  67.2070297  39.1585312  53.5411100  67.9839175
  38.3026908  53.1517950  67.8044814  39.5712263  53.6203061  67.1238960
  40.6884458  51.0757443  72.3830735  40.1849254  51.0387579  71.5698540
  40.9815065  51.9850186  72.4427391  36.9327344  51.1596173  71.3896916
  37.7980341  50.9638982  71.0302806  37.0004853  50.9306525  72.3166273
  44.7863782  60.9227735  71.5173718  44.1287456  61.6126997  71.6053847
  45.5904181  61.3124167  71.8607704  34.5389663  53.3898381  68.7613283
  35.1133415  53.1673562  68.0286476  35.1260646  53.4587075  69.5141884
  43.5969241  59.2772108  69.5677660  44.1101122  59.9102100  70.0699369
  44.2470464  58.6773303  69.2021020  36.8412331  50.2639630  67.4888353
  36.1876743  49.9488647  66.8644967  36.7992805  49.6415370  68.2148176
  40.8591615  69.2556432  62.3238331  40.1853314  69.5588129  62.9323289
  41.2457437  70.0585513  61.9743788  40.0750071  56.7521563  71.8136000
  39.1572633  56.9736510  71.6557688  40.4910215  56.8267874  70.9547708
  43.3063956  55.1870095  68.9257470  42.5686713  54.6747482  69.2567712
  43.5590730  54.7470477  68.1140747  42.8063976  66.0954606  68.6306620
  43.0986950  66.6559663  67.9118986  43.3162597  66.3883167  69.3859780
  43.4075584  47.9646347  69.5199239  43.7134460  47.1043711  69.2325154
  44.1328188  48.5563968  69.3198233  29.6999940  58.3677034  67.9080837
  29.5024339  57.7746395  67.1831904  29.1446604  58.0629244  68.6256776
  37.6796663  58.2600140  70.0275430  37.7345273  57.3073977  69.9517907
  36.8687865  58.4159580  70.5116729  35.6189023  56.8777200  67.7865809
  34.8056889  57.1771371  68.1931001  36.1148017  56.4832889  68.5040291
  37.7697601  66.8734957  69.7200074  37.7273780  67.0995803  68.7908606
  38.6860300  66.6398332  69.8685875  41.2163235  57.3419025  76.6180703
  41.5712623  57.5690498  77.4775169  41.8635366  57.6737401  75.9957958
  35.1103098  54.4495556  73.4027044  35.7502477  54.3084315  72.7050007
  34.2780629  54.1630069  73.0265646  46.9730351  62.5313988  72.3341303
  47.4066858  62.4389277  73.1824357  47.6861932  62.5071488  71.6961319
  35.8863402  63.7497986  69.5162036  36.6804000  63.2548306  69.3144611
  35.1755094  63.2215849  69.1529742  40.7058246  66.1316082  73.8674404
  40.7595269  66.7007018  74.6352120  39.8373028  66.3017967  73.5028441
  32.1946165  57.8941068  65.5921789  31.2643753  57.8325523  65.8091751
  32.2903637  57.3717021  64.7958430  32.1131714  54.4195881  68.1800031
  32.3738532  55.3341214  68.0709191  32.9348887  53.9520323  68.3296644
  33.5856640  55.8333638  75.3498855  34.2579693  55.6251000  74.7011504
  32.7586426  55.6355724  74.9104088  47.8345901  62.5737688  74.8674189
  48.0281791  63.4783499  75.1133464  47.7346519  62.1145107  75.7012774
  39.4882212  52.4595579  77.3664516  38.8410127  53.1585528  77.2728993
  40.2583227  52.8931723  77.7340764  42.8961010  62.7244431  80.4415069
  42.7446516  62.4954983  79.5245153  42.8865689  63.6815032  80.4546414
  39.6646346  60.2976344  75.4261336  40.5938406  60.4487503  75.2530303
  39.2437376  60.3860364  74.5709982  38.4634678  64.3227008  73.1959873
  38.3245764  63.9545793  74.0685812  37.6749274  64.8374648  73.0243831
  39.0582830  69.4236105  64.5385410  39.2334586  68.9524148  65.3531033
  38.3715618  70.0501871  64.7666671  40.0139893  63.7008611  70.5848711
  39.6789726  63.6609381  71.4806361  39.5143839  63.0353327  70.1119121
  33.9884137  59.1076241  76.1101292  33.8503935  58.3756480  76.7112831
  34.8989060  59.0185141  75.8285480  36.6166438  58.8196200  75.5984972
  37.3266056  58.1789392  75.5571590  36.5735746  59.0709095  76.5211153
  44.6053216  65.7563554  78.5191551  44.5465763  65.0722774  77.8522134
  45.0072735  66.4982544  78.0672177  35.3295372  55.8061418  77.4180612
  34.7932729  55.3552157  78.0702208  34.7412080  55.9407327  76.6751076
  33.6243915  72.5725467  71.3125270  33.8640513  73.2043992  71.9904289
  32.7813112  72.2213507  71.5990629  44.6070624  63.7203137  76.7505531
  43.7197402  63.3829059  76.8731930  45.1769175  62.9886169  76.9874296
  26.2599771  60.0527229  70.0748582  26.9470811  59.7388959  69.4869598
  26.1047899  60.9568594  69.8015834  31.0634493  54.9417426  74.5033606
  30.9792682  54.3343095  73.7684016  30.2417199  55.4326444  74.5043102
  38.1371777  68.3804590  73.7166774  38.0641949  69.1859561  74.2286079
  37.6949170  68.5796556  72.8914796  37.9261557  67.6176360  67.2269596
  37.1429079  68.1598040  67.3207820  38.6254302  68.1350339  67.6263837
  41.2358207  53.4270989  69.8703801  41.7326906  52.6740952  69.5504871
  40.4645188  53.4635306  69.3047010  49.0887964  59.1311355  71.5122093
  49.0777840  60.0136070  71.1416026  48.2205344  58.7782906  71.3176630
  40.5970461  68.2791424  75.8724933  41.3098433  68.9138889  75.8000834
  40.1060489  68.3755290  75.0564935  37.8193176  55.5688372  69.5975486
  37.4490963  55.0159413  70.2856391  38.3152268  54.9646506  69.0450486
  45.7060539  58.0259996  67.9792259  46.1720991  58.8587987  67.9052561
  46.1568039  57.5604977  68.6837517  35.6482374  66.0285867  76.6930504
  36.3491834  66.6622350  76.8459898  35.1777489  66.3700599  75.9326143
  43.6777202  50.3940583  72.0183160  42.7640281  50.6244810  72.1865367
  44.1070303  50.4779027  72.8697192  43.4483660  58.5830475  74.5183054
  42.7955110  58.8306382  73.8635507  43.8264040  57.7694613  74.1845531
  40.4090834  68.6190168  68.6211224  40.5913228  67.8011824  69.0838977
  41.2323820  68.8357860  68.1836114  40.7432999  67.5458353  65.8826273
  41.2720766  67.0350808  65.2696435  41.0061219  67.2300883  66.7471806
  39.4971233  59.3250286  81.0049091  38.8211870  59.2244415  81.6751466
  40.3198867  59.1689500  81.4685088  31.2450092  65.5622222  73.6261606
  31.8303529  64.8165910  73.7589511  31.0474931  65.8726179  74.5098270
  34.0988747  68.5973470  68.6424049  33.4299123  69.0819597  68.1588089
  33.9601617  68.8442690  69.5567427  25.8367747  58.1327823  72.3466049
  25.8751846  57.5991413  73.1403168  25.3308040  57.6063028  71.7277027
  38.2394016  70.6317213  75.2406707  38.7912324  70.7948835  76.0055792
  38.5800209  71.2221651  74.5686732  33.2158509  52.9792363  75.8428592
  33.2799836  53.8407194  75.4305989  33.1525629  52.3666365  75.1100950
  32.6910782  55.0515496  79.4901626  33.3182821  54.6692573  80.1039150
  31.8338701  54.8329698  79.8557319  43.0904890  65.4578471  81.0955361
  43.6344794  66.0708429  80.6010316  42.5091735  66.0158049  81.6122374
  29.4676324  56.8591925  65.4219981  29.7629766  55.9502603  65.3687035
  28.5664360  56.8379664  65.1000983  41.3762403  68.5799189  72.2270389
  41.2513543  67.7788929  71.7181335  42.0341494  69.0745382  71.7384359
  32.9970571  54.9347921  71.4047529  32.2757157  55.5483889  71.2655003
  33.7863827  55.4705686  71.3264175  43.4397312  66.3808209  73.8549939
  42.4927647  66.2613560  73.7828266  43.7880085  65.4930707  73.9376201
  35.7996885  52.2702348  77.6788181  36.3231287  52.5164644  78.4414491
  35.5809218  53.1022383  77.2591319  31.1964166  54.5406022  65.5459306
  30.8676872  53.6603401  65.3634412  31.5503537  54.4853691  66.4335695
  40.4443745  66.1760925  70.0554292  40.2968707  65.2477632  70.2361862
  41.2697238  66.1981016  69.5711367  34.3105989  54.8278992  65.9134784
  34.6502062  55.3564913  65.1913392  34.7578110  55.1659398  66.6893350
  44.0477867  66.9989484  71.1419164  44.9724414  66.7932345  71.0043615
  43.8793170  66.7505885  72.0508506  37.0049430  53.2116043  75.3637852
  36.6646250  52.4123856  75.7658532  36.2988436  53.5117754  74.7914685
  37.6565902  50.2965355  73.8165175  38.4791971  49.8225833  73.6944065
  37.9003965  51.0755839  74.3163861  35.1804481  56.9884476  71.6257153
  35.0349061  57.3024779  72.5181435  34.7029684  57.6069376  71.0728052
  37.0400863  53.9787024  71.6738043  37.0262432  53.0828117  71.3370341
  37.7573292  53.9857688  72.3076329  38.8926994  54.4124364  73.7191170
  38.6344772  55.3341435  73.7175501  38.3612035  54.0154799  74.4091634
  43.8373183  67.5175151  66.4981256  44.0110061  66.9521574  65.7455108
  44.3302074  68.3176046  66.3160746  29.6550143  59.5289820  74.5644815
  29.1103611  60.3049628  74.6965089  30.5329493  59.8760625  74.4063936
  36.4437759  52.8601404  66.9425613  36.5653671  51.9318050  67.1416501
  36.1539802  52.8740090  66.0303928  39.3128950  50.5456315  70.0792333
  39.3350647  50.6095648  69.1244312  39.7297009  49.7060823  70.2732839
  49.6912574  60.2811574  68.1171555  50.1343720  59.5318899  67.7190679
  48.8139084  60.2721711  67.7345287  30.4416165  58.6559717  77.4574971
  29.6997901  58.8042352  78.0439602  30.1208909  58.9167982  76.5941721
  38.3859827  68.1975695  77.2555361  38.6946954  67.9524842  78.1278061
  39.1835309  68.4022333  76.7674232  38.4080439  70.3513604  69.4860738
  37.9685430  69.8589983  70.1793595  39.1588556  69.8086572  69.2452813
  30.8872778  66.5425145  69.4885366  31.7130798  66.2428917  69.1084010
  30.5366830  65.7732768  69.9375155  35.8554311  65.8951614  71.5583040
  35.2334321  65.2322319  71.2585268  36.5259178  65.9212745  70.8756687
  29.0881383  64.4611472  70.4474300  28.2513292  64.0333646  70.2658301
  29.0605029  64.6543915  71.3845091  35.9278839  54.3733402  81.1515546
  35.9766994  55.2495524  80.7693315  36.4701353  53.8310795  80.5787189
  46.4133685  64.9174525  80.4316683  45.6229228  64.8998664  79.8921182
  46.1767039  65.4562819  81.1865719  46.5331560  61.7666991  77.7449411
  46.5829565  61.6016999  78.6864934  46.4245483  60.8994250  77.3547292
  35.4167818  64.4455537  65.0341500  35.5655939  65.1291001  64.3808173
  36.2234262  64.4260627  65.5490956  43.8235322  57.7497919  79.0608718
  44.7245185  57.6104384  78.7692716  43.8983297  57.9152374  80.0006895
  38.1578127  55.1264774  77.9061904  37.2881437  55.4198340  77.6344493
  38.3937608  55.7105219  78.6269168  48.0349757  64.1863933  77.9891433
  47.7434565  64.5493913  78.8254894  47.4221888  63.4730941  77.8104765
  49.2345439  61.7516813  70.5094003  50.0692330  62.1906617  70.6731563
  49.3704568  61.2755466  69.6902249  46.2836945  59.3096547  76.4571491
  46.7591066  59.5024194  75.6490342  45.3602510  59.3655733  76.2114874
  33.1720451  60.4720715  66.0402569  32.9266493  59.5683045  66.2382779
  33.3416366  60.4737865  65.0982047  40.8617161  51.3444391  75.4227325
  41.3799105  52.0805418  75.0973813  40.5072294  51.6508384  76.2574084
  32.4416099  56.2049072  63.5388731  31.7485344  56.2793427  62.8828767
  32.1967851  55.4409416  64.0610247  41.1129755  47.7644673  70.9428221
  41.3931509  47.0967863  71.5688648  41.8980362  47.9573769  70.4302885
  38.9163224  66.9403667  62.5053248  38.3437191  67.5593854  62.0523719
  39.4896018  67.4903029  63.0393170  44.9838614  56.1862307  74.6899796
  45.9356037  56.2860405  74.7112020  44.8142064  55.3940576  75.1997881
  43.0052993  53.2717891  74.8759197  42.4102925  53.5522903  74.1805686
  42.7202690  53.7611792  75.6475938  42.1360484  67.2240817  63.6361830
  43.0691157  67.1586379  63.8394705  42.0483697  68.0597084  63.1776363
  47.4626692  59.4068427  73.8042096  47.4303012  58.4684428  73.9901780
  48.0727315  59.4852464  73.0707921  47.6121180  56.1979471  73.8500379
  47.0960229  55.4137927  73.6630308  48.4961129  55.8698187  74.0146899
  45.2731907  49.9420486  69.8096192  45.0756728  49.6335574  70.6939524
  45.8831613  50.6682125  69.9394122  53.2803241  60.4684434  72.9448133
  54.0106630  60.2069722  73.5055836  52.6710187  59.7313156  72.9850201
  51.3618539  58.6092297  73.5422584  50.6351702  58.4748261  72.9339076
  50.9465825  58.9169125  74.3479302  39.1848715  62.3282226  81.3069957
  40.1051724  62.5060825  81.5010004  39.1498298  61.3838272  81.1549656
  28.4030880  57.5220820  70.2323232  28.0833664  56.6686128  69.9397606
  27.8564308  57.7369398  70.9881199  32.1810787  60.2383261  73.9492738
  32.3996797  61.1700369  73.9680772  32.5936561  59.8791235  74.7347542
  39.1015005  50.7451346  65.9368427  38.2915734  50.3998431  66.3123673
  39.7899422  50.4358890  66.5256038  41.0305554  49.8229393  67.5592723
  41.5836592  50.2424846  68.2182746  41.2675640  48.8965141  67.6015679
  37.0538653  55.8116467  83.3395487  36.9535380  56.7610824  83.2707578
  36.8360195  55.4834706  82.4671557  28.2719140  61.1423731  72.2016353
  27.5782611  60.7277684  71.6886308  29.0192131  61.1844268  71.6049772
  44.4084361  51.9329918  67.0671388  43.8283030  52.5914722  66.6849440
  44.1420293  51.1107263  66.6558805  42.8587927  51.3334976  69.2692708
  43.3587705  51.4451510  68.4607027  43.5023535  51.0296029  69.9093516
  36.9169923  59.2413605  82.1560549  36.4337005  60.0413966  82.3624438
  37.0030862  59.2521550  81.2027993  30.1855882  61.0741985  70.0782368
  30.1626571  61.1729672  69.1264251  30.4956519  61.9207136  70.3999534
  32.8443260  63.1318140  74.1928983  33.7986514  63.1002083  74.1258914
  32.6455784  62.6708764  75.0079209  33.4342642  61.7019256  76.7599780
  34.2535531  62.1963335  76.7834618  33.7079450  60.7851224  76.7317348
  46.5423775  54.1176530  69.8382075  47.3184165  54.6072982  70.1106692
  45.8171909  54.5434584  70.2953945  48.9796333  54.8304149  70.8956016
  49.5740824  54.5899885  70.1849324  49.0522917  54.1111279  71.5229552
  31.1993489  68.6737760  71.2099180  31.0647957  67.9138161  70.6437179
  30.7825551  69.3978660  70.7427969  46.9755068  55.3974276  67.1628145
  46.7192003  54.9970912  67.9936353  46.3507936  56.1118070  67.0378285
  51.2867406  58.1370350  69.6699437  50.7266964  58.2063539  70.4430999
  50.6810910  57.9611334  68.9498933  34.3562615  69.5707077  71.4217623
  34.2394999  70.5152509  71.3196313  33.5355061  69.2680638  71.8103422
  28.6877557  56.0357390  77.4591977  29.3336420  55.5256344  77.9479203
  28.4794708  56.7726072  78.0335403  41.2130949  63.1038238  82.9584118
  42.0822109  63.2778890  82.5970753  40.7337700  63.9232654  82.8359847
  35.3817129  70.2235339  74.6373552  36.2844376  70.2558949  74.9540047
  35.1554499  69.2935790  74.6519887  37.1370731  68.9766325  71.2983630
  36.1866362  68.9768187  71.1848002  37.4403217  68.2299060  70.7819665
  41.0233287  46.8940211  67.4661810  40.2565682  46.3398698  67.6118493
  41.4343992  46.9662080  68.3275962  33.0275048  53.1825007  81.5566992
  33.8906509  52.8261812  81.7670316  32.4540458  52.8438902  82.2442396
  52.8723425  74.8126864  72.3629393  53.5101835  74.6933611  71.6592733
  52.7544268  75.7607707  72.4217345  49.6813131  74.7654292  72.2990917
  49.3431642  74.6495356  71.4111452  50.5502899  74.3645457  72.2791923
  45.5399947  76.6189768  68.2887808  44.9764812  76.5279705  67.5204096
  45.4252342  75.7989673  68.7690301  43.0864379  78.1140960  71.1272029
  43.8785670  77.7731784  70.7118328  43.3261029  78.2235935  72.0474182
  51.1199505  80.2860736  63.6002273  50.4687485  80.8714816  63.2136287
  51.9143868  80.8166931  63.6597311  45.0455132  77.3749873  63.9989407
  45.8186008  76.8278860  63.8602283  45.3980531  78.2394122  64.2103869
  47.8096382  76.0803104  73.7957666  48.4059954  75.8559126  73.0814629
  47.8671353  75.3387849  74.3983114  47.3821410  73.5342539  61.6307857
  47.6346931  73.0124060  60.8691320  46.4445969  73.3708684  61.7334541
  52.4264693  72.5378317  69.4382601  53.2127782  72.1197741  69.0873018
  52.6903397  73.4424410  69.6064249  52.5974770  77.9751168  64.1371257
  51.9620603  78.0485794  64.8492162  52.2672177  78.5644767  63.4590337
  57.8273120  72.4753551  70.3415579  58.5598292  71.9052767  70.5753409
  57.0712476  72.0875151  70.7822085  47.1017699  75.4370645  63.8332232
  46.9853957  74.7615548  64.5013317  47.2119959  74.9503019  63.0164385
  49.4449240  74.8980792  67.5378922  49.0807447  74.3711413  68.2491843
  50.3016356  74.5079261  67.3645407  55.3498541  66.1875125  74.8010188
  55.0181865  67.0570536  74.5771403  54.7544154  65.8711409  75.4804218
  51.8430060  78.3887671  74.2006100  51.5430783  79.2912709  74.0921908
  51.4981120  78.1219854  75.0527253  45.2942542  74.8401468  70.2342805
  44.3693038  74.7077682  70.4420497  45.5426955  75.6195687  70.7312747
  55.2427204  70.9070211  71.8803538  54.3344081  70.8385619  71.5862299
  55.1914800  71.3842156  72.7085363  49.0643948  72.3828349  63.5186937
  48.9443573  72.8285400  64.3572417  48.3696536  72.7313667  62.9600475
  42.6551353  74.4834741  71.0686594  42.7843734  74.7369220  71.9826006
  41.9748804  75.0762449  70.7491249  46.8250840  85.1531991  67.1677068
  46.7474870  86.1039816  67.2465549  46.2212484  84.8077864  67.8251994
  57.1088850  69.1086649  73.6581412  56.4663231  69.4019182  73.0121206
  56.6043779  68.9939570  74.4634608  54.7629014  72.8549822  64.3467271
  55.6746870  73.0877209  64.1714969  54.2538661  73.4386867  63.7842350
  49.4000852  72.2147057  75.3562120  50.2462047  72.6386471  75.4996769
  49.3399489  71.5580681  76.0500684  53.3698596  77.8375641  71.7380852
  52.7407459  78.0021355  71.0356920  52.9824258  78.2517250  72.5091816
  57.2487828  78.7730079  69.0925216  56.5638866  79.1528980  68.5422250
  57.3331678  79.3825405  69.8257164  52.5500297  69.8751425  77.0143294
  52.3061229  70.6293486  76.4777570  52.8260228  70.2536773  77.8490541
  52.1064989  69.0307858  72.5957132  51.2449468  69.3289112  72.8873869
  52.1327423  69.2478257  71.6638164  48.9226558  77.5750049  69.0030938
  49.3864904  77.8537752  68.2135560  48.6583356  76.6733494  68.8204028
  45.8150639  77.1221531  71.9410701  46.3851996  77.5508799  71.3028185
  46.4058751  76.8404115  72.6394886  47.8595444  73.6973201  65.8120503
  48.5619488  74.1494245  66.2794429  47.5276073  73.0557020  66.4400396
  46.3075806  72.2884958  80.1871712  45.6774466  72.9701239  80.4207109
  46.2011894  72.1768040  79.2424850  41.6020778  71.9556754  71.1137636
  40.8119832  72.2114283  70.6377747  42.0932026  72.7705092  71.2189677
  43.5535524  72.3201333  68.0721113  42.7566687  72.4320028  68.5904609
  43.3261116  72.6587985  67.2062003  39.8858481  72.2087244  73.5452627
  40.1366520  73.0934254  73.8110203  40.4218030  72.0291846  72.7727719
  63.7090581  75.6400742  70.2127889  62.9554289  75.0708140  70.0571893
  63.8438122  75.6063406  71.1598523  49.0989209  80.5114144  65.8882608
  48.9634884  81.3565680  66.3167456  49.6399021  80.7133422  65.1248542
  45.5856548  66.5905724  82.5496963  45.1923494  66.0371922  83.2244607
  46.4022689  66.9016302  82.9403481  42.5518606  78.0289582  66.4610533
  43.0643127  78.8232832  66.6116098  43.2041319  77.3315872  66.3944134
  44.3613491  81.1455338  68.5433286  44.5380119  82.0673303  68.3554270
  45.1570324  80.8313758  68.9727666  48.5024509  68.0063603  80.1417220
  49.2434223  68.6070756  80.0621682  48.7342432  67.2641241  79.5835262
  43.6465847  73.1919970  78.4195449  43.5319363  72.2905227  78.7202548
  42.7910365  73.4383667  78.0680266  45.4844806  82.6633512  74.5443628
  46.0352232  82.5350575  73.7720622  44.6456282  82.9628401  74.1938521
  52.4481672  64.0344706  74.4181501  52.1045942  64.9246348  74.3420612
  52.8160635  63.8446364  73.5551086  40.5167523  76.3578236  67.2370104
  41.3542745  76.7675245  67.0203811  40.6945791  75.4177678  67.2070297
  52.4131955  74.0253317  62.9253936  51.8978579  74.7957922  63.1642324
  52.1409264  73.3518453  63.5486998  49.9979066  68.8703018  67.9839175
  49.1420663  68.4809868  67.8044814  50.4106018  68.9494979  67.1238960
  51.5278213  66.4049361  72.3830735  51.0243008  66.3679496  71.5698540
  51.8208820  67.3142104  72.4427391  47.7721099  66.4888091  71.3896916
  48.6374095  66.2930899  71.0302806  47.8398608  66.2598443  72.3166273
  57.3866229  76.7785672  64.8607110  56.6095672  76.4396831  64.4162272
  58.0657710  76.7838295  64.1862075  52.2018258  71.8980409  64.7513718
  51.8968394  72.2126558  65.6023861  53.1548700  71.9761829  64.7941051
  50.6464690  78.0570632  66.4006672  50.1186052  77.3223392  66.0879909
  50.1452193  78.8345309  66.1546640  55.6257536  76.2519653  71.5173718
  54.9681211  76.9418914  71.6053847  56.4297935  76.6416085  71.8607704
  45.3783418  68.7190299  68.7613283  45.9527170  68.4965480  68.0286476
  45.9654400  68.7878993  69.5141884  54.4362995  74.6064026  69.5677660
  54.9494877  75.2394017  70.0699369  55.0864219  74.0065221  69.2021020
  45.7053005  70.7494760  62.7809168  44.8690317  71.0869446  63.1018443
  45.5657775  70.6143739  61.8436305  47.6806085  65.5931548  67.4888353
  47.0270498  65.2780565  66.8644967  47.6386560  64.9707288  68.2148176
  48.7917290  75.8750843  59.4041645  47.8844352  75.6440096  59.6032794
  49.2888322  75.0788462  59.5915626  51.6985369  84.5848350  62.3238331
  51.0247068  84.8880047  62.9323289  52.0851191  85.3877430  61.9743788
  50.9143826  72.0813481  71.8136000  49.9966387  72.3028428  71.6557688
  51.3303969  72.1559792  70.9547708  51.6978874  73.4804897  66.9438680
  52.4450693  73.9926294  66.6345803  51.9670463  73.1588950  67.8043074
  49.9705524  75.9763438  63.9265635  49.0616743  75.6922470  64.0238104
  50.0000608  76.3962516  63.0668942  55.2024791  79.5870027  67.6956802
  54.7487118  78.7460937  67.7521993  54.5718758  80.2231425  68.0331582
  54.1457711  70.5162013  68.9257470  53.4080468  70.0039399  69.2567712
  54.3984484  70.0762395  68.1140747  53.6457730  81.4246524  68.6306620
  53.9380705  81.9851581  67.9118986  54.1556351  81.7175085  69.3859780
  40.5393694  73.6968952  67.9080837  40.3418094  73.1038312  67.1831904
  39.9840358  73.3921162  68.6256776  48.5190418  73.5892058  70.0275430
  48.5739028  72.6365895  69.9517907  47.7081620  73.7451497  70.5116729
  49.6681612  77.5172181  61.2653713  49.2301042  76.8008040  60.8059351
  50.4092052  77.7448296  60.7038805  46.4582778  72.2069118  67.7865809
  45.6450643  72.5063288  68.1931001  46.9541772  71.8124807  68.5040291
  48.6091356  82.2026875  69.7200074  48.5667534  82.4287721  68.7908606
  49.5254054  81.9690249  69.8685875  52.0556989  72.6710942  76.6180703
  52.4106377  72.8982415  77.4775169  52.7029121  73.0029319  75.9957958
  57.7854726  75.7929378  67.3230032  57.6472625  75.9830974  66.3951221
  57.4290945  76.5548761  67.7798083  45.9496853  69.7787473  73.4027044
  46.5896232  69.6376232  72.7050007  45.1174383  69.4921987  73.0265646
  57.8124106  77.8605905  72.3341303  58.2460613  77.7681194  73.1824357
  58.5255687  77.8363406  71.6961319  46.7257156  79.0789904  69.5162036
  47.5197755  78.5840224  69.3144611  46.0148849  78.5507767  69.1529742
  43.0339920  73.2232986  65.5921789  42.1037508  73.1617441  65.8091751
  43.1297392  72.7008938  64.7958430  42.9525469  69.7487798  68.1800031
  43.2132286  70.6633132  68.0709191  43.7742641  69.2812241  68.3296644
  44.4250394  71.1625556  75.3498855  45.0973448  70.9542918  74.7011504
  43.5980181  70.9647642  74.9104088  50.3275966  67.7887496  77.3664516
  49.6803881  68.4877446  77.2728993  51.0976982  68.2223640  77.7340764
  50.5040101  75.6268261  75.4261336  51.4332161  75.7779421  75.2530303
  50.0831131  75.7152282  74.5709982  49.3028432  79.6518926  73.1959873
  49.1639518  79.2837710  74.0685812  48.5143029  80.1666565  73.0243831
  49.8976584  84.7528022  64.5385410  50.0728340  84.2816065  65.3531033
  49.2109372  85.3793788  64.7666671  50.8533648  79.0300528  70.5848711
  50.5183480  78.9901298  71.4806361  50.3537593  78.3645244  70.1119121
  44.8277892  74.4368159  76.1101292  44.6897689  73.7048397  76.7112831
  45.7382815  74.3477059  75.8285480  53.7892839  76.3756563  60.8585771
  53.1722010  75.6503391  60.7618824  53.3209328  77.1365923  60.5152845
  47.4560192  74.1488118  75.5984972  48.1659811  73.5081310  75.5571590
  47.4129500  74.4001013  76.5211153  46.1689126  71.1353336  77.4180612
  45.6326483  70.6844074  78.0702208  45.5805835  71.2699245  76.6751076
  44.4637670  87.9017385  71.3125270  44.7034268  88.5335909  71.9904289
  43.6206866  87.5505425  71.5990629  37.0993525  75.3819147  70.0748582
  37.7864565  75.0680877  69.4869598  36.9441654  76.2860512  69.8015834
  41.9028247  70.2709343  74.5033606  41.8186436  69.6635013  73.7684016
  41.0810954  70.7618362  74.5043102  48.7655311  82.9468277  67.2269596
  47.9822833  83.4889958  67.3207820  49.4648056  83.4642257  67.6263837
  52.0751961  68.7562907  69.8703801  52.5720661  68.0032869  69.5504871
  51.3038943  68.7927224  69.3047010  59.9281719  74.4603272  71.5122093
  59.9171595  75.3427988  71.1416026  59.0599098  74.1074823  71.3176630
  53.1581742  77.5134594  67.4442224  52.2238021  77.6336057  67.2746929
  53.3358410  76.6107061  67.1802234  48.6586930  70.8980290  69.5975486
  48.2884718  70.3451330  70.2856391  49.1546022  70.2938423  69.0450486
  56.5454293  73.3551913  67.9792259  57.0114746  74.1879905  67.9052561
  56.9961794  72.8896895  68.6837517  54.6130524  79.6995735  64.9778411
  54.8890368  79.5852329  65.8872285  53.7435023  79.3013220  64.9390584
  54.5170956  65.7232500  72.0183160  53.6034036  65.9536727  72.1865367
  54.9464058  65.8070945  72.8697192  54.2877415  73.9122392  74.5183054
  53.6348865  74.1598300  73.8635507  54.6657794  73.0986531  74.1845531
  51.2484588  83.9482086  68.6211224  51.4306983  83.1303742  69.0838977
  52.0717574  84.1649778  68.1836114  51.5826754  82.8750271  65.8826273
  52.1114520  82.3642725  65.2696435  51.8454974  82.5592801  66.7471806
  42.0843847  80.8914140  73.6261606  42.6697283  80.1457828  73.7589511
  41.8868685  81.2018097  74.5098270  44.9382502  83.9265387  68.6424049
  44.2692877  84.4111515  68.1588089  44.7995372  84.1734608  69.5567427
  36.6761501  73.4619740  72.3466049  36.7145601  72.9283331  73.1403168
  36.1701794  72.9354946  71.7277027  44.0552264  68.3084281  75.8428592
  44.1193590  69.1699112  75.4305989  43.9919384  67.6958282  75.1100950
  43.5304536  70.3807413  79.4901626  44.1576575  69.9984491  80.1039150
  42.6732455  70.1621615  79.8557319  40.3070079  72.1883842  65.4219981
  40.6023520  71.2794521  65.3687035  39.4058115  72.1671582  65.1000983
  52.2156158  83.9091106  72.2270389  52.0907297  83.1080846  71.7181335
  52.8735249  84.4037300  71.7384359  43.8364326  70.2639839  71.4047529
  43.1150912  70.8775807  71.2655003  44.6257582  70.7997604  71.3264175
  46.6390639  67.5994265  77.6788181  47.1625041  67.8456562  78.4414491
  46.4202973  68.4314300  77.2591319  42.0357921  69.8697940  65.5459306
  41.7070627  68.9895319  65.3634412  42.3897291  69.8145609  66.4335695
  51.2837499  81.5052843  70.0554292  51.1362462  80.5769550  70.2361862
  52.1090993  81.5272933  69.5711367  45.1499744  70.1570910  65.9134784
  45.4895816  70.6856831  65.1913392  45.5971864  70.4951316  66.6893350
  54.8871621  82.3281401  71.1419164  55.8118169  82.1224263  71.0043615
  54.7186925  82.0797803  72.0508506  47.8443185  68.5407961  75.3637852
  47.5040005  67.7415774  75.7658532  47.1382191  68.8409671  74.7914685
  48.4959656  65.6257273  73.8165175  49.3185726  65.1517751  73.6944065
  48.7397720  66.4047757  74.3163861  51.2799014  69.3590680  65.0486409
  51.4962628  70.2415318  64.7475237  50.7993081  68.9676894  64.3192051
  46.0198235  72.3176394  71.6257153  45.8742816  72.6316697  72.5181435
  45.5423439  72.9361294  71.0728052  47.8794618  69.3078942  71.6738043
  47.8656187  68.4120035  71.3370341  48.5967046  69.3149605  72.3076329
  49.7320749  69.7416282  73.7191170  49.4738527  70.6633352  73.7175501
  49.2005789  69.3446716  74.4091634  54.6766937  82.8467069  66.4981256
  54.8503815  82.2813491  65.7455108  55.1695829  83.6467964  66.3160746
  40.4943897  74.8581738  74.5644815  39.9497365  75.6341546  74.6965089
  41.3723247  75.2052542  74.4063936  47.2831514  68.1893322  66.9425613
  47.4047425  67.2609968  67.1416501  46.9933556  68.2032008  66.0303928
  50.1522704  65.8748232  70.0792333  50.1744401  65.9387565  69.1244312
  50.5690763  65.0352741  70.2732839  60.5306329  75.6103492  68.1171555
  60.9737475  74.8610817  67.7190679  59.6532839  75.6013628  67.7345287
  55.6642110  82.1633833  63.5978154  56.3593015  82.7840526  63.8165469
  56.0065260  81.3129185  63.8730532  41.2809919  73.9851634  77.4574971
  40.5391655  74.1334270  78.0439602  40.9602663  74.2459900  76.5941721
  57.5633533  79.6133539  65.1265485  58.0884857  79.9520812  64.4014805
  57.4755886  78.6780554  64.9428619  49.2474194  85.6805522  69.4860738
  48.8079184  85.1881901  70.1793595  49.9982311  85.1378490  69.2452813
  41.7266533  81.8717063  69.4885366  42.5524553  81.5720835  69.1084010
  41.3760585  81.1024685  69.9375155  46.6948066  81.2243531  71.5583040
  46.0728075  80.5614236  71.2585268  47.3652933  81.2504663  70.8756687
  39.9275138  79.7903389  70.4474300  39.0907046  79.3625564  70.2658301
  39.8998783  79.9835833  71.3845091  46.7672593  69.7025319  81.1515546
  46.8160749  70.5787442  80.7693315  47.3095108  69.1602712  80.5787189
  46.2561573  79.7747455  65.0341500  46.4049693  80.4582919  64.3808173
  47.0628016  79.7552545  65.5490956  48.9971882  70.4556692  77.9061904
  48.1275191  70.7490258  77.6344493  49.2331362  71.0397137  78.6269168
  60.0739193  77.0808730  70.5094003  60.9086085  77.5198534  70.6731563
  60.2098322  76.6047383  69.6902249  44.0114206  75.8012632  66.0402569
  43.7660248  74.8974962  66.2382779  44.1810120  75.8029783  65.0982047
  51.7010916  66.6736309  75.4227325  52.2192860  67.4097336  75.0973813
  51.3466049  66.9800302  76.2574084  43.2809853  71.5340990  63.5388731
  42.5879098  71.6085345  62.8828767  43.0361605  70.7701333  64.0610247
  51.9523510  63.0936591  70.9428221  52.2325264  62.4259780  71.5688648
  52.7374117  63.2865687  70.4302885  49.7556978  82.2695585  62.5053248
  49.1830945  82.8885772  62.0523719  50.3289772  82.8194947  63.0393170
  55.8232368  71.5154225  74.6899796  56.7749791  71.6152323  74.7112020
  55.6535819  70.7232494  75.1997881  53.8446748  68.6009808  74.8759197
  53.2496680  68.8814821  74.1805686  53.5596444  69.0903709  75.6475938
  52.9754238  82.5532735  63.6361830  53.9084911  82.4878297  63.8394705
  52.8877451  83.3889002  63.1776363  55.6042255  81.8698605  60.5965777
  55.5255886  81.5358469  61.4901535  56.4251922  82.3620373  60.5957250
  58.3020446  74.7360345  73.8042096  58.2696766  73.7976346  73.9901780
  58.9121070  74.8144382  73.0707921  50.1403777  73.6056398  59.8469300
  51.0862882  73.4762606  59.9157718  49.7618022  72.8671060  60.3238728
  58.4514935  71.5271388  73.8500379  57.9353983  70.7429845  73.6630308
  59.3354883  71.1990105  74.0146899  39.2424634  72.8512738  70.2323232
  38.9227419  71.9978046  69.9397606  38.6958063  73.0661316  70.9881199
  43.0204542  75.5675179  73.9492738  43.2390552  76.4992286  73.9680772
  43.4330316  75.2083153  74.7347542  39.1112894  76.4715649  72.2016353
  38.4176366  76.0569602  71.6886308  39.8585885  76.5136186  71.6049772
  53.6981682  66.6626894  69.2692708  54.1981460  66.7743428  68.4607027
  54.3417289  66.3587946  69.9093516  41.0249637  76.4033903  70.0782368
  41.0020325  76.5021590  69.1264251  41.3350273  77.2499054  70.3999534
  43.6837015  78.4610058  74.1928983  44.6380268  78.4294000  74.1258914
  43.4849538  78.0000682  75.0079209  44.2736397  77.0311174  76.7599780
  45.0929286  77.5255253  76.7834618  44.5473205  76.1143142  76.7317348
  54.0302993  69.4221926  66.1227736  53.1428848  69.7071577  65.9047931
  54.4456982  69.2615690  65.2755013  57.3817529  69.4468447  69.8382075
  58.1577919  69.9364900  70.1106692  56.6565663  69.8726501  70.2953945
  59.8190088  70.1596066  70.8956016  60.4134579  69.9191802  70.1849324
  59.8916672  69.4403197  71.5229552  42.0387244  84.0029677  71.2099180
  41.9041712  83.2430078  70.6437179  41.6219306  84.7270577  70.7427969
  53.1746207  79.1866601  60.2175756  53.8782057  79.3916603  60.8333411
  52.4508855  79.7543363  60.4824839  54.0044017  74.9376462  66.3378026
  53.9479218  75.3945014  65.4985658  54.5572359  74.1767147  66.1600869
  57.8148823  70.7266194  67.1628145  57.5585757  70.3262830  67.9936353
  57.1901691  71.4409988  67.0378285  62.1261161  73.4662267  69.6699437
  61.5660719  73.5355457  70.4430999  61.5204664  73.2903252  68.9498933
  45.1956370  84.8998994  71.4217623  45.0788754  85.8444427  71.3196313
  44.3748816  84.5972556  71.8103422  55.0832904  79.6249130  62.2674216
  55.9178508  79.1930329  62.0851691  54.9217247  79.4531144  63.1951110
  54.7378796  76.1281243  63.6330555  54.6827600  75.9625515  62.6918999
  54.1124851  76.8357276  63.7892745  39.5271311  71.3649308  77.4591977
  40.1730175  70.8548262  77.9479203  39.3188462  72.1017989  78.0335403
  47.9764486  84.3058243  71.2983630  47.0260117  84.3060104  71.1848002
  48.2796972  83.5590977  70.7819665  51.8627041  62.2232129  67.4661810
  51.0959437  61.6690616  67.6118493  52.2737746  62.2953998  68.3275962
  43.8668802  68.5116925  81.5566992  44.7300264  68.1553730  81.7670316
  43.2934213  68.1730820  82.2442396  55.8848887  92.7041791  63.9989407
  56.6579763  92.1570778  63.8602283  56.2374286  93.5686040  64.2103869
  58.2215165  88.8634457  61.6307857  58.4740685  88.3415978  60.8691320
  57.2839724  88.7000602  61.7334541  57.9411454  90.7662563  63.8332232
  57.8247712  90.0907466  64.5013317  58.0513713  90.2794937  63.0164385
  59.9248481  85.2562609  62.5340270  60.0922884  86.1242846  62.9010741
  59.7345651  85.4189891  61.6101559  59.9037702  87.7120267  63.5186937
  59.7837328  88.1577318  64.3572417  59.2090291  88.0605585  62.9600475
  54.3929278  87.6493251  68.0721113  53.5960441  87.7611945  68.5904609
  54.1654870  87.9879903  67.2062003  51.3561278  91.6870154  67.2370104
  52.1936500  92.0967162  67.0203811  51.5339545  90.7469596  67.2070297
  63.2525710  89.3545235  62.9253936  62.7372333  90.1249839  63.1642324
  62.9803018  88.6810371  63.5486998  60.8372821  84.1994935  67.9839175
  59.9814417  83.8101786  67.8044814  61.2499772  84.2786896  67.1238960
  63.0412013  87.2272327  64.7513718  62.7362148  87.5418476  65.6023861
  63.9942455  87.3053747  64.7941051  56.2177172  84.0482216  68.7613283
  56.7920924  83.8257398  68.0286476  56.8048155  84.1170911  69.5141884
  56.5446759  86.0786677  62.7809168  55.7084072  86.4161364  63.1018443
  56.4051529  85.9435657  61.8436305  58.5199840  80.9223465  67.4888353
  57.8664252  80.6072482  66.8644967  58.4780314  80.2999206  68.2148176
  59.6311045  91.2042760  59.4041645  58.7238107  90.9732014  59.6032794
  60.1282077  90.4080380  59.5915626  60.8099278  91.3055355  63.9265635
  59.9010498  91.0214388  64.0238104  60.8394362  91.7254434  63.0668942
  65.0863093  78.6230183  69.5199239  65.3921969  77.7627546  69.2325154
  65.8115697  79.2147803  69.3198233  51.3787449  89.0260869  67.9080837
  51.1811848  88.4330230  67.1831904  50.8234113  88.7213080  68.6256776
  60.5075366  92.8464099  61.2653713  60.0694796  92.1299958  60.8059351
  61.2485807  93.0740214  60.7038805  53.8733674  88.5524903  65.5921789
  52.9431262  88.4909359  65.8091751  53.9691146  88.0300856  64.7958430
  53.7919223  85.0779716  68.1800031  54.0526041  85.9925049  68.0709191
  54.6136396  84.6104159  68.3296644  64.6286594  91.7048481  60.8585771
  64.0115764  90.9795309  60.7618824  64.1603082  92.4657841  60.5152845
  56.4185140  85.9233905  59.9807075  55.5414606  85.8022706  59.6169322
  56.8942893  85.1319983  59.7285964  51.1463833  87.5175760  65.4219981
  51.4417275  86.6086438  65.3687035  50.2451869  87.4963499  65.1000983
  52.8751675  85.1989858  65.5459306  52.5464381  84.3187237  65.3634412
  53.2291046  85.1437526  66.4335695  55.9893498  85.4862828  65.9134784
  56.3289571  86.0148749  65.1913392  56.4365619  85.8243234  66.6893350
  57.9761645  83.9837449  64.1128076  58.6970008  84.3618702  63.6091793
  57.3526949  84.7026326  64.2163054  62.1192768  84.6882598  65.0486409
  62.3356383  85.5707236  64.7475237  61.6386835  84.2968811  64.3192051
  58.1225268  83.5185240  66.9425613  58.2441180  82.5901886  67.1416501
  57.8327311  83.5323926  66.0303928  60.9916459  81.2040150  70.0792333
  61.0138156  81.2679483  69.1244312  61.4084518  80.3644659  70.2732839
  54.8507960  91.1304550  66.0402569  54.6054002  90.2266880  66.2382779
  55.0203875  91.1321700  65.0982047  54.1203608  86.8632907  63.5388731
  53.4272853  86.9377262  62.8828767  53.8755360  86.0993251  64.0610247
  60.9797531  88.9348315  59.8469300  61.9256636  88.8054524  59.9157718
  60.6011776  88.1962977  60.3238728  59.1640449  86.8598292  59.7824185
  58.2571904  86.5631405  59.8586899  59.4416430  86.5628110  58.9158472
  60.7802514  81.4035182  65.9368427  59.9703243  81.0582267  66.3123673
  61.4686931  81.0942725  66.5256038  62.7093063  80.4813228  67.5592723
  63.2624101  80.9008682  68.2182746  62.9463149  79.5548976  67.6015679
  57.9339233  83.7185227  59.9236165  58.7958397  84.0440125  60.1831982
  58.1189577  82.9316723  59.4109230  66.0871870  82.5913754  67.0671388
  65.5070539  83.2498558  66.6849440  65.8207802  81.7691098  66.6558805
  64.8696748  84.7513844  66.1227736  63.9822603  85.0363495  65.9047931
  65.2850737  84.5907607  65.2755013  58.8868676  80.9581270  63.2115874
  58.8747346  81.9023110  63.3684144  59.7792098  80.7751415  62.9175335
  62.7020796  77.5524047  67.4661810  61.9353191  76.9982533  67.6118493
  63.1131501  77.6245915  68.3275962  20.3542162   5.8313233  59.0874699
  20.9920572   5.7119980  58.3838039  20.2363005   6.7794077  59.1462651
  17.1631869   5.7840661  59.0236224  16.8250380   5.6681726  58.1356759
  18.0321637   5.3831826  59.0037230  13.0218684   7.6376138  55.0133115
  12.4583550   7.5466075  54.2449403  12.9071079   6.8176042  55.4935607
  10.5683116   9.1327329  57.8517335  11.3604408   8.7918154  57.4363635
  10.8079767   9.2422304  58.7719489  18.6018243  11.3047105  50.3247580
  17.9506223  11.8901186  49.9381594  19.3962606  11.8353300  50.3842617
  12.5273870   8.3936242  50.7234714  13.3004746   7.8465230  50.5847590
  12.8799269   9.2580492  50.9349175  14.3658913   9.7212625  63.9301613
  14.0748779  10.6258256  63.8148280  15.0015897   9.7629152  64.6445683
  15.2915120   7.0989473  60.5202973  15.8878692   6.8745496  59.8059936
  15.3490091   6.3574219  61.1228421  14.8640148   4.5528909  48.3553164
  15.1165669   4.0310430  47.5936627  13.9264707   4.3895054  48.4579848
  19.9083431   3.5564687  56.1627907  20.6946520   3.1384110  55.8118324
  20.1722135   4.4610779  56.3309556  20.0793508   8.9937537  50.8616564
  19.4439341   9.0672164  51.5737469  19.7490915   9.5831136  50.1835643
  25.3091858   3.4939920  57.0660886  26.0417030   2.9239137  57.2998715
  24.5531214   3.1061521  57.5067391  14.5836437   6.4557015  50.5577539
  14.4672695   5.7801918  51.2258623  14.6938697   5.9689388  49.7409692
  16.9267978   5.9167162  54.2624228  16.5626185   5.3897783  54.9737150
  17.7835094   5.5265631  54.0890714  19.3248798   9.4074040  60.9251407
  19.0249521  10.3099079  60.8167214  18.9799857   9.1406223  61.7772560
  12.7761279   5.8587837  56.9588112  11.8511776   5.7264051  57.1665803
  13.0245693   6.6382056  57.4558054  22.7245942   1.9256580  58.6048844
  21.8162819   1.8571989  58.3107605  22.6733538   2.4028525  59.4330670
  16.5462686   3.4014719  50.2432244  16.4262311   3.8471770  51.0817724
  15.8515274   3.7500037  49.6845782  14.3069578  16.1718361  53.8922375
  14.2293607  17.1226186  53.9710855  13.7031221  15.8264233  54.5497301
  24.5907588   0.1273019  60.3826718  23.9481968   0.4205552  59.7366513
  24.0862517   0.0125939  61.1879915  22.2447752   3.8736192  51.0712578
  23.1565608   4.1063579  50.8960275  21.7357399   4.4573236  50.5087656
  20.5288519   8.2960820  64.7073870  20.9371875   7.8543230  63.9628503
  19.8065781   7.7213447  64.9608063  16.8819589   3.2333427  62.0807427
  17.7280785   3.6572840  62.2242076  16.8218227   2.5767051  62.7745990
  20.8517334   8.8562010  58.4626159  20.2226197   9.0207725  57.7602227
  20.4642996   9.2703620  59.2337123  24.7306566   9.7916448  55.8170523
  24.0457604  10.1715350  55.2667556  24.8150415  10.4011775  56.5502471
  21.9857498   7.4376407  62.4165866  22.1974393   8.0808167  61.7400247
  21.9387246   6.6038724  61.9487796  19.5883727   0.0494228  59.3202438
  18.7268206   0.3475482  59.6119176  19.6146161   0.2664627  58.3883471
  16.4045296   8.5936419  55.7276244  16.8683642   8.8724122  54.9380867
  16.1402094   7.6919863  55.5449335  13.2969377   8.1407900  58.6656007
  13.8670734   8.5695168  58.0273492  13.8877489   7.8590485  59.3640193
  15.3414182   4.7159571  52.5365809  16.0438225   5.1680615  53.0039736
  15.0094811   4.0743390  53.1645702  16.8659929   9.8632406  62.7448934
  16.9304362  10.3252813  63.5807106  16.1570853   9.2329771  62.8731244
  31.1909319   6.6587111  56.9373195  30.4373027   6.0894509  56.7817200
  31.3256860   6.6249776  57.8843830  16.5807947  11.5300514  52.6127915
  16.4453621  12.3752049  53.0412762  17.1217759  11.7319791  51.8493848
  10.0337344   9.0475952  53.1855840  10.5461865   9.8419202  53.3361404
  10.6860057   8.3502242  53.1189441  11.8432229  12.1641708  55.2678593
  12.0198857  13.0859673  55.0799577  12.6389062  11.8500127  55.6972973
  18.2076423  12.1524080  66.7428257  17.7640277  11.3660459  66.4249161
  18.8693637  12.3403231  66.0772147  12.9663544  13.6819882  61.2688935
  13.5170969  13.5536945  60.4965929  12.1275020  13.9814771  60.9183828
  20.3057661  12.4326880  64.7709658  20.2876136  13.2535761  64.2789927
  21.2277581  12.3080955  64.9959799  16.7630715   9.9471009  65.6133166
  17.2959052   9.1859298  65.3832474  16.2344796   9.6544661  66.3557321
  19.8950693   5.0439687  49.6499243  19.3797316   5.8144291  49.8887631
  19.6228001   4.3704823  50.2732305  24.8684967   7.7972041  51.5852417
  24.0914410   7.4583201  51.1407579  25.5476448   7.8024664  50.9107382
  19.6836996   2.9166779  51.4759024  19.3787132   3.2312928  52.3269167
  20.6367438   2.9948199  51.5186357  18.1283428   9.0757002  53.1251978
  17.6004790   8.3409762  52.8125216  17.6270931   9.8531678  52.8791947
  23.1076274   7.2706022  58.2419025  22.4499948   7.9605284  58.3299153
  23.9116673   7.6602454  58.5853011  21.9181733   5.6250395  56.2922966
  22.4313615   6.2580387  56.7944676  22.5682957   5.0251591  55.9266326
  16.2736028   6.8937212  46.1286951  15.3663090   6.6626466  46.3278100
  16.7707060   6.0974831  46.3160933  19.1804107  15.6034719  49.0483637
  18.5065806  15.9066416  49.6568595  19.5669929  16.4063800  48.6989095
  18.3962564   3.0999851  58.5381307  17.4785125   3.3214798  58.3802995
  18.8122707   3.1746161  57.6793014  19.1797611   4.4991266  53.6683987
  19.9269430   5.0112664  53.3591109  19.4489201   4.1775319  54.5288381
  17.4524262   6.9949807  50.6510941  16.5435481   6.7108840  50.7483411
  17.4819345   7.4148886  49.7914248  22.6843529  10.6056397  54.4202109
  22.2305856   9.7647306  54.4767299  22.0537496  11.2417795  54.7576889
  21.6276449   1.5348383  55.6502776  20.8899205   1.0225769  55.9813019
  21.8803222   1.0948764  54.8386053  21.1276468  12.4432893  55.3551927
  21.4199443  13.0037950  54.6364293  21.6375089  12.7361454  56.1105086
  16.0009156   4.6078428  56.7520737  16.0557765   3.6552264  56.6763213
  15.1900358   4.7637867  57.2362035  17.1500349   8.5358551  47.9899020
  16.7119779   7.8194410  47.5304657  17.8910790   8.7634666  47.4284111
  16.0910093  13.2213244  56.4445380  16.0486272  13.4474091  55.5153912
  17.0072792  12.9876619  56.5931181  19.5375727   3.6897312  63.3426009
  19.8925115   3.9168785  64.2020475  20.1847858   4.0215689  62.7203265
  25.2673464   6.8115748  54.0475339  25.1291363   7.0017344  53.1196528
  24.9109683   7.5735131  54.5043390  25.2942844   8.8792275  59.0586610
  25.7279350   8.7867564  59.9069664  26.0074424   8.8549775  58.4206626
  14.2075894  10.0976273  56.2407343  15.0016493   9.6026594  56.0389918
  13.4967587   9.5694137  55.8775049  19.0270739  12.4794369  60.5919711
  19.0807761  13.0485305  61.3597427  18.1585520  12.6496254  60.2273748
  26.1558393   8.9215975  61.5919495  26.3494283   9.8261786  61.8378770
  26.0559011   8.4623395  62.4258080  21.2173502   9.0722718  67.1660376
  21.0659008   8.8433270  66.2490460  21.2078181  10.0293320  67.1791721
  17.9858838   6.6454631  62.1506642  18.9150898   6.7965791  61.9775610
  17.5649868   6.7338652  61.2955289  16.7847170  10.6705295  59.9205180
  16.6458256  10.3024080  60.7931118  15.9961766  11.1852935  59.7489138
  17.3795322  15.7714392  51.2630717  17.5547078  15.3002435  52.0776339
  16.6928110  16.3980158  51.4911977  18.3352385  10.0486898  57.3094018
  18.0002218  10.0087668  58.2051668  17.8356331   9.3831614  56.8364428
  21.2711577   7.3942932  47.5831078  20.6540748   6.6689761  47.4864130
  20.8028065   8.1552293  47.2398152  14.9378930   5.1674487  62.3230279
  15.6478548   4.5267680  62.2816897  14.8948238   5.4187382  63.2456459
  22.9265709  12.1041841  65.2436858  22.8678255  11.4201061  64.5767441
  23.3285227  12.8460831  64.7917484  11.9456407  18.9203755  58.0370577
  12.1853006  19.5522279  58.7149595  11.1025604  18.5691795  58.3235936
  22.9283116  10.0681425  63.4750838  22.0409895   9.7307346  63.5977236
  23.4981667   9.3364456  63.7119603  16.4584269  14.7282877  60.4412081
  16.3854441  15.5337849  60.9531385  16.0161662  14.9274843  59.6160102
  16.2474049  13.9654647  53.9514902  15.4641571  14.5076327  54.0453127
  16.9466794  14.4828627  54.3509144  27.4100456   5.4789642  58.2367399
  27.3990333   6.3614357  57.8661332  26.5417836   5.1261193  58.0421936
  18.9182953  14.6269711  62.5970239  19.6310925  15.2617176  62.5246141
  18.4272981  14.7233577  61.7810241  20.6400480   8.5320964  54.1687531
  19.7056758   8.6522426  53.9992235  20.8177148   7.6293431  53.9047541
  24.0273031   4.3738283  54.7037565  24.4933483   5.2066275  54.6297868
  24.4780532   3.9083265  55.4082824  13.9694866  12.3764155  63.4175810
  14.6704326  13.0100637  63.5705204  13.4989981  12.7178886  62.6571450
  22.0949262  10.7182104  51.7023717  22.3709106  10.6038699  52.6117591
  21.2253761  10.3199589  51.6635890  21.7696152   4.9308762  61.2428361
  21.1167603   5.1784669  60.5880813  22.1476532   4.1172900  60.9090838
  18.7303326  14.9668455  55.3456531  18.9125721  14.1490111  55.8084283
  19.5536312  15.1836147  54.9081421  19.0645492  13.8936640  52.6071579
  19.5933258  13.3829095  51.9941742  19.3273711  13.5779170  53.4717112
   9.5662584  11.9100510  60.3506913  10.1516021  11.1644197  60.4834817
   9.3687423  12.2204466  61.2343577  12.4201240  14.9451757  55.3669355
  11.7511615  15.4297885  54.8833395  12.2814109  15.1920977  56.2812734
  16.5606508  16.9795500  61.9652014  17.1124816  17.1427122  62.7301099
  16.9012702  17.5699938  61.2932039  21.4117383  11.8056758  67.8200668
  21.9557287  12.4186716  67.3255623  20.8304227  12.3636336  68.3367681
  19.6974896  14.9277476  58.9515696  19.5726035  14.1267216  58.4426641
  20.3553987  15.4223669  58.4629666  21.7609804  12.7286496  60.5795246
  20.8140139  12.6091847  60.5073573  22.1092577  11.8408994  60.6621507
  18.7656237  12.5239212  56.7799598  18.6181200  11.5955920  56.9607168
  19.5909731  12.5459303  56.2956673  22.3690359  13.3467771  57.8664471
  23.2936907  13.1410632  57.7288922  22.2005662  13.0984172  58.7753812
  22.1585675  13.8653438  53.2226562  22.3322553  13.2999861  52.4700415
  22.6514566  14.6654333  53.0406052  28.0125066   6.6289861  54.8416862
  28.4556212   5.8797187  54.4435985  27.1351577   6.6199998  54.4590594
  23.1460848  13.1820203  50.3223461  23.8411752  13.8026896  50.5410775
  23.4883998  12.3315554  50.5975839  25.0452271  10.6319908  51.8510791
  25.5703595  10.9707181  51.1260111  24.9574623   9.6966924  51.6673926
  16.7072320  14.5453982  63.9800668  17.0159446  14.3003129  64.8523368
  17.5047802  14.7500621  63.4919538  16.7292932  16.6991892  56.2106045
  16.2897922  16.2068270  56.9038901  17.4801049  16.1564859  55.9698120
   9.2085271  12.8903433  56.2130673  10.0343290  12.5907204  55.8329316
   8.8579323  12.1211055  56.6620461  14.1766804  12.2429901  58.2828346
  13.5546813  11.5800606  57.9830574  14.8471671  12.2691033  57.6001994
   7.4093876  10.8089759  57.1719606   6.5725784  10.3811933  56.9903608
   7.3817521  11.0022202  58.1090397  24.7346177  11.2652812  67.1561989
  23.9441721  11.2476951  66.6166489  24.4979531  11.8041106  67.9111026
  24.8544052   8.1145278  64.4694718  24.9042057   7.9495286  65.4110241
  24.7457975   7.2472537  64.0792599  13.7380311  10.7933824  51.7586807
  13.8868431  11.4769289  51.1053480  14.5446754  10.7738914  52.2736263
  26.3562249  10.5342220  64.7136739  26.0647057  10.8972201  65.5500200
  25.7434380   9.8209228  64.5350072  27.5557931   8.0995100  57.2339310
  28.3904822   8.5384904  57.3976870  27.6917060   7.6233753  56.4147555
  24.6049437   5.6574835  63.1816797  25.0803559   5.8502481  62.3735649
  23.6815002   5.7134020  62.9360181  11.4932944   6.8199002  52.7647876
  11.2478986   5.9161332  52.9628086  11.6628858   6.8216152  51.8227354
  17.2375716  13.2881955  49.2298554  16.6649683  13.9072142  48.7769026
  17.8108510  13.8381316  49.7638476  23.3051106   2.5340595  61.4145103
  24.2568529   2.6338692  61.4357327  23.1354556   1.7418863  61.9243187
  21.3265486  -0.3803822  61.6004504  20.7315418  -0.0998809  60.9050993
  21.0415182   0.1090079  62.3721245  20.4572976  13.5719105  50.3607137
  21.3903649  13.5064666  50.5640012  20.3696189  14.4075372  49.9021669
  23.0860993  12.8884975  47.3211084  23.0074624  12.5544839  48.2146842
  23.9070659  13.3806743  47.3202556  25.7839184   5.7546714  60.5287403
  25.7515504   4.8162715  60.7147087  26.3939807   5.8330751  59.7953228
  17.6222515   4.6242767  46.5714607  18.5681619   4.4948975  46.6403025
  17.2436760   3.8857429  47.0484035  25.9333672   2.5457758  60.5745686
  25.4172721   1.7616214  60.3875615  26.8173621   2.2176474  60.7392205
  31.6015734   6.8162721  59.6693439  32.3319122   6.5548009  60.2301143
  30.9922679   6.0791443  59.7095507  29.6831031   4.9570584  60.2667891
  28.9564194   4.8226549  59.6584382  29.2678318   5.2647412  61.0724609
  10.5023280   6.5861548  60.6738045  10.7209290   7.5178656  60.6926079
  10.9149054   6.2269523  61.4592849  11.1655753   9.4796427  60.9174289
  12.1199006   9.4480370  60.8504221  10.9668276   9.0187051  61.7324515
  11.7555135   8.0497543  63.4845087  12.5748024   8.5441622  63.5079924
  12.0291942   7.1329512  63.4562654  21.5121731   0.4408296  52.8473042
  20.6247586   0.7257946  52.6293237  21.9275720   0.2802059  52.0000319
  24.8636267   0.4654817  56.5627382  25.6396657   0.9551269  56.8351998
  24.1384401   0.8912871  57.0199251  27.3008826   1.1782436  57.6201322
  27.8953317   0.9378172  56.9094631  27.3735409   0.4589567  58.2474859
   9.5205981  15.0216047  57.9344487   9.3860449  14.2616448  57.3682485
   9.1038044  15.7456947  57.4673276  20.6564944  10.2052970  46.9421062
  21.3600795  10.4102973  47.5578718  19.9327593  10.7729732  47.2070146
  21.4862755   5.9562832  53.0623333  21.4297956   6.4131383  52.2230965
  22.0391097   5.1953516  52.8846175  25.2967561   1.7452564  53.8873452
  25.0404495   1.3449199  54.7181660  24.6720429   2.4596358  53.7623591
  29.6079898   4.4848637  56.3944743  29.0479456   4.5541826  57.1676306
  29.0023402   4.3089621  55.6744240  12.6775107  15.9185364  58.1462930
  12.5607491  16.8630796  58.0441620  11.8567554  15.6158925  58.5348729
  22.5651642  10.6435500  48.9919522  23.3997246  10.2116698  48.8096997
  22.4035985  10.4717513  49.9196417  22.2197534   7.1467613  50.3575862
  22.1646338   6.9811884  49.4164306  21.5943589   7.8543646  50.5138051
  13.7029621  16.5713626  61.3618858  14.6056868  16.6037236  61.6785353
  13.4766991  15.6414077  61.3765194  15.4583223  15.3244612  58.0228937
  14.5078854  15.3246474  57.9093309  15.7615710  14.5777347  57.5064971
  28.0025623  21.1132579  59.0236224  27.6644135  20.9973644  58.1356759
  28.8715391  20.7123744  59.0037230  23.8612439  22.9668055  55.0133115
  23.2977304  22.8757992  54.2449403  23.7464834  22.1467960  55.4935607
  28.4845406  22.2667431  64.9822429  28.4734047  21.8720229  64.1102933
  28.6466046  21.5333503  65.5756201  25.2052667  25.0504542  63.9301613
  24.9142533  25.9550173  63.8148280  25.8409652  25.0921070  64.6445683
  26.1308874  22.4281391  60.5202973  26.7272446  22.2037413  59.8059936
  26.1883846  21.6866136  61.1228421  30.7477185  18.8856605  56.1627907
  31.5340275  18.4676028  55.8118324  31.0115890  19.7902697  56.3309556
  36.1485613  18.8231838  57.0660886  36.8810784  18.2531055  57.2998715
  35.3924968  18.4353438  57.5067391  27.7661732  21.2459079  54.2624228
  27.4019939  20.7189700  54.9737150  28.6228848  20.8557548  54.0890714
  33.6711033  12.5353412  61.5255494  33.3394358  13.4048823  61.3016709
  33.0756646  12.2189696  62.2049525  23.6155034  21.1879755  56.9588112
  22.6905530  21.0555969  57.1665803  23.8639447  21.9673974  57.4558054
  33.5639696  17.2548498  58.6048844  32.6556574  17.1863907  58.3107605
  33.5127292  17.7320443  59.4330670  20.9763845  20.8313028  57.7931901
  21.1056226  21.0847507  58.7071312  20.2961296  21.4240736  57.4736556
  27.6380562  18.6738144  66.5483742  26.8613896  19.2332064  66.5386606
  28.2771125  19.1594927  67.0698612  35.4301343  15.4564937  60.3826718
  34.7875723  15.7497470  59.7366513  34.9256271  15.3417857  61.1879915
  33.0841506  19.2028110  51.0712578  33.9959362  19.4355496  50.8960275
  32.5751153  19.7865154  50.5087656  25.8926934  21.4823597  66.1101709
  26.6341619  22.0208641  65.8336532  25.1863920  22.1089886  66.2673260
  31.3682274  23.6252738  64.7073870  31.7765630  23.1835148  63.9628503
  30.6459535  23.0505365  64.9608063  27.7213344  18.5625344  62.0807427
  28.5674539  18.9864758  62.2242076  27.6611982  17.9058969  62.7745990
  30.8712789  16.2229713  63.7388601  30.6273721  16.9771773  63.2022876
  31.1472720  16.6015060  64.5735848  32.8251252  22.7668325  62.4165866
  33.0368147  23.4100085  61.7400247  32.7781000  21.9330642  61.9487796
  30.4277481  15.3786146  59.3202438  29.5661960  15.6767399  59.6119176
  30.4539916  15.5956545  58.3883471  26.1807937  20.0451489  52.5365809
  26.8831980  20.4972532  53.0039736  25.8488565  19.4035307  53.1645702
  24.6288298  18.6363245  66.9117019  23.9986959  19.3179526  67.1452416
  24.5224386  18.5246327  65.9670157  19.9233270  18.3035041  57.8382943
  19.1332324  18.5592570  57.3623053  20.4144518  19.1183379  57.9434983
  33.9397080  25.6440280  60.5888224  34.7614524  25.2420468  60.3070905
  33.9359483  25.5408515  61.5404339  21.8748016  18.6679621  54.7966420
  21.0779179  18.7798315  55.3149915  21.6473608  19.0066273  53.9307310
  27.7053683  25.1924324  62.7448934  27.7698116  25.6544731  63.5807106
  26.9964607  24.5621689  62.8731244  18.2070973  18.5565532  60.2697934
  18.4579012  19.4412542  60.5355510  18.7430522  18.3770133  59.4973025
  42.0303073  21.9879029  56.9373195  41.2766781  21.4186427  56.7817200
  42.1650614  21.9541693  57.8843830  23.9069041  12.9384011  69.2742270
  23.5135986  12.3850210  69.9489914  24.7235181  13.2494590  69.6648787
  26.8237002  14.3541890  66.8662526  27.5646715  14.9549043  66.7866989
  27.0554925  13.6119528  66.3080569  21.9678340  19.5398257  65.1440756
  21.8531855  18.6383515  65.4447855  21.1122858  19.7861954  64.7925573
  29.0470178  27.4815998  66.7428257  28.6034032  26.6952376  66.4249161
  29.7087391  27.6695148  66.0772147  31.1451416  27.7618798  64.7709658
  31.1269891  28.5827679  64.2789927  32.0671336  27.6372873  64.9959799
  27.6024470  25.2762927  65.6133166  28.1352807  24.5151215  65.3832474
  27.0738551  24.9836579  66.3557321  30.7694165  10.3822993  61.1426808
  30.4258434  11.2724635  61.0665919  31.1373127  10.1924651  60.2796393
  18.8380015  22.7056524  53.9615410  19.6755237  23.1153532  53.7449118
  19.0158283  21.7655966  53.9315604  28.3191558  15.2181305  54.7084481
  27.4633155  14.8288155  54.5290120  28.7318510  15.2973266  53.8484267
  29.8490705  12.7527648  59.1076041  29.3455501  12.7157783  58.2943847
  30.1421312  13.6620391  59.1672698  26.0933591  12.8366378  58.1142223
  26.9586588  12.6409187  57.7548112  26.1611100  12.6076730  59.0411580
  30.5230751  18.2458696  51.4759024  30.2180886  18.5604845  52.3269167
  31.4761193  18.3240116  51.5186357  23.6995910  15.0668586  55.4858590
  24.2739662  14.8443767  54.7531783  24.2866892  15.1357280  56.2387191
  24.0265497  17.0973047  49.5054475  23.1902809  17.4347733  49.8263750
  23.8870267  16.9622027  48.5681612  26.0018578  11.9409835  54.2133659
  25.3482990  11.6258852  53.5890274  25.9599052  11.3185575  54.9393482
  29.2356318  18.4291768  58.5381307  28.3178879  18.6506715  58.3802995
  29.6516462  18.5038079  57.6793014  30.0191366  19.8283184  53.6683987
  30.7663185  20.3404581  53.3591109  30.2882955  19.5067237  54.5288381
  32.4670203  16.8640300  55.6502776  31.7292960  16.3517686  55.9813019
  32.7196977  16.4240682  54.8386053  32.5681830   9.6416552  56.2444546
  32.8740707   8.7813916  55.9570461  33.2934435  10.2334172  56.0443540
  18.8606186  20.0447239  54.6326144  18.6630586  19.4516600  53.9077210
  18.3052850  19.7399449  55.3502082  26.8402910  19.9370345  56.7520737
  26.8951520  18.9844182  56.6763213  26.0294112  20.0929784  57.2362035
  24.7795270  18.5547405  54.5111116  23.9663136  18.8541576  54.9176308
  25.2754264  18.1603094  55.2285598  30.3769482  19.0189230  63.3426009
  30.7318869  19.2460703  64.2020475  31.0241613  19.3507606  62.7203265
  24.2709345  16.1265761  60.1272351  24.9108724  15.9854520  59.4295314
  23.4386875  15.8400274  59.7510953  21.3552412  19.5711273  52.3167096
  20.4250000  19.5095728  52.5337058  21.4509884  19.0487226  51.5203737
  21.2737961  16.0966086  54.9045337  21.5344779  17.0111419  54.7954498
  22.0955134  15.6290528  55.0541950  22.7462887  17.5103843  62.0744162
  23.4185940  17.3021205  61.4256811  21.9192673  17.3125929  61.6349394
  36.9952148  24.2507893  61.5919495  37.1888038  25.1553704  61.8378770
  36.8952766  23.7915312  62.4258080  28.6488459  14.1365784  64.0909823
  28.0016374  14.8355733  63.9974299  29.4189474  14.5701928  64.4586071
  32.0567256  24.4014636  67.1660376  31.9052763  24.1725188  66.2490460
  32.0471936  25.3585237  67.1791721  28.8252593  21.9746549  62.1506642
  29.7544653  22.1257708  61.9775610  28.4043623  22.0630569  61.2955289
  23.1490384  20.7846446  62.8346599  23.0110182  20.0526685  63.4358138
  24.0595307  20.6955346  62.5530787  25.7772684  20.4966405  62.3230279
  26.4872303  19.8559597  62.2816897  25.7341993  20.7479300  63.2456459
  33.7659463  27.4333758  65.2436858  33.7072009  26.7492979  64.5767441
  34.1678982  28.1752748  64.7917484  24.4901618  17.4831623  64.1425918
  23.9538975  17.0322361  64.7947515  23.9018327  17.6177532  63.3996383
  22.7850162  34.2495672  58.0370577  23.0246760  34.8814196  58.7149595
  21.9419358  33.8983712  58.3235936  33.7676870  25.3973342  63.4750838
  32.8803649  25.0599264  63.5977236  34.3375421  24.6656374  63.7119603
  15.4206018  21.7297434  56.7993889  16.1077057  21.4159164  56.2114904
  15.2654146  22.6338799  56.5261140  20.2240740  16.6187631  61.2278913
  20.1398928  16.0113300  60.4929323  19.4023446  17.1096649  61.2288409
  30.3964454  15.1041194  56.5949108  30.8933153  14.3511157  56.2750178
  29.6251435  15.1405511  56.0292317  38.2494211  20.8081560  58.2367399
  38.2384087  21.6906275  57.8661332  37.3811590  20.4553111  58.0421936
  29.7576707  29.9561629  62.5970239  30.4704680  30.5909094  62.5246141
  29.2666736  30.0525495  61.7810241  26.9799422  17.2458577  56.3220792
  26.6097210  16.6929618  57.0101698  27.4758515  16.6416711  55.7695792
  34.8666786  19.7030201  54.7037565  35.3327238  20.5358192  54.6297868
  35.3174286  19.2375182  55.4082824  32.8383448  12.0710788  58.7428467
  31.9246528  12.3015015  58.9110674  33.2676550  12.1549232  59.5942499
  32.6089907  20.2600680  61.2428361  31.9561357  20.5076587  60.5880813
  32.9870287  19.4464818  60.9090838  28.6577480  21.0020491  67.7294398
  27.9818117  20.9014620  68.3996773  29.4805114  20.8459704  68.1930395
  14.9973994  19.8098027  59.0711356  15.0358093  19.2761618  59.8648474
  14.4914286  19.2833233  58.4522333  27.4000263  32.3087418  61.9652014
  27.9518571  32.4719040  62.7301099  27.7406456  32.8991856  61.2932039
  22.3764756  14.6562568  62.5673898  22.4406082  15.5177399  62.1551296
  22.3131876  14.0436570  61.8346257  21.8517028  16.7285701  66.2146933
  22.4789067  16.3462778  66.8284457  20.9944947  16.5099902  66.5802625
  32.2511137  27.1348676  67.8200668  32.7951041  27.7478634  67.3255623
  31.6697982  27.6928254  68.3367681  18.6282571  18.5362130  52.1465287
  18.9236012  17.6272808  52.0932341  17.7270607  18.5149869  51.8246290
  22.1576818  16.6118126  58.1292836  21.4363404  17.2254094  57.9900309
  22.9470074  17.1475891  58.0509482  24.9603132  13.9472553  64.4033488
  25.4837534  14.1934849  65.1659797  24.7415465  14.7792588  63.9836625
  20.3570413  16.2176227  52.2704613  20.0283119  15.3373606  52.0879719
  20.7109784  16.1623896  53.1581002  23.4712236  16.5049197  52.6380090
  23.8108308  17.0335118  51.9158699  23.9184356  16.8429603  53.4138657
  26.1655677  14.8886248  62.0883158  25.8252497  14.0894061  62.4903838
  25.4594683  15.1887959  61.5159992  26.8172149  11.9735560  60.5410481
  27.6398218  11.4996038  60.4189372  27.0610212  12.7526044  61.0409168
  25.4580383  15.0023819  50.8373383  26.1788746  15.3805071  50.3337100
  24.8345687  15.7212695  50.9408361  29.6011506  15.7068968  51.7731715
  29.8175120  16.5893606  51.4720544  29.1205573  15.3155181  51.0437357
  24.3410727  18.6654681  58.3502460  24.1955308  18.9794984  59.2426742
  23.8635931  19.2839581  57.7973359  26.2007110  15.6557229  58.3983350
  26.1868679  14.7598322  58.0615648  26.9179538  15.6627893  59.0321636
  28.0533241  16.0894569  60.4436477  27.7951019  17.0111640  60.4420807
  27.5218281  15.6925004  61.1336941  18.8156390  21.2060025  61.2890121
  18.2709858  21.9819833  61.4210396  19.6935739  21.5530830  61.1309243
  25.6044006  14.5371609  53.6670920  25.7259917  13.6088255  53.8661807
  25.3146049  14.5510295  52.7549235  28.4735197  12.2226520  56.8037640
  28.4956893  12.2865853  55.8489619  28.8903256  11.3831028  56.9978146
  38.8518821  21.9581779  54.8416862  39.2949967  21.2089104  54.4435985
  37.9745331  21.9491915  54.4590594  19.6022411  20.3329922  64.1820278
  18.8604147  20.4812557  64.7684908  19.2815156  20.5938187  63.3187027
  27.5466074  29.8745900  63.9800668  27.8553200  29.6295047  64.8523368
  28.3441556  30.0792538  63.4919538  20.0479025  28.2195350  56.2130673
  20.8737045  27.9199122  55.8329316  19.6973077  27.4502973  56.6620461
  18.2487630  26.1381677  57.1719606  17.4119538  25.7103851  56.9903608
  18.2211276  26.3314120  58.1090397  25.0885086  16.0503606  67.8760852
  25.1373241  16.9265729  67.4938622  25.6307600  15.5081000  67.3032496
  35.5739931  26.5944730  67.1561989  34.7835475  26.5768869  66.6166489
  35.3373286  27.1333023  67.9111026  35.6937806  23.4437196  64.4694718
  35.7435811  23.2787204  65.4110241  35.5851730  22.5764455  64.0792599
  32.9841569  19.4268124  65.7854025  33.8851432  19.2874589  65.4938022
  33.0589543  19.5922579  66.7252202  27.3184374  16.8034979  64.6307211
  26.4487684  17.0968545  64.3589799  27.5543855  17.3875424  65.3514475
  37.1956003  25.8634138  64.7136739  36.9040812  26.2264118  65.5500200
  36.5828135  25.1501146  64.5350072  38.3951686  23.4287017  57.2339310
  39.2298577  23.8676821  57.3976870  38.5310814  22.9525671  56.4147555
  35.4443192  20.9866752  63.1816797  35.9197313  21.1794399  62.3735649
  34.5208757  21.0425938  62.9360181  22.3326698  22.1490919  52.7647876
  22.0872740  21.2453249  52.9628086  22.5022613  22.1508070  51.8227354
  30.0223408  13.0214596  62.1472631  30.5405352  13.7575623  61.8219120
  29.6678541  13.3278589  62.9819390  21.6022346  17.8819277  50.2634037
  20.9091591  17.9563632  49.6074073  21.3574098  17.1179621  50.7855554
  30.2736002   9.4414878  57.6673528  30.5537756   8.7738067  58.2933954
  31.0586609   9.6343974  57.1548192  34.1444861  17.8632512  61.4145103
  35.0962283  17.9630610  61.4357327  33.9748311  17.0710781  61.9243187
  32.1659240  14.9488096  61.6004504  31.5709172  15.2293108  60.9050993
  31.8808937  15.4381996  62.3721245  36.6232938  21.0838632  60.5287403
  36.5909258  20.1454633  60.7147087  37.2333562  21.1622669  59.7953228
  36.7727427  17.8749675  60.5745686  36.2566475  17.0908132  60.3875615
  37.6567375  17.5468392  60.7392205  34.4338154  11.6190691  56.5341499
  34.2362975  11.3105779  57.4184831  35.0437859  12.3452330  56.6639428
  42.4409488  22.1454639  59.6693439  43.1712877  21.8839927  60.2301143
  41.8316434  21.4083361  59.7095507  40.5224785  20.2862501  60.2667891
  39.7957949  20.1518466  59.6584382  40.1072072  20.5939330  61.0724609
  28.3454962  24.0052431  68.0315264  29.2657971  24.1831030  68.2255310
  28.3104545  23.0608477  67.8794963  17.5637127  19.1991025  56.9568538
  17.2439911  18.3456333  56.6642912  17.0170555  19.4139603  57.7126506
  21.3417034  21.9153466  60.6738045  21.5603044  22.8470574  60.6926079
  21.7542808  21.5561440  61.4592849  28.2621252  12.4221551  52.6613733
  27.4521980  12.0768636  53.0368979  28.9505669  12.1129095  53.2501345
  30.1911800  11.4999598  54.2838030  30.7442839  11.9195051  54.9428053
  30.4281887  10.5735346  54.3260986  26.2144900  17.4886672  70.0640794
  26.1141626  18.4381029  69.9952885  25.9966442  17.1604910  69.1916864
  17.4325387  22.8193936  58.9261660  16.7388858  22.4047889  58.4131614
  18.1798378  22.8614473  58.3295079  33.5690607  13.6100123  53.7916694
  32.9889276  14.2684927  53.4094747  33.3026540  12.7877468  53.3804112
  32.0194174  13.0105181  55.9938014  32.5193952  13.1221715  55.1852333
  32.6629782  12.7066234  56.6338823  26.0776170  20.9183810  68.8805855
  25.5943251  21.7184171  69.0869744  26.1637109  20.9291755  67.9273299
  19.3462129  22.7512190  56.8027675  19.3232817  22.8499877  55.8509558
  19.6562766  23.5977341  57.1244841  22.5948889  23.3789461  63.4845087
  23.4141778  23.8733540  63.5079924  22.8685697  22.4621429  63.4562654
  32.3515485  15.7700213  52.8473042  31.4641340  16.0549864  52.6293237
  32.7669475  15.6093977  52.0000319  35.7030022  15.7946734  56.5627382
  36.4790412  16.2843187  56.8351998  34.9778156  16.2204789  57.0199251
  38.1402580  16.5074354  57.6201322  38.7347071  16.2670090  56.9094631
  38.2129164  15.7881484  58.2474859  20.3599736  30.3507965  57.9344487
  20.2254204  29.5908365  57.3682485  19.9431798  31.0748864  57.4673276
  36.1361315  17.0744481  53.8873452  35.8798249  16.6741117  54.7181660
  35.5114183  17.7888275  53.7623591  40.4473653  19.8140555  56.3944743
  39.8873211  19.8833744  57.1676306  39.8417156  19.6381539  55.6744240
  17.8483803  17.7127595  64.1837284  18.4942667  17.2026549  64.6724509
  17.6400955  18.4496277  64.7580709  30.3737196  24.7808443  69.6829425
  31.2428355  24.9549095  69.3216059  29.8943947  25.6002859  69.5605154
  26.3687414  11.9767640  49.9361180  26.3566084  12.9209480  50.0929451
  27.2610836  11.7937785  49.6420641  24.5423376  31.9005544  61.3618858
  25.4450623  31.9329154  61.6785353  24.3160746  30.9705994  61.3765194
  30.1839533   8.5710416  54.1907117  29.4171929   8.0168903  54.3363799
  30.5950238   8.6432285  55.0521269  22.1881294  14.8595212  68.2812298
  23.0512756  14.5032017  68.4915623  21.6146705  14.5209107  68.9687702
  39.3239161  37.5959348  64.9822429  39.3127801  37.2012147  64.1102933
  39.4859800  36.8625421  65.5756201  36.9702629  37.7573309  60.5202973
  37.5666201  37.5329331  59.8059936  37.0277600  37.0158054  61.1228421
  44.5104787  27.8645330  61.5255494  44.1788112  28.7340741  61.3016709
  43.9150401  27.5481614  62.2049525  41.0036307  40.0657876  60.9251407
  40.7037030  40.9682914  60.8167214  40.6587366  39.7990059  61.7772560
  38.4774316  34.0030061  66.5483742  37.7007651  34.5623982  66.5386606
  39.1164880  34.4886844  67.0698612  46.2695097  30.7856854  60.3826718
  45.6269477  31.0789387  59.7366513  45.7650026  30.6709775  61.1879915
  36.7320689  36.8115515  66.1101709  37.4735373  37.3500559  65.8336532
  36.0257674  37.4381803  66.2673260  42.2076028  38.9544655  64.7073870
  42.6159384  38.5127066  63.9628503  41.4853290  38.3797283  64.9608063
  38.5607098  33.8917262  62.0807427  39.4068294  34.3156676  62.2242076
  38.5005736  33.2350886  62.7745990  42.5304843  39.5145846  58.4626159
  41.9013706  39.6791560  57.7602227  42.1430505  39.9287455  59.2337123
  41.7106544  31.5521630  63.7388601  41.4667476  32.3063691  63.2022876
  41.9866474  31.9306978  64.5735848  43.6645007  38.0960243  62.4165866
  43.8761902  38.7392003  61.7400247  43.6174755  37.2622559  61.9487796
  34.9756886  38.7991735  58.6656007  35.5458243  39.2279004  58.0273492
  35.5664998  38.5174320  59.3640193  35.4682053  33.9655163  66.9117019
  34.8380713  34.6471444  67.1452416  35.3618140  33.8538245  65.9670157
  44.7790835  40.9732198  60.5888224  45.6008278  40.5712385  60.3070905
  44.7753237  40.8700432  61.5404339  38.5447438  40.5216241  62.7448934
  38.6091870  40.9836649  63.5807106  37.8358362  39.8913606  62.8731244
  34.7462795  28.2675929  69.2742270  34.3529741  27.7142127  69.9489914
  35.5628936  28.5786507  69.6648787  37.6630756  29.6833808  66.8662526
  38.4040470  30.2840961  66.7866989  37.8948679  28.9411446  66.3080569
  32.8072094  34.8690175  65.1440756  32.6925609  33.9675432  65.4447855
  31.9516612  35.1153872  64.7925573  39.8863932  42.8107915  66.7428257
  39.4427786  42.0244294  66.4249161  40.5481146  42.9987066  66.0772147
  41.9845170  43.0910715  64.7709658  41.9663645  43.9119596  64.2789927
  42.9065090  42.9664791  64.9959799  38.4418224  40.6054845  65.6133166
  38.9746561  39.8443133  65.3832474  37.9132305  40.3128497  66.3557321
  41.6087919  25.7114911  61.1426808  41.2652189  26.6016552  61.0665919
  41.9766882  25.5216568  60.2796393  40.6884460  28.0819566  59.1076041
  40.1849255  28.0449701  58.2943847  40.9815066  28.9912309  59.1672698
  36.9327345  28.1658296  58.1142223  37.7980342  27.9701104  57.7548112
  37.0004854  27.9368647  59.0411580  44.7863783  37.9289858  58.2419025
  44.1287457  38.6189119  58.3299153  45.5904182  38.3186290  58.5853011
  43.4075585  24.9708470  56.2444546  43.7134462  24.1105833  55.9570461
  44.1328190  25.5626090  56.0443540  41.2163236  34.3481147  63.3426009
  41.5712624  34.5752620  64.2020475  41.8635367  34.6799524  62.7203265
  35.1103099  31.4557678  60.1272351  35.7502479  31.3146437  59.4295314
  34.2780630  31.1692192  59.7510953  39.4882213  29.4657701  64.0909823
  38.8410128  30.1647651  63.9974299  40.2583228  29.8993845  64.4586071
  42.8961011  39.7306554  67.1660376  42.7446517  39.5017105  66.2490460
  42.8865690  40.6877155  67.1791721  39.6646347  37.3038466  62.1506642
  40.5938407  37.4549626  61.9775610  39.2437377  37.3922487  61.2955289
  33.9884138  36.1138363  62.8346599  33.8503936  35.3818602  63.4358138
  34.8989062  36.0247264  62.5530787  36.6166439  35.8258323  62.3230279
  37.3266057  35.1851515  62.2816897  36.5735747  36.0771218  63.2456459
  44.6053218  42.7625676  65.2436858  44.5465764  42.0784896  64.5767441
  45.0072736  43.5044666  64.7917484  35.3295373  32.8123541  64.1425918
  34.7932730  32.3614279  64.7947515  34.7412081  32.9469449  63.3996383
  44.6070625  40.7265260  63.4750838  43.7197404  40.3891182  63.5977236
  45.1769176  39.9948291  63.7119603  26.2599772  37.0589352  56.7993889
  26.9470812  36.7451082  56.2114904  26.1047901  37.9630716  56.5261140
  43.6777203  27.4002705  58.7428467  42.7640283  27.6306932  58.9110674
  44.1070304  27.4841149  59.5942499  39.4971234  36.3312408  67.7294398
  38.8211871  36.2306538  68.3996773  40.3198868  36.1751622  68.1930395
  33.2158510  29.9854486  62.5673898  33.2799837  30.8469317  62.1551296
  33.1525631  29.3728487  61.8346257  32.6910783  32.0577618  66.2146933
  33.3182822  31.6754696  66.8284457  31.8338702  31.8391820  66.5802625
  43.0904892  42.4640593  67.8200668  43.6344796  43.0770552  67.3255623
  42.5091736  43.0220172  68.3367681  35.7996886  29.2764470  64.4033488
  36.3231288  29.5226767  65.1659797  35.5809220  30.1084505  63.9836625
  37.0049431  30.2178165  62.0883158  36.6646252  29.4185979  62.4903838
  36.2988438  30.5179876  61.5159992  37.6565903  27.3027478  60.5410481
  38.4791972  26.8287956  60.4189372  37.9003967  28.0817962  61.0409168
  37.0400865  30.9849147  58.3983350  37.0262434  30.0890240  58.0615648
  37.7573293  30.9919810  59.0321636  38.8926995  31.4186487  60.4436477
  38.6344773  32.3403557  60.4420807  38.3612036  31.0216921  61.1336941
  29.6550144  36.5351943  61.2890121  29.1103612  37.3111751  61.4210396
  30.5329494  36.8822747  61.1309243  39.3128951  27.5518437  56.8037640
  39.3350648  27.6157770  55.8489619  39.7297010  26.7122946  56.9978146
  30.4416166  35.6621839  64.1820278  29.6997902  35.8104475  64.7684908
  30.1208910  35.9230105  63.3187027  35.9278840  31.3795524  67.8760852
  35.9766996  32.2557647  67.4938622  36.4701354  30.8372917  67.3032496
  46.4133686  41.9236647  67.1561989  45.6229230  41.9060786  66.6166489
  46.1767040  42.4624941  67.9111026  46.5331561  38.7729114  64.4694718
  46.5829566  38.6079121  65.4110241  46.4245484  37.9056373  64.0792599
  43.8235323  34.7560042  65.7854025  44.7245186  34.6166507  65.4938022
  43.8983298  34.9214497  66.7252202  38.1578129  32.1326897  64.6307211
  37.2881438  32.4260463  64.3589799  38.3937609  32.7167342  65.3514475
  48.0349758  41.1926055  64.7136739  47.7434566  41.5556036  65.5500200
  47.4221889  40.4793064  64.5350072  46.2836946  36.3158670  63.1816797
  46.7591068  36.5086316  62.3735649  45.3602511  36.3717856  62.9360181
  40.8617163  28.3506514  62.1472631  41.3799106  29.0867540  61.8219120
  40.5072295  28.6570507  62.9819390  41.1129757  24.7706796  57.6673528
  41.3931510  24.1029985  58.2933954  41.8980364  24.9635892  57.1548192
  44.9838615  33.1924430  61.4145103  45.9356038  33.2922528  61.4357327
  44.8142065  32.4002699  61.9243187  43.0052994  30.2780013  61.6004504
  42.4102927  30.5585026  60.9050993  42.7202691  30.7673914  62.3721245
  45.2731908  26.9482609  56.5341499  45.0756729  26.6397697  57.4184831
  45.8831614  27.6744248  56.6639428  39.1848716  39.3344349  68.0315264
  40.1051726  39.5122948  68.2255310  39.1498299  38.3900394  67.8794963
  32.1810789  37.2445383  60.6738045  32.3996799  38.1762491  60.6926079
  32.5936563  36.8853358  61.4592849  41.0305555  26.8291516  54.2838030
  41.5836593  27.2486969  54.9428053  41.2675641  25.9027264  54.3260986
  37.0538654  32.8178589  70.0640794  36.9535381  33.7672946  69.9952885
  36.8360196  32.4896828  69.1916864  42.8587928  28.3397098  55.9938014
  43.3587707  28.4513633  55.1852333  43.5023536  28.0358151  56.6338823
  36.9169924  36.2475728  68.8805855  36.4337006  37.0476088  69.0869744
  37.0030863  36.2583673  67.9273299  33.4342644  38.7081379  63.4845087
  34.2535533  39.2025458  63.5079924  33.7079451  37.7913347  63.4562654
  28.6877558  33.0419513  64.1837284  29.3336422  32.5318467  64.6724509
  28.4794709  33.7788194  64.7580709  41.2130950  40.1100360  69.6829425
  42.0822110  40.2841012  69.3216059  40.7337702  40.9294777  69.5605154
  41.0233288  23.9002334  54.1907117  40.2565684  23.3460821  54.3363799
  41.4343993  23.9724203  55.0521269  33.0275049  30.1887130  68.2812298
  33.8906511  29.8323935  68.4915623  32.4540460  29.8501025  68.9687702
  50.1632915  52.9251266  64.9822429  50.1521556  52.5304064  64.1102933
  50.3253555  52.1917339  65.5756201  55.3498542  43.1937247  61.5255494
  55.0181867  44.0632658  61.3016709  54.7544155  42.8773531  62.2049525
  55.2427205  47.9132333  58.6048844  54.3344083  47.8447742  58.3107605
  55.1914801  48.3904278  59.4330670  49.3168071  49.3321979  66.5483742
  48.5401405  49.8915899  66.5386606  49.9558634  49.8178762  67.0698612
  57.1088852  46.1148772  60.3826718  56.4663232  46.4081305  59.7366513
  56.6043780  46.0001692  61.1879915  47.5714443  52.1407432  66.1101709
  48.3129128  52.6792476  65.8336532  46.8651429  52.7673721  66.2673260
  53.0469783  54.2836573  64.7073870  53.4553139  53.8418983  63.9628503
  52.3247044  53.7089200  64.9608063  49.4000853  49.2209180  62.0807427
  50.2462048  49.6448593  62.2242076  49.3399491  48.5642804  62.7745990
  52.5500298  46.8813548  63.7388601  52.3061230  47.6355609  63.2022876
  52.8260229  47.2598896  64.5735848  54.5038761  53.4252160  62.4165866
  54.7155656  54.0683920  61.7400247  54.4568509  52.5914477  61.9487796
  52.1064990  46.0369981  59.3202438  51.2449469  46.3351235  59.6119176
  52.1327425  46.2540380  58.3883471  46.3075807  49.2947081  66.9117019
  45.6774468  49.9763361  67.1452416  46.2011895  49.1830162  65.9670157
  45.5856550  43.5967846  69.2742270  45.1923495  43.0434045  69.9489914
  46.4022690  43.9078425  69.6648787  48.5024511  45.0125726  66.8662526
  49.2434224  45.6132879  66.7866989  48.7342434  44.2703363  66.3080569
  43.6465849  50.1982093  65.1440756  43.5319364  49.2967350  65.4447855
  42.7910367  50.4445790  64.7925573  50.7257687  58.1399833  66.7428257
  50.2821541  57.3536212  66.4249161  51.3874900  58.3278984  66.0772147
  52.8238925  58.4202633  64.7709658  52.8057400  59.2411514  64.2789927
  53.7458845  58.2956708  64.9959799  49.2811979  55.9346763  65.6133166
  49.8140316  55.1735051  65.3832474  48.7526060  55.6420414  66.3557321
  52.4481674  41.0406828  61.1426808  52.1045943  41.9308470  61.0665919
  52.8160636  40.8508486  60.2796393  52.0556991  49.6773065  63.3426009
  52.4106378  49.9044538  64.2020475  52.7029122  50.0091442  62.7203265
  50.3275968  44.7949619  64.0909823  49.6803883  45.4939569  63.9974299
  51.0976983  45.2285763  64.4586071  53.7354765  55.0598471  67.1660376
  53.5840272  54.8309023  66.2490460  53.7259445  56.0169073  67.1791721
  50.5040102  52.6330384  62.1506642  51.4332162  52.7841544  61.9775610
  50.0831132  52.7214405  61.2955289  47.4560193  51.1550240  62.3230279
  48.1659812  50.5143433  62.2816897  47.4129502  51.4063135  63.2456459
  55.4446972  58.0917594  65.2436858  55.3859518  57.4076814  64.5767441
  55.8466490  58.8336584  64.7917484  46.1689127  48.1415458  64.1425918
  45.6326484  47.6906197  64.7947515  45.5805836  48.2761367  63.3996383
  54.5170957  42.7294623  58.7428467  53.6034037  42.9598850  58.9110674
  54.9464059  42.8133067  59.5942499  54.2877416  50.9184515  61.2428361
  53.6348866  51.1660422  60.5880813  54.6657796  50.1048653  60.9090838
  50.3364989  51.6604326  67.7294398  49.6605626  51.5598455  68.3996773
  51.1592623  51.5043540  68.1930395  44.0552265  45.3146403  62.5673898
  44.1193591  46.1761234  62.1551296  43.9919385  44.7020405  61.8346257
  43.5304537  47.3869536  66.2146933  44.1576576  47.0046613  66.8284457
  42.6732456  47.1683738  66.5802625  53.9298646  57.7932511  67.8200668
  54.4738550  58.4062469  67.3255623  53.3485491  58.3512089  68.3367681
  46.6390641  44.6056388  64.4033488  47.1625043  44.8518685  65.1659797
  46.4202974  45.4376423  63.9836625  41.2809920  50.9913757  64.1820278
  40.5391656  51.1396392  64.7684908  40.9602665  51.2522022  63.3187027
  46.7672595  46.7087442  67.8760852  46.8160750  47.5849565  67.4938622
  47.3095109  46.1664835  67.3032496  57.2527440  57.2528565  67.1561989
  56.4622984  57.2352704  66.6166489  57.0160795  57.7916859  67.9111026
  57.3725315  54.1021031  64.4694718  57.4223320  53.9371039  65.4110241
  57.2639239  53.2348290  64.0792599  54.6629078  50.0851959  65.7854025
  55.5638941  49.9458424  65.4938022  54.7377052  50.2506414  66.7252202
  48.9971883  47.4618814  64.6307211  48.1275193  47.7552380  64.3589799
  49.2331364  48.0459259  65.3514475  58.8743512  56.5217973  64.7136739
  58.5828321  56.8847954  65.5500200  58.2615644  55.8084981  64.5350072
  57.1230701  51.6450588  63.1816797  57.5984822  51.8378234  62.3735649
  56.1996266  51.7009773  62.9360181  51.7010917  43.6798431  62.1472631
  52.2192861  44.4159458  61.8219120  51.3466050  43.9862424  62.9819390
  55.8232370  48.5216348  61.4145103  56.7749792  48.6214445  61.4357327
  55.6535820  47.7294616  61.9243187  53.8446749  45.6071931  61.6004504
  53.2496681  45.8876944  60.9050993  53.5596446  46.0965832  62.3721245
  58.4514936  48.5333511  60.5745686  57.9353984  47.7491967  60.3875615
  59.3354884  48.2052227  60.7392205  56.1125663  42.2774526  56.5341499
  55.9150484  41.9689615  57.4184831  56.7225368  43.0036165  56.6639428
  50.0242471  54.6636266  68.0315264  50.9445480  54.8414866  68.2255310
  49.9892054  53.7192312  67.8794963  47.8932409  48.1470507  70.0640794
  47.7929135  49.0964864  69.9952885  47.6753951  47.8188746  69.1916864
  47.7563679  51.5767646  68.8805855  47.2730760  52.3768006  69.0869744
  47.8424618  51.5875591  67.9273299  39.5271312  48.3711430  64.1837284
  40.1730176  47.8610384  64.6724509  39.3188464  49.1080112  64.7580709
  52.0524705  55.4392278  69.6829425  52.9215864  55.6132930  69.3216059
  51.5731456  56.2586695  69.5605154  43.8668803  45.5179047  68.2812298
  44.7300265  45.1615852  68.4915623  43.2934214  45.1792942  68.9687702
  63.7117180  67.1480904  59.0874699  64.3495590  67.0287651  58.3838039
  63.5938023  68.0961748  59.1462651  61.0026670  68.2543184  64.9822429
  60.9915310  67.8595982  64.1102933  61.1647309  67.5209256  65.5756201
  61.9593261  72.6214776  50.3247580  61.3081241  73.2068856  49.9381594
  62.7537624  73.1520971  50.3842617  57.7233931  71.0380295  63.9301613
  57.4323797  71.9425926  63.8148280  58.3590915  71.0796823  64.6445683
  58.6490138  68.4157144  60.5202973  59.2453710  68.1913166  59.8059936
  58.7065109  67.6741889  61.1228421  63.4368526  70.3105208  50.8616564
  62.8014359  70.3839834  51.5737469  63.1065933  70.8998807  50.1835643
  68.6666876  64.8107591  57.0660886  69.3992048  64.2406808  57.2998715
  67.9106232  64.4229191  57.5067391  66.1892296  58.5229165  61.5255494
  65.8575621  59.3924576  61.3016709  65.5937910  58.2065449  62.2049525
  62.6823816  70.7241711  60.9251407  62.3824539  71.6266750  60.8167214
  62.3374875  70.4573894  61.7772560  66.0820960  63.2424251  58.6048844
  65.1737837  63.1739660  58.3107605  66.0308555  63.7196196  59.4330670
  57.6644596  77.4886031  53.8922375  57.5868625  78.4393856  53.9710855
  57.0606239  77.1431904  54.5497301  60.1561825  64.6613897  66.5483742
  59.3795160  65.2207817  66.5386606  60.7952389  65.1470680  67.0698612
  67.9482606  61.4440690  60.3826718  67.3056986  61.7373223  59.7366513
  67.4437535  61.3293610  61.1879915  58.4108198  67.4699350  66.1101709
  59.1522882  68.0084394  65.8336532  57.7045183  68.0965639  66.2673260
  63.8863537  69.6128491  64.7073870  64.2946893  69.1710901  63.9628503
  63.1640799  69.0381118  64.9608063  60.2394607  64.5501097  62.0807427
  61.0855803  64.9740511  62.2242076  60.1793245  63.8934722  62.7745990
  64.2092352  70.1729681  58.4626159  63.5801214  70.3375395  57.7602227
  63.8218014  70.5871291  59.2337123  68.0881584  71.1084119  55.8170523
  67.4032622  71.4883020  55.2667556  68.1725433  71.7179446  56.5502471
  63.3894053  62.2105466  63.7388601  63.1454985  62.9647526  63.2022876
  63.6653983  62.5890813  64.5735848  65.3432516  68.7544078  62.4165866
  65.5549411  69.3975838  61.7400247  65.2962264  67.9206395  61.9487796
  59.7620314  69.9104089  55.7276244  60.2258659  70.1891792  54.9380867
  59.4977112  69.0087534  55.5449335  66.4578344  71.6316033  60.5888224
  67.2795787  71.2296221  60.3070905  66.4540746  71.5284268  61.5404339
  60.2234947  71.1800077  62.7448934  60.2879379  71.6420484  63.5807106
  59.5145871  70.5497442  62.8731244  74.5484337  67.9754782  56.9373195
  73.7948045  67.4062180  56.7817200  74.6831878  67.9417446  57.8843830
  59.9382965  72.8468184  52.6127915  59.8028639  73.6919720  53.0412762
  60.4792777  73.0487462  51.8493848  56.4250304  58.9259764  69.2742270
  56.0317250  58.3725963  69.9489914  57.2416445  59.2370343  69.6648787
  55.2007247  73.4809379  55.2678593  55.3773875  74.4027343  55.0799577
  55.9964080  73.1667798  55.6972973  59.3418265  60.3417643  66.8662526
  60.0827979  60.9424796  66.7866989  59.5736188  59.5995281  66.3080569
  61.5651441  73.4691751  66.7428257  61.1215295  72.6828129  66.4249161
  62.2268655  73.6570901  66.0772147  56.3238562  74.9987552  61.2688935
  56.8745987  74.8704616  60.4965929  55.4850038  75.2982441  60.9183828
  63.6632679  73.7494551  64.7709658  63.6451154  74.5703432  64.2789927
  64.5852599  73.6248626  64.9959799  60.1205733  71.2638680  65.6133166
  60.6534070  70.5026968  65.3832474  59.5919814  70.9712332  66.3557321
  63.2875428  56.3698746  61.1426808  62.9439698  57.2600388  61.0665919
  63.6554391  56.1800404  60.2796393  68.2259985  69.1139712  51.5852417
  67.4489428  68.7750871  51.1407579  68.9051466  69.1192335  50.9107382
  61.4858446  70.3924673  53.1251978  60.9579807  69.6577432  52.8125216
  60.9845949  71.1699349  52.8791947  66.4651292  68.5873693  58.2419025
  65.8074966  69.2772955  58.3299153  67.2691691  68.9770125  58.5853011
  65.2756751  66.9418066  56.2922966  65.7888632  67.5748058  56.7944676
  65.9257975  66.3419261  55.9266326  62.5379125  76.9202390  49.0483637
  61.8640824  77.2234087  49.6568595  62.9244947  77.7231470  48.6989095
  66.0418547  71.9224067  54.4202109  65.5880874  71.0814977  54.4767299
  65.4112514  72.5585466  54.7576889  64.4851486  73.7600564  55.3551927
  64.7774461  74.3205621  54.6364293  64.9950107  74.0529125  56.1105086
  59.4485111  74.5380915  56.4445380  59.4061290  74.7641761  55.5153912
  60.3647810  74.3044290  56.5931181  62.8950745  65.0064983  63.3426009
  63.2500133  65.2336456  64.2020475  63.5422876  65.3383359  62.7203265
  68.6248482  68.1283418  54.0475339  68.4866381  68.3185014  53.1196528
  68.2684701  68.8902801  54.5043390  68.6517862  70.1959945  59.0586610
  69.0854368  70.1035235  59.9069664  69.3649442  70.1717446  58.4206626
  62.3845757  73.7962040  60.5919711  62.4382779  74.3652976  61.3597427
  61.5160538  73.9663925  60.2273748  69.5133411  70.2383646  61.5919495
  69.7069301  71.1429457  61.8378770  69.4134029  69.7791065  62.4258080
  61.1669722  60.1241537  64.0909823  60.5197637  60.8231486  63.9974299
  61.9370737  60.5577681  64.4586071  64.5748520  70.3890389  67.1660376
  64.4234026  70.1600941  66.2490460  64.5653199  71.3460990  67.1791721
  61.3433856  67.9622302  62.1506642  62.2725916  68.1133461  61.9775610
  60.9224886  68.0506322  61.2955289  60.1422188  71.9872966  59.9205180
  60.0033274  71.6191750  60.7931118  59.3536784  72.5020605  59.7489138
  60.7370340  77.0882063  51.2630717  60.9122096  76.6170106  52.0776339
  60.0503128  77.7147829  51.4911977  61.6927403  71.3654569  57.3094018
  61.3577236  71.3255339  58.2051668  61.1931349  70.6999285  56.8364428
  64.6286595  68.7110603  47.5831078  64.0115766  67.9857431  47.4864130
  64.1603083  69.4719963  47.2398152  58.2953948  66.4842158  62.3230279
  59.0053566  65.8435350  62.2816897  58.2523256  66.7355053  63.2456459
  66.2840727  73.4209511  65.2436858  66.2253273  72.7368732  64.5767441
  66.6860245  74.1628501  64.7917484  55.3031425  80.2371425  58.0370577
  55.5428024  80.8689949  58.7149595  54.4600622  79.8859465  58.3235936
  66.2858134  71.3849095  63.4750838  65.3984913  71.0475017  63.5977236
  66.8556685  70.6532127  63.7119603  59.8159287  76.0450548  60.4412081
  59.7429459  76.8505519  60.9531385  59.3736680  76.2442514  59.6160102
  59.6049067  75.2822318  53.9514902  58.8216589  75.8243998  54.0453127
  60.3041812  75.7996297  54.3509144  70.7675474  66.7957313  58.2367399
  70.7565351  67.6782028  57.8661332  69.8992854  66.4428864  58.0421936
  62.2757971  75.9437382  62.5970239  62.9885943  76.5784847  62.5246141
  61.7847999  76.0401248  61.7810241  63.9975498  69.8488634  54.1687531
  63.0631776  69.9690097  53.9992235  64.1752166  68.9461101  53.9047541
  67.3848049  65.6905954  54.7037565  67.8508501  66.5233945  54.6297868
  67.8355550  65.2250935  55.4082824  57.3269884  73.6931825  63.4175810
  58.0279344  74.3268308  63.5705204  56.8564999  74.0346557  62.6571450
  65.4524280  72.0349775  51.7023717  65.7284124  71.9206370  52.6117591
  64.5828779  71.6367260  51.6635890  65.3564712  58.0586541  58.7428467
  64.4427792  58.2890768  58.9110674  65.7857813  58.1424985  59.5942499
  65.1271170  66.2476433  61.2428361  64.4742621  66.4952340  60.5880813
  65.5051550  65.4340571  60.9090838  62.0878344  76.2836126  55.3456531
  62.2700739  75.4657782  55.8084283  62.9111330  76.5003818  54.9081421
  62.4220510  75.2104311  52.6071579  62.9508276  74.6996766  51.9941742
  62.6848729  74.8946841  53.4717112  61.1758743  66.9896244  67.7294398
  60.4999380  66.8890373  68.3996773  61.9986377  66.8335457  68.1930395
  52.9237602  73.2268180  60.3506913  53.5091039  72.4811868  60.4834817
  52.7262441  73.5372137  61.2343577  55.7776258  76.2619428  55.3669355
  55.1086633  76.7465555  54.8833395  55.6389127  76.5088648  56.2812734
  59.9181526  78.2963171  61.9652014  60.4699834  78.4594793  62.7301099
  60.2587720  78.8867609  61.2932039  64.7692401  73.1224429  67.8200668
  65.3132304  73.7354387  67.3255623  64.1879245  73.6804007  68.3367681
  63.0549913  76.2445147  58.9515696  62.9301053  75.4434887  58.4426641
  63.7129005  76.7391340  58.4629666  65.1184822  74.0454167  60.5795246
  64.1715157  73.9259518  60.5073573  65.4667595  73.1576665  60.6621507
  57.4784395  59.9348306  64.4033488  58.0018797  60.1810602  65.1659797
  57.2596728  60.7668341  63.9836625  62.1231255  73.8406883  56.7799598
  61.9756218  72.9123590  56.9607168  62.9484749  73.8626974  56.2956673
  65.7265377  74.6635442  57.8664471  66.6511924  74.4578303  57.7288922
  65.5580680  74.4151843  58.7753812  65.5160693  75.1821109  53.2226562
  65.6897571  74.6167532  52.4700415  66.0089584  75.9822004  53.0406052
  71.3700084  67.9457532  54.8416862  71.8131230  67.1964857  54.4435985
  70.4926595  67.9367669  54.4590594  66.5035866  74.4987874  50.3223461
  67.1986770  75.1194566  50.5410775  66.8459016  73.6483225  50.5975839
  68.4027289  71.9487579  51.8510791  68.9278613  72.2874852  51.1260111
  68.3149641  71.0134594  51.6673926  60.0647338  75.8621653  63.9800668
  60.3734464  75.6170800  64.8523368  60.8622820  76.0668291  63.4919538
  60.0867950  78.0159562  56.2106045  59.6472940  77.5235941  56.9038901
  60.8376067  77.4732530  55.9698120  52.5660289  74.2071103  56.2130673
  53.3918308  73.9074875  55.8329316  52.2154341  73.4378726  56.6620461
  57.5341822  73.5597572  58.2828346  56.9121831  72.8968277  57.9830574
  58.2046689  73.5858703  57.6001994  50.7668894  72.1257430  57.1719606
  49.9300802  71.6979604  56.9903608  50.7392539  72.3189873  58.1090397
  68.0921195  72.5820483  67.1561989  67.3016739  72.5644622  66.6166489
  67.8554549  73.1208776  67.9111026  68.2119070  69.4312949  64.4694718
  68.2617075  69.2662957  65.4110241  68.1032993  68.5640208  64.0792599
  65.5022832  65.4143877  65.7854025  66.4032695  65.2750342  65.4938022
  65.5770807  65.5798332  66.7252202  59.8365638  62.7910732  64.6307211
  58.9668947  63.0844298  64.3589799  60.0725118  63.3751177  65.3514475
  69.7137267  71.8509891  64.7136739  69.4222075  72.2139871  65.5500200
  69.1009398  71.1376899  64.5350072  70.9132949  69.4162770  57.2339310
  71.7479840  69.8552575  57.3976870  71.0492078  68.9401424  56.4147555
  67.9624455  66.9742505  63.1816797  68.4378577  67.1670152  62.3735649
  67.0390020  67.0301691  62.9360181  62.5404671  59.0090349  62.1472631
  63.0586615  59.7451376  61.8219120  62.1859804  59.3154342  62.9819390
  60.5950734  74.6049625  49.2298554  60.0224701  75.2239812  48.7769026
  61.1683528  75.1548987  49.7638476  66.6626124  63.8508265  61.4145103
  67.6143547  63.9506363  61.4357327  66.4929574  63.0586534  61.9243187
  64.6840503  60.9363849  61.6004504  64.0890436  61.2168861  60.9050993
  64.3990200  61.4257750  62.3721245  63.8147994  74.8886775  50.3607137
  64.7478667  74.8232337  50.5640012  63.7271207  75.7243042  49.9021669
  66.4436011  74.2052646  47.3211084  66.3649642  73.8712509  48.2146842
  67.2645677  74.6974414  47.3202556  69.1414202  67.0714385  60.5287403
  69.1090522  66.1330386  60.7147087  69.7514825  67.1498422  59.7953228
  69.2908690  63.8625428  60.5745686  68.7747739  63.0783885  60.3875615
  70.1748639  63.5344145  60.7392205  74.9590752  68.1330392  59.6693439
  75.6894140  67.8715680  60.2301143  74.3497697  67.3959114  59.7095507
  73.0406049  66.2738254  60.2667891  72.3139212  66.1394219  59.6584382
  72.6253336  66.5815083  61.0724609  60.8636225  69.9928184  68.0315264
  61.7839235  70.1706783  68.2255310  60.8285808  69.0484230  67.8794963
  58.7326163  63.4762425  70.0640794  58.6322890  64.4256782  69.9952885
  58.5147705  63.1480663  69.1916864  58.5957433  66.9059563  68.8805855
  58.1124515  67.7059924  69.0869744  58.6818372  66.9167508  67.9273299
  55.1130153  69.3665214  63.4845087  55.9323042  69.8609293  63.5079924
  55.3866960  68.4497182  63.4562654  68.2211285  61.7822487  56.5627382
  68.9971675  62.2718940  56.8351998  67.4959419  62.2080542  57.0199251
  70.6583844  62.4950107  57.6201322  71.2528334  62.2545843  56.9094631
  70.7310427  61.7757237  58.2474859  52.8780999  76.3383718  57.9344487
  52.7435467  75.5784119  57.3682485  52.4613062  77.0624617  57.4673276
  64.0139962  71.5220641  46.9421062  64.7175813  71.7270644  47.5578718
  63.2902611  72.0897403  47.2070146  68.6542579  63.0620234  53.8873452
  68.3979513  62.6616870  54.7181660  68.0295447  63.7764028  53.7623591
  72.9654916  65.8016308  56.3944743  72.4054474  65.8709497  57.1676306
  72.3598420  65.6257292  55.6744240  56.0350125  77.2353035  58.1462930
  55.9182509  78.1798467  58.0441620  55.2142572  76.9326596  58.5348729
  65.9226660  71.9603170  48.9919522  66.7572264  71.5284369  48.8096997
  65.7611003  71.7885184  49.9196417  65.5772552  68.4635284  50.3575862
  65.5221356  68.2979555  49.4164306  64.9518607  69.1711317  50.5138051
  62.8918459  70.7684196  69.6829425  63.7609619  70.9424848  69.3216059
  62.4125211  71.5878612  69.5605154  57.0604639  77.8881297  61.3618858
  57.9631886  77.9204907  61.6785353  56.8342009  76.9581747  61.3765194
  58.8158241  76.6412283  58.0228937  57.8653872  76.6414145  57.9093309
  59.1190728  75.8945018  57.5064971  54.7062558  60.8470965  68.2812298
  55.5694020  60.4907770  68.4915623  54.1327969  60.5084860  68.9687702
  74.5510935  82.4772821  59.0874699  75.1889345  82.3579569  58.3838039
  74.4331778  83.4253665  59.1462651  71.3600641  82.4300250  59.0236224
  71.0219153  82.3141314  58.1356759  72.2290409  82.0291415  59.0037230
  67.2187457  84.2835726  55.0133115  66.6552322  84.1925663  54.2449403
  67.1039852  83.4635630  55.4935607  64.7651889  85.7786918  57.8517335
  65.5573181  85.4377742  57.4363635  65.0048539  85.8881893  58.7719489
  66.7242643  85.0395831  50.7234714  67.4973519  84.4924818  50.5847590
  67.0768042  85.9040080  50.9349175  69.4883892  83.7449062  60.5202973
  70.0847464  83.5205084  59.8059936  69.5458864  83.0033807  61.1228421
  69.0608921  81.1988497  48.3553164  69.3134441  80.6770018  47.5936627
  68.1233480  81.0354642  48.4579848  74.1052203  80.2024275  56.1627907
  74.8915293  79.7843698  55.8118324  74.3690908  81.1070368  56.3309556
  79.5060631  80.1399509  57.0660886  80.2385802  79.5698725  57.2998715
  78.7499986  79.7521109  57.5067391  68.7805209  83.1016603  50.5577539
  68.6641467  82.4261506  51.2258623  68.8907469  82.6148977  49.7409692
  71.1236750  82.5626750  54.2624228  70.7594957  82.0357371  54.9737150
  71.9803866  82.1725219  54.0890714  77.0286051  73.8521083  61.5255494
  76.6969376  74.7216494  61.3016709  76.4331664  73.5357367  62.2049525
  70.7642237  77.5916650  49.2585577  70.9316640  78.4596886  49.6256048
  70.5739406  77.7543931  48.3346866  66.9730052  82.5047425  56.9588112
  66.0480548  82.3723640  57.1665803  67.2214465  83.2841645  57.4558054
  76.9214714  78.5716169  58.6048844  76.0131592  78.5031577  58.3107605
  76.8702310  79.0488114  59.4330670  70.7431458  80.0474307  50.2432244
  70.6231083  80.4931358  51.0817724  70.0484046  80.3959625  49.6845782
  64.3338863  82.1480699  57.7931901  64.4631244  82.4015178  58.7071312
  63.6536314  82.7408407  57.4736556  78.7876361  76.7732607  60.3826718
  78.1450741  77.0665140  59.7366513  78.2831289  76.6585528  61.1879915
  76.4416524  80.5195780  51.0712578  77.3534380  80.7523167  50.8960275
  75.9326171  81.1032825  50.5087656  71.0788362  79.8793015  62.0807427
  71.9249557  80.3032429  62.2242076  71.0187000  79.2226639  62.7745990
  74.2287807  77.5397383  63.7388601  73.9848739  78.2939444  63.2022876
  74.5047738  77.9182731  64.5735848  73.7852499  76.6953816  59.3202438
  72.9236978  76.9935070  59.6119176  73.8114934  76.9124215  58.3883471
  70.6014068  85.2396007  55.7276244  71.0652414  85.5183710  54.9380867
  70.3370867  84.3379452  55.5449335  67.4938149  84.7867488  58.6656007
  68.0639507  85.2154757  58.0273492  68.0846261  84.5050073  59.3640193
  69.5382954  81.3619159  52.5365809  70.2406998  81.8140203  53.0039736
  69.2063583  80.7202978  53.1645702  67.9863316  79.9530916  66.9117019
  67.3561977  80.6347197  67.1452416  67.8799404  79.8413998  65.9670157
  63.2808288  79.6202712  57.8382943  62.4907342  79.8760241  57.3623053
  63.7719536  80.4351050  57.9434983  65.2323034  79.9847291  54.7966420
  64.4354197  80.0965985  55.3149915  65.0048626  80.3233943  53.9307310
  61.5645991  79.8733202  60.2697934  61.8154030  80.7580212  60.5355510
  62.1005540  79.6937804  59.4973025  67.2644059  74.2551682  69.2742270
  66.8711004  73.7017880  69.9489914  68.0810199  74.5662260  69.6648787
  64.2306116  85.6935540  53.1855840  64.7430637  86.4878790  53.3361404
  64.8828829  84.9961830  53.1189441  66.0401001  88.8101296  55.2678593
  66.2167630  89.7319261  55.0799577  66.8357835  88.4959715  55.6972973
  70.1812020  75.6709561  66.8662526  70.9221733  76.2716714  66.7866989
  70.4129943  74.9287199  66.3080569  65.3253358  80.8565928  65.1440756
  65.2106873  79.9551185  65.4447855  64.4697875  81.1029625  64.7925573
  74.1269183  71.6990664  61.1426808  73.7833452  72.5892305  61.0665919
  74.4948145  71.5092321  60.2796393  62.1955033  84.0224194  53.9615410
  63.0330255  84.4321203  53.7449118  62.3733301  83.0823636  53.9315604
  74.0919465  81.6899275  49.6499243  73.5766089  82.4603880  49.8887631
  73.8196774  81.0164411  50.2732305  71.6766576  76.5348976  54.7084481
  70.8208173  76.1455826  54.5290120  72.0893528  76.6140937  53.8484267
  73.2065723  74.0695319  59.1076041  72.7030519  74.0325454  58.2943847
  73.4996330  74.9788062  59.1672698  69.4508609  74.1534049  58.1142223
  70.3161606  73.9576857  57.7548112  69.5186118  73.9244400  59.0411580
  73.8805769  79.5626367  51.4759024  73.5755904  79.8772516  52.3269167
  74.8336211  79.6407787  51.5186357  72.3252200  85.7216590  53.1251978
  71.7973562  84.9869350  52.8125216  71.8239703  86.4991267  52.8791947
  67.0570928  76.3836257  55.4858590  67.6314680  76.1611438  54.7531783
  67.6441910  76.4524951  56.2387191  76.1150505  82.2709984  56.2922966
  76.6282387  82.9039975  56.7944676  76.7651729  81.6711179  55.9266326
  67.3840515  78.4140718  49.5054475  66.5477827  78.7515404  49.8263750
  67.2445285  78.2789697  48.5681612  69.3593596  73.2577506  54.2133659
  68.7058008  72.9426523  53.5890274  69.3174070  72.6353246  54.9393482
  70.4704801  83.5396801  46.1286951  69.5631862  83.3086054  46.3278100
  70.9675833  82.7434420  46.3160933  72.5931336  79.7459439  58.5381307
  71.6753897  79.9674386  58.3802995  73.0091480  79.8205750  57.6793014
  73.3766384  81.1450855  53.6683987  74.1238203  81.6572252  53.3591109
  73.6457973  80.8234907  54.5288381  71.6493034  83.6409395  50.6510941
  70.7404253  83.3568428  50.7483411  71.6788118  84.0608474  49.7914248
  75.8245221  78.1807971  55.6502776  75.0867978  77.6685357  55.9813019
  76.0771995  77.7408353  54.8386053  75.9256848  70.9584223  56.2444546
  76.2315725  70.0981586  55.9570461  76.6509453  71.5501843  56.0443540
  62.2181204  81.3614910  54.6326144  62.0205604  80.7684270  53.9077210
  61.6627868  81.0567120  55.3502082  70.1977928  81.2538016  56.7520737
  70.2526538  80.3011852  56.6763213  69.3869130  81.4097455  57.2362035
  71.3469122  85.1818139  47.9899020  70.9088552  84.4653998  47.5304657
  72.0879563  85.4094254  47.4284111  68.1370288  79.8715076  54.5111116
  67.3238154  80.1709246  54.9176308  68.6329282  79.4770765  55.2285598
  73.7344500  80.3356900  63.3426009  74.0893887  80.5628373  64.2020475
  74.3816631  80.6675277  62.7203265  67.6284363  77.4433431  60.1272351
  68.2683742  77.3022190  59.4295314  66.7961893  77.1567945  59.7510953
  68.4044667  86.7435862  56.2407343  69.1985265  86.2486182  56.0389918
  67.6936359  86.2153725  55.8775049  64.7127430  80.8878943  52.3167096
  63.7825018  80.8263399  52.5337058  64.8084902  80.3654896  51.5203737
  64.6312979  77.4133756  54.9045337  64.8919796  78.3279090  54.7954498
  65.4530151  76.9458199  55.0541950  66.1037904  78.8271513  62.0744162
  66.7760958  78.6188876  61.4256811  65.2767691  78.6293599  61.6349394
  72.0063477  75.4533454  64.0909823  71.3591392  76.1523404  63.9974299
  72.7764492  75.8869598  64.4586071  72.1827611  83.2914219  62.1506642
  73.1119671  83.4425379  61.9775610  71.7618641  83.3798240  61.2955289
  70.9815943  87.3164884  59.9205180  70.8427028  86.9483668  60.7931118
  70.1930539  87.8312523  59.7489138  66.5065402  82.1014116  62.8346599
  66.3685200  81.3694355  63.4358138  67.4170325  82.0123017  62.5530787
  75.4680349  84.0402521  47.5831078  74.8509520  83.3149349  47.4864130
  74.9996838  84.8011881  47.2398152  69.1347702  81.8134076  62.3230279
  69.8447321  81.1727268  62.2816897  69.0917011  82.0646971  63.2456459
  67.8476636  78.7999294  64.1425918  67.3113993  78.3490032  64.7947515
  67.2593345  78.9345203  63.3996383  67.2578895  78.2587945  46.7052382
  66.3808362  78.1376746  46.3414628  67.7336648  77.4674023  46.4531270
  58.7781035  83.0465105  56.7993889  59.4652075  82.7326835  56.2114904
  58.6229164  83.9506469  56.5261140  63.5815758  77.9355301  61.2278913
  63.4973946  77.3280971  60.4929323  62.7598464  78.4264320  61.2288409
  73.7539471  76.4208865  56.5949108  74.2508171  75.6678827  56.2750178
  72.9826453  76.4573182  56.0292317  70.3374440  78.5626248  56.3220792
  69.9672228  78.0097288  57.0101698  70.8333533  77.9584381  55.7695792
  78.2241804  81.0197871  54.7037565  78.6902256  81.8525863  54.6297868
  78.6749304  80.5542853  55.4082824  76.1958466  73.3878458  58.7428467
  75.2821546  73.6182685  58.9110674  76.6251568  73.4716902  59.5942499
  75.9664925  81.5768350  61.2428361  75.3136375  81.8244258  60.5880813
  76.3445305  80.7632489  60.9090838  63.7631357  88.5560098  60.3506913
  64.3484794  87.8103786  60.4834817  63.5656195  88.8664055  61.2343577
  58.3549012  81.1265698  59.0711356  58.3933111  80.5929289  59.8648474
  57.8489304  80.6000904  58.4522333  65.7339774  75.9730239  62.5673898
  65.7981100  76.8345070  62.1551296  65.6706894  75.3604240  61.8346257
  65.2092046  78.0453371  66.2146933  65.8364085  77.6630449  66.8284457
  64.3519965  77.8267573  66.5802625  61.9857589  79.8529800  52.1465287
  62.2811030  78.9440479  52.0932341  61.0845625  79.8317540  51.8246290
  65.5151836  77.9285797  58.1292836  64.7938422  78.5421765  57.9900309
  66.3045092  78.4643562  58.0509482  68.3178150  75.2640223  64.4033488
  68.8412552  75.5102520  65.1659797  68.0990483  76.0960258  63.9836625
  63.7145431  77.5343898  52.2704613  63.3858137  76.6541277  52.0879719
  64.0684801  77.4791567  53.1581002  66.8287254  77.8216868  52.6380090
  67.1683326  78.3502789  51.9158699  67.2759374  78.1597274  53.4138657
  69.5230695  76.2053919  62.0883158  69.1827515  75.4061732  62.4903838
  68.8169701  76.5055629  61.5159992  70.1747167  73.2903231  60.5410481
  70.9973236  72.8163709  60.4189372  70.4185230  74.0693715  61.0409168
  68.8155401  76.3191489  50.8373383  69.5363764  76.6972742  50.3337100
  68.1920705  77.0380366  50.9408361  72.9586524  77.0236638  51.7731715
  73.1750138  77.9061276  51.4720544  72.4780591  76.6322852  51.0437357
  67.6985745  79.9822352  58.3502460  67.5530326  80.2962655  59.2426742
  67.2210949  80.6007252  57.7973359  69.5582128  76.9724900  58.3983350
  69.5443697  76.0765993  58.0615648  70.2754556  76.9795563  59.0321636
  71.4108259  77.4062240  60.4436477  71.1526037  78.3279310  60.4420807
  70.8793299  77.0092674  61.1336941  62.1731407  82.5227696  61.2890121
  61.6284876  83.2987504  61.4210396  63.0510757  82.8698500  61.1309243
  68.9619024  75.8539280  53.6670920  69.0834935  74.9255926  53.8661807
  68.6721067  75.8677966  52.7549235  71.8310215  73.5394190  56.8037640
  71.8531911  73.6033523  55.8489619  72.2478274  72.6998699  56.9978146
  62.9597429  81.6497592  64.1820278  62.2179165  81.7980228  64.7684908
  62.6390174  81.9105858  63.3187027  63.4054043  89.5363021  56.2130673
  64.2312063  89.2366793  55.8329316  63.0548095  88.7670643  56.6620461
  68.3735576  88.8889489  58.2828346  67.7515585  88.2260194  57.9830574
  69.0440443  88.9150621  57.6001994  61.6062648  87.4549347  57.1719606
  60.7694556  87.0271522  56.9903608  61.5786294  87.6481791  58.1090397
  68.4460104  77.3671277  67.8760852  68.4948259  78.2433400  67.4938622
  68.9882618  76.8248670  67.3032496  67.9349083  87.4393413  51.7586807
  68.0837203  88.1228877  51.1053480  68.7415527  87.4198503  52.2736263
  70.6759392  78.1202650  64.6307211  69.8062702  78.4136216  64.3589799
  70.9118873  78.7043095  65.3514475  65.6901716  83.4658590  52.7647876
  65.4447758  82.5620920  52.9628086  65.8597631  83.4675741  51.8227354
  73.3798426  74.3382267  62.1472631  73.8980370  75.0743293  61.8219120
  73.0253559  74.6446260  62.9819390  64.9597364  79.1986948  50.2634037
  64.2666609  79.2731303  49.6074073  64.7149116  78.4347291  50.7855554
  73.6311020  70.7582549  57.6673528  73.9112774  70.0905738  58.2933954
  74.4161627  70.9511645  57.1548192  77.5019878  79.1800183  61.4145103
  78.4537301  79.2798281  61.4357327  77.3323329  78.3878452  61.9243187
  75.5234258  76.2655766  61.6004504  74.9284190  76.5460779  60.9050993
  75.2383955  76.7549667  62.3721245  71.8191287  81.2702356  46.5714607
  72.7650392  81.1408564  46.6403025  71.4405532  80.5317018  47.0484035
  80.1302445  79.1917346  60.5745686  79.6141493  78.4075803  60.3875615
  81.0142393  78.8636063  60.7392205  77.7913172  72.9358362  56.5341499
  77.5937993  72.6273450  57.4184831  78.4012877  73.6620001  56.6639428
  70.0034204  79.1952332  46.5069492  69.0965660  78.8985445  46.5832206
  70.2810185  78.8982150  45.6403778  60.9212145  80.5158696  56.9568538
  60.6014929  79.6624004  56.6642912  60.3745573  80.7307274  57.7126506
  64.6992052  83.2321137  60.6738045  64.9178062  84.1638244  60.6926079
  65.1117826  82.8729111  61.4592849  71.6196270  73.7389222  52.6613733
  70.8096998  73.3936307  53.0368979  72.3080687  73.4296766  53.2501345
  73.5486818  72.8167269  54.2838030  74.1017857  73.2362722  54.9428053
  73.7856905  71.8903017  54.3260986  68.7732989  76.0539267  46.6481471
  69.6352153  76.3794166  46.9077289  68.9583333  75.2670763  46.1354537
  60.7900405  84.1361607  58.9261660  60.0963876  83.7215560  58.4131614
  61.5373396  84.1782144  58.3295079  76.9265625  74.9267794  53.7916694
  76.3464294  75.5852598  53.4094747  76.6601558  74.1045138  53.3804112
  75.3769192  74.3272851  55.9938014  75.8768970  74.4389386  55.1852333
  76.0204800  74.0233904  56.6338823  62.7037147  84.0679861  56.8027675
  62.6807835  84.1667548  55.8509558  63.0137784  84.9145012  57.1244841
  65.3624525  86.1256016  60.9174289  66.3167779  86.0939958  60.8504221
  65.1637049  85.6646640  61.7324515  65.9523907  84.6957132  63.4845087
  66.7716796  85.1901211  63.5079924  66.2260715  83.7789100  63.4562654
  75.7090503  77.0867884  52.8473042  74.8216358  77.3717535  52.6293237
  76.1244492  76.9261648  52.0000319  79.0605040  77.1114405  56.5627382
  79.8365430  77.6010858  56.8351998  78.3353174  77.5372459  57.0199251
  81.4977598  77.8242024  57.6201322  82.0922089  77.5837760  56.9094631
  81.5704182  77.1049155  58.2474859  63.7174754  91.6675635  57.9344487
  63.5829222  90.9076036  57.3682485  63.3006816  92.3916535  57.4673276
  75.6831527  82.6022420  53.0623333  75.6266729  83.0590972  52.2230965
  76.2359870  81.8413105  52.8846175  79.4936333  78.3912152  53.8873452
  79.2373267  77.9908788  54.7181660  78.8689201  79.1055946  53.7623591
  61.2058821  79.0295266  64.1837284  61.8517685  78.5194220  64.6724509
  60.9975973  79.7663947  64.7580709  69.7262432  73.2935310  49.9361180
  69.7141102  74.2377150  50.0929451  70.6185854  73.1105456  49.6420641
  73.5414551  69.8878087  54.1907117  72.7746947  69.3336574  54.3363799
  73.9525256  69.9599956  55.0521269  65.5456312  76.1762883  68.2812298
  66.4087774  75.8199688  68.4915623  64.9721723  75.8376778  68.9687702
  31.1935918  -1.8332727  45.8120006  31.8314328  -1.9525979  45.1083346
  31.0756761  -0.8851883  45.8707958  28.0025624  -1.8805299  45.7481531
  27.6644136  -1.9964234  44.8602065  28.8715393  -2.2814133  45.7282537
  23.8612440  -0.0269822  41.7378421  23.2977305  -0.1179885  40.9694709
  23.7464835  -0.8469918  42.2180914  28.4845407  -0.7270447  51.7067736
  28.4734048  -1.1217649  50.8348240  28.6466047  -1.4604374  52.3001508
  21.4076872   1.4681369  44.5762642  22.1998164   1.1272194  44.1608941
  21.6473522   1.5776345  45.4964795  29.4411999   3.6401146  37.0492886
  28.7899979   4.2255226  36.6626900  30.2356362   4.1707340  37.1087924
  23.3667626   0.7290283  37.4480021  24.1398502   0.1819270  37.3092897
  23.7193025   1.5934532  37.6594482  25.2052669   2.0566665  50.6546920
  24.9142535   2.9612296  50.5393586  25.8409653   2.0983193  51.3690990
  26.1308875  -0.5656486  47.2448280  26.7272448  -0.7900464  46.5305243
  26.1883847  -1.3071741  47.8473728  25.7033904  -3.1117051  35.0798471
  25.9559425  -3.6335530  34.3181934  24.7658463  -3.2750906  35.1825154
  30.7477187  -4.1081273  42.8873214  31.5340276  -4.5261850  42.5363631
  31.0115891  -3.2035181  43.0554862  30.9187264   1.3291578  37.5861871
  30.2833097   1.4026204  38.2982775  30.5884670   1.9185176  36.9080950
  36.1485614  -4.1706040  43.7906192  36.8810786  -4.7406823  44.0244022
  35.3924970  -4.5584439  44.2312698  25.4230193  -1.2088945  37.2822846
  25.3066451  -1.8844042  37.9503930  25.5332452  -1.6956571  36.4654999
  27.7661734  -1.7478798  40.9869535  27.4019941  -2.2748177  41.6982456
  28.6228849  -2.1380329  40.8136020  30.1642554   1.7428081  47.6496714
  29.8643277   2.6453119  47.5412521  29.8193613   1.4760264  48.5017867
  23.6155035  -1.8058123  43.6833418  22.6905532  -1.9381909  43.8911110
  23.8639448  -1.0263903  44.1803361  33.5639697  -5.7389379  45.3294151
  32.6556575  -5.8073971  45.0352912  33.5127293  -5.2617434  46.1575977
  27.3856441  -4.2631241  36.9677550  27.2656067  -3.8174190  37.8063030
  26.6909030  -3.9145923  36.4091088  25.1463333   8.5072401  40.6167681
  25.0687363   9.4580226  40.6956162  24.5424977   8.1618273  41.2742608
  27.6380563  -4.3199734  53.2729048  26.8613897  -3.7605814  53.2631913
  28.2771126  -3.8342951  53.7943918  33.0841508  -3.7909768  37.7957884
  33.9959364  -3.5582381  37.6205582  32.5751155  -3.2072724  37.2332963
  25.8926936  -1.5114280  52.8347015  26.6341620  -0.9729236  52.5581839
  25.1863921  -0.8847992  52.9918567  31.3682275   0.6314860  51.4319177
  31.7765631   0.1897271  50.6873809  30.6459537   0.0567488  51.6853370
  27.7213345  -4.4312533  48.8052734  28.5674540  -4.0073120  48.9487383
  27.6611983  -5.0878909  49.4991297  31.6911090   1.1916051  45.1871466
  31.0619952   1.3561765  44.4847534  31.3036752   1.6057660  45.9582430
  35.5700322   2.1270489  42.5415829  34.8851360   2.5069390  41.9912863
  35.6544171   2.7365815  43.2747777  30.8712791  -6.7708165  50.4633907
  30.6273722  -6.0166104  49.9268183  31.1472721  -6.3922817  51.2981154
  32.8251253  -0.2269552  49.1411173  33.0368149   0.4162208  48.4645554
  32.7781002  -1.0607236  48.6733103  27.2439052   0.9290459  42.4521551
  27.7077397   1.2078162  41.6626173  26.9795850   0.0273903  42.2694641
  24.1363133   0.4761940  45.3901314  24.7064490   0.9049209  44.7518799
  24.7271245   0.1944525  46.0885500  26.1807938  -2.9486389  39.2611116
  26.8831981  -2.4965345  39.7285042  25.8488566  -3.5902570  39.8891009
  33.9397081   2.6502403  47.3133530  34.7614525   2.2482590  47.0316212
  33.9359484   2.5470637  48.2649646  27.7053685   2.1986446  49.4694241
  27.7698117   2.6606854  50.3052413  26.9964609   1.5683811  49.5976551
  42.0303074  -1.0058848  43.6618502  41.2766783  -1.5751450  43.5062506
  42.1650616  -1.0396184  44.6089137  27.4201702   3.8654554  39.3373221
  27.2847377   4.7106090  39.7658069  27.9611515   4.0673831  38.5739155
  20.8731100   1.3829992  39.9101146  21.3855620   2.1773242  40.0606711
  21.5253813   0.6856282  39.8434748  22.6825984   4.4995748  41.9923899
  22.8592613   5.4213713  41.8044883  23.4782818   4.1854167  42.4218279
  29.0470179   4.4878120  53.4673563  28.6034033   3.7014499  53.1494468
  29.7087392   4.6757271  52.8017454  23.8057300   6.0173922  47.9934242
  24.3564725   5.8890985  47.2211236  22.9668776   6.3168811  47.6429135
  31.1451417   4.7680920  51.4954965  31.1269892   5.5889801  51.0035234
  32.0671337   4.6434995  51.7205106  27.6024471   2.2825050  52.3378473
  28.1352808   1.5213338  52.1077781  27.0738552   1.9898702  53.0802627
  30.7344449  -2.6206273  36.3744550  30.2191072  -1.8501669  36.6132937
  30.4621757  -3.2941137  36.9977611  35.7078723   0.1326081  38.3097723
  34.9308166  -0.2062759  37.8652885  36.3870204   0.1378705  37.6352688
  30.5230752  -4.7479181  38.2004331  30.2180887  -4.4333032  39.0514474
  31.4761194  -4.6697761  38.2431664  28.9677184   1.4111042  39.8497285
  28.4398545   0.6763802  39.5370522  28.4664686   2.1885719  39.6037253
  33.9470030  -0.3939937  44.9664331  33.2893704   0.2959324  45.0544460
  34.7510429  -0.0043505  45.3098318  32.7575489  -2.0395565  43.0168273
  33.2707370  -1.4065573  43.5189983  33.4076712  -2.6394369  42.6511633
  27.1129784  -0.7708748  32.8532258  26.2056846  -1.0019494  33.0523407
  27.6100816  -1.5671128  33.0406239  30.0197863   7.9388760  35.7728944
  29.3459562   8.2420456  36.3813902  30.4063685   8.7417840  35.4234401
  29.2356319  -4.5646109  45.2626613  28.3178881  -4.3431162  45.1048302
  29.6516463  -4.4899799  44.4038321  30.0191367  -3.1654693  40.3929294
  30.7663186  -2.6533296  40.0836416  30.2882957  -3.4870641  41.2533687
  28.2918017  -0.6696153  37.3756248  27.3829237  -0.9537120  37.4728718
  28.3213101  -0.2497074  36.5159555  33.5237285   2.9410437  41.1447416
  33.0699612   2.1001347  41.2012606  32.8931251   3.5771835  41.4822196
  31.9670224   4.7786934  42.0797234  32.2593198   5.3391991  41.3609599
  32.4768845   5.0715495  42.8350393  26.8402911  -3.0567532  43.4766043
  26.8951521  -4.0093696  43.4008520  26.0294113  -2.9008093  43.9607342
  27.9894105   0.8712591  34.7144327  27.5513535   0.1548450  34.2549964
  28.7304546   1.0988706  34.1529418  26.9303849   5.5567285  43.1690687
  26.8880028   5.7828131  42.2399219  27.8466548   5.3230659  43.3176488
  30.3769483  -3.9748648  50.0671316  30.7318871  -3.7477175  50.9265782
  31.0241614  -3.6430271  49.4448571  36.1067220  -0.8530212  40.7720645
  35.9685118  -0.6628616  39.8441834  35.7503439  -0.0910829  41.2288696
  36.1336600   1.2146315  45.7831917  36.5673106   1.1221604  46.6314971
  36.8468180   1.1903816  45.1451933  25.0469650   2.4330314  42.9652650
  25.8410248   1.9380634  42.7635225  24.3361342   1.9048177  42.6020355
  29.8664494   4.8148409  47.3165017  29.9201517   5.3839345  48.0842733
  28.9979276   4.9850294  46.9519054  36.9952149   1.2570016  48.3164802
  37.1888039   2.1615826  48.5624077  36.8952767   0.7977435  49.1503387
  32.0567258   1.4076758  53.8905683  31.9052764   1.1787310  52.9735766
  32.0471937   2.3647360  53.9037028  28.8252594  -1.0191329  48.8751949
  29.7544654  -0.8680169  48.7020916  28.4043624  -0.9307308  48.0200596
  27.6240926   3.0059336  46.6450487  27.4852012   2.6378120  47.5176425
  26.8355522   3.5206975  46.4734445  28.2189078   8.1068432  37.9876023
  28.3940834   7.6356475  38.8021646  27.5321866   8.7334198  38.2157284
  29.1746141   2.3840938  44.0339325  28.8395974   2.3441708  44.9296974
  28.6750087   1.7185654  43.5609735  32.1105333  -0.2703027  34.3076384
  31.4934503  -0.9956199  34.2109437  31.6421821   0.4906333  33.9643458
  25.7772686  -2.4971472  49.0475585  26.4872304  -3.1378280  49.0062204
  25.7341994  -2.2458577  49.9701766  33.7659464   4.4395881  51.9682165
  33.7072011   3.7555101  51.3012748  34.1678983   5.1814871  51.5162791
  22.7850163  11.2557795  44.7615883  23.0246761  11.8876319  45.4394902
  21.9419360  10.9045835  45.0481243  33.7676872   2.4035465  50.1996144
  32.8803650   2.0661387  50.3222543  34.3375423   1.6718496  50.4364910
  27.2978025   7.0636917  47.1657387  27.2248197   7.8691889  47.6776692
  26.8555418   7.2628883  46.3405409  27.0867805   6.3008687  40.6760209
  26.3035327   6.8430368  40.7698433  27.7860550   6.8182667  41.0754450
  38.2494212  -2.1856318  44.9612706  38.2384088  -1.3031602  44.5906639
  37.3811592  -2.5384767  44.7667243  29.7576709   6.9623751  49.3215546
  30.4704681   7.5971216  49.2491448  29.2666737   7.0587617  48.5055548
  31.4794235   0.8675004  40.8932838  30.5450514   0.9876466  40.7237542
  31.6570904  -0.0352529  40.6292848  34.8666787  -3.2907677  41.4282872
  35.3327239  -2.4579685  41.3543175  35.3174287  -3.7562695  42.1328130
  24.8088622   4.7118195  50.1421117  25.5098082   5.3454678  50.2950511
  24.3383737   5.0532926  49.3816756  32.9343018   3.0536145  38.4269024
  33.2102862   2.9392739  39.3362898  32.0647517   2.6553629  38.3881197
  32.6089908  -2.7337198  47.9673667  31.9561358  -2.4861290  47.3126120
  32.9870288  -3.5473060  47.6336145  29.5697082   7.3022495  42.0701838
  29.7519476   6.4844151  42.5329590  30.3930068   7.5190188  41.6326728
  29.9039247   6.2290681  39.3316886  30.4327014   5.7183135  38.7187048
  30.1667467   5.9133211  40.1962419  28.6577481  -1.9917387  54.4539704
  27.9818118  -2.0923257  55.1242080  29.4805115  -2.1478173  54.9175702
  20.4056340   4.2454550  47.0752220  20.9909777   3.4998238  47.2080124
  20.2081179   4.5558507  47.9588883  23.2594995   7.2805797  42.0914662
  22.5905371   7.7651925  41.6078702  23.1207865   7.5275018  43.0058041
  27.4000264   9.3149541  48.6897320  27.9518572   9.4781162  49.4546406
  27.7406457   9.9053979  48.0177345  32.2511138   4.1410798  54.5445975
  32.7951042   4.7540757  54.0500930  31.6697983   4.6990377  55.0612988
  30.5368651   7.2631516  45.6761003  30.4119791   6.4621256  45.1671948
  31.1947742   7.7577710  45.1874972  32.6003560   5.0640536  47.3040553
  31.6533895   4.9445888  47.2318879  32.9486333   4.1763034  47.3866814
  29.6049993   4.8593253  43.5044905  29.4574955   3.9309960  43.6852475
  30.4303486   4.8813343  43.0201980  33.2084115   5.6821811  44.5909778
  34.1330662   5.4764673  44.4534229  33.0399418   5.4338212  45.4999119
  32.9979431   6.2007479  39.9471869  33.1716309   5.6353901  39.1945721
  33.4908322   7.0008374  39.7651359  38.8518822  -1.0356098  41.5662169
  39.2949968  -1.7848773  41.1681292  37.9745332  -1.0445962  41.1835901
  33.9854603   5.5174243  37.0468767  34.6805508   6.1380936  37.2656082
  34.3277754   4.6669594  37.3221145  35.8846027   2.9673949  38.5756098
  36.4097351   3.3061221  37.8505418  35.7968379   2.0320964  38.3919233
  27.5466075   6.8808022  50.7045975  27.8553202   6.6357169  51.5768674
  28.3441557   7.0854661  50.2164845  27.5686687   9.0345932  42.9351351
  27.1291678   8.5422311  43.6284208  28.3194804   8.4918900  42.6943426
  20.0479026   5.2257473  42.9375979  20.8737046   4.9261245  42.5574623
  19.6973078   4.4565095  43.3865768  25.0160560   4.5783941  45.0073653
  24.3940569   3.9154646  44.7075881  25.6865426   4.6045073  44.3247301
  18.2487631   3.1443799  43.8964913  17.4119540   2.7165974  43.7148914
  18.2211277   3.3376243  44.8335704  35.5739933   3.6006852  53.8807296
  34.7835476   3.5830991  53.3411795  35.3373287   4.1395146  54.6356333
  35.6937808   0.4499319  51.1940025  35.7435813   0.2849326  52.1355547
  35.5851731  -0.4173422  50.8037905  24.5774066   3.1287864  38.4832113
  24.7262187   3.8123329  37.8298786  25.3840510   3.1092954  38.9981569
  32.9841570  -3.5669753  52.5099331  33.8851433  -3.7063288  52.2183329
  33.0589545  -3.4015298  53.4497509  37.1956005   2.8696260  51.4382046
  36.9040813   3.2326241  52.2745507  36.5828136   2.1563269  51.2595378
  38.3951687   0.4349140  43.9584616  39.2298578   0.8738944  44.1222177
  38.5310816  -0.0412207  43.1392862  35.4443193  -2.0071125  49.9062104
  35.9197314  -1.8143479  49.0980955  34.5208758  -1.9511939  49.6605488
  22.3326699  -0.8446958  39.4893182  22.0872741  -1.7484628  39.6873393
  22.5022614  -0.8429808  38.5472660  28.0769472   5.6235995  35.9543861
  27.5043439   6.2426182  35.5014333  28.6502266   6.1735357  36.4883783
  34.1444862  -5.1305365  48.1390410  35.0962285  -5.0307267  48.1602634
  33.9748312  -5.9227096  48.6488494  31.2966732   5.9073145  37.0852443
  32.2297405   5.8418707  37.2885319  31.2089945   6.7429412  36.6266976
  33.9254748   5.2239015  34.0456391  33.8468380   4.8898879  34.9392149
  34.7464415   5.7160783  34.0447863  36.6232940  -1.9099245  47.2532709
  36.5909260  -2.8483245  47.4392393  37.2333563  -1.8315209  46.5198534
  28.4616270  -3.0403192  33.2959913  29.4075375  -3.1696984  33.3648331
  28.0830515  -3.7788530  33.7729342  42.4409489  -0.8483239  46.3938746
  43.1712878  -1.1097950  46.9546449  41.8316435  -1.5854517  46.4340814
  40.5224787  -2.7075376  46.9913197  39.7957950  -2.8419411  46.3829689
  40.1072073  -2.3998547  47.7969915  28.3454963   1.0114554  54.7560570
  29.2657972   1.1893153  54.9500617  28.3104546   0.0670599  54.6040270
  21.3417036  -1.0784412  47.3983352  21.5603045  -0.1467304  47.4171385
  21.7542809  -1.4376437  48.1838155  26.0776171  -2.0754067  55.6051162
  25.5943253  -1.2753707  55.8115051  26.1637110  -2.0646122  54.6518606
  22.0049508   1.8150468  47.6419596  22.9592762   1.7834410  47.5749527
  21.8062032   1.3541091  48.4569822  22.5948891   0.3851584  50.2090394
  23.4141779   0.8795662  50.2325231  22.8685698  -0.5316448  50.1807961
  20.3599737   7.3570087  44.6589794  20.2254205   6.5970488  44.0927792
  19.9431799   8.0810987  44.1918583  31.4958700   2.5407011  33.6666369
  32.1994550   2.7457013  34.2824025  30.7721349   3.1083773  33.9315453
  32.3256510  -1.7083128  39.7868639  32.2691712  -1.2514577  38.9476272
  32.8784853  -2.4692443  39.6091482  40.4473654  -3.1797323  43.1190050
  39.8873212  -3.1104134  43.8921612  39.8417158  -3.3556338  42.3989546
  23.5168863   8.2539404  44.8708236  23.4001247   9.1984837  44.7686927
  22.6961309   7.9512966  45.2594036  33.4045398   2.9789540  35.7164829
  34.2391002   2.5470738  35.5342304  33.2429740   2.8071554  36.6441724
  33.0591290  -0.5178347  37.0821168  33.0040094  -0.6834075  36.1409613
  32.4337345   0.1897686  37.2383358  30.3737197   1.7870565  56.4074731
  31.2428357   1.9611217  56.0461366  29.8943948   2.6064982  56.2850461
  24.5423377   8.9067666  48.0864165  25.4450624   8.9391276  48.4030660
  24.3160747   7.9768117  48.1010501  26.2976979   7.6598653  44.7474243
  25.3472610   7.6600514  44.6338616  26.6009465   6.9131387  44.2310278
  42.0329673  13.4959191  45.8120006  42.6708083  13.3765938  45.1083346
  41.9150516  14.4440035  45.8707958  38.8419379  13.4486619  45.7481531
  38.5037890  13.3327684  44.8602065  39.7109147  13.0477784  45.7282537
  34.7006195  15.3022096  41.7378421  34.1371060  15.2112033  40.9694709
  34.5858590  14.4822000  42.2180914  39.3239162  14.6021471  51.7067736
  39.3127803  14.2074269  50.8348240  39.4859801  13.8687543  52.3001508
  32.2470627  16.7973287  44.5762642  33.0391919  16.4564112  44.1608941
  32.4867277  16.9068262  45.4964795  34.2061381  16.0582200  37.4480021
  34.9792257  15.5111187  37.3092897  34.5586779  16.9226450  37.6594482
  36.0446423  17.3858583  50.6546920  35.7536289  18.2904214  50.5393586
  36.6803407  17.4275110  51.3690990  36.9702630  14.7635431  47.2448280
  37.5666202  14.5391454  46.5305243  37.0277601  14.0220177  47.8473728
  36.5427658  12.2174867  35.0798471  36.7953179  11.6956388  34.3181934
  35.6052217  12.0541012  35.1825154  41.5870941  11.2210645  42.8873214
  42.3734030  10.8030068  42.5363631  41.8509645  12.1256737  43.0554862
  41.7581019  16.6583495  37.5861871  41.1226851  16.7318122  38.2982775
  41.4278425  17.2477094  36.9080950  46.9879368  11.1585878  43.7906192
  47.7204540  10.5885095  44.0244022  46.2318724  10.7707479  44.2312698
  36.2623947  14.1202972  37.2822846  36.1460205  13.4447876  37.9503930
  36.3726207  13.6335346  36.4654999  38.6055488  13.5813120  40.9869535
  38.2413695  13.0543741  41.6982456  39.4622604  13.1911589  40.8136020
  44.5104789   4.8707452  48.2500801  44.1788113   5.7402863  48.0262016
  43.9150402   4.5543736  48.9294831  38.2460975   8.6103019  35.9830883
  38.4135377   9.4783256  36.3501354  38.0558144   8.7730301  35.0592173
  41.0036308  17.0719998  47.6496714  40.7037031  17.9745037  47.5412521
  40.6587368  16.8052181  48.5017867  34.4548790  13.5233795  43.6833418
  33.5299286  13.3910009  43.8911110  34.7033203  14.3028014  44.1803361
  44.4033452   9.5902538  45.3294151  43.4950329   9.5217947  45.0352912
  44.3521048  10.0674483  46.1575977  38.2250196  11.0660677  36.9677550
  38.1049821  11.5117728  37.8063030  37.5302784  11.4145994  36.4091088
  31.8157601  13.1667069  44.5177207  31.9449982  13.4201548  45.4316619
  31.1355052  13.7594777  44.1981862  38.4774318  11.0092184  53.2729048
  37.7007652  11.5686104  53.2631913  39.1164881  11.4948967  53.7943918
  46.2695098   7.7918977  47.1072025  45.6269479   8.0851510  46.4611820
  45.7650027   7.6771897  47.9125222  43.9235262  11.5382150  37.7957884
  44.8353118  11.7709537  37.6205582  43.4144909  12.1219194  37.2332963
  36.7320690  13.8177637  52.8347015  37.4735374  14.3562681  52.5581839
  36.0257676  14.4443926  52.9918567  42.2076030  15.9606778  51.4319177
  42.6159386  15.5189188  50.6873809  41.4853291  15.3859405  51.6853370
  38.5607100  10.8979385  48.8052734  39.4068295  11.3218798  48.9487383
  38.5005737  10.2413009  49.4991297  42.5304844  16.5207968  45.1871466
  41.9013707  16.6853683  44.4847534  42.1430506  16.9349578  45.9582430
  46.4094076  17.4562406  42.5415829  45.7245114  17.8361308  41.9912863
  46.4937926  18.0657733  43.2747777  41.7106545   8.5583753  50.4633907
  41.4667477   9.3125813  49.9268183  41.9866476   8.9369101  51.2981154
  43.6645008  15.1022365  49.1411173  43.8761903  15.7454125  48.4645554
  43.6174756  14.2684682  48.6733103  41.2671237   7.7140186  46.0447745
  40.4055716   8.0121440  46.3364483  41.2933671   7.9310585  45.1128778
  38.0832806  16.2582377  42.4521551  38.5471152  16.5370079  41.6626173
  37.8189604  15.3565821  42.2694641  34.9756887  15.8053858  45.3901314
  35.5458244  16.2341126  44.7518799  35.5664999  15.5236443  46.0885500
  37.0201692  12.3805529  39.2611116  37.7225736  12.8326573  39.7285042
  36.6882321  11.7389348  39.8891009  35.4682054  10.9717286  53.6362325
  34.8380714  11.6533566  53.8697722  35.3618142  10.8600367  52.6915464
  30.7627026  10.6389082  44.5628250  29.9726080  10.8946610  44.0868360
  31.2538274  11.4537419  44.6680290  44.7790836  17.9794321  47.3133530
  45.6008280  17.5774508  47.0316212  44.7753239  17.8762555  48.2649646
  32.7141772  11.0033661  41.5211726  31.9172935  11.1152355  42.0395222
  32.4867364  11.3420313  40.6552617  38.5447439  17.5278364  49.4694241
  38.6091872  17.9898771  50.3052413  37.8358363  16.8975729  49.5976551
  29.0464729  10.8919572  46.9943240  29.2972768  11.7766582  47.2600816
  29.5824278  10.7124174  46.2218332  52.8696829  14.3233069  43.6618502
  52.1160537  13.7540467  43.5062506  53.0044370  14.2895734  44.6089137
  34.7462797   5.2738051  55.9987576  34.3529742   4.7204250  56.6735221
  35.5628937   5.5848630  56.3894094  31.7124854  16.7121910  39.9101146
  32.2249375  17.5065160  40.0606711  32.3647567  16.0148200  39.8434748
  33.5219739  19.8287666  41.9923899  33.6986367  20.7505631  41.8044883
  34.3176573  19.5146085  42.4218279  37.6630758   6.6895930  53.5907833
  38.4040471   7.2903084  53.5112295  37.8948680   5.9473568  53.0325876
  32.8072096  11.8752298  51.8686063  32.6925611  10.9737555  52.1693162
  31.9516613  12.1215994  51.5170879  39.8863933  19.8170038  53.4673563
  39.4427787  19.0306417  53.1494468  40.5481147  20.0049189  52.8017454
  41.9845171  20.0972838  51.4954965  41.9663647  20.9181719  51.0035234
  42.9065091  19.9726913  51.7205106  38.4418225  17.6116967  52.3378473
  38.9746562  16.8505256  52.1077781  37.9132307  17.3190619  53.0802627
  41.6087920   2.7177033  47.8672115  41.2652190   3.6078675  47.7911225
  41.9766883   2.5278691  47.0041700  29.6773771  15.0410564  40.6860717
  30.5148993  15.4507572  40.4694425  29.8552039  14.1010006  40.6560911
  41.5738203  12.7085644  36.3744550  41.0584827  13.4790249  36.6132937
  41.3015512  12.0350781  36.9977611  39.1585314   7.5535345  41.4329788
  38.3026911   7.1642196  41.2535427  39.5712266   7.6327306  40.5729574
  40.6884461   5.0881689  45.8321348  40.1849256   5.0511824  45.0189153
  40.9815068   5.9974431  45.8918005  36.9327347   5.1720418  44.8387530
  37.7980343   4.9763227  44.4793419  37.0004856   4.9430770  45.7656886
  46.5472477  15.4617999  38.3097723  45.7701920  15.1229159  37.8652885
  47.2263958  15.4670622  37.6352688  41.3624506  10.5812737  38.2004331
  41.0574642  10.8958886  39.0514474  42.3154948  10.6594156  38.2431664
  39.8070938  16.7402960  39.8497285  39.2792300  16.0055719  39.5370522
  39.3058441  17.5177636  39.6037253  44.7863784  14.9351980  44.9664331
  44.1287459  15.6251242  45.0544460  45.5904183  15.3248412  45.3098318
  34.5389666   7.4022626  42.2103896  35.1133418   7.1797808  41.4777089
  35.1260648   7.4711321  42.9632498  43.5969243  13.2896353  43.0168273
  44.1101125  13.9226345  43.5189983  44.2470467  12.6897549  42.6511633
  34.8659253   9.4327087  36.2299782  34.0296565   9.7701774  36.5509056
  34.7264023   9.2976067  35.2926919  36.8412334   4.2763875  40.9378966
  36.1876746   3.9612892  40.3135581  36.7992808   3.6539616  41.6638789
  40.0750074  10.7645809  45.2626613  39.1572635  10.9860756  45.1048302
  40.4910218  10.8392119  44.4038321  40.8585122  12.1637224  40.3929294
  41.6056941  12.6758622  40.0836416  41.1276711  11.8421277  41.2533687
  39.1311772  14.6595765  37.3756248  38.2222991  14.3754798  37.4728718
  39.1606856  15.0794844  36.5159555  44.3631039  18.2702355  41.1447416
  43.9093366  17.4293264  41.2012606  43.7325006  18.9063753  41.4822196
  43.3063959   9.1994341  42.3748083  42.5686716   8.6871727  42.7058326
  43.5590732   8.7594722  41.5631360  42.8063978  20.1078851  42.0797234
  43.0986953  20.6683908  41.3609599  43.3162599  20.4007412  42.8350393
  43.4075586   1.9770593  42.9689852  43.7134463   1.1167956  42.6815767
  44.1328191   2.5688213  42.7688846  29.6999942  12.3801279  41.3571450
  29.5024342  11.7870640  40.6322517  29.1446606  12.0753489  42.0747389
  37.6796666  12.2724386  43.4766043  37.7345276  11.3198222  43.4008520
  36.8687868  12.4283825  43.9607342  35.6189026  10.8901445  41.2356422
  34.8056891  11.1895616  41.6421614  36.1148020  10.4957134  41.9530904
  41.2163237  11.3543270  50.0671316  41.5712625  11.5814743  50.9265782
  41.8635369  11.6861647  49.4448571  46.9460974  14.4761706  40.7720645
  46.8078873  14.6663302  39.8441834  46.5897193  15.2381089  41.2288696
  35.1103101   8.4619801  46.8517657  35.7502480   8.3208560  46.1540621
  34.2780631   8.1754314  46.4756259  46.9730354  16.5438233  45.7831917
  47.4066861  16.4513522  46.6314971  47.6861935  16.5195733  45.1451933
  35.8863404  17.7622231  42.9652650  36.6804003  17.2672551  42.7635225
  35.1755097  17.2340094  42.6020355  40.7058249  20.1440327  47.3165017
  40.7595271  20.7131263  48.0842733  39.8373030  20.3142212  46.9519054
  32.1946168  11.9065313  39.0412402  31.2643756  11.8449769  39.2582364
  32.2903640  11.3841266  38.2449044  32.1131717   8.4320126  41.6290644
  32.3738534   9.3465459  41.5199804  32.9348889   7.9644568  41.7787257
  33.5856642   9.8457883  48.7989469  34.2579696   9.6375245  48.1502117
  32.7586429   9.6479969  48.3594701  47.8345904  16.5861933  48.3164802
  48.0281794  17.4907744  48.5624077  47.7346522  16.1269352  49.1503387
  39.4882214   6.4719824  50.8155129  38.8410129   7.1709774  50.7219606
  40.2583230   6.9055968  51.1831378  42.8961012  16.7368676  53.8905683
  42.7446519  16.5079228  52.9735766  42.8865692  17.6939278  53.9037028
  39.6646349  14.3100589  48.8751949  40.5938409  14.4611749  48.7020916
  39.2437379  14.3984610  48.0200596  40.0139896  17.7132856  44.0339325
  39.6789728  17.6733626  44.9296974  39.5143841  17.0477572  43.5609735
  33.9884140  13.1200486  49.5591906  33.8503937  12.3880725  50.1603445
  34.8989063  13.0309386  49.2776093  42.9499087  15.0588890  34.3076384
  42.3328258  14.3335719  34.2109437  42.4815576  15.8198251  33.9643458
  36.6166440  12.8320445  49.0475585  37.3266059  12.1913638  49.0062204
  36.5735748  13.0833340  49.9701766  44.6053219  19.7687799  51.9682165
  44.5465765  19.0847019  51.3012748  45.0072737  20.5106789  51.5162791
  35.3295374   9.8185663  50.8671225  34.7932731   9.3676402  51.5192821
  34.7412083   9.9531572  50.1241689  34.7397633   9.2774315  33.4297688
  33.8627099   9.1563115  33.0659935  35.2155386   8.4860393  33.1776577
  44.6070626  17.7327383  50.1996144  43.7197405  17.3953304  50.3222543
  45.1769177  17.0010414  50.4364910  26.2599773  14.0651474  43.5239196
  26.9470813  13.7513204  42.9360211  26.1047902  14.9692839  43.2506447
  31.0634495   8.9541671  47.9524219  30.9792684   8.3467340  47.2174629
  30.2417202   9.4450689  47.9533716  41.2358209   7.4395234  43.3194414
  41.7326909   6.6865197  42.9995485  40.4645191   7.4759551  42.7537624
  49.0887967  13.1435600  44.9612706  49.0777843  14.0260315  44.5906639
  48.2205346  12.7907151  44.7667243  40.5970463  22.2915669  49.3215546
  41.3098435  22.9263134  49.2491448  40.1060492  22.3879535  48.5055548
  42.3187990  16.1966922  40.8932838  41.3844269  16.3168384  40.7237542
  42.4964658  15.2939388  40.6292848  37.8193178   9.5812617  43.0466099
  37.4490966   9.0283658  43.7347005  38.3152270   8.9770751  42.4941099
  45.7060541  12.0384241  41.4282872  46.1720994  12.8712233  41.3543175
  46.1568042  11.5729223  42.1328130  43.7736772  18.3828062  38.4269024
  44.0496616  18.2684657  39.3362898  42.9041271  17.9845547  38.3881197
  43.6777204   4.4064828  45.4673773  42.7640284   4.6369055  45.6355980
  44.1070306   4.4903272  46.3187806  43.4483663  12.5954720  47.9673667
  42.7955113  12.8430627  47.3126120  43.8264042  11.7818858  47.6336145
  39.4971236  13.3374531  54.4539704  38.8211873  13.2368660  55.1242080
  40.3198869  13.1813745  54.9175702  25.8367749  12.1452068  45.7956663
  25.8751849  11.6115658  46.5893781  25.3308042  11.6187273  45.1767640
  33.2158512   6.9916608  49.2919205  33.2799838   7.8531439  48.8796603
  33.1525632   6.3790610  48.5591564  32.6910784   9.0639741  52.9392239
  33.3182823   8.6816818  53.5529764  31.8338703   8.8453943  53.3047932
  43.0904893  19.4702716  54.5445975  43.6344797  20.0832674  54.0500930
  42.5091738  20.0282294  55.0612988  29.4676327  10.8716170  38.8710594
  29.7629768   9.9626848  38.8177648  28.5664363  10.8503909  38.5491596
  32.9970574   8.9472166  44.8538143  32.2757160   9.5608134  44.7145616
  33.7863830   9.4829931  44.7754789  43.4397314  20.3932454  47.3040553
  42.4927650  20.2737805  47.2318879  43.7880087  19.5054952  47.3866814
  35.7996888   6.2826593  51.1278794  36.3231289   6.5288890  51.8905104
  35.5809221   7.1146628  50.7081932  31.1964169   8.5530268  38.9949919
  30.8676875   7.6727646  38.8125025  31.5503539   8.4977936  39.8826309
  40.4443747  20.1885170  43.5044905  40.2968710  19.2601878  43.6852475
  41.2697241  20.2105261  43.0201980  34.3105992   8.8403237  39.3625397
  34.6502064   9.3689159  38.6404005  34.7578112   9.1783643  40.1383964
  44.0477869  21.0113729  44.5909778  44.9724417  20.8056590  44.4534229
  43.8793173  20.7630130  45.4999119  37.0049433   7.2240288  48.8128465
  36.6646253   6.4248101  49.2149145  36.2988439   7.5241999  48.2405298
  37.6565904   4.3089600  47.2655788  38.4791974   3.8350079  47.1434678
  37.9003968   5.0880084  47.7654474  36.2974139   7.3377859  37.5618690
  37.0182501   7.7159112  37.0582407  35.6739443   8.0566736  37.6653668
  40.4405262   8.0423008  38.4977022  40.6568876   8.9247646  38.1965850
  39.9599329   7.6509221  37.7682664  35.1804483  11.0008721  45.0747767
  35.0349064  11.3149024  45.9672048  34.7029687  11.6193621  44.5218665
  37.0400866   7.9911269  45.1228656  37.0262435   7.0952362  44.7860954
  37.7573294   7.9981933  45.7566942  38.8926997   8.4248609  47.1681784
  38.6344775   9.3465680  47.1666114  38.3612037   8.0279044  47.8582248
  36.4437762   6.8725649  40.3916226  36.5653673   5.9442296  40.5907114
  36.1539804   6.8864335  39.4794542  39.3128952   4.5580560  43.5282946
  39.3350649   4.6219893  42.5734926  39.7297011   3.7185068  43.7223452
  49.6912577  14.2935819  41.5662169  50.1343723  13.5443145  41.1681292
  48.8139087  14.2845956  41.1835901  30.4416167  12.6683962  50.9065585
  29.6997903  12.8166597  51.4930215  30.1208911  12.9292227  50.0432334
  46.7239781  18.2965866  38.5756098  47.2491105  18.6353139  37.8505418
  46.6362134  17.3612882  38.3919233  35.9278841   8.3857647  54.6006159
  35.9766997   9.2619770  54.2183929  36.4701356   7.8435040  54.0277802
  46.4133687  18.9298770  53.8807296  45.6229231  18.9122909  53.3411795
  46.1767042  19.4687064  54.6356333  46.5331562  15.7791236  51.1940025
  46.5829567  15.6141244  52.1355547  46.4245486  14.9118495  50.8037905
  43.8235325  11.7622164  52.5099331  44.7245187  11.6228629  52.2183329
  43.8983299  11.9276619  53.4497509  38.1578130   9.1389019  51.3552518
  37.2881439   9.4322585  51.0835106  38.3937610   9.7229464  52.0759781
  48.0349759  18.1988178  51.4382046  47.7434567  18.5618158  52.2745507
  47.4221890  17.4855186  51.2595378  49.2345441  15.7641058  43.9584616
  50.0692333  16.2030862  44.1222177  49.3704570  15.2879711  43.1392862
  46.2836947  13.3220793  49.9062104  46.7591069  13.5148439  49.0980955
  45.3602513  13.3779978  49.6605488  33.1720454  14.4844960  39.4893182
  32.9266496  13.5807290  39.6873393  33.3416368  14.4862110  38.5472660
  40.8617164   5.3568636  48.8717938  41.3799108   6.0929663  48.5464427
  40.5072297   5.6632629  49.7064697  32.4416101  10.2173317  36.9879344
  31.7485346  10.2917672  36.3319380  32.1967853   9.4533661  37.5100861
  41.1129758   1.7768919  44.3918835  41.3931512   1.1092108  45.0179261
  41.8980365   1.9698014  43.8793498  44.9838616  10.1986553  48.1390410
  45.9356039  10.2984650  48.1602634  44.8142067   9.4064821  48.6488494
  43.0052996   7.2842136  48.3249811  42.4102928   7.5647149  47.6296299
  42.7202692   7.7736037  49.0966552  44.7648503  20.5530933  34.0456391
  44.6862134  20.2190797  34.9392149  45.5858170  21.0452701  34.0447863
  47.4626694  13.4192672  47.2532709  47.4303014  12.4808673  47.4392393
  48.0727318  13.4976709  46.5198534  39.3010025  12.2888725  33.2959913
  40.2469130  12.1594933  33.3648331  38.9224270  11.5503387  33.7729342
  47.6121183  10.2103716  47.2990993  47.0960231   9.4262172  47.1120921
  48.4961131   9.8822432  47.4637512  45.2731909   3.9544731  43.2586805
  45.0756731   3.6459820  44.1430137  45.8831615   4.6806370  43.3884735
  53.2803244  14.4808679  46.3938746  54.0106632  14.2193967  46.9546449
  52.6710189  13.7437401  46.4340814  51.3618541  12.6216542  46.9913197
  50.6351705  12.4872507  46.3829689  50.9465828  12.9293370  47.7969915
  39.1848717  16.3406471  54.7560570  40.1051727  16.5185070  54.9500617
  39.1498300  15.3962517  54.6040270  37.4852942  10.2138702  33.2314799
  36.5784397   9.9171814  33.3077512  37.7628923   9.9168520  32.3649085
  28.4030882  11.5345065  43.6813845  28.0833667  10.6810373  43.3888219
  27.8564311  11.7493643  44.4371812  32.1810790  14.2507506  47.3983352
  32.3996800  15.1824614  47.4171385  32.5936564  13.8915480  48.1838155
  39.1015008   4.7575591  39.3859040  38.2915736   4.4122676  39.7614286
  39.7899425   4.4483135  39.9746651  41.0305556   3.8353638  41.0083337
  41.5836595   4.2549092  41.6673360  41.2675642   2.9089386  41.0506293
  37.0538655   9.8240712  56.7886100  36.9535382  10.7735069  56.7198192
  36.8360197   9.4958951  55.9162171  36.2551727   7.0725637  33.3726778
  37.1170891   7.3980535  33.6322595  36.4402071   6.2857133  32.8599844
  44.4084363   5.9454163  40.5162001  43.8283032   6.6038967  40.1340053
  44.1420296   5.1231508  40.1049418  42.8587930   5.3459221  42.7183321
  43.3587708   5.4575756  41.9097640  43.5023537   5.0420274  43.3584130
  36.9169925  13.2537851  55.6051162  36.4337007  14.0538211  55.8115051
  37.0030864  13.2645796  54.6518606  30.1855885  15.0866230  43.5272981
  30.1626573  15.1853918  42.5754865  30.4956521  15.9331381  43.8490148
  32.8443263  17.1442385  47.6419596  33.7986516  17.1126328  47.5749527
  32.6455786  16.6833009  48.4569822  33.4342645  15.7143501  50.2090394
  34.2535534  16.2087580  50.2325231  33.7079453  14.7975470  50.1807961
  43.1909241   8.1054254  39.5718349  42.3035096   8.3903904  39.3538544
  43.6063230   7.9448017  38.7245626  46.5423777   8.1300775  43.2872688
  47.3184167   8.6197227  43.5597305  45.8171912   8.5558829  43.7444558
  48.9796336   8.8428394  44.3446629  49.5740827   8.6024130  43.6339937
  49.0522920   8.1235525  44.9720165  42.3352455  17.8698928  33.6666369
  43.0388305  18.0748931  34.2824025  41.6115103  18.4375690  33.9315453
  43.1650265  13.6208790  39.7868639  43.1085466  14.0777341  38.9476272
  43.7178607  12.8599474  39.6091482  46.9755071   9.4098522  40.6118759
  46.7192005   9.0095157  41.4426966  46.3507939  10.1242315  40.4868898
  51.2867409  12.1494595  43.1190050  50.7266967  12.2187784  43.8921612
  50.6810912  11.9735579  42.3989546  44.2439152  18.3081458  35.7164829
  45.0784756  17.8762656  35.5342304  44.0823495  18.1363471  36.6441724
  43.8985044  14.8113571  37.0821168  43.8433848  14.6457842  36.1409613
  43.2731100  15.5189604  37.2383358  28.6877559  10.0481635  50.9082591
  29.3336423   9.5380589  51.3969816  28.4794710  10.7850317  51.4826016
  41.2130951  17.1162483  56.4074731  42.0822111  17.2903135  56.0461366
  40.7337703  17.9356900  56.2850461  37.2081170   4.3121680  36.6606487
  37.1959840   5.2563520  36.8174758  38.1004592   4.1291825  36.3665948
  41.0233289   0.9064457  40.9152424  40.2565685   0.3522943  41.0609106
  41.4343994   0.9786325  41.7766575  33.0275050   7.1949252  55.0057605
  33.8906512   6.8386057  55.2160929  32.4540461   6.8563147  55.6933009
  52.4264696  26.5502563  42.8873214  53.2127785  26.1321986  42.5363631
  52.6903400  27.4548655  43.0554862  57.8273123  26.4877796  43.7906192
  58.5598295  25.9177013  44.0244022  57.0712478  26.0999396  44.2312698
  55.3498543  20.1999370  48.2500801  55.0181868  21.0694781  48.0262016
  54.7544157  19.8835654  48.9294831  55.2427206  24.9194456  45.3294151
  54.3344084  24.8509864  45.0352912  55.1914802  25.3966401  46.1575977
  49.3168072  26.3384102  53.2729048  48.5401406  26.8978022  53.2631913
  49.9558635  26.8240885  53.7943918  57.1088853  23.1210894  47.1072025
  56.4663233  23.4143428  46.4611820  56.6043781  23.0063815  47.9125222
  54.7629017  26.8674068  37.7957884  55.6746873  27.1001454  37.6205582
  54.2538664  27.4511112  37.2332963  52.5500300  23.8875671  50.4633907
  52.3061231  24.6417731  49.9268183  52.8260230  24.2661018  51.2981154
  52.1064991  23.0432104  46.0447745  51.2449470  23.3413357  46.3364483
  52.1327426  23.2602503  45.1128778  45.5856551  20.6029969  55.9987576
  45.1923497  20.0496168  56.6735221  46.4022691  20.9140548  56.3894094
  48.5024512  22.0187848  53.5907833  49.2434225  22.6195001  53.5112295
  48.7342435  21.2765486  53.0325876  52.4481675  18.0468951  47.8672115
  52.1045944  18.9370593  47.7911225  52.8160638  17.8570609  47.0041700
  49.9979069  22.8827263  41.4329788  49.1420665  22.4934113  41.2535427
  50.4106020  22.9619224  40.5729574  51.5278215  20.4173606  45.8321348
  51.0243011  20.3803741  45.0189153  51.8208822  21.3266349  45.8918005
  47.7721101  20.5012336  44.8387530  48.6374098  20.3055145  44.4793419
  47.8398610  20.2722688  45.7656886  57.3866232  30.7909917  38.3097723
  56.6095675  30.4521076  37.8652885  58.0657713  30.7962540  37.6352688
  54.4362998  28.6188271  43.0168273  54.9494879  29.2518263  43.5189983
  55.0864221  28.0189466  42.6511633  47.6806088  19.6055793  40.9378966
  47.0270500  19.2904810  40.3135581  47.6386562  18.9831533  41.6638789
  48.7917293  29.8875088  32.8532258  47.8844355  29.6564341  33.0523407
  49.2888325  29.0912707  33.0406239  50.9143828  26.0937726  45.2626613
  49.9966390  26.3152673  45.1048302  51.3303972  26.1684037  44.4038321
  54.1457713  24.5286258  42.3748083  53.4080470  24.0163644  42.7058326
  54.3984487  24.0886640  41.5631360  54.2469341  17.3062510  42.9689852
  54.5528217  16.4459874  42.6815767  54.9721945  17.8980130  42.7688846
  52.0556992  26.6835188  50.0671316  52.4106380  26.9106661  50.9265782
  52.7029123  27.0153564  49.4448571  45.9496855  23.7911719  46.8517657
  46.5896234  23.6500478  46.1540621  45.1174386  23.5046232  46.4756259
  50.3275969  21.8011742  50.8155129  49.6803884  22.5001691  50.7219606
  51.0976984  22.2347886  51.1831378  53.7892842  30.3880808  34.3076384
  53.1722012  29.6627636  34.2109437  53.3209330  31.1490168  33.9643458
  52.0751964  22.7687152  43.3194414  52.5720663  22.0157114  42.9995485
  51.3038945  22.8051469  42.7537624  59.9281721  28.4727518  44.9612706
  59.9171597  29.3552233  44.5906639  59.0599101  28.1199069  44.7667243
  48.6586933  24.9104535  43.0466099  48.2884720  24.3575576  43.7347005
  49.1546025  24.3062669  42.4941099  56.5454296  27.3676159  41.4282872
  57.0114748  28.2004150  41.3543175  56.9961796  26.9021140  42.1328130
  54.5170959  19.7356746  45.4673773  53.6034038  19.9660972  45.6355980
  54.9464060  19.8195190  46.3187806  54.2877417  27.9246638  47.9673667
  53.6348867  28.1722545  47.3126120  54.6657797  27.1110776  47.6336145
  50.3364990  28.6666449  54.4539704  49.6605627  28.5660578  55.1242080
  51.1592624  28.5105662  54.9175702  44.0552266  22.3208526  49.2919205
  44.1193593  23.1823357  48.8796603  43.9919386  21.7082528  48.5591564
  43.5304539  24.3931658  52.9392239  44.1576578  24.0108736  53.5529764
  42.6732458  24.1745860  53.3047932  46.6390642  21.6118511  51.1278794
  47.1625044  21.8580807  51.8905104  46.4202975  22.4438545  50.7081932
  47.8443187  22.5532206  48.8128465  47.5040007  21.7540019  49.2149145
  47.1382193  22.8533917  48.2405298  48.4959659  19.6381518  47.2655788
  49.3185728  19.1641996  47.1434678  48.7397722  20.4172002  47.7654474
  47.8794621  23.3203187  45.1228656  47.8656189  22.4244280  44.7860954
  48.5967049  23.3273851  45.7566942  49.7320751  23.7540527  47.1681784
  49.4738529  24.6757598  47.1666114  49.2005792  23.3570962  47.8582248
  47.2831516  22.2017567  40.3916226  47.4047428  21.2734213  40.5907114
  46.9933559  22.2156253  39.4794542  50.1522707  19.8872478  43.5282946
  50.1744404  19.9511811  42.5734926  50.5690766  19.0476986  43.7223452
  46.7672596  23.7149564  54.6006159  46.8160751  24.5911687  54.2183929
  47.3095110  23.1726957  54.0277802  54.6629079  27.0914082  52.5099331
  55.5638942  26.9520547  52.2183329  54.7377054  27.2568537  53.4497509
  48.9971884  24.4680937  51.3552518  48.1275194  24.7614503  51.0835106
  49.2331365  25.0521382  52.0759781  58.8743514  33.5280096  51.4382046
  58.5828322  33.8910076  52.2745507  58.2615645  32.8147104  51.2595378
  51.7010918  20.6860554  48.8717938  52.2192862  21.4221581  48.5464427
  51.3466051  20.9924547  49.7064697  51.9523512  17.1060836  44.3918835
  52.2325266  16.4384025  45.0179261  52.7374119  17.2989932  43.8793498
  55.8232371  25.5278470  48.1390410  56.7749794  25.6276568  48.1602634
  55.6535821  24.7356739  48.6488494  53.8446750  22.6134054  48.3249811
  53.2496682  22.8939066  47.6296299  53.5596447  23.1027954  49.0966552
  50.1403779  27.6180643  33.2959913  51.0862884  27.4886851  33.3648331
  49.7618024  26.8795305  33.7729342  58.4514937  25.5395633  47.2990993
  57.9353986  24.7554090  47.1120921  59.3354886  25.2114350  47.4637512
  56.1125664  19.2836649  43.2586805  55.9150485  18.9751737  44.1430137
  56.7225370  20.0098288  43.3884735  48.3246697  25.5430619  33.2314799
  47.4178152  25.2463732  33.3077512  48.6022678  25.2460437  32.3649085
  49.9408762  20.0867509  39.3859040  49.1309491  19.7414594  39.7614286
  50.6293179  19.7775053  39.9746651  51.8699311  19.1645556  41.0083337
  52.4230349  19.5841009  41.6673360  52.1069397  18.2381304  41.0506293
  47.8932410  25.1532630  56.7886100  47.7929137  26.1026986  56.7198192
  47.6753952  24.8250868  55.9162171  47.0945481  22.4017555  33.3726778
  47.9564645  22.7272453  33.6322595  47.2795825  21.6149050  32.8599844
  55.2478118  21.2746081  40.5162001  54.6676787  21.9330885  40.1340053
  54.9814050  20.4523426  40.1049418  53.6981684  20.6751139  42.7183321
  54.1981462  20.7867673  41.9097640  54.3417292  20.3712192  43.3584130
  47.7563680  28.5829768  55.6051162  47.2730762  29.3830128  55.8115051
  47.8424619  28.5937713  54.6518606  54.0302996  23.4346171  39.5718349
  53.1428851  23.7195822  39.3538544  54.4456985  23.2739935  38.7245626
  57.3817532  23.4592692  43.2872688  58.1577922  23.9489145  43.5597305
  56.6565666  23.8850747  43.7444558  59.8190090  24.1720312  44.3446629
  60.4134581  23.9316048  43.6339937  59.8916674  23.4527442  44.9720165
  53.1746209  33.1990846  33.6666369  53.8782059  33.4040849  34.2824025
  52.4508858  33.7667608  33.9315453  54.0044019  28.9500707  39.7868639
  53.9479221  29.4069259  38.9476272  54.5572362  28.1891392  39.6091482
  57.8148825  24.7390439  40.6118759  57.5585760  24.3387075  41.4426966
  57.1901693  25.4534233  40.4868898  62.1261163  27.4786512  43.1190050
  61.5660721  27.5479702  43.8921612  61.5204667  27.3027497  42.3989546
  54.7378799  30.1405489  37.0821168  54.6827603  29.9749760  36.1409613
  54.1124854  30.8481522  37.2383358  48.0474924  19.6413598  36.6606487
  48.0353594  20.5855438  36.8174758  48.9398346  19.4583743  36.3665948
  51.8627044  16.2356374  40.9152424  51.0959439  15.6814861  41.0609106
  52.2737749  16.3078243  41.7766575  43.8668805  22.5241170  55.0057605
  44.7300266  22.1677975  55.2160929  43.2934215  22.1855065  55.6933009
  63.3894054  39.2167588  50.4633907  63.1454986  39.9709649  49.9268183
  63.6653985  39.5952936  51.2981154  74.5484338  44.9816905  43.6618502
  73.7948046  44.4124303  43.5062506  74.6831879  44.9479569  44.6089137
  68.0921196  49.5882605  53.8807296  67.3016740  49.5706744  53.3411795
  67.8554551  50.1270899  54.6356333  69.7137268  48.8572013  51.4382046
  69.4222076  49.2201994  52.2745507  69.1009399  48.1439022  51.2595378
  69.2908692  40.8687551  47.2990993  68.7747740  40.0846008  47.1120921
  70.1748640  40.5406268  47.4637512  74.9590753  45.1392515  46.3938746
  75.6894141  44.8777803  46.9546449  74.3497698  44.4021236  46.4340814
  73.0406050  43.2800377  46.9913197  72.3139214  43.1456342  46.3829689
  72.6253337  43.5877206  47.7969915  58.7326164  40.4824547  56.7886100
  58.6322891  41.4318904  56.7198192  58.5147706  40.1542786  55.9162171
  70.6583845  39.5012229  44.3446629  71.2528336  39.2607965  43.6339937
  70.7310429  38.7819360  44.9720165  72.9654918  42.8078430  43.1190050
  72.4054476  42.8771619  43.8921612  72.3598421  42.6319415  42.3989546
  62.8918460  47.7746318  56.4074731  63.7609620  47.9486970  56.0461366
  62.4125212  48.5940735  56.2850461  74.5510936  59.4834944  45.8120006
  75.1889346  59.3641691  45.1083346  74.4331779  60.4315788  45.8707958
  71.3600642  59.4362372  45.7481531  71.0219154  59.3203437  44.8602065
  72.2290411  59.0353537  45.7282537  67.2187458  61.2897849  41.7378421
  66.6552323  61.1987786  40.9694709  67.1039853  60.4697753  42.2180914
  71.8420425  60.5897224  51.7067736  71.8309066  60.1950022  50.8348240
  72.0041065  59.8563297  52.3001508  72.7987017  64.9568816  37.0492886
  72.1474997  65.5422897  36.6626900  73.5931380  65.4875011  37.1087924
  66.7242644  62.0457953  37.4480021  67.4973520  61.4986941  37.3092897
  67.0768043  62.9102203  37.6594482  68.5627687  63.3734336  50.6546920
  68.2717553  64.2779967  50.5393586  69.1984671  63.4150863  51.3690990
  69.4883893  60.7511184  47.2448280  70.0847466  60.5267207  46.5305243
  69.5458865  60.0095930  47.8473728  69.0608922  58.2050620  35.0798471
  69.3134442  57.6832141  34.3181934  68.1233481  58.0416765  35.1825154
  74.1052205  57.2086398  42.8873214  74.8915294  56.7905821  42.5363631
  74.3690909  58.1132490  43.0554862  74.2762282  62.6459248  37.5861871
  73.6408115  62.7193875  38.2982775  73.9459688  63.2352847  36.9080950
  79.5060632  57.1461631  43.7906192  80.2385804  56.5760848  44.0244022
  78.7499987  56.7583232  44.2312698  68.7805211  60.1078726  37.2822846
  68.6641469  59.4323629  37.9503930  68.8907470  59.6211099  36.4654999
  71.1236751  59.5688873  40.9869535  70.7594959  59.0419494  41.6982456
  71.9803867  59.1787342  40.8136020  77.0286052  50.8583205  48.2500801
  76.6969377  51.7278616  48.0262016  76.4331665  50.5419489  48.9294831
  70.7642238  54.5978772  35.9830883  70.9316641  55.4659009  36.3501354
  70.5739408  54.7606054  35.0592173  73.5217572  63.0595751  47.6496714
  73.2218295  63.9620790  47.5412521  73.1768631  62.7927934  48.5017867
  76.9214715  55.5778291  45.3294151  76.0131593  55.5093700  45.0352912
  76.8702311  56.0550236  46.1575977  70.7431459  57.0536430  36.9677550
  70.6231085  57.4993481  37.8063030  70.0484048  57.4021747  36.4091088
  68.5038351  69.8240072  40.6167681  68.4262381  70.7747897  40.6956162
  67.8999995  69.4785944  41.2742608  70.9955581  56.9967937  53.2729048
  70.2188915  57.5561857  53.2631913  71.6346144  57.4824720  53.7943918
  78.7876362  53.7794730  47.1072025  78.1450742  54.0727263  46.4611820
  78.2831290  53.6647650  47.9125222  76.4416525  57.5257903  37.7957884
  77.3534382  57.7585290  37.6205582  75.9326173  58.1094947  37.2332963
  69.2501954  59.8053390  52.8347015  69.9916638  60.3438434  52.5581839
  68.5438939  60.4319679  52.9918567  74.7257293  61.9482531  51.4319177
  75.1340649  61.5064941  50.6873809  74.0034555  61.3735158  51.6853370
  71.0788363  56.8855138  48.8052734  71.9249558  57.3094551  48.9487383
  71.0187001  56.2288762  49.4991297  75.0486108  62.5083721  45.1871466
  74.4194970  62.6729436  44.4847534  74.6611770  62.9225331  45.9582430
  78.9275340  63.4438159  42.5415829  78.2426378  63.8237061  41.9912863
  79.0119189  64.0533486  43.2747777  74.2287809  54.5459506  50.4633907
  73.9848740  55.3001566  49.9268183  74.5047739  54.9244854  51.2981154
  76.1826271  61.0898118  49.1411173  76.3943167  61.7329878  48.4645554
  76.1356020  60.2560435  48.6733103  73.7852500  53.7015939  46.0447745
  72.9236979  53.9997193  46.3364483  73.8114935  53.9186338  45.1128778
  70.6014070  62.2458130  42.4521551  71.0652415  62.5245833  41.6626173
  70.3370868  61.3441574  42.2694641  77.2972099  63.9670074  47.3133530
  78.1189543  63.5650261  47.0316212  77.2934502  63.8638308  48.2649646
  71.0628703  63.5154117  49.4694241  71.1273135  63.9774524  50.3052413
  70.3539627  62.8851482  49.5976551  85.3878092  60.3108822  43.6618502
  84.6341801  59.7416220  43.5062506  85.5225634  60.2771487  44.6089137
  70.7776720  65.1822225  39.3373221  70.6422395  66.0273760  39.7658069
  71.3186533  65.3841502  38.5739155  67.2644060  51.2613804  55.9987576
  66.8711006  50.7080003  56.6735221  68.0810200  51.5724383  56.3894094
  70.1812021  52.6771683  53.5907833  70.9221734  53.2778837  53.5112295
  70.4129944  51.9349321  53.0325876  72.4045197  65.8045791  53.4673563
  71.9609051  65.0182170  53.1494468  73.0662410  65.9924942  52.8017454
  67.1632318  67.3341593  47.9934242  67.7139743  67.2058656  47.2211236
  66.3243794  67.6336482  47.6429135  74.5026435  66.0848591  51.4954965
  74.4844910  66.9057472  51.0035234  75.4246355  65.9602666  51.7205106
  70.9599489  63.5992720  52.3378473  71.4927826  62.8381009  52.1077781
  70.4313570  63.3066372  53.0802627  74.1269184  48.7052786  47.8672115
  73.7833453  49.5954428  47.7911225  74.4948147  48.5154444  47.0041700
  74.0919467  58.6961398  36.3744550  73.5766090  59.4666002  36.6132937
  73.8196775  58.0226534  36.9977611  71.6766578  53.5411098  41.4329788
  70.8208174  53.1517949  41.2535427  72.0893529  53.6203059  40.5729574
  73.2065724  51.0757442  45.8321348  72.7030520  51.0387577  45.0189153
  73.4996331  51.9850184  45.8918005  79.0653741  61.4493752  38.3097723
  78.2883184  61.1104912  37.8652885  79.7445222  61.4546375  37.6352688
  73.8805770  56.5688490  38.2004331  73.5755905  56.8834639  39.0514474
  74.8336212  56.6469910  38.2431664  72.3252202  62.7278713  39.8497285
  71.7973563  61.9931473  39.5370522  71.8239704  63.5053389  39.6037253
  77.3045048  60.9227733  44.9664331  76.6468722  61.6126995  45.0544460
  78.1085447  61.3124165  45.3098318  76.1150506  59.2772106  43.0168273
  76.6282388  59.9102098  43.5189983  76.7651730  58.6773302  42.6511633
  67.3840516  55.4202840  36.2299782  66.5477829  55.7577527  36.5509056
  67.2445286  55.2851820  35.2926919  70.4704802  60.5458923  32.8532258
  69.5631864  60.3148177  33.0523407  70.9675834  59.7496542  33.0406239
  73.3772881  69.2556430  35.7728944  72.7034579  69.5588127  36.3813902
  73.7638703  70.0585511  35.4234401  72.5931337  56.7521562  45.2626613
  71.6753899  56.9736509  45.1048302  73.0091481  56.8267872  44.4038321
  73.3766385  58.1512977  40.3929294  74.1238204  58.6634375  40.0836416
  73.6457975  57.8297030  41.2533687  71.6493035  60.6471518  37.3756248
  70.7404255  60.3630551  37.4728718  71.6788119  61.0670597  36.5159555
  76.8812303  64.2578108  41.1447416  76.4274630  63.4169017  41.2012606
  76.2506269  64.8939506  41.4822196  75.8245222  55.1870094  42.3748083
  75.0867979  54.6747480  42.7058326  76.0771996  54.7470475  41.5631360
  75.3245242  66.0954604  42.0797234  75.6168216  66.6559661  41.3609599
  75.8343863  66.3883165  42.8350393  75.9256850  47.9646346  42.9689852
  76.2315726  47.1043709  42.6815767  76.6509454  48.5563966  42.7688846
  71.3469123  62.1880262  34.7144327  70.9088553  61.4716121  34.2549964
  72.0879564  62.4156377  34.1529418  70.2878867  66.8734955  43.1690687
  70.2455046  67.0995802  42.2399219  71.2041566  66.6398330  43.3176488
  73.7344501  57.3419023  50.0671316  74.0893889  57.5690496  50.9265782
  74.3816632  57.6737400  49.4448571  79.4642238  60.4637459  40.7720645
  79.3260136  60.6539055  39.8441834  79.1078457  61.2256842  41.2288696
  79.4911617  62.5313986  45.7831917  79.9248124  62.4389275  46.6314971
  80.2043198  62.5071486  45.1451933  68.4044668  63.7497984  42.9652650
  69.1985266  63.2548304  42.7635225  67.6936360  63.2215847  42.6020355
  73.2239512  66.1316080  47.3165017  73.2776535  66.7007016  48.0842733
  72.3554294  66.3017965  46.9519054  80.3527167  62.5737686  48.3164802
  80.5463057  63.4783497  48.5624077  80.2527785  62.1145106  49.1503387
  72.0063478  52.4595577  50.8155129  71.3591393  53.1585527  50.7219606
  72.7764493  52.8931721  51.1831378  75.4142276  62.7244429  53.8905683
  75.2627782  62.4954981  52.9735766  75.4046955  63.6815031  53.9037028
  72.1827612  60.2976342  48.8751949  73.1119672  60.4487502  48.7020916
  71.7618642  60.3860363  48.0200596  70.9815944  64.3227006  46.6450487
  70.8427030  63.9545791  47.5176425  70.1930540  64.8374646  46.4734445
  71.5764096  69.4236103  37.9876023  71.7515852  68.9524146  38.8021646
  70.8896884  70.0501869  38.2157284  72.5321159  63.7008609  44.0339325
  72.1970992  63.6609379  44.9296974  72.0325105  63.0353325  43.5609735
  75.4680351  61.0464643  34.3076384  74.8509521  60.3211472  34.2109437
  74.9996839  61.8074004  33.9643458  69.1347704  58.8196198  49.0475585
  69.8447322  58.1789391  49.0062204  69.0917012  59.0709093  49.9701766
  77.1234482  65.7563552  51.9682165  77.0647029  65.0722772  51.3012748
  77.5254001  66.4982542  51.5162791  66.1425181  72.5725466  44.7615883
  66.3821779  73.2043990  45.4394902  65.2994378  72.2213506  45.0481243
  67.2578897  55.2650068  33.4297688  66.3808363  55.1438868  33.0659935
  67.7336650  54.4736146  33.1776577  77.1251890  63.7203136  50.1996144
  76.2378668  63.3829057  50.3222543  77.6950441  62.9886167  50.4364910
  70.6553043  68.3804588  47.1657387  70.5823215  69.1859560  47.6776692
  70.2130436  68.5796554  46.3405409  70.4442823  67.6176358  40.6760209
  69.6610345  68.1598038  40.7698433  71.1435568  68.1350338  41.0754450
  73.7539473  53.4270988  43.3194414  74.2508172  52.6740950  42.9995485
  72.9826454  53.4635304  42.7537624  81.6069230  59.1311353  44.9612706
  81.5959106  60.0136068  44.5906639  80.7386610  58.7782904  44.7667243
  73.1151727  68.2791422  49.3215546  73.8279699  68.9138887  49.2491448
  72.6241755  68.3755288  48.5055548  74.8369253  62.1842675  40.8932838
  73.9025532  62.3044137  40.7237542  75.0145922  61.2815141  40.6292848
  78.2241805  58.0259994  41.4282872  78.6902257  58.8587986  41.3543175
  78.6749305  57.5604976  42.1328130  68.1663640  66.0285866  50.1421117
  68.8673100  66.6622348  50.2950511  67.6958755  66.3700597  49.3816756
  76.2918036  64.3703815  38.4269024  76.5677880  64.2560410  39.3362898
  75.4222535  63.9721300  38.3881197  76.1958468  50.3940581  45.4673773
  75.2821547  50.6244808  45.6355980  76.6251569  50.4779025  46.3187806
  75.9664926  58.5830473  47.9673667  75.3136376  58.8306380  47.3126120
  76.3445306  57.7694611  47.6336145  72.9272100  68.6190166  42.0701838
  73.1094494  67.8011822  42.5329590  73.7505086  68.8357858  41.6326728
  73.2614265  67.5458351  39.3316886  73.7902032  67.0350806  38.7187048
  73.5242485  67.2300881  40.1962419  72.0152499  59.3250284  54.4539704
  71.3393136  59.2244413  55.1242080  72.8380133  59.1689498  54.9175702
  66.6170013  68.5973468  42.0914662  65.9480389  69.0819596  41.6078702
  66.4782883  68.8442688  43.0058041  70.7575282  70.6317211  48.6897320
  71.3093590  70.7948833  49.4546406  71.0981475  71.2221649  48.0177345
  75.6086156  65.4578469  54.5445975  76.1526060  66.0708427  54.0500930
  75.0273001  66.0158047  55.0612988  73.8943669  68.5799187  45.6761003
  73.7694809  67.7788927  45.1671948  74.5522760  69.0745380  45.1874972
  75.9578578  66.3808207  47.3040553  75.0108913  66.2613558  47.2318879
  76.3061351  65.4930705  47.3866814  72.9625011  66.1760923  43.5044905
  72.8149973  65.2477631  43.6852475  73.7878504  66.1981014  43.0201980
  76.5659133  66.9989482  44.5909778  77.4905680  66.7932343  44.4534229
  76.3974436  66.7505883  45.4999119  69.5230696  53.2116041  48.8128465
  69.1827516  52.4123854  49.2149145  68.8169702  53.5117752  48.2405298
  72.9586525  54.0298761  38.4977022  73.1750140  54.9123399  38.1965850
  72.4780592  53.6384974  37.7682664  71.4108260  54.4124362  47.1681784
  71.1526038  55.3341433  47.1666114  70.8793301  54.0154797  47.8582248
  76.3554449  67.5175149  39.9471869  76.5291326  66.9521572  39.1945721
  76.8483340  68.3176044  39.7651359  82.2093840  60.2811572  41.5662169
  82.6524986  59.5318898  41.1681292  81.3320350  60.2721709  41.1835901
  77.3429621  66.8341914  37.0468767  78.0380526  67.4548607  37.2656082
  77.6852772  65.9837265  37.3221145  79.2421045  64.2841619  38.5756098
  79.7672369  64.6228892  37.8505418  79.1543397  63.3488635  38.3919233
  70.9041093  68.1975693  50.7045975  71.2128220  67.9524840  51.5768674
  71.7016575  68.4022332  50.2164845  70.9261705  70.3513603  42.9351351
  70.4866696  69.8589981  43.6284208  71.6769822  69.8086570  42.6943426
  68.3735577  65.8951612  45.0073653  67.7515587  65.2322317  44.7075881
  69.0440444  65.9212744  44.3247301  78.9314951  64.9174523  53.8807296
  78.1410494  64.8998662  53.3411795  78.6948305  65.4562817  54.6356333
  79.0512826  61.7666989  51.1940025  79.1010831  61.6016997  52.1355547
  78.9426749  60.8994248  50.8037905  67.9349084  64.4455535  38.4832113
  68.0837205  65.1291000  37.8298786  68.7415528  64.4260625  38.9981569
  76.3416588  57.7497917  52.5099331  77.2426451  57.6104382  52.2183329
  76.4164563  57.9152372  53.4497509  70.6759393  55.1264772  51.3552518
  69.8062703  55.4198338  51.0835106  70.9118874  55.7105217  52.0759781
  80.5531023  64.1863931  51.4382046  80.2615831  64.5493911  52.2745507
  79.9403154  63.4730939  51.2595378  81.7526705  61.7516811  43.9584616
  82.5873596  62.1906615  44.1222177  81.8885834  61.2755464  43.1392862
  78.8018211  59.3096546  49.9062104  79.2772332  59.5024192  49.0980955
  77.8783776  59.3655731  49.6605488  73.3798427  51.3444389  48.8717938
  73.8980371  52.0805416  48.5464427  73.0253560  51.6508382  49.7064697
  73.6311021  47.7644672  44.3918835  73.9112775  47.0967861  45.0179261
  74.4161628  47.9573767  43.8793498  71.4344490  66.9403666  35.9543861
  70.8618457  67.5593853  35.5014333  72.0077284  67.4903027  36.4883783
  75.5234259  53.2717889  48.3249811  74.9284191  53.5522902  47.6296299
  75.2383956  53.7611790  49.0966552  74.6541750  67.2240816  37.0852443
  75.5872423  67.1586377  37.2885319  74.5664963  68.0597083  36.6266976
  77.2829766  66.5406686  34.0456391  77.2043398  66.2066550  34.9392149
  78.1039433  67.0328454  34.0447863  79.9807958  59.4068425  47.2532709
  79.9484278  58.4684426  47.4392393  80.5908581  59.4852462  46.5198534
  71.8191288  58.2764478  33.2959913  72.7650393  58.1470686  33.3648331
  71.4405533  57.5379140  33.7729342  80.1302446  56.1979469  47.2990993
  79.6141495  55.4137925  47.1120921  81.0142395  55.8698185  47.4637512
  77.7913173  49.9420484  43.2586805  77.5937994  49.6335573  44.1430137
  78.4012879  50.6682123  43.3884735  85.7984507  60.4684432  46.3938746
  86.5287896  60.2069720  46.9546449  85.1891453  59.7313154  46.4340814
  83.8799805  58.6092295  46.9913197  83.1532968  58.4748260  46.3829689
  83.4647091  58.9169123  47.7969915  71.7029981  62.3282224  54.7560570
  72.6232990  62.5060823  54.9500617  71.6679564  61.3838270  54.6040270
  70.0034206  56.2014455  33.2314799  69.0965661  55.9047567  33.3077512
  70.2810187  55.9044273  32.3649085  73.5486820  49.8229391  41.0083337
  74.1017858  50.2424845  41.6673360  73.7856906  48.8965139  41.0506293
  69.5719919  55.8116465  56.7886100  69.4716646  56.7610822  56.7198192
  69.3541461  55.4834704  55.9162171  68.7732990  53.0601390  33.3726778
  69.6352154  53.3856288  33.6322595  68.9583334  52.2732886  32.8599844
  76.9265627  51.9329916  40.5162001  76.3464296  52.5914720  40.1340053
  76.6601559  51.1107261  40.1049418  75.3769193  51.3334974  42.7183321
  75.8768971  51.4451509  41.9097640  76.0204801  51.0296027  43.3584130
  69.4351189  59.2413604  55.6051162  68.9518271  60.0413964  55.8115051
  69.5212128  59.2521549  54.6518606  75.7090505  54.0930007  39.5718349
  74.8216360  54.3779657  39.3538544  76.1244494  53.9323770  38.7245626
  79.0605041  54.1176528  43.2872688  79.8365431  54.6072980  43.5597305
  78.3353175  54.5434582  43.7444558  81.4977599  54.8304147  44.3446629
  82.0922090  54.5899883  43.6339937  81.5704183  54.1111278  44.9720165
  63.7174755  68.6737758  44.6589794  63.5829223  67.9138159  44.0927792
  63.3006817  69.3978658  44.1918583  74.8533718  63.8574681  33.6666369
  75.5569568  64.0624684  34.2824025  74.1296367  64.4251443  33.9315453
  75.6831528  59.6084543  39.7868639  75.6266730  60.0653094  38.9476272
  76.2359871  58.8475227  39.6091482  79.4936334  55.3974275  40.6118759
  79.2373269  54.9970910  41.4426966  78.8689202  56.1118069  40.4868898
  83.8048672  58.1370348  43.1190050  83.2448230  58.2063537  43.8921612
  83.1992176  57.9611332  42.3989546  66.8743881  69.5707075  44.8708236
  66.7576265  70.5152507  44.7686927  66.0536327  69.2680636  45.2594036
  76.7620416  64.2957211  35.7164829  77.5966019  63.8638409  35.5342304
  76.6004758  64.1239224  36.6441724  76.4166308  60.7989324  37.0821168
  76.3615112  60.6333595  36.1409613  75.7912363  61.5065357  37.2383358
  73.7312215  63.1038236  56.4074731  74.6003375  63.2778888  56.0461366
  73.2518966  63.9232653  56.2850461  67.8998395  70.2235337  48.0864165
  68.8025642  70.2558947  48.4030660  67.6735765  69.2935788  48.1010501
  69.6551997  68.9766323  44.7474243  68.7047628  68.9768185  44.6338616
  69.9584483  68.2299058  44.2310278  73.5414553  46.8940210  40.9152424
  72.7746948  46.3398696  41.0609106  73.9525258  46.9662078  41.7766575
  85.3904691  74.8126862  45.8120006  86.0283101  74.6933609  45.1083346
  85.2725534  75.7607706  45.8707958  82.1994397  74.7654290  45.7481531
  81.8612908  74.6495355  44.8602065  83.0684165  74.3645455  45.7282537
  78.0581213  76.6189766  41.7378421  77.4946078  76.5279703  40.9694709
  77.9433608  75.7989671  42.2180914  82.6814180  75.9189142  51.7067736
  82.6702821  75.5241940  50.8348240  82.8434819  75.1855214  52.3001508
  75.6045645  78.1140958  44.5762642  76.3966936  77.7731783  44.1608941
  75.8442295  78.2235933  45.4964795  77.5636398  77.3749871  37.4480021
  78.3367274  76.8278858  37.3092897  77.9161797  78.2394120  37.6594482
  79.4021441  78.7026253  50.6546920  79.1111307  79.6071884  50.5393586
  80.0378425  78.7442781  51.3690990  80.3277648  76.0803102  47.2448280
  80.9241220  75.8559124  46.5305243  80.3852619  75.3387847  47.8473728
  79.9002676  73.5342537  35.0798471  80.1528197  73.0124059  34.3181934
  78.9627235  73.3708683  35.1825154  84.9445959  72.5378316  42.8873214
  85.7309048  72.1197739  42.5363631  85.2084663  73.4424408  43.0554862
  79.6198965  75.4370643  37.2822846  79.5035223  74.7615547  37.9503930
  79.7301225  74.9503017  36.4654999  81.9630506  74.8980790  40.9869535
  81.5988713  74.3711411  41.6982456  82.8197622  74.5079259  40.8136020
  87.8679807  66.1875123  48.2500801  87.5363131  67.0570534  48.0262016
  87.2725420  65.8711407  48.9294831  81.6035993  69.9270690  35.9830883
  81.7710395  70.7950926  36.3501354  81.4133162  70.0897972  35.0592173
  77.8123808  74.8401466  43.6833418  76.8874304  74.7077680  43.8911110
  78.0608221  75.6195685  44.1803361  87.7608470  70.9070209  45.3294151
  86.8525347  70.8385618  45.0352912  87.7096066  71.3842154  46.1575977
  81.5825214  72.3828347  36.9677550  81.4624839  72.8285398  37.8063030
  80.8877802  72.7313665  36.4091088  75.1732619  74.4834739  44.5177207
  75.3025000  74.7369218  45.4316619  74.4930070  75.0762447  44.1981862
  81.8349336  72.3259855  53.2729048  81.0582670  72.8853775  53.2631913
  82.4739899  72.8116638  53.7943918  87.2810280  72.8549821  37.7957884
  88.1928136  73.0877207  37.6205582  86.7719927  73.4386865  37.2332963
  80.0895708  75.1345308  52.8347015  80.8310392  75.6730352  52.5581839
  79.3832693  75.7611597  52.9918567  85.5651048  77.2774449  51.4319177
  85.9734404  76.8356859  50.6873809  84.8428309  76.7027076  51.6853370
  81.9182118  72.2147055  48.8052734  82.7643313  72.6386469  48.9487383
  81.8580755  71.5580680  49.4991297  85.0681563  69.8751424  50.4633907
  84.8242495  70.6293484  49.9268183  85.3441494  70.2536771  51.2981154
  84.6246255  69.0307857  46.0447745  83.7630734  69.3289110  46.3364483
  84.6508689  69.2478256  45.1128778  81.4407824  77.5750047  42.4521551
  81.9046170  77.8537750  41.6626173  81.1764622  76.6733492  42.2694641
  78.3331905  77.1221529  45.3901314  78.9033262  77.5508797  44.7518799
  78.9240017  76.8404113  46.0885500  80.3776710  73.6973200  39.2611116
  81.0800754  74.1494243  39.7285042  80.0457339  73.0557018  39.8891009
  78.8257072  72.2884956  53.6362325  78.1955732  72.9701237  53.8697722
  78.7193160  72.1768038  52.6915464  74.1202044  71.9556752  44.5628250
  73.3301098  72.2114281  44.0868360  74.6113292  72.7705090  44.6680290
  76.0716790  72.3201331  41.5211726  75.2747953  72.4320026  42.0395222
  75.8442382  72.6587984  40.6552617  81.9022457  78.8446035  49.4694241
  81.9666890  79.3066442  50.3052413  81.1933381  78.2143400  49.5976551
  72.4039747  72.2087243  46.9943240  72.6547786  73.0934253  47.2600816
  72.9399296  72.0291844  46.2218332  78.1037814  66.5905722  55.9987576
  77.7104760  66.0371921  56.6735221  78.9203955  66.9016301  56.3894094
  75.0699872  78.0289580  39.9101146  75.5824393  78.8232830  40.0606711
  75.7222585  77.3315871  39.8434748  76.8794757  81.1455337  41.9923899
  77.0561385  82.0673301  41.8044883  77.6751590  80.8313756  42.4218279
  81.0205775  68.0063601  53.5907833  81.7615489  68.6070754  53.5112295
  81.2523698  67.2641239  53.0325876  76.1647113  73.1919968  51.8686063
  76.0500629  72.2905226  52.1693162  75.3091631  73.4383665  51.5170879
  81.7993243  78.9284638  52.3378473  82.3321580  78.1672926  52.1077781
  81.2707325  78.6358290  53.0802627  84.9662938  64.0344704  47.8672115
  84.6227208  64.9246346  47.7911225  85.3341901  63.8446362  47.0041700
  73.0348789  76.3578235  40.6860717  73.8724011  76.7675243  40.4694425
  73.2127057  75.4177677  40.6560911  84.9313221  74.0253315  36.3744550
  84.4159845  74.7957920  36.6132937  84.6590530  73.3518451  36.9977611
  82.5160332  68.8703016  41.4329788  81.6601929  68.4809866  41.2535427
  82.9287284  68.9494977  40.5729574  84.0459479  66.4049359  45.8321348
  83.5424274  66.3679494  45.0189153  84.3390086  67.3142102  45.8918005
  80.2902365  66.4888089  44.8387530  81.1555361  66.2930898  44.4793419
  80.3579874  66.2598441  45.7656886  84.7199524  71.8980407  38.2004331
  84.4149660  72.2126556  39.0514474  85.6729966  71.9761827  38.2431664
  83.1645956  78.0570631  39.8497285  82.6367318  77.3223390  39.5370522
  82.6633459  78.8345307  39.6037253  77.8964684  68.7190297  42.2103896
  78.4708436  68.4965478  41.4777089  78.4835666  68.7878991  42.9632498
  86.9544261  74.6064024  43.0168273  87.4676143  75.2394016  43.5189983
  87.6045485  74.0065219  42.6511633  78.2234271  70.7494758  36.2299782
  77.3871583  71.0869444  36.5509056  78.0839041  70.6143738  35.2926919
  80.1987351  65.5931546  40.9378966  79.5451764  65.2780563  40.3135581
  80.1567826  64.9707286  41.6638789  81.3098556  75.8750841  32.8532258
  80.4025618  75.6440094  33.0523407  81.8069588  75.0788460  33.0406239
  83.4325092  72.0813479  45.2626613  82.5147653  72.3028426  45.1048302
  83.8485235  72.1559790  44.4038321  84.2160140  73.4804895  40.3929294
  84.9631959  73.9926292  40.0836416  84.4851729  73.1588948  41.2533687
  82.4886790  75.9763436  37.3756248  81.5798009  75.6922469  37.4728718
  82.5181874  76.3962514  36.5159555  86.6638977  70.5162011  42.3748083
  85.9261734  70.0039397  42.7058326  86.9165750  70.0762393  41.5631360
  86.7650604  63.2938263  42.9689852  87.0709481  62.4335627  42.6815767
  87.4903209  63.8855883  42.7688846  73.0574960  73.6968950  41.3571450
  72.8599360  73.1038311  40.6322517  72.5021624  73.3921160  42.0747389
  81.0371684  73.5892056  43.4766043  81.0920294  72.6365893  43.4008520
  80.2262886  73.7451495  43.9607342  82.1862878  77.5172179  34.7144327
  81.7482308  76.8008038  34.2549964  82.9273318  77.7448294  34.1529418
  78.9764044  72.2069116  41.2356422  78.1631909  72.5063287  41.6421614
  79.4723038  71.8124805  41.9530904  84.5738255  72.6710941  50.0671316
  84.9287643  72.8982414  50.9265782  85.2210387  73.0029317  49.4448571
  78.4678118  69.7787472  46.8517657  79.1077498  69.6376231  46.1540621
  77.6355649  69.4921985  46.4756259  79.2438422  79.0789902  42.9652650
  80.0379021  78.5840222  42.7635225  78.5330115  78.5507765  42.6020355
  75.5521186  73.2232984  39.0412402  74.6218774  73.1617439  39.2582364
  75.6478658  72.7008937  38.2449044  75.4706735  69.7487797  41.6290644
  75.7313552  70.6633130  41.5199804  76.2923907  69.2812239  41.7787257
  76.9431660  71.1625554  48.7989469  77.6154714  70.9542916  48.1502117
  76.1161447  70.9647640  48.3594701  82.8457232  67.7887495  50.8155129
  82.1985147  68.4877444  50.7219606  83.6158248  68.2223639  51.1831378
  83.0221367  75.6268260  48.8751949  83.9513427  75.7779419  48.7020916
  82.6012397  75.7152280  48.0200596  81.8209698  79.6518924  46.6450487
  81.6820784  79.2837708  47.5176425  81.0324295  80.1666563  46.4734445
  77.3459157  74.4368157  49.5591906  77.2078955  73.7048396  50.1603445
  78.2564081  74.3477057  49.2776093  86.3074105  76.3756561  34.3076384
  85.6903276  75.6503389  34.2109437  85.8390594  77.1365921  33.9643458
  79.9741458  74.1488116  49.0475585  80.6841077  73.5081308  49.0062204
  79.9310766  74.4001011  49.9701766  78.6870392  71.1353334  50.8671225
  78.1507749  70.6844072  51.5192821  78.0987101  71.2699243  50.1241689
  78.0972651  70.5941985  33.4297688  77.2202117  70.4730786  33.0659935
  78.5730404  69.8028064  33.1776577  69.6174791  75.3819145  43.5239196
  70.3045831  75.0680875  42.9360211  69.4622920  76.2860510  43.2506447
  74.4209513  70.2709342  47.9524219  74.3367702  69.6635011  47.2174629
  73.5992220  70.7618360  47.9533716  84.5933227  68.7562905  43.3194414
  85.0901927  68.0032868  42.9995485  83.8220209  68.7927222  42.7537624
  81.1768196  70.8980288  43.0466099  80.8065984  70.3451329  43.7347005
  81.6727288  70.2938422  42.4941099  87.0352222  65.7232499  45.4673773
  86.1215302  65.9536726  45.6355980  87.4645323  65.8070943  46.3187806
  86.8058681  73.9122391  47.9673667  86.1530131  74.1598298  47.3126120
  87.1839060  73.0986529  47.6336145  82.8546254  74.6542202  54.4539704
  82.1786891  74.5536331  55.1242080  83.6773887  74.4981415  54.9175702
  74.6025113  80.8914138  47.0752220  75.1878549  80.1457826  47.2080124
  74.4049951  81.2018095  47.9588883  69.1942767  73.4619738  45.7956663
  69.2326867  72.9283329  46.5893781  68.6883060  72.9354944  45.1767640
  76.5733530  68.3084279  49.2919205  76.6374856  69.1699110  48.8796603
  76.5100650  67.6958281  48.5591564  76.0485802  70.3807411  52.9392239
  76.6757841  69.9984489  53.5529764  75.1913721  70.1621613  53.3047932
  72.8251345  72.1883841  38.8710594  73.1204786  71.2794519  38.8177648
  71.9239381  72.1671580  38.5491596  76.3545592  70.2639837  44.8538143
  75.6332178  70.8775805  44.7145616  77.1438848  70.7997602  44.7754789
  79.1571905  67.5994264  51.1278794  79.6806307  67.8456560  51.8905104
  78.9384239  68.4314298  50.7081932  74.5539187  69.8697938  38.9949919
  74.2251893  68.9895317  38.8125025  74.9078557  69.8145607  39.8826309
  77.6681010  70.1570908  39.3625397  78.0077082  70.6856829  38.6404005
  78.1153130  70.4951314  40.1383964  80.3624451  68.5407959  48.8128465
  80.0221271  67.7415772  49.2149145  79.6563457  68.8409670  48.2405298
  81.0140922  65.6257271  47.2655788  81.8366992  65.1517749  47.1434678
  81.2578986  66.4047755  47.7654474  79.6549157  68.6545530  37.5618690
  80.3757519  69.0326782  37.0582407  79.0314461  69.3734406  37.6653668
  83.7980280  69.3590679  38.4977022  84.0143894  70.2415316  38.1965850
  83.3174347  68.9676892  37.7682664  78.5379501  72.3176392  45.0747767
  78.3924082  72.6316695  45.9672048  78.0604705  72.9361292  44.5218665
  80.3975884  69.3078940  45.1228656  80.3837453  68.4120033  44.7860954
  81.1148312  69.3149604  45.7566942  82.2502015  69.7416280  47.1681784
  81.9919793  70.6633351  47.1666114  81.7187055  69.3446715  47.8582248
  73.0125163  74.8581736  48.0135428  72.4678631  75.6341544  48.1455702
  73.8904513  75.2052541  47.8554549  79.8012780  68.1893320  40.3916226
  79.9228691  67.2609966  40.5907114  79.5114822  68.2032006  39.4794542
  82.6703970  65.8748231  43.5282946  82.6925667  65.9387564  42.5734926
  83.0872029  65.0352739  43.7223452  73.7991185  73.9851633  50.9065585
  73.0572921  74.1334268  51.4930215  73.4783929  74.2459898  50.0432334
  74.2447799  81.8717061  42.9375979  75.0705819  81.5720833  42.5574623
  73.8941851  81.1024684  43.3865768  79.2129332  81.2243529  45.0073653
  78.5909341  80.5614234  44.7075881  79.8834199  81.2504661  44.3247301
  72.4456404  79.7903388  43.8964913  71.6088312  79.3625562  43.7148914
  72.4180049  79.9835831  44.8335704  79.2853859  69.7025317  54.6006159
  79.3342015  70.5787440  54.2183929  79.8276374  69.1602711  54.0277802
  78.7742839  79.7747453  38.4832113  78.9230959  80.4582917  37.8298786
  79.5809282  79.7552543  38.9981569  87.1810343  73.0789835  52.5099331
  88.0820205  72.9396300  52.2183329  87.2558317  73.2444290  53.4497509
  81.5153148  70.4556690  51.3552518  80.6456457  70.7490256  51.0835106
  81.7512628  71.0397135  52.0759781  76.5295472  75.8012630  39.4893182
  76.2841514  74.8974960  39.6873393  76.6991386  75.8029781  38.5472660
  84.2192182  66.6736307  48.8717938  84.7374126  67.4097334  48.5464427
  83.8647314  66.9800300  49.7064697  75.7991119  71.5340988  36.9879344
  75.1060364  71.6085343  36.3319380  75.5542871  70.7701332  37.5100861
  84.4704776  63.0936589  44.3918835  84.7506530  62.4259778  45.0179261
  85.2555383  63.2865685  43.8793498  86.3628014  68.6009807  48.3249811
  85.7677946  68.8814819  47.6296299  86.0777710  69.0903707  49.0966552
  82.6585043  73.6056396  33.2959913  83.6044148  73.4762604  33.3648331
  82.2799288  72.8671058  33.7729342  82.5423735  77.6574142  54.7560570
  83.4626745  77.8352741  54.9500617  82.5073318  76.7130187  54.6040270
  80.8427960  71.5306372  33.2314799  79.9359415  71.2339485  33.3077512
  81.1203941  71.2336190  32.3649085  71.7605900  72.8512736  43.6813845
  71.4408685  71.9978044  43.3888219  71.2139329  73.0661314  44.4371812
  75.5385808  75.5675177  47.3983352  75.7571818  76.4992285  47.4171385
  75.9511582  75.2083151  48.1838155  82.4590026  66.0743262  39.3859040
  81.6490754  65.7290347  39.7614286  83.1474443  65.7650806  39.9746651
  84.3880574  65.1521309  41.0083337  84.9411613  65.5716762  41.6673360
  84.6250660  64.2257057  41.0506293  80.4113673  71.1408383  56.7886100
  80.3110400  72.0902740  56.7198192  80.1935215  70.8126621  55.9162171
  79.6126745  68.3893308  33.3726778  80.4745909  68.7148206  33.6322595
  79.7977089  67.6024804  32.8599844  71.6294160  76.4715647  45.6506967
  70.9357632  76.0569600  45.1376921  72.3767151  76.5136184  45.0540386
  87.7659381  67.2621834  40.5162001  87.1858050  67.9206638  40.1340053
  87.4995314  66.4399179  40.1049418  86.2162948  66.6626892  42.7183321
  86.7162726  66.7743426  41.9097640  86.8598555  66.3587945  43.3584130
  80.2744943  74.5705521  55.6051162  79.7912025  75.3705881  55.8115051
  80.3605882  74.5813466  54.6518606  73.5430903  76.4033901  43.5272981
  73.5201591  76.5021588  42.5754865  73.8531539  77.2499052  43.8490148
  76.2018281  78.4610056  47.6419596  77.1561534  78.4293998  47.5749527
  76.0030804  78.0000680  48.4569822  76.7917663  77.0311172  50.2090394
  77.6110552  77.5255251  50.2325231  77.0654471  76.1143140  50.1807961
  86.5484259  69.4221924  39.5718349  85.6610114  69.7071575  39.3538544
  86.9638248  69.2615688  38.7245626  74.5568510  84.0029676  44.6589794
  74.4222978  83.2430076  44.0927792  74.1400572  84.7270575  44.1918583
  86.5225283  74.9376460  39.7868639  86.4660484  75.3945012  38.9476272
  87.0753625  74.1767145  39.6091482  72.0452577  71.3649306  50.9082591
  72.6911441  70.8548260  51.3969816  71.8369728  72.1017988  51.4826016
  80.5656188  65.6289351  36.6606487  80.5534858  66.5731191  36.8174758
  81.4579610  65.4459496  36.3665948  84.3808307  62.2232127  40.9152424
  83.6140703  61.6690614  41.0609106  84.7919012  62.2953996  41.7766575
  76.3850068  68.5116923  55.0057605  77.2481530  68.1553728  55.2160929
  75.8115479  68.1730818  55.6933009  35.9857089   0.8426441  27.3412988
  35.9081119   1.7934266  27.4201469  35.3818733   0.4972314  27.9987914
  38.2595458  -3.7991406  26.0618528  38.1241133  -2.9539870  26.4903376
  38.8005271  -3.5972128  25.2984462  33.5219740  -3.1650212  28.7169206
  33.6986369  -2.2432247  28.5290190  34.3176574  -3.4791792  29.1463586
  39.8863935  -3.1767839  40.1918870  39.4427789  -3.9631461  39.8739774
  40.5481148  -2.9888689  39.5262761  34.6451056  -1.6472038  34.7179548
  35.1958481  -1.7754974  33.9456542  33.8062532  -1.3477149  34.3674441
  40.8591619   0.2742800  22.4974251  40.1853317   0.5774497  23.1059209
  41.2457440   1.0771880  22.1479708  42.8063980  -2.8859026  28.8042540
  43.0986954  -2.3253969  28.0854906  43.3162600  -2.5930465  29.5595699
  37.7697605  -2.1078675  29.8935994  37.7273784  -1.8817829  28.9644526
  38.6860304  -2.3415301  30.0421795  40.7058250  -2.8497551  34.0410324
  40.7595272  -2.2806614  34.8088040  39.8373032  -2.6795666  33.6764361
  39.0582834   0.4422472  24.7121330  39.2334589  -0.0289484  25.5266953
  38.3715622   1.0688239  24.9402591  33.6243919   3.5911835  31.4861190
  33.8640517   4.2230359  32.1640209  32.7813115   3.2399875  31.7726549
  38.1371781  -0.6009042  33.8902694  38.0641952   0.2045929  34.4021999
  37.6949174  -0.4017077  33.0650715  37.9261560  -1.3637272  27.4005516
  37.1429082  -0.8215592  27.4943740  38.6254306  -0.8463293  27.7999757
  40.5970464  -0.7022208  36.0460853  41.3098437  -0.0674744  35.9736754
  40.1060493  -0.6058342  35.2300855  35.6482378  -2.9527765  36.8666424
  36.3491837  -2.3191282  37.0195818  35.1777493  -2.6113033  36.1062063
  40.4090838  -0.3623464  28.7947144  40.5913232  -1.1801808  29.2574897
  41.2323824  -0.1455772  28.3572034  40.7433003  -1.4355279  26.0562193
  41.2720770  -1.9462825  25.4432355  41.0061223  -1.7512749  26.9207726
  31.2450096  -3.4191410  33.7997526  31.8303533  -4.1647722  33.9325430
  31.0474934  -3.1087453  34.6834190  34.0988751  -0.3840162  28.8159969
  33.4299126   0.1005965  28.3324009  33.9601621  -0.1370942  29.7303347
  38.2394020   1.6503581  35.4142627  38.7912328   1.8135203  36.1791712
  38.5800213   2.2408019  34.7422652  41.3762407  -0.4014443  32.4006309
  41.2513546  -1.2024704  31.8917255  42.0341498   0.0931750  31.9120279
  40.4443749  -2.8052707  30.2290211  40.2968711  -3.7336000  30.4097781
  41.2697242  -2.7832616  29.7447287  44.0477871  -1.9824148  31.3155084
  44.9724418  -2.1881287  31.1779535  43.8793174  -2.2307747  32.2244426
  43.8373187  -1.4638481  26.6717176  44.0110064  -2.0292058  25.9191028
  44.3302078  -0.6637586  26.4896666  38.3859831  -0.7837937  37.4291281
  38.6946957  -1.0288791  38.3013981  39.1835313  -0.5791299  36.9410152
  38.4080443   1.3699972  29.6596658  37.9685433   0.8776351  30.3529515
  39.1588560   0.8272940  29.4188733  35.8554315  -3.0862019  31.7318960
  35.2334325  -3.7491314  31.4321187  36.5259182  -3.0600887  31.0492607
  29.0881387  -4.5202160  30.6210220  28.2513295  -4.9479986  30.4394221
  29.0605033  -4.3269717  31.5581011  35.4167822  -4.5358095  25.2077420
  35.5655943  -3.8522631  24.5544093  36.2234266  -4.5553005  25.7226876
  38.9163228  -2.0409965  22.6789168  38.3437195  -1.4219778  22.2259639
  39.4896021  -1.4910603  23.2129089  42.1360487  -1.7572815  23.8097750
  43.0691161  -1.8227253  24.0130625  42.0483700  -0.9216548  23.3512282
  32.8443264  -5.8495492  34.3664903  33.7986518  -5.8811550  34.2994834
  32.6455788  -6.3104868  35.1815128  31.1993493  -0.3075873  31.3835100
  31.0647961  -1.0675472  30.8173098  30.7825555   0.4165027  30.9163889
  34.3562619   0.5893444  31.5953543  34.2395003   1.5338877  31.4932233
  33.5355065   0.2867006  31.9839342  35.3817133   1.2421706  34.8109471
  36.2844380   1.2745317  35.1275966  35.1554503   0.3122157  34.8255807
  37.1370735  -0.0047307  31.4719550  36.1866366  -0.0045445  31.3583922
  37.4403221  -0.7514573  30.9555585  52.8723428   5.8313231  32.5365312
  53.5101838   5.7119979  31.8328653  52.7544271   6.7794075  32.5953265
  49.6813135   5.7840659  32.4726837  49.3431646   5.6681724  31.5847372
  50.5502903   5.3831825  32.4527843  45.5399950   7.6376136  28.4623728
  44.9764816   7.5466073  27.6940016  45.4252345   6.8176040  28.9426221
  50.1632918   6.9375511  38.4313043  50.1521558   6.5428309  37.5593546
  50.3253557   6.2041584  39.0246814  43.0864382   9.1327327  31.3007949
  43.8785674   8.7918152  30.8854248  43.3261032   9.2422302  32.2210102
  51.1199509  11.3047104  23.7738193  50.4687489  11.8901184  23.3872207
  51.9143872  11.8353298  23.8333231  45.0455136   8.3936241  24.1725327
  45.8186012   7.8465228  24.0338203  45.3980535   9.2580490  24.3839789
  46.8840179   9.7212623  37.3792227  46.5930045  10.6258254  37.2638893
  47.5197163   9.7629151  38.0936296  47.8096386   7.0989471  33.9693586
  48.4059958   6.8745494  33.2550549  47.8671357   6.3574217  34.5719034
  47.3821414   4.5528907  21.8043777  47.6346935   4.0310428  21.0427240
  46.4445973   4.3895052  21.9070461  52.4264697   3.5564685  29.6118521
  53.2127786   3.1384108  29.2608938  52.6903401   4.4610777  29.7800169
  52.5974774   8.9937535  24.3107177  51.9620607   9.0672162  25.0228082
  52.2672181   9.5831134  23.6326257  57.8273124   3.4939918  30.5151499
  58.5598296   2.9239135  30.7489329  57.0712480   3.1061519  30.9558005
  47.1017703   6.4557013  24.0068152  46.9853961   5.7801916  24.6749237
  47.2119963   5.9689387  23.1900305  49.4449244   5.9167160  27.7114842
  49.0807451   5.3897781  28.4227763  50.3016360   5.5265629  27.5381327
  49.0854731   0.9457060  22.7076190  49.2529133   1.8137296  23.0746661
  48.8951900   1.1084341  21.7837479  51.8430064   9.4074038  34.3742020
  51.5430787  10.3099077  34.2657828  51.4981123   9.1406222  35.2263173
  45.2942545   5.8587835  30.4078725  44.3693042   5.7264049  30.6156417
  45.5426959   6.6382055  30.9048667  55.2427208   1.9256579  32.0539458
  54.3344085   1.8571987  31.7598219  55.1914803   2.4028524  32.8821283
  49.0643952   3.4014717  23.6922857  48.9443577   3.8471768  24.5308337
  48.3696540   3.7500035  23.1336395  42.6551356   5.5021109  31.2422514
  42.7843738   5.7555588  32.1561926  41.9748808   6.0948817  30.9227169
  46.8250844  16.1718359  27.3412988  46.7474873  17.1226184  27.4201469
  46.2212487  15.8264231  27.9987914  49.3168073   3.3446224  39.9974355
  48.5401408   3.9040144  39.9877220  49.9558637   3.8303007  40.5189225
  54.7629018   3.8736190  24.5203191  55.6746874   4.1063577  24.3450888
  54.2538665   4.4573234  23.9578269  47.5714446   6.1531678  39.5592322
  48.3129130   6.6916722  39.2827146  46.8651431   6.7797966  39.7163874
  53.0469785   8.2960818  38.1564483  53.4553141   7.8543229  37.4119116
  52.3247047   7.7213446  38.4098676  49.4000855   3.2333425  35.5298040
  50.2462051   3.6572838  35.6732689  49.3399493   2.5767049  36.2236604
  53.3698600   8.8562009  31.9116772  52.7407463   9.0207723  31.2092840
  52.9824262   9.2703618  32.6827736  57.2487832   9.7916447  29.2661136
  56.5638870  10.1715348  28.7158169  57.3331681  10.4011773  29.9993084
  52.5500301   0.8937793  37.1879214  52.3061233   1.6479854  36.6513490
  52.8260231   1.2723141  38.0226461  54.5038764   7.4376406  35.8656480
  54.7155659   8.0808165  35.1890861  54.4568512   6.6038722  35.3978410
  48.9226562   8.5936417  29.1766857  49.3864907   8.8724120  28.3871480
  48.6583360   7.6919861  28.9939948  45.8150643   8.1407898  32.1146621
  46.3852000   8.5695167  31.4764105  46.4058755   7.8590483  32.8130806
  47.8595448   4.7159569  25.9856423  48.5619491   5.1680613  26.4530349
  47.5276077   4.0743388  26.6136316  46.3075810   3.3071326  40.3607632
  45.6774470   3.9887607  40.5943029  46.2011897   3.1954407  39.4160770
  41.6020782   2.9743122  31.2873556  40.8119836   3.2300650  30.8113667
  42.0932029   3.7891460  31.3925597  55.6184592  10.3148361  34.0378837
  56.4402035   9.9128548  33.7561519  55.6146994  10.2116595  34.9894953
  43.5535527   3.3387701  28.2457033  42.7566691   3.4506395  28.7640529
  43.3261120   3.6774353  27.3797923  49.3841195   9.8632404  36.1939547
  49.4485627  10.3252812  37.0297719  48.6752119   9.2329769  36.3221857
  39.8858485   3.2273612  33.7188547  40.1366523   4.1120622  33.9846123
  40.4218033   3.0478214  32.9463639  63.7090585   6.6587109  30.3863808
  62.9554293   6.0894508  30.2307813  63.8438126   6.6249774  31.3334443
  49.0989213  11.5300512  26.0618528  48.9634887  12.3752047  26.4903376
  49.6399025  11.7319789  25.2984462  42.5518610   9.0475950  26.6346453
  43.0643131   9.8419200  26.7852018  43.2041323   8.3502240  26.5680054
  44.3613495  12.1641706  28.7169206  44.5380123  13.0859671  28.5290190
  45.1570328  11.8500125  29.1463586  43.6465851   4.2106338  38.5931369
  43.5319366   3.3091595  38.8938468  42.7910369   4.4570035  38.2416186
  50.7257689  12.1524078  40.1918870  50.2821543  11.3660457  39.8739774
  51.3874903  12.3403229  39.5262761  45.4844810  13.6819880  34.7179548
  46.0352235  13.5536943  33.9456542  44.6456286  13.9814769  34.3674441
  52.8238927  12.4326878  38.2200271  52.8057402  13.2535759  37.7280540
  53.7458847  12.3080953  38.4450412  49.2811981   9.9471008  39.0623780
  49.8140318   9.1859296  38.8323088  48.7526062   9.6544660  39.8047934
  40.5167527   7.3764604  27.4106023  41.3542749   7.7861612  27.1939731
  40.6945795   6.4364046  27.3806217  52.4131959   5.0439685  23.0989856
  51.8978582   5.8144289  23.3378244  52.1409267   4.3704821  23.7222918
  49.9979070  -0.1110614  28.1575095  49.1420666  -0.5003764  27.9780733
  50.4106022  -0.0318654  27.2974880  57.3866233   7.7972039  25.0343030
  56.6095676   7.4583199  24.5898192  58.0657714   7.8024663  24.3597995
  52.2018262   2.9166777  24.9249638  51.8968398   3.2312926  25.7759781
  53.1548704   2.9948197  24.9676971  50.6464694   9.0757000  26.5742592
  50.1186056   8.3409760  26.2615829  50.1452197   9.8531677  26.3282560
  55.6257540   7.2706021  31.6909638  54.9681214   7.9605282  31.7789766
  56.4297939   7.6602453  32.0343624  45.3783422  -0.2623334  28.9349203
  45.9527173  -0.4848152  28.2022396  45.9654404  -0.1934639  29.6877804
  54.4362999   5.6250393  29.7413580  54.9494881   6.2580385  30.2435289
  55.0864223   5.0251589  29.3756940  45.7053009   1.7681127  22.9545088
  44.8690321   2.1055814  23.2754363  45.5657778   1.6330107  22.0172225
  48.7917294   6.8937210  19.5777565  47.8844356   6.6626464  19.7768714
  49.2888326   6.0974830  19.7651546  51.6985373  15.6034718  22.4974251
  51.0247072  15.9066414  23.1059209  52.0851195  16.4063798  22.1479708
  50.9143830   3.0999849  31.9871920  49.9966391   3.3214796  31.8293608
  51.3303973   3.1746159  31.1283627  51.6978877   4.4991265  27.1174600
  52.4450696   5.0112662  26.8081722  51.9670467   4.1775317  27.9778994
  49.9705528   6.9949805  24.1001555  49.0616747   6.7108838  24.1974024
  50.0000611   7.4148884  23.2404862  55.2024795  10.6056395  27.8692722
  54.7487122   9.7647305  27.9257913  54.5718762  11.2417793  28.2067502
  53.6457734  12.4432891  28.8042540  53.9380709  13.0037949  28.0854906
  54.1556355  12.7361452  29.5595699  40.5393698   4.7155319  28.0816757
  40.3418098   4.1224680  27.3567823  39.9840362   4.4107530  28.7992696
  48.5190422   4.6078426  30.2011350  48.5739031   3.6552262  30.1253827
  47.7081624   4.7637865  30.6852648  49.6681615   8.5358549  21.4389633
  49.2301045   7.8194408  20.9795271  50.4092056   8.7634664  20.8774725
  46.4582782   3.2255486  27.9601729  45.6450647   3.5249656  28.3666921
  46.9541776   2.8311174  28.6776211  48.6091359  13.2213243  29.8935994
  48.5667538  13.4474089  28.9644526  49.5254058  12.9876617  30.0421795
  52.0556993   3.6897310  36.7916623  52.4106381   3.9168783  37.6511089
  52.7029124   4.0215687  36.1693878  57.7854730   6.8115746  27.4965952
  57.6472629   7.0017342  26.5687141  57.4290949   7.5735129  27.9534003
  45.9496856   0.7973841  33.5762964  46.5896236   0.6562600  32.8785927
  45.1174387   0.5108355  33.2001566  57.8124110   8.8792273  32.5077223
  58.2460616   8.7867562  33.3560277  58.5255690   8.8549773  31.8697239
  46.7257160  10.0976272  29.6897956  47.5197759   9.6026592  29.4880531
  46.0148853   9.5694135  29.3265662  51.5452005  12.4794367  34.0410324
  51.5989027  13.0485303  34.8088040  50.6766786  12.6496252  33.6764361
  43.0339924   4.2419353  25.7657709  42.1037512   4.1803809  25.9827671
  43.1297396   3.7195306  24.9694350  42.9525473   0.7674166  28.3535951
  43.2132290   1.6819499  28.2445111  43.7742645   0.2998609  28.5032563
  44.4250398   2.1811923  35.5234775  45.0973451   1.9729285  34.8747424
  43.5980185   1.9834009  35.0840007  58.6739659   8.9215974  35.0410109
  58.8675549   9.8261784  35.2869384  58.5740277   8.4623393  35.8748694
  53.7354768   9.0722716  40.6150989  53.5840274   8.8433268  39.6981073
  53.7259447  10.0293318  40.6282334  50.5040104   6.6454629  35.5997256
  51.4332164   6.7965789  35.4266223  50.0831134   6.7338650  34.7445902
  49.3028436  10.6705294  33.3695793  49.1639522  10.3024078  34.2421731
  48.5143032  11.1852933  33.1979751  49.8976588  15.7714390  24.7121330
  50.0728344  15.3002433  25.5266953  49.2109376  16.3980156  24.9402591
  50.8533651  10.0486896  30.7584631  50.5183484  10.0087666  31.6542281
  50.3537597   9.3831612  30.2855041  44.8277895   5.4554526  36.2837212
  44.6897693   4.7234765  36.8848751  45.7382819   5.3663426  36.0021400
  53.7892843   7.3942931  21.0321691  53.1722014   6.6689759  20.9354744
  53.3209331   8.1552291  20.6888765  47.4560196   5.1674486  35.7720892
  48.1659814   4.5267678  35.7307510  47.4129504   5.4187380  36.6947073
  55.4446975  12.1041839  38.6927471  55.3859521  11.4201059  38.0258054
  55.8466493  12.8460829  38.2408097  46.1689130   2.1539704  37.5916531
  45.6326487   1.7030442  38.2438128  45.5805838   2.2885612  36.8486996
  44.4637673  18.9203753  31.4861190  44.7034272  19.5522277  32.1640209
  43.6206870  18.5691793  31.7726549  45.5791389   1.6128355  20.1542995
  44.7020855   1.4917156  19.7905242  46.0549142   0.8214433  19.9021884
  55.4464382  10.0681423  36.9241451  54.5591161   9.7307345  37.0467850
  56.0162933   9.3364454  37.1610216  37.0993529   6.4005515  30.2484502
  37.7864569   6.0867245  29.6605518  36.9441658   7.3046879  29.9751754
  41.9028251   1.2895711  34.6769526  41.8186440   0.6821381  33.9419936
  41.0810958   1.7804730  34.6779022  48.9765535  14.7282875  33.8902694
  48.9035707  15.5337847  34.4021999  48.5342928  14.9274841  33.0650715
  48.7655315  13.9654645  27.4005516  47.9822837  14.5076325  27.4943740
  49.4648060  14.4828625  27.7999757  59.9281722   5.4789640  31.6858013
  59.9171599   6.3614356  31.3151946  59.0599102   5.1261191  31.4912550
  51.4364219  14.6269709  36.0460853  52.1492191  15.2617174  35.9736754
  50.9454247  14.7233575  35.2300855  53.1581746   8.5320962  27.6178144
  52.2238024   8.6522424  27.4482849  53.3358414   7.6293429  27.3538154
  48.6586934   1.9166658  29.7711406  48.2884721   1.3637698  30.4592311
  49.1546026   1.3124791  29.2186406  56.5454297   4.3738281  28.1528179
  57.0114749   5.2066273  28.0788481  56.9961798   3.9083263  28.8573437
  46.4876132  12.3764153  36.8666424  47.1885592  13.0100636  37.0195818
  46.0171247  12.7178884  36.1062063  54.6130528  10.7182103  25.1514331
  54.8890372  10.6038697  26.0608205  53.7435027  10.3199587  25.1126504
  54.2877418   4.9308760  34.6918974  53.6348869   5.1784668  34.0371427
  54.6657798   4.1172898  34.3581451  51.2484592  14.9668453  28.7947144
  51.4306987  14.1490109  29.2574897  52.0717578  15.1836146  28.3572034
  51.5826758  13.8936639  26.0562193  52.1114524  13.3829093  25.4432355
  51.8454977  13.5779169  26.9207726  50.3364991   5.6728571  41.1785011
  49.6605628   5.5722701  41.8487386  51.1592625   5.5167785  41.6421008
  42.0843850  11.9100508  33.7997526  42.6697287  11.1644196  33.9325430
  41.8868689  12.2204465  34.6834190  44.9382506  14.9451755  28.8159969
  44.2692881  15.4297883  28.3324009  44.7995375  15.1920976  29.7303347
  36.6761505   4.4806108  32.5201969  36.7145605   3.9469699  33.3139087
  36.1701798   3.9541314  31.9012947  49.0787774  16.9795499  35.4142627
  49.6306082  17.1427120  36.1791712  49.4193968  17.5699937  34.7422652
  44.0552267  -0.6729351  36.0164512  44.1193594   0.1885479  35.6041909
  43.9919388  -1.2855350  35.2836870  43.5304540   1.3993781  39.6637546
  44.1576579   1.0170858  40.2775070  42.6732459   1.1807983  40.0293238
  53.9298649  11.8056756  41.2691281  54.4738553  12.4186714  40.7746236
  53.3485493  12.3636335  41.7858294  40.3070083   3.2070210  25.5955901
  40.6023524   2.2980889  25.5422954  39.4058118   3.1857950  25.2736903
  52.2156161  14.9277474  32.4006309  52.0907301  14.1267214  31.8917255
  52.8735253  15.4223668  31.9120279  43.8364330   1.2826207  31.5783449
  43.1150915   1.8962174  31.4390923  44.6257585   1.8183972  31.5000095
  54.2791070  12.7286494  34.0285859  53.3321405  12.6091846  33.9564186
  54.6273843  11.8408992  34.1112121  46.6390643  -1.3819367  37.8524101
  47.1625045  -1.1357070  38.6150410  46.4202977  -0.5499332  37.4327238
  42.0357924   0.8884308  25.7195226  41.7070630   0.0081687  25.5370332
  42.3897295   0.8331977  26.6071615  51.2837503  12.5239211  30.2290211
  51.1362466  11.5955918  30.4097781  52.1090997  12.5459301  29.7447287
  45.1499747   1.1757278  26.0870704  45.4895820   1.7043199  25.3649312
  45.5971868   1.5137684  26.8629270  54.8871625  13.3467769  31.3155084
  55.8118172  13.1410631  31.1779535  54.7186928  13.0984170  32.2244426
  47.8443188  -0.4405672  35.5373772  47.5040009  -1.2397859  35.9394452
  47.1382195  -0.1403961  34.9650605  47.1367895  -0.3268101  24.2863996
  47.8576257   0.0513152  23.7827713  46.5133199   0.3920776  24.3898974
  51.2799017   0.3777048  25.2222329  51.4962632   1.2601686  24.9211157
  50.7993085  -0.0136738  24.4927971  46.0198239   3.3362761  31.7993073
  45.8742820   3.6503064  32.6917355  45.5423443   3.9547662  31.2463972
  47.8794622   0.3265309  31.8473963  47.8656191  -0.5693597  31.5106261
  48.5967050   0.3335973  32.4812249  49.7320752   0.7602650  33.8927090
  49.4738530   1.6819720  33.8911421  49.2005793   0.3633084  34.5827554
  54.6766941  13.8653437  26.6717176  54.8503819  13.2999859  25.9191028
  55.1695832  14.6654332  26.4896666  40.4943901   5.8768106  34.7380734
  39.9497369   6.6527914  34.8701009  41.3723251   6.2238910  34.5799856
  60.5306332   6.6289860  28.2907475  60.9737478   5.8797185  27.8926599
  59.6532843   6.6199996  27.9081207  55.6642114  13.1820201  23.7714074
  56.3593018  13.8026894  23.9901389  56.0065264  12.3315552  24.0466452
  41.2809923   5.0038002  37.6310891  40.5391659   5.1520637  38.2175522
  40.9602667   5.2646268  36.7677641  57.5633537  10.6319907  25.3001405
  58.0884861  10.9707179  24.5750725  57.4755889   9.6966922  25.1164539
  49.2253586  14.5453980  37.4291281  49.5340712  14.3003127  38.3013981
  50.0229068  14.7500619  36.9410152  49.2474198  16.6991890  29.6596658
  48.8079188  16.2068269  30.3529515  49.9982315  16.1564858  29.4188733
  41.7266537  12.8903431  29.6621286  42.5524556  12.5907203  29.2819930
  41.3760589  12.1211053  30.1111075  46.6948070  12.2429899  31.7318960
  46.0728079  11.5800604  31.4321187  47.3652937  12.2691031  31.0492607
  39.9275142  10.8089757  30.6210220  39.0907050  10.3811932  30.4394221
  39.8998787  11.0022201  31.5581011  46.7672597   0.7211687  41.3251466
  46.8160753   1.5973810  40.9429235  47.3095111   0.1789080  40.7523109
  57.2527443  11.2652810  40.6052603  56.4622987  11.2476949  40.0657102
  57.0160797  11.8041104  41.3601639  57.3725318   8.1145277  37.9185331
  57.4223323   7.9495284  38.8600854  57.2639241   7.2472536  37.5283212
  46.2561577  10.7933822  25.2077420  46.4049697  11.4769287  24.5544093
  47.0628020  10.7738912  25.7226876  54.6629080   4.0976205  39.2344638
  55.5638943   3.9582670  38.9428636  54.7377055   4.2630660  40.1742815
  48.9971886   1.4743059  38.0797824  48.1275195   1.7676626  37.8080413
  49.2331366   2.0583504  38.8005088  58.8743515  10.5342218  38.1627353
  58.5828323  10.8972199  38.9990814  58.2615646   9.8209226  37.9840685
  60.0739197   8.0995098  30.6829923  60.9086088   8.5384902  30.8467483
  60.2098326   7.6233751  29.8638169  57.1230703   5.6574833  36.6307411
  57.5984825   5.8502479  35.8226262  56.1996268   5.7134019  36.3850794
  44.0114210   6.8199000  26.2138489  43.7660252   5.9161330  26.4118699
  44.1810124   6.8216150  25.2717967  43.2809857   2.5527358  23.7124650
  42.5879102   2.6271713  23.0564686  43.0361609   1.7887701  24.2346167
  49.7556982  13.2881953  22.6789168  49.1830949  13.9072140  22.2259639
  50.3289776  13.8381314  23.2129089  55.8232372   2.5340593  34.8635716
  56.7749795   2.6338691  34.8847940  55.6535822   1.7418861  35.3733801
  52.9754242  13.5719103  23.8097750  53.9084915  13.5064665  24.0130625
  52.8877455  14.4075370  23.3512282  55.6042259  12.8884973  20.7701697
  55.5255890  12.5544837  21.6637455  56.4251925  13.3806741  20.7693170
  58.3020450   5.7546713  33.9778016  58.2696770   4.8162713  34.1637700
  58.9121073   5.8330749  33.2443841  50.1403781   4.6242766  20.0205220
  51.0862885   4.4948974  20.0893638  49.7618026   3.8857427  20.4974648
  64.1197000   6.8162719  33.1184053  64.8500388   6.5548008  33.6791756
  63.5103945   6.0791441  33.1586121  62.2012297   4.9570582  33.7158504
  61.4745460   4.8226547  33.1074996  61.7859584   5.2647411  34.5215222
  50.0242473   8.6760512  41.4805877  50.9445483   8.8539111  41.6745924
  49.9892056   7.7316557  41.3285576  48.3246698   2.5492742  19.9560105
  47.4178153   2.2525855  20.0322819  48.6022679   2.2522560  19.0894391
  39.2424638   3.8699105  30.4059152  38.9227423   3.0164414  30.1133526
  38.6958066   4.0847684  31.1617119  43.0204546   6.5861546  34.1228658
  43.2390556   7.5178654  34.1416692  43.4330320   6.2269521  34.9083462
  47.8932411   2.1594752  43.5131407  47.7929138   3.1089109  43.4443498
  47.6753953   1.8312991  42.6407477  47.0945482  -0.5920323  20.0972084
  47.9564646  -0.2665425  20.3567902  47.2795827  -1.3788827  19.5845150
  39.1112898   7.4902017  32.3752273  38.4176370   7.0755970  31.8622228
  39.8585889   7.5322553  31.7785692  47.7563681   5.5891891  42.3296469
  47.2730763   6.3892251  42.5360358  47.8424620   5.5999836  41.3763913
  41.0249641   7.4220271  30.2518288  41.0020329   7.5207958  29.3000171
  41.3350277   8.2685421  30.5735454  43.6837019   9.4796426  34.3664903
  44.6380272   9.4480368  34.2994834  43.4849542   9.0187049  35.1815128
  44.2736401   8.0497542  36.9335700  45.0929290   8.5441620  36.9570537
  44.5473208   7.1329510  36.9053268  42.0387247  15.0216045  31.3835100
  41.9041715  14.2616446  30.8173098  41.6219310  15.7456945  30.9163889
  53.1746210  10.2052969  20.3911676  53.8782061  10.4102971  21.0069331
  52.4508859  10.7729731  20.6560759  54.0044021   5.9562830  26.5113946
  53.9479222   6.4131381  25.6721578  54.5572363   5.1953515  26.3336789
  62.1261164   4.4848635  29.8435357  61.5660722   4.5541824  30.6166919
  61.5204668   4.3089620  29.1234853  45.1956373  15.9185362  31.5953543
  45.0788757  16.8630795  31.4932233  44.3748820  15.6158924  31.9839342
  55.0832908  10.6435498  22.4410136  55.9178512  10.2116696  22.2587611
  54.9217251  10.4717512  23.3687030  54.7378800   7.1467611  23.8066475
  54.6827604   6.9811883  22.8654919  54.1124855   7.8543644  23.9628665
  39.5271315   2.3835676  37.6327897  40.1730179   1.8734630  38.1215122
  39.3188466   3.1204357  38.2071323  52.0524707   9.4516523  43.1320038
  52.9215867   9.6257175  42.7706673  51.5731459  10.2710940  43.0095767
  46.2210887  16.5713624  34.8109471  47.1238134  16.6037234  35.1275966
  45.9948257  15.6414075  34.8255807  47.9764489  15.3244611  31.4719550
  47.0260120  15.3246472  31.3583922  48.2796976  14.5777345  30.9555585
  43.8668806  -0.4696707  41.7302911  44.7300268  -0.8259903  41.9406236
  43.2934217  -0.8082813  42.4178316  63.7117183  21.1605149  32.5365312
  64.3495593  21.0411896  31.8328653  63.5938026  22.1085993  32.5953265
  60.5206889  21.1132577  32.4726837  60.1825401  20.9973642  31.5847372
  61.3896657  20.7123742  32.4527843  56.3793705  22.9668054  28.4623728
  55.8158570  22.8757990  27.6940016  56.2646100  22.1467958  28.9426221
  61.0026672  22.2667429  38.4313043  60.9915313  21.8720227  37.5593546
  61.1647312  21.5333501  39.0246814  53.9258137  24.4619245  31.3007949
  54.7179429  24.1210070  30.8854248  54.1654787  24.5714220  32.2210102
  61.9593264  26.6339021  23.7738193  61.3081243  27.2193102  23.3872207
  62.7537626  27.1645216  23.8333231  55.8848891  23.7228158  24.1725327
  56.6579767  23.1757145  24.0338203  56.2374290  24.5872408  24.3839789
  57.7233933  25.0504541  37.3792227  57.4323799  25.9550171  37.2638893
  58.3590918  25.0921068  38.0936296  58.6490140  22.4281389  33.9693586
  59.2453712  22.2037412  33.2550549  58.7065112  21.6866135  34.5719034
  58.2215169  19.8820824  21.8043777  58.4740689  19.3602346  21.0427240
  57.2839728  19.7186970  21.9070461  63.2658451  18.8856603  29.6118521
  64.0521541  18.4676026  29.2608938  63.5297156  19.7902695  29.7800169
  63.4368529  24.3229453  24.3107177  62.8014362  24.3964080  25.0228082
  63.1065935  24.9123052  23.6326257  68.6666879  18.8231836  30.5151499
  69.3992050  18.2531053  30.7489329  67.9106234  18.4353436  30.9558005
  57.9411457  21.7848930  24.0068152  57.8247715  21.1093834  24.6749237
  58.0513717  21.2981304  23.1900305  60.2842998  21.2459078  27.7114842
  59.9201205  20.7189699  28.4227763  61.1410114  20.8557547  27.5381327
  66.1892299  12.5353410  34.9746108  65.8575624  13.4048821  34.7507323
  65.5937912  12.2189694  35.6540138  59.9248485  16.2748977  22.7076190
  60.0922888  17.1429214  23.0746661  59.7345654  16.4376259  21.7837479
  62.6823818  24.7365956  34.3742020  62.3824541  25.6390995  34.2657828
  62.3374878  24.4698139  35.2263173  56.1336300  21.1879753  30.4078725
  55.2086796  21.0555967  30.6156417  56.3820713  21.9673972  30.9048667
  66.0820962  17.2548496  32.0539458  65.1737840  17.1863905  31.7598219
  66.0308558  17.7320441  32.8821283  59.9037706  18.7306635  23.6922857
  59.7837331  19.1763686  24.5308337  59.2090294  19.0791952  23.1336395
  53.4945111  20.8313027  31.2422514  53.6237492  21.0847505  32.1561926
  52.8142562  21.4240735  30.9227169  57.6644598  31.5010276  27.3412988
  57.5868628  32.4518102  27.4201469  57.0606242  31.1556149  27.9987914
  60.1561828  18.6738142  39.9974355  59.3795162  19.2332062  39.9877220
  60.7952391  19.1594925  40.5189225  67.9482609  15.4564935  33.8317332
  67.3056989  15.7497468  33.1857126  67.4437537  15.3417855  34.6370528
  65.6022772  19.2028108  24.5203191  66.5140628  19.4355495  24.3450888
  65.0932419  19.7865152  23.9578269  58.4108200  21.4823595  39.5592322
  59.1522885  22.0208639  39.2827146  57.7045186  22.1089884  39.7163874
  63.8863540  23.6252736  38.1564483  64.2946896  23.1835146  37.4119116
  63.1640801  23.0505363  38.4098676  60.2394610  18.5625343  35.5298040
  61.0855805  18.9864756  35.6732689  60.1793248  17.9058967  36.2236604
  64.2092355  24.1853926  31.9116772  63.5801217  24.3499640  31.2092840
  63.8218017  24.5995536  32.6827736  68.0881586  25.1208364  29.2661136
  67.4032625  25.5007266  28.7158169  68.1725436  25.7303691  29.9993084
  63.3894055  16.2229711  37.1879214  63.1454987  16.9771771  36.6513490
  63.6653986  16.6015058  38.0226461  65.3432518  22.7668323  35.8656480
  65.5549413  23.4100083  35.1890861  65.2962266  21.9330640  35.3978410
  62.9458747  15.3786144  32.7693052  62.0843226  15.6767397  33.0609789
  62.9721182  15.5956543  31.8374084  59.7620316  23.9228334  29.1766857
  60.2258662  24.2016037  28.3871480  59.4977115  23.0211779  28.9939948
  56.6544398  23.4699816  32.1146621  57.2245755  23.8987084  31.4764105
  57.2452509  23.1882401  32.8130806  58.6989203  20.0451487  25.9856423
  59.4013246  20.4972530  26.4530349  58.3669831  19.4035306  26.6136316
  57.1469564  18.6363243  40.3607632  56.5168225  19.3179524  40.5943029
  57.0405652  18.5246325  39.4160770  52.4414536  18.3035039  31.2873556
  51.6513590  18.5592568  30.8113667  52.9325784  19.1183377  31.3925597
  66.4578346  25.6440279  34.0378837  67.2795790  25.2420466  33.7561519
  66.4540749  25.5408513  34.9894953  54.3929282  18.6679619  28.2457033
  53.5960445  18.7798313  28.7640529  54.1654874  19.0066271  27.3797923
  60.2234949  25.1924322  36.1939547  60.2879382  25.6544729  37.0297719
  59.5145873  24.5621687  36.3221857  50.7252239  18.5565530  33.7188547
  50.9760278  19.4412540  33.9846123  51.2611788  18.3770131  32.9463639
  74.5484339  21.9879027  30.3863808  73.7948047  21.4186425  30.2307813
  74.6831880  21.9541692  31.3334443  59.9382967  26.8592429  26.0618528
  59.8028642  27.7043965  26.4903376  60.4792780  27.0611707  25.2984462
  56.4250307  12.9384009  42.7232883  56.0317252  12.3850208  43.3980527
  57.2416447  13.2494588  43.1139401  53.3912365  24.3767867  26.6346453
  53.9036885  25.1711118  26.7852018  54.0435077  23.6794158  26.5680054
  55.2007249  27.4933624  28.7169206  55.3773878  28.4151588  28.5290190
  55.9964083  27.1792043  29.1463586  59.3418268  14.3541888  40.3153140
  60.0827981  14.9549042  40.2357602  59.5736191  13.6119526  39.7571182
  54.4859606  19.5398256  38.5931369  54.3713121  18.6383513  38.8938468
  53.6304124  19.7861952  38.2416186  61.5651444  27.4815996  40.1918870
  61.1215298  26.6952375  39.8739774  62.2268657  27.6695146  39.5262761
  56.3238565  29.0111798  34.7179548  56.8745990  28.8828861  33.9456542
  55.4850041  29.3106687  34.3674441  63.6632682  27.7618796  38.2200271
  63.6451157  28.5827677  37.7280540  64.5852602  27.6372871  38.4450412
  60.1205736  25.2762925  39.0623780  60.6534073  24.5151214  38.8323088
  59.5919817  24.9836577  39.8047934  63.2875431  10.3822991  34.5917421
  62.9439700  11.2724633  34.5156532  63.6554393  10.1924649  33.7287006
  51.3561281  22.7056522  27.4106023  52.1936503  23.1153530  27.1939731
  51.5339549  21.7655964  27.3806217  63.2525713  20.3731602  23.0989856
  62.7372337  21.1436207  23.3378244  62.9803022  19.6996739  23.7222918
  60.8372824  15.2181303  28.1575095  59.9814421  14.8288154  27.9780733
  61.2499776  15.2973264  27.2974880  62.3671971  12.7527646  32.5566655
  61.8636767  12.7157782  31.7434460  62.6602578  13.6620389  32.6163311
  58.6114857  12.8366376  31.5632836  59.4767854  12.6409185  31.2038726
  58.6792366  12.6076728  32.4902193  68.2259988  23.1263957  25.0343030
  67.4489430  22.7875117  24.5898192  68.9051469  23.1316580  24.3597995
  63.0412017  18.2458695  24.9249638  62.7362152  18.5604844  25.7759781
  63.9942459  18.3240114  24.9676971  61.4858448  24.4048918  26.5742592
  60.9579810  23.6701677  26.2615829  60.9845951  25.1823594  26.3282560
  66.4651294  22.5997938  31.6909638  65.8074969  23.2897200  31.7789766
  67.2691694  22.9894370  32.0343624  56.2177176  15.0668584  28.9349203
  56.7920928  14.8443766  28.2022396  56.8048158  15.1357279  29.6877804
  65.2756753  20.9542311  29.7413580  65.7888635  21.5872303  30.2435289
  65.9257977  20.3543507  29.3756940  56.5446763  17.0973045  22.9545088
  55.7084075  17.4347732  23.2754363  56.4051533  16.9622025  22.0172225
  58.5199844  11.9409833  27.6624272  57.8664256  11.6258850  27.0380887
  58.4780318  11.3185573  28.3884095  59.6311049  22.2229128  19.5777565
  58.7238110  21.9918382  19.7768714  60.1282081  21.4266747  19.7651546
  62.5379127  30.9326635  22.4974251  61.8640826  31.2358332  23.1059209
  62.9244949  31.7355716  22.1479708  61.7537584  18.4291767  31.9871920
  60.8360145  18.6506714  31.8293608  62.1697728  18.5038077  31.1283627
  62.5372632  19.8283182  27.1174600  63.2844451  20.3404579  26.8081722
  62.8064221  19.5067235  27.9778994  60.8099282  22.3241723  24.1001555
  59.9010501  22.0400756  24.1974024  60.8394366  22.7440802  23.2404862
  66.0418549  25.9348312  27.8692722  65.5880877  25.0939222  27.9257913
  65.4112516  26.5709711  28.2067502  64.9851469  16.8640299  29.0993390
  64.2474226  16.3517685  29.4303632  65.2378243  16.4240680  28.2876667
  64.4851489  27.7724809  28.8042540  64.7774463  28.3329866  28.0854906
  64.9950109  28.0653370  29.5595699  65.0863096   9.6416551  29.6935159
  65.3921973   8.7813914  29.4061074  65.8115701  10.2334171  29.4934153
  51.3787452  20.0447237  28.0816757  51.1811852  19.4516598  27.3567823
  50.8234116  19.7399447  28.7992696  59.3584176  19.9370344  30.2011350
  59.4132786  18.9844180  30.1253827  58.5475378  20.0929783  30.6852648
  60.5075370  23.8650467  21.4389633  60.0694800  23.1486326  20.9795271
  61.2485811  24.0926581  20.8774725  57.2976536  18.5547403  27.9601729
  56.4844402  18.8541574  28.3666921  57.7935530  18.1603092  28.6776211
  59.4485114  28.5505160  29.8935994  59.4061293  28.7766007  28.9644526
  60.3647813  28.3168535  30.0421795  62.8950748  19.0189228  36.7916623
  63.2500135  19.2460701  37.6511089  63.5422879  19.3507605  36.1693878
  68.6248485  22.1407664  27.4965952  68.4866383  22.3309260  26.5687141
  68.2684703  22.9027047  27.9534003  56.7890611  16.1265759  33.5762964
  57.4289990  15.9854518  32.8785927  55.9568141  15.8400272  33.2001566
  68.6517864  24.2084191  32.5077223  69.0854371  24.1159480  33.3560277
  69.3649445  24.1841691  31.8697239  57.5650915  25.4268189  29.6897956
  58.3591513  24.9318509  29.4880531  56.8542607  24.8986052  29.3265662
  62.3845759  27.8086285  34.0410324  62.4382781  28.3777221  34.8088040
  61.5160541  27.9788170  33.6764361  53.8733678  19.5711271  25.7657709
  52.9431266  19.5095726  25.9827671  53.9691150  19.0487224  24.9694350
  53.7919227  16.0966084  28.3535951  54.0526044  17.0111417  28.2445111
  54.6136400  15.6290526  28.5032563  55.2644153  17.5103841  35.5234775
  55.9367206  17.3021203  34.8747424  54.4373939  17.3125927  35.0840007
  69.5133414  24.2507891  35.0410109  69.7069304  25.1553702  35.2869384
  69.4134032  23.7915310  35.8748694  61.1669725  14.1365782  37.5400436
  60.5197640  14.8355732  37.4464912  61.9370740  14.5701926  37.9076684
  64.5748522  24.4014634  40.6150989  64.4234029  24.1725186  39.6981073
  64.5653202  25.3585236  40.6282334  61.3433859  21.9746547  35.5997256
  62.2725919  22.1257706  35.4266223  60.9224889  22.0630568  34.7445902
  60.1422191  25.9997211  33.3695793  60.0033276  25.6315996  34.2421731
  59.3536787  26.5144851  33.1979751  60.7370343  31.1006308  24.7121330
  60.9122098  30.6294351  25.5266953  60.0503131  31.7272074  24.9402591
  61.6927406  25.3778814  30.7584631  61.3577238  25.3379584  31.6542281
  61.1931351  24.7123530  30.2855041  55.6671650  20.7846444  36.2837212
  55.5291448  20.0526683  36.8848751  56.5776573  20.6955344  36.0021400
  64.6286597  22.7234848  21.0321691  64.0115768  21.9981676  20.9354744
  64.1603086  23.4844209  20.6888765  58.2953950  20.4966403  35.7720892
  59.0053569  19.8559596  35.7307510  58.2523259  20.7479298  36.6947073
  66.2840729  27.4333757  38.6927471  66.2253275  26.7492977  38.0258054
  66.6860248  28.1752747  38.2408097  57.0082884  17.4831621  37.5916531
  56.4720241  17.0322360  38.2438128  56.4199593  17.6177530  36.8486996
  55.3031428  34.2495670  31.4861190  55.5428026  34.8814195  32.1640209
  54.4600624  33.8983711  31.7726549  56.4185143  16.9420273  20.1542995
  55.5414610  16.8209073  19.7905242  56.8942896  16.1506351  19.9021884
  66.2858136  25.3973341  36.9241451  65.3984915  25.0599262  37.0467850
  66.8556687  24.6656372  37.1610216  47.9387284  21.7297432  30.2484502
  48.6258323  21.4159162  29.6605518  47.7835412  22.6338797  29.9751754
  52.7422006  16.6187629  34.6769526  52.6580194  16.0113298  33.9419936
  51.9204712  17.1096647  34.6779022  59.8159290  30.0574793  33.8902694
  59.7429461  30.8629764  34.4021999  59.3736683  30.2566759  33.0650715
  59.6049069  29.2946563  27.4005516  58.8216591  29.8368243  27.4943740
  60.3041815  29.8120543  27.7999757  62.9145720  15.1041192  30.0439721
  63.4114419  14.3511155  29.7240791  62.1432701  15.1405509  29.4782930
  70.7675477  20.8081558  31.6858013  70.7565353  21.6906273  31.3151946
  69.8992856  20.4553109  31.4912550  63.9975500  23.8612880  27.6178144
  63.0631779  23.9814342  27.4482849  64.1752169  22.9585346  27.3538154
  59.4980688  17.2458575  29.7711406  59.1278476  16.6929616  30.4592311
  59.9939781  16.6416709  29.2186406  67.3848052  19.7030199  28.1528179
  67.8508504  20.5358191  28.0788481  67.8355552  19.2375180  28.8573437
  57.3269887  27.7056070  36.8666424  58.0279346  28.3392553  37.0195818
  56.8565002  28.0470802  36.1062063  65.4524283  26.0474020  25.1514331
  65.7284127  25.9330615  26.0608205  64.5828781  25.6491505  25.1126504
  65.3564714  12.0710786  32.1919080  64.4427794  12.3015013  32.3601287
  65.7857816  12.1549230  33.0433112  65.1271173  20.2600678  34.6918974
  64.4742623  20.5076585  34.0371427  65.5051553  19.4464816  34.3581451
  62.0878347  30.2960371  28.7947144  62.2700741  29.4782027  29.2574897
  62.9111333  30.5128063  28.3572034  62.4220512  29.2228556  26.0562193
  62.9508279  28.7121011  25.4432355  62.6848732  28.9071086  26.9207726
  61.1758746  21.0020489  41.1785011  60.4999383  20.9014618  41.8487386
  61.9986380  20.8459703  41.6421008  52.9237605  27.2392425  33.7997526
  53.5091042  26.4936113  33.9325430  52.7262443  27.5496382  34.6834190
  55.7776260  30.2743673  28.8159969  55.1086635  30.7589800  28.3324009
  55.6389130  30.5212893  29.7303347  47.5155260  19.8098026  32.5201969
  47.5539359  19.2761616  33.3139087  47.0095552  19.2833231  31.9012947
  54.8946022  14.6562566  36.0164512  54.9587348  15.5177397  35.6041909
  54.8313142  14.0436568  35.2836870  54.3698294  16.7285699  39.6637546
  54.9970333  16.3462776  40.2775070  53.5126213  16.5099901  40.0293238
  64.7692403  27.1348674  41.2691281  65.3132307  27.7478632  40.7746236
  64.1879248  27.6928252  41.7858294  51.1463837  18.5362128  25.5955901
  51.4417278  17.6272806  25.5422954  50.2451873  18.5149867  25.2736903
  54.6758084  16.6118124  31.5783449  53.9544670  17.2254092  31.4390923
  55.4651340  17.1475889  31.5000095  65.1184824  28.0578412  34.0285859
  64.1715160  27.9383763  33.9564186  65.4667597  27.1700910  34.1112121
  57.4784398  13.9472551  37.8524101  58.0018800  14.1934847  38.6150410
  57.2596731  14.7792586  37.4327238  52.8751679  16.2176225  25.7195226
  52.5464385  15.3373604  25.5370332  53.2291049  16.1623894  26.6071615
  62.1231258  27.8531128  30.2290211  61.9756220  26.9247836  30.4097781
  62.9484751  27.8751219  29.7447287  55.9893502  16.5049195  26.0870704
  56.3289574  17.0335117  25.3649312  56.4365622  16.8429601  26.8629270
  65.7265380  28.6759687  31.3155084  66.6511927  28.4702548  31.1779535
  65.5580683  28.4276088  32.2244426  58.6836943  14.8886246  35.5373772
  58.3433763  14.0894059  35.9394452  57.9775949  15.1887957  34.9650605
  59.3353415  11.9735558  33.9901095  60.1579484  11.4996037  33.8679985
  59.5791478  12.7526042  34.4899781  57.9761649  15.0023817  24.2863996
  58.6970012  15.3805070  23.7827713  57.3526953  15.7212694  24.3898974
  62.1192772  15.7068966  25.2222329  62.3356386  16.5893604  24.9211157
  61.6386839  15.3155179  24.4927971  56.8591993  18.6654679  31.7993073
  56.7136574  18.9794982  32.6917355  56.3817197  19.2839579  31.2463972
  58.7188376  15.6557227  31.8473963  58.7049945  14.7598320  31.5106261
  59.4360804  15.6627891  32.4812249  60.5714507  16.0894567  33.8927090
  60.3132285  17.0111638  33.8911421  60.0399547  15.6925002  34.5827554
  65.5160696  29.1945354  26.6717176  65.6897573  28.6291777  25.9191028
  66.0089587  29.9946249  26.4896666  51.3337656  21.2060023  34.7380734
  50.7891124  21.9819831  34.8701009  52.2117005  21.5530828  34.5799856
  58.1225272  14.5371607  27.1161533  58.2441183  13.6088254  27.3152420
  57.8327315  14.5510293  26.2039848  60.9916463  12.2226518  30.2528253
  61.0138159  12.2865851  29.2980232  61.4084522  11.3831026  30.4468759
  71.3700087  21.9581777  28.2907475  71.8131233  21.2089103  27.8926599
  70.4926597  21.9491914  27.9081207  66.5035868  28.5112119  23.7714074
  67.1986773  29.1318811  23.9901389  66.8459018  27.6607470  24.0466452
  52.1203677  20.3329920  37.6310891  51.3785413  20.4812555  38.2175522
  51.7996422  20.5938185  36.7677641  60.0867952  32.0283808  29.6596658
  59.6472942  31.5360186  30.3529515  60.8376069  31.4856775  29.4188733
  52.5660291  28.2195348  29.6621286  53.3918311  27.9199120  29.2819930
  52.2154343  27.4502971  30.1111075  57.5341824  27.5721817  31.7318960
  56.9121834  26.9092522  31.4321187  58.2046691  27.5982949  31.0492607
  50.7668896  26.1381675  30.6210220  49.9300804  25.7103849  30.4394221
  50.7392542  26.3314118  31.5581011  57.6066352  16.0503605  41.3251466
  57.6554507  16.9265728  40.9429235  58.1488866  15.5080998  40.7523109
  68.0921197  26.5944728  40.6052603  67.3016741  26.5768867  40.0657102
  67.8554552  27.1333022  41.3601639  68.2119072  23.4437194  37.9185331
  68.2617077  23.2787202  38.8600854  68.1032996  22.5764453  37.5283212
  57.0955331  26.1225740  25.2077420  57.2443452  26.8061204  24.5544093
  57.9021775  26.1030830  25.7226876  65.5022835  19.4268122  39.2344638
  66.4032698  19.2874587  38.9428636  65.5770809  19.5922577  40.1742815
  59.8365640  16.8034977  38.0797824  58.9668950  17.0968543  37.8080413
  60.0725121  17.3875422  38.8005088  69.7137269  25.8634136  38.1627353
  69.4222078  26.2264116  38.9990814  69.1009401  25.1501144  37.9840685
  70.9132952  23.4287016  30.6829923  71.7479843  23.8676820  30.8467483
  71.0492080  22.9525669  29.8638169  67.9624458  20.9866750  36.6307411
  68.4378579  21.1794397  35.8226262  67.0390023  21.0425936  36.3850794
  54.8507964  22.1490918  26.2138489  54.6054006  21.2453248  26.4118699
  55.0203879  22.1508068  25.2717967  62.5404674  13.0214594  35.5963245
  63.0586618  13.7575621  35.2709733  62.1859807  13.3278587  36.4310004
  54.1203612  17.8819275  23.7124650  53.4272857  17.9563630  23.0564686
  53.8755364  17.1179619  24.2346167  62.7917268   9.4414877  31.1164141
  63.0719022   8.7738066  31.7424568  63.5767875   9.6343972  30.6038805
  60.5950737  28.6173870  22.6789168  60.0224704  29.2364058  22.2259639
  61.1683530  29.1673232  23.2129089  66.6626127  17.8632511  34.8635716
  67.6143549  17.9630608  34.8847940  66.4929577  17.0710779  35.3733801
  64.6840506  14.9488094  35.0495117  64.0890438  15.2293107  34.3541606
  64.3990203  15.4381995  35.8211858  63.8147996  28.9011021  23.8097750
  64.7478670  28.8356582  24.0130625  63.7271209  29.7367287  23.3512282
  66.4436013  28.2176891  20.7701697  66.3649645  27.8836755  21.6637455
  67.2645680  28.7098659  20.7693170  69.1414204  21.0838630  33.9778016
  69.1090524  20.1454631  34.1637700  69.7514828  21.1622667  33.2443841
  60.9797535  19.9534683  20.0205220  61.9256640  19.8240891  20.0893638
  60.6011780  19.2149345  20.4974648  69.2908693  17.8749674  34.0236299
  68.7747741  17.0908130  33.8366228  70.1748641  17.5468390  34.1882819
  66.9519420  11.6190689  29.9832112  66.7544241  11.3105777  30.8675444
  67.5619125  12.3452328  30.1130042  74.9590754  22.1454637  33.1184053
  75.6894143  21.8839925  33.6791756  74.3497700  21.4083359  33.1586121
  73.0406051  20.2862500  33.7158504  72.3139215  20.1518465  33.1074996
  72.6253338  20.5939328  34.5215222  60.8636228  24.0052429  41.4805877
  61.7839237  24.1831028  41.6745924  60.8285811  23.0608475  41.3285576
  59.1640452  17.8784660  19.9560105  58.2571908  17.5817772  20.0322819
  59.4416433  17.5814478  19.0894391  50.0818393  19.1991023  30.4059152
  49.7621177  18.3456331  30.1133526  49.5351821  19.4139601  31.1617119
  53.8598300  21.9153464  34.1228658  54.0784310  22.8470572  34.1416692
  54.2724074  21.5561438  34.9083462  60.7802518  12.4221549  26.1104347
  59.9703246  12.0768634  26.4859593  61.4686935  12.1129093  26.6991958
  62.7093066  11.4999596  27.7328643  63.2624105  11.9195050  28.3918666
  62.9463153  10.5735344  27.7751599  58.7326166  17.4886670  43.5131407
  58.6322892  18.4381027  43.4443498  58.5147708  17.1604909  42.6407477
  57.9339237  14.7371595  20.0972084  58.7958401  15.0626493  20.3567902
  58.1189581  13.9503091  19.5845150  49.9506653  22.8193935  32.3752273
  49.2570124  22.4047887  31.8622228  50.6979644  22.8614471  31.7785692
  66.0871873  13.6100121  27.2407307  65.5070542  14.2684925  26.8585360
  65.8207806  12.7877466  26.8294725  64.5375440  13.0105179  29.4428628
  65.0375218  13.1221714  28.6342947  65.1811048  12.7066232  30.0829436
  58.5957436  20.9183809  42.3296469  58.1124517  21.7184169  42.5360358
  58.6818375  20.9291753  41.3763913  51.8643395  22.7512188  30.2518288
  51.8414083  22.8499876  29.3000171  52.1744032  23.5977339  30.5735454
  54.5230773  24.8088343  34.3664903  55.4774027  24.7772286  34.2994834
  54.3243297  24.3478967  35.1815128  55.1130155  23.3789459  36.9335700
  55.9323044  23.8733538  36.9570537  55.3866963  22.4621428  36.9053268
  64.8696751  15.7700212  26.2963656  63.9822606  16.0549862  26.0783850
  65.2850741  15.6093975  25.4490933  68.2211288  15.7946733  30.0117995
  68.9971678  16.2843185  30.2842612  67.4959422  16.2204787  30.4689864
  70.6583846  16.5074352  31.0691936  71.2528337  16.2670088  30.3585244
  70.7310430  15.7881482  31.6965472  52.8781002  30.3507963  31.3835100
  52.7435470  29.5908364  30.8173098  52.4613064  31.0748863  30.9163889
  64.0139965  25.5344886  20.3911676  64.7175815  25.7394889  21.0069331
  63.2902614  26.1021648  20.6560759  64.8437775  21.2854748  26.5113946
  64.7872977  21.7423299  25.6721578  65.3966118  20.5245432  26.3336789
  68.6542581  17.0744479  27.3364065  68.3979515  16.6741115  28.1672273
  68.0295449  17.7888273  27.2114205  72.9654919  19.8140553  29.8435357
  72.4054477  19.8833742  30.6166919  72.3598422  19.6381537  29.1234853
  56.0350128  31.2477280  31.5953543  55.9182512  32.1922712  31.4932233
  55.2142574  30.9450841  31.9839342  65.9226662  25.9727416  22.4410136
  66.7572266  25.5408614  22.2587611  65.7611005  25.8009429  23.3687030
  65.5772554  22.4759529  23.8066475  65.5221358  22.3103800  22.8654919
  64.9518610  23.1835562  23.9628665  50.3665069  17.7127593  37.6327897
  51.0123933  17.2026547  38.1215122  50.1582221  18.4496275  38.2071323
  62.8918462  24.7808441  43.1320038  63.7609621  24.9549093  42.7706673
  62.4125213  25.6002858  43.0095767  58.8868680  11.9767638  23.3851793
  58.8747350  12.9209478  23.5420064  59.7792102  11.7937783  23.0911255
  57.0604642  31.9005542  34.8109471  57.9631889  31.9329152  35.1275966
  56.8342012  30.9705993  34.8255807  58.8158244  30.6536528  31.4719550
  57.8653875  30.6538390  31.3583922  59.1190730  29.9069263  30.9555585
  62.7020799   8.5710415  27.6397730  61.9353195   8.0168901  27.7854413
  63.1131504   8.6432283  28.5011882  54.7062560  14.8595210  41.7302911
  55.5694022  14.5032015  41.9406236  54.1327971  14.5209105  42.4178316
  74.5510937  36.4897067  32.5365312  75.1889347  36.3703814  31.8328653
  74.4331780  37.4377911  32.5953265  71.3600644  36.4424495  32.4726837
  71.0219155  36.3265559  31.5847372  72.2290412  36.0415660  32.4527843
  72.7987018  41.9630939  23.7738193  72.1474998  42.5485019  23.3872207
  73.5931381  42.4937134  23.8333231  69.0608923  35.2112742  21.8043777
  69.3134444  34.6894263  21.0427240  68.1233482  35.0478888  21.9070461
  74.1052206  34.2148521  29.6118521  74.8915295  33.7967944  29.2608938
  74.3690910  35.1194613  29.7800169  74.2762283  39.6521371  24.3107177
  73.6408116  39.7255997  25.0228082  73.9459690  40.2414970  23.6326257
  79.5060633  34.1523754  30.5151499  80.2385805  33.5822971  30.7489329
  78.7499989  33.7645354  30.9558005  68.7805212  37.1140848  24.0068152
  68.6641470  36.4385751  24.6749237  68.8907472  36.6273222  23.1900305
  71.1236753  36.5750995  27.7114842  70.7594960  36.0481616  28.4227763
  71.9803869  36.1849464  27.5381327  77.0286053  27.8645328  34.9746108
  76.6969378  28.7340739  34.7507323  76.4331667  27.5481612  35.6540138
  70.7642240  31.6040895  22.7076190  70.9316642  32.4721131  23.0746661
  70.5739409  31.7668177  21.7837479  73.5217573  40.0657874  34.3742020
  73.2218296  40.9682913  34.2657828  73.1768632  39.7990057  35.2263173
  76.9214717  32.5840414  32.0539458  76.0131594  32.5155822  31.7598219
  76.8702312  33.0612359  32.8821283  70.7431461  34.0598552  23.6922857
  70.6231086  34.5055603  24.5308337  70.0484049  34.4083870  23.1336395
  68.5038353  46.8302194  27.3412988  68.4262382  47.7810019  27.4201469
  67.8999996  46.4848067  27.9987914  70.9955582  34.0030060  39.9974355
  70.2188917  34.5623980  39.9877220  71.6346146  34.4886843  40.5189225
  78.7876363  30.7856852  33.8317332  78.1450743  31.0789386  33.1857126
  78.2831292  30.6709773  34.6370528  76.4416527  34.5320026  24.5203191
  77.3534383  34.7647412  24.3450888  75.9326174  35.1157070  23.9578269
  74.7257294  38.9544653  38.1564483  75.1340650  38.5127064  37.4119116
  74.0034556  38.3797281  38.4098676  75.0486109  39.5145844  31.9116772
  74.4194972  39.6791558  31.2092840  74.6611771  39.9287454  32.6827736
  78.9275341  40.4500282  29.2661136  78.2426379  40.8299183  28.7158169
  79.0119190  41.0595609  29.9993084  74.2287810  31.5521629  37.1879214
  73.9848742  32.3063689  36.6513490  74.5047740  31.9306976  38.0226461
  76.1826273  38.0960241  35.8656480  76.3943168  38.7392001  35.1890861
  76.1356021  37.2622557  35.3978410  73.7852502  30.7078062  32.7693052
  72.9236981  31.0059315  33.0609789  73.8114936  30.9248460  31.8374084
  70.6014071  39.2520252  29.1766857  71.0652416  39.5307955  28.3871480
  70.3370869  38.3503697  28.9939948  69.5382957  35.3743405  25.9856423
  70.2407000  35.8264448  26.4530349  69.2063585  34.7327223  26.6136316
  77.2972101  40.9732196  34.0378837  78.1189544  40.5712384  33.7561519
  77.2934503  40.8700431  34.9894953  65.2323036  33.9971536  28.2457033
  64.4354200  34.1090231  28.7640529  65.0048629  34.3358189  27.3797923
  85.3878094  37.3170945  30.3863808  84.6341802  36.7478343  30.2307813
  85.5225635  37.2833609  31.3334443  70.7776722  42.1884347  26.0618528
  70.6422396  43.0335883  26.4903376  71.3186534  42.3903625  25.2984462
  70.1812022  29.6833806  40.3153140  70.9221736  30.2840959  40.2357602
  70.4129945  28.9411444  39.7571182  74.5026436  43.0910714  38.2200271
  74.4844911  43.9119595  37.7280540  75.4246356  42.9664789  38.4450412
  74.1269185  25.7114909  34.5917421  73.7833455  26.6016551  34.5156532
  74.4948148  25.5216567  33.7287006  74.0919468  35.7023520  23.0989856
  73.5766091  36.4728125  23.3378244  73.8196776  35.0288656  23.7222918
  71.6766579  30.5473221  28.1575095  70.8208175  30.1580071  27.9780733
  72.0893531  30.6265182  27.2974880  73.2065726  28.0819564  32.5566655
  72.7030521  28.0449699  31.7434460  73.4996332  28.9912307  32.6163311
  69.4508611  28.1658294  31.5632836  70.3161608  27.9701103  31.2038726
  69.5186120  27.9368646  32.4902193  79.0653742  38.4555875  25.0343030
  78.2883185  38.1167034  24.5898192  79.7445223  38.4608498  24.3597995
  73.8805771  33.5750612  24.9249638  73.5755907  33.8896761  25.7759781
  74.8336213  33.6532032  24.9676971  72.3252203  39.7340836  26.5742592
  71.7973564  38.9993595  26.2615829  71.8239706  40.5115512  26.3282560
  77.3045049  37.9289856  31.6909638  76.6468723  38.6189117  31.7789766
  78.1085448  38.3186288  32.0343624  67.0570931  30.3960502  28.9349203
  67.6314682  30.1735683  28.2022396  67.6441913  30.4649196  29.6877804
  76.1150508  36.2834229  29.7413580  76.6282389  36.9164221  30.2435289
  76.7651732  35.6835424  29.3756940  67.3840518  32.4264963  22.9545088
  66.5477830  32.7639649  23.2754363  67.2445287  32.2913943  22.0172225
  69.3593598  27.2701751  27.6624272  68.7058011  26.9550768  27.0380887
  69.3174072  26.6477491  28.3884095  70.4704803  37.5521046  19.5777565
  69.5631865  37.3210299  19.7768714  70.9675835  36.7558665  19.7651546
  73.3772882  46.2618553  22.4974251  72.7034581  46.5650250  23.1059209
  73.7638704  47.0647633  22.1479708  72.5931339  33.7583684  31.9871920
  71.6753900  33.9798631  31.8293608  73.0091482  33.8329995  31.1283627
  73.3766386  35.1575100  27.1174600  74.1238205  35.6696497  26.8081722
  73.6457976  34.8359153  27.9778994  71.6493037  37.6533641  24.1001555
  70.7404256  37.3692673  24.1974024  71.6788120  38.0732719  23.2404862
  76.8812304  41.2640230  27.8692722  76.4274631  40.4231140  27.9257913
  76.2506271  41.9001629  28.2067502  75.8245224  32.1932216  29.0993390
  75.0867980  31.6809602  29.4303632  76.0771997  31.7532598  28.2876667
  75.3245243  43.1016727  28.8042540  75.6168218  43.6621784  28.0854906
  75.8343864  43.3945288  29.5595699  75.9256851  24.9708468  29.6935159
  76.2315728  24.1105832  29.4061074  76.6509456  25.5626088  29.4934153
  70.1977931  35.2662261  30.2011350  70.2526540  34.3136098  30.1253827
  69.3869133  35.4221700  30.6852648  71.3469124  39.1942384  21.4389633
  70.9088554  38.4778243  20.9795271  72.0879565  39.4218499  20.8774725
  68.1370290  33.8839321  27.9601729  67.3238156  34.1833492  28.3666921
  68.6329285  33.4895010  28.6776211  70.2878868  43.8797078  29.8935994
  70.2455047  44.1057924  28.9644526  71.2041567  43.6460453  30.0421795
  73.7344502  34.3481145  36.7916623  74.0893890  34.5752619  37.6511089
  74.3816633  34.6799522  36.1693878  79.4642239  37.4699581  27.4965952
  79.3260138  37.6601177  26.5687141  79.1078458  38.2318964  27.9534003
  67.6284365  31.4557677  33.5762964  68.2683745  31.3146436  32.8785927
  66.7961896  31.1692190  33.2001566  79.4911619  39.5376108  32.5077223
  79.9248125  39.4451397  33.3560277  80.2043199  39.5133609  31.8697239
  73.2239514  43.1378202  34.0410324  73.2776536  43.7069139  34.8088040
  72.3554295  43.3080088  33.6764361  64.7127433  34.9003189  25.7657709
  63.7825021  34.8387644  25.9827671  64.8084905  34.3779141  24.9694350
  64.6312982  31.4258002  28.3535951  64.8919799  32.3403335  28.2445111
  65.4530154  30.9582444  28.5032563  80.3527168  39.5799809  35.0410109
  80.5463058  40.4845620  35.2869384  80.2527786  39.1207228  35.8748694
  72.0063479  29.4657700  37.5400436  71.3591394  30.1647649  37.4464912
  72.7764494  29.8993844  37.9076684  75.4142277  39.7306552  40.6150989
  75.2627783  39.5017103  39.6981073  75.4046956  40.6877153  40.6282334
  71.5764097  46.4298225  24.7121330  71.7515853  45.9586269  25.5266953
  70.8896885  47.0563992  24.9402591  72.5321160  40.7070732  30.7584631
  72.1970993  40.6671502  31.6542281  72.0325106  40.0415448  30.2855041
  75.4680352  38.0526766  21.0321691  74.8509523  37.3273594  20.9354744
  74.9996840  38.8136126  20.6888765  77.1234484  42.7625674  38.6927471
  77.0647030  42.0784894  38.0258054  77.5254002  43.5044664  38.2408097
  67.2578898  32.2712190  20.1542995  66.3808364  32.1500991  19.7905242
  67.7336651  31.4798269  19.9021884  77.1251891  40.7265258  36.9241451
  76.2378670  40.3891180  37.0467850  77.6950442  39.9948289  37.1610216
  70.4442824  44.6238481  27.4005516  69.6610346  45.1660161  27.4943740
  71.1435569  45.1412460  27.7999757  73.7539474  30.4333110  30.0439721
  74.2508174  29.6803072  29.7240791  72.9826456  30.4697427  29.4782930
  81.6069231  36.1373476  31.6858013  81.5959108  37.0198191  31.3151946
  80.7386611  35.7845026  31.4912550  73.1151728  45.2853545  36.0460853
  73.8279700  45.9201009  35.9736754  72.6241756  45.3817411  35.2300855
  74.8369255  39.1904797  27.6178144  73.9025533  39.3106260  27.4482849
  75.0145923  38.2877264  27.3538154  70.3374443  32.5750493  29.7711406
  69.9672230  32.0221533  30.4592311  70.8333535  31.9708627  29.2186406
  78.2241806  35.0322117  28.1528179  78.6902258  35.8650108  28.0788481
  78.6749307  34.5667098  28.8573437  76.2918037  41.3765938  25.1514331
  76.5677881  41.2622532  26.0608205  75.4222536  40.9783423  25.1126504
  76.1958469  27.4002704  32.1919080  75.2821549  27.6306930  32.3601287
  76.6251570  27.4841148  33.0433112  75.9664927  35.5892596  34.6918974
  75.3136378  35.8368503  34.0371427  76.3445307  34.7756734  34.3581451
  72.9272101  45.6252289  28.7947144  73.1094496  44.8073945  29.2574897
  73.7505087  45.8419981  28.3572034  73.2614267  44.5520474  26.0562193
  73.7902033  44.0412928  25.4432355  73.5242486  44.2363004  26.9207726
  72.0152500  36.3312407  41.1785011  71.3393137  36.2306536  41.8487386
  72.8380134  36.1751620  41.6421008  65.7339776  29.9854484  36.0164512
  65.7981103  30.8469315  35.6041909  65.6706897  29.3728486  35.2836870
  75.6086158  42.4640592  41.2691281  76.1526062  43.0770550  40.7746236
  75.0273002  43.0220170  41.7858294  61.9857592  33.8654046  25.5955901
  62.2811033  32.9564724  25.5422954  61.0845627  33.8441785  25.2736903
  73.8943670  45.5861310  32.4006309  73.7694810  44.7851049  31.8917255
  74.5522762  46.0807503  31.9120279  65.5151839  31.9410042  31.5783449
  64.7938424  32.5546010  31.4390923  66.3045094  32.4767807  31.5000095
  75.9578579  43.3870330  34.0285859  75.0108914  43.2675681  33.9564186
  76.3061352  42.4992828  34.1112121  68.3178152  29.2764469  37.8524101
  68.8412554  29.5226765  38.6150410  68.0990486  30.1084503  37.4327238
  63.7145433  31.5468143  25.7195226  63.3858139  30.6665522  25.5370332
  64.0684804  31.4915812  26.6071615  72.9625012  43.1823046  30.2290211
  72.8149975  42.2539753  30.4097781  73.7878506  43.2043137  29.7447287
  66.8287256  31.8341113  26.0870704  67.1683329  32.3627034  25.3649312
  67.2759377  32.1721519  26.8629270  76.5659134  44.0051605  31.3155084
  77.4905681  43.7994466  31.1779535  76.3974437  43.7568006  32.2244426
  69.5230697  30.2178164  35.5373772  69.1827518  29.4185977  35.9394452
  68.8169704  30.5179875  34.9650605  70.1747169  27.3027476  33.9901095
  70.9973238  26.8287954  33.8679985  70.4185233  28.0817960  34.4899781
  68.8155404  30.3315735  24.2863996  69.5363766  30.7096987  23.7827713
  68.1920708  31.0504611  24.3898974  72.9586526  31.0360884  25.2222329
  73.1750141  31.9185521  24.9211157  72.4780594  30.6447097  24.4927971
  67.6985748  33.9946597  31.7993073  67.5530329  34.3086900  32.6917355
  67.2210951  34.6131497  31.2463972  69.5582131  30.9849145  31.8473963
  69.5443699  30.0890238  31.5106261  70.2754559  30.9919808  32.4812249
  71.4108261  31.4186485  33.8927090  71.1526039  32.3403556  33.8911421
  70.8793302  31.0216919  34.5827554  76.3554450  44.5237272  26.6717176
  76.5291328  43.9583695  25.9191028  76.8483341  45.3238167  26.4896666
  68.9619027  29.8663525  27.1161533  69.0834938  28.9380171  27.3152420
  68.6721069  29.8802211  26.2039848  71.8310217  27.5518435  30.2528253
  71.8531914  27.6157769  29.2980232  72.2478276  26.7122944  30.4468759
  82.2093841  37.2873695  28.2907475  82.6524987  36.5381020  27.8926599
  81.3320352  37.2783831  27.9081207  77.3429623  43.8404036  23.7714074
  78.0380527  44.4610729  23.9901389  77.6852773  42.9899388  24.0466452
  79.2421046  41.2903742  25.3001405  79.7672370  41.6291015  24.5750725
  79.1543398  40.3550757  25.1164539  70.9261707  47.3575725  29.6596658
  70.4866697  46.8652104  30.3529515  71.6769824  46.8148693  29.4188733
  78.9314952  41.9236646  40.6052603  78.1410496  41.9060784  40.0657102
  78.6948306  42.4624939  41.3601639  79.0512827  38.7729112  37.9185331
  79.1010832  38.6079119  38.8600854  78.9426750  37.9056371  37.5283212
  76.3416589  34.7560040  39.2344638  77.2426452  34.6166505  38.9428636
  76.4164564  34.9214495  40.1742815  70.6759395  32.1326895  38.0797824
  69.8062704  32.4260461  37.8080413  70.9118875  32.7167340  38.8005088
  80.5531024  41.1926054  38.1627353  80.2615832  41.5556034  38.9990814
  79.9403155  40.4793062  37.9840685  81.7526706  38.7578933  30.6829923
  82.5873597  39.1968737  30.8467483  81.8885835  38.2817587  29.8638169
  78.8018212  36.3158668  36.6307411  79.2772334  36.5086314  35.8226262
  77.8783777  36.3717854  36.3850794  73.3798428  28.3506512  35.5963245
  73.8980372  29.0867539  35.2709733  73.0253561  28.6570505  36.4310004
  64.9597366  33.2111193  23.7124650  64.2666611  33.2855548  23.0564686
  64.7149118  32.4471537  24.2346167  73.6311023  24.7706794  31.1164141
  73.9112776  24.1029983  31.7424568  74.4161630  24.9635890  30.6038805
  71.4344491  43.9465788  22.6789168  70.8618458  44.5655975  22.2259639
  72.0077285  44.4965150  23.2129089  77.5019881  33.1924428  34.8635716
  78.4537304  33.2922526  34.8847940  77.3323331  32.4002697  35.3733801
  75.5234260  30.2780011  35.0495117  74.9284193  30.5585024  34.3541606
  75.2383957  30.7673912  35.8211858  74.6541751  44.2302938  23.8097750
  75.5872424  44.1648500  24.0130625  74.5664964  45.0659205  23.3512282
  77.2829768  43.5468809  20.7701697  77.2043399  43.2128672  21.6637455
  78.1039434  44.0390577  20.7693170  79.9807959  36.4130548  33.9778016
  79.9484279  35.4746549  34.1637700  80.5908582  36.4914585  33.2443841
  71.8191290  35.2826601  20.0205220  72.7650394  35.1532809  20.0893638
  71.4405535  34.5441263  20.4974648  80.1302447  33.2041591  34.0236299
  79.6141496  32.4200048  33.8366228  81.0142396  32.8760308  34.1882819
  77.7913174  26.9482607  29.9832112  77.5937995  26.6397695  30.8675444
  78.4012880  27.6744246  30.1130042  85.7984509  37.4746555  33.1184053
  86.5287897  37.2131843  33.6791756  85.1891454  36.7375277  33.1586121
  83.8799806  35.6154417  33.7158504  83.1532969  35.4810382  33.1074996
  83.4647093  35.9231246  34.5215222  71.7029982  39.3344347  41.4805877
  72.6232992  39.5122946  41.6745924  71.6679565  38.3900392  41.3285576
  70.0034207  33.2076577  19.9560105  69.0965662  32.9109690  20.0322819
  70.2810188  32.9106395  19.0894391  71.6196273  27.7513467  26.1104347
  70.8097001  27.4060552  26.4859593  72.3080689  27.4421011  26.6991958
  73.5486821  26.8291514  27.7328643  74.1017859  27.2486967  28.3918666
  73.7856907  25.9027262  27.7751599  68.7732991  30.0663513  20.0972084
  69.6352155  30.3918411  20.3567902  68.9583336  29.2795008  19.5845150
  76.9265628  28.9392039  27.2407307  76.3464297  29.5976843  26.8585360
  76.6601561  28.1169384  26.8294725  75.3769194  28.3397097  29.4428628
  75.8768973  28.4513631  28.6342947  76.0204802  28.0358150  30.0829436
  75.7090506  31.0992129  26.2963656  74.8216361  31.3841780  26.0783850
  76.1244495  30.9385893  25.4490933  79.0605042  31.1238650  30.0117995
  79.8365432  31.6135103  30.2842612  78.3353176  31.5496705  30.4689864
  81.4977601  31.8366270  31.0691936  82.0922091  31.5962006  30.3585244
  81.5704184  31.1173400  31.6965472  74.8533719  40.8636804  20.3911676
  75.5569570  41.0686807  21.0069331  74.1296368  41.4313566  20.6560759
  75.6831530  36.6146665  26.5113946  75.6266731  37.0715217  25.6721578
  76.2359872  35.8537350  26.3336789  79.4936336  32.4036397  27.3364065
  79.2373270  32.0033033  28.1672273  78.8689204  33.1180191  27.2114205
  83.8048673  35.1432470  29.8435357  83.2448231  35.2125660  30.6166919
  83.1992177  34.9673455  29.1234853  76.7620417  41.3019333  22.4410136
  77.5966021  40.8700532  22.2587611  76.6004760  41.1301347  23.3687030
  76.4166309  37.8051447  23.8066475  76.3615113  37.6395718  22.8654919
  75.7912364  38.5127479  23.9628665  73.7312216  40.1100358  43.1320038
  74.6003376  40.2841011  42.7706673  73.2518968  40.9294775  43.0095767
  69.7262434  27.3059556  23.3851793  69.7141104  28.2501395  23.5420064
  70.6185856  27.1229701  23.0911255  67.8998396  47.2297459  34.8109471
  68.8025643  47.2621070  35.1275966  67.6735766  46.2997910  34.8255807
  69.6551998  45.9828446  31.4719550  68.7047629  45.9830308  31.3583922
  69.9584485  45.2361181  30.9555585  73.5414554  23.9002332  27.6397730
  72.7746950  23.3460819  27.7854413  73.9525259  23.9724201  28.5011882
  85.3904692  51.8188984  32.5365312  86.0283102  51.6995732  31.8328653
  85.2725535  52.7669828  32.5953265  82.1994398  51.7716412  32.4726837
  81.8612910  51.6557477  31.5847372  83.0684166  51.3707578  32.4527843
  78.0581214  53.6251889  28.4623728  77.4946079  53.5341826  27.6940016
  77.9433609  52.8051793  28.9426221  82.6814181  52.9251264  38.4313043
  82.6702822  52.5304062  37.5593546  82.8434821  52.1917337  39.0246814
  75.6045646  55.1203080  31.3007949  76.3966938  54.7793905  30.8854248
  75.8442296  55.2298056  32.2210102  83.6380773  57.2922857  23.7738193
  82.9868752  57.8776937  23.3872207  84.4325135  57.8229051  23.8333231
  77.5636400  54.3811994  24.1725327  78.3367276  53.8340981  24.0338203
  77.9161799  55.2456243  24.3839789  79.4021442  55.7088376  37.3792227
  79.1111308  56.6134007  37.2638893  80.0378427  55.7504904  38.0936296
  80.3277649  53.0865225  33.9693586  80.9241221  52.8621247  33.2550549
  80.3852621  52.3449970  34.5719034  79.9002678  50.5404660  21.8043777
  80.1528198  50.0186181  21.0427240  78.9627237  50.3770805  21.9070461
  84.9445960  49.5440438  29.6118521  85.7309050  49.1259861  29.2608938
  85.2084665  50.4486530  29.7800169  85.1156038  54.9813289  24.3107177
  84.4801871  55.0547915  25.0228082  84.7853444  55.5706887  23.6326257
  79.6198966  52.4432766  24.0068152  79.5035224  51.7677669  24.6749237
  79.7301226  51.9565140  23.1900305  81.9630507  51.9042913  27.7114842
  81.5988714  51.3773534  28.4227763  82.8197623  51.5141382  27.5381327
  87.8679808  43.1937246  34.9746108  87.5363133  44.0632656  34.7507323
  87.2725421  42.8773530  35.6540138  81.6035994  46.9332813  22.7076190
  81.7710397  47.8013049  23.0746661  81.4133163  47.0960094  21.7837479
  84.3611327  55.3949791  34.3742020  84.0612050  56.2974830  34.2657828
  84.0162387  55.1281975  35.2263173  77.8123809  51.8463588  30.4078725
  76.8874305  51.7139802  30.6156417  78.0608222  52.6257808  30.9048667
  87.7608471  47.9132332  32.0539458  86.8525349  47.8447740  31.7598219
  87.7096067  48.3904277  32.8821283  81.5825215  49.3890470  23.6922857
  81.4624840  49.8347521  24.5308337  80.8877803  49.7375788  23.1336395
  75.1732620  51.4896862  31.2422514  75.3025001  51.7431341  32.1561926
  74.4930071  52.0824570  30.9227169  79.3432107  62.1594112  27.3412988
  79.2656137  63.1101937  27.4201469  78.7393751  61.8139984  27.9987914
  81.8349337  49.3321977  39.9974355  81.0582671  49.8915897  39.9877220
  82.4739900  49.8178760  40.5189225  87.2810281  49.8611943  24.5203191
  88.1928137  50.0939330  24.3450888  86.7719928  50.4448987  23.9578269
  80.0895709  52.1407431  39.5592322  80.8310394  52.6792475  39.2827146
  79.3832695  52.7673719  39.7163874  85.5651049  54.2836571  38.1564483
  85.9734405  53.8418982  37.4119116  84.8428310  53.7089199  38.4098676
  81.9182119  49.2209178  35.5298040  82.7643314  49.6448591  35.6732689
  81.8580757  48.5642802  36.2236604  85.8879864  54.8437762  31.9116772
  85.2588726  55.0083476  31.2092840  85.5005526  55.2579371  32.6827736
  85.0681564  46.8813546  37.1879214  84.8242496  47.6355607  36.6513490
  85.3441495  47.2598894  38.0226461  87.0220027  53.4252159  35.8656480
  87.2336922  54.0683918  35.1890861  86.9749775  52.5914475  35.3978410
  84.6246256  46.0369979  32.7693052  83.7630735  46.3351233  33.0609789
  84.6508691  46.2540378  31.8374084  81.4407825  54.5812170  29.1766857
  81.9046171  54.8599873  28.3871480  81.1764624  53.6795614  28.9939948
  78.3331906  54.1283651  32.1146621  78.9033264  54.5570920  31.4764105
  78.9240018  53.8466236  32.8130806  80.3776711  50.7035322  25.9856423
  81.0800755  51.1556366  26.4530349  80.0457340  50.0619141  26.6136316
  78.8257073  49.2947079  40.3607632  78.1955734  49.9763360  40.5943029
  78.7193161  49.1830160  39.4160770  74.1202045  48.9618875  31.2873556
  73.3301099  49.2176403  30.8113667  74.6113293  49.7767213  31.3925597
  76.0716791  49.3263454  28.2457033  75.2747954  49.4382148  28.7640529
  75.8442383  49.6650106  27.3797923  81.9022458  55.8508157  36.1939547
  81.9666891  56.3128565  37.0297719  81.1933382  55.2205522  36.3221857
  72.4039748  49.2149365  33.7188547  72.6547787  50.0996375  33.9846123
  72.9399297  49.0353967  32.9463639  81.6170476  57.5176265  26.0618528
  81.4816151  58.3627801  26.4903376  82.1580289  57.7195542  25.2984462
  78.1037816  43.5967845  42.7232883  77.7104761  43.0434043  43.3980527
  78.9203956  43.9078423  43.1139401  75.0699873  55.0351703  26.6346453
  75.5824394  55.8294953  26.7852018  75.7222586  54.3377993  26.5680054
  76.8794758  58.1517459  28.7169206  77.0561387  59.0735424  28.5290190
  77.6751592  57.8375878  29.1463586  81.0205777  45.0125724  40.3153140
  81.7615490  45.6132877  40.2357602  81.2523700  44.2703362  39.7571182
  76.1647115  50.1982091  38.5931369  76.0500630  49.2967348  38.8938468
  75.3091632  50.4445788  38.2416186  83.2438952  58.1399831  40.1918870
  82.8002807  57.3536210  39.8739774  83.9056166  58.3278982  39.5262761
  78.0026074  59.6695633  34.7179548  78.5533499  59.5412696  33.9456542
  77.1637550  59.9690522  34.3674441  85.3420191  58.4202631  38.2200271
  85.3238666  59.2411512  37.7280540  86.2640111  58.2956706  38.4450412
  81.7993245  55.9346761  39.0623780  82.3321582  55.1735049  38.8323088
  81.2707326  55.6420413  39.8047934  84.9662940  41.0406827  34.5917421
  84.6227209  41.9308468  34.5156532  85.3341902  40.8508484  33.7287006
  73.0348790  53.3640357  27.4106023  73.8724012  53.7737366  27.1939731
  73.2127058  52.4239799  27.3806217  84.9313222  51.0315438  23.0989856
  84.4159846  51.8020042  23.3378244  84.6590531  50.3580574  23.7222918
  82.5160333  45.8765139  28.1575095  81.6601930  45.4871989  27.9780733
  82.9287285  45.9557099  27.2974880  84.0459480  43.4111482  32.5566655
  83.5424276  43.3741617  31.7434460  84.3390087  44.3204225  32.6163311
  80.2902366  43.4950212  31.5632836  81.1555363  43.2993020  31.2038726
  80.3579875  43.2660563  32.4902193  84.7199526  48.9042530  24.9249638
  84.4149661  49.2188679  25.7759781  85.6729968  48.9823950  24.9676971
  83.1645957  55.0632753  26.5742592  82.6367319  54.3285513  26.2615829
  82.6633460  55.8407430  26.3282560  77.8964685  45.7252419  28.9349203
  78.4708437  45.5027601  28.2022396  78.4835667  45.7941114  29.6877804
  86.9544262  51.6126146  29.7413580  87.4676144  52.2456138  30.2435289
  87.6045486  51.0127342  29.3756940  78.2234272  47.7556881  22.9545088
  77.3871584  48.0931567  23.2754363  78.0839042  47.6205860  22.0172225
  80.1987353  42.5993668  27.6624272  79.5451765  42.2842686  27.0380887
  80.1567827  41.9769409  28.3884095  81.3098558  52.8812963  19.5777565
  80.4025619  52.6502217  19.7768714  81.8069590  52.0850583  19.7651546
  84.2166636  61.5910471  22.4974251  83.5428335  61.8942167  23.1059209
  84.6032458  62.3939551  22.1479708  83.4325093  49.0875602  31.9871920
  82.5147654  49.3090549  31.8293608  83.8485237  49.1621912  31.1283627
  84.2160141  50.4867018  27.1174600  84.9631960  50.9988415  26.8081722
  84.4851730  50.1651070  27.9778994  82.4886791  52.9825558  24.1001555
  81.5798010  52.6984591  24.1974024  82.5181875  53.4024637  23.2404862
  87.7206058  56.5932148  27.8692722  87.2668386  55.7523058  27.9257913
  87.0900025  57.2293546  28.2067502  86.6638978  47.5224134  29.0993390
  85.9261735  47.0101520  29.4303632  86.9165752  47.0824515  28.2876667
  86.1638998  58.4308645  28.8042540  86.4561972  58.9913702  28.0854906
  86.6737618  58.7237206  29.5595699  86.7650605  40.3000386  29.6935159
  87.0709482  39.4397749  29.4061074  87.4903210  40.8918006  29.4934153
  73.0574961  50.7031072  28.0816757  72.8599361  50.1100433  27.3567823
  72.5021625  50.3983283  28.7992696  81.0371685  50.5954179  30.2011350
  81.0920295  49.6428015  30.1253827  80.2262887  50.7513618  30.6852648
  82.1862879  54.5234302  21.4389633  81.7482309  53.8070161  20.9795271
  82.9273320  54.7510417  20.8774725  78.9764045  49.2131239  27.9601729
  78.1631911  49.5125409  28.3666921  79.4723039  48.8186927  28.6776211
  81.1272623  59.2088996  29.8935994  81.0848802  59.4349842  28.9644526
  82.0435322  58.9752370  30.0421795  84.5738257  49.6773063  36.7916623
  84.9287644  49.9044536  37.6511089  85.2210388  50.0091440  36.1693878
  78.4678120  46.7849594  33.5762964  79.1077499  46.6438353  32.8785927
  77.6355650  46.4984108  33.2001566  79.2438424  56.0852025  29.6897956
  80.0379022  55.5902345  29.4880531  78.5330116  55.5569888  29.3265662
  84.0633268  58.4670120  34.0410324  84.1170290  59.0361056  34.8088040
  83.1948049  58.6372005  33.6764361  75.5521187  50.2295106  25.7657709
  74.6218775  50.1679562  25.9827671  75.6478659  49.7071059  24.9694350
  75.4706736  46.7549919  28.3535951  75.7313553  47.6695252  28.2445111
  76.2923908  46.2874362  28.5032563  76.9431662  48.1687676  35.5234775
  77.6154715  47.9605038  34.8747424  76.1161448  47.9709762  35.0840007
  82.8457234  44.7949617  37.5400436  82.1985149  45.4939567  37.4464912
  83.6158249  45.2285761  37.9076684  86.2536031  55.0598469  40.6150989
  86.1021538  54.8309021  39.6981073  86.2440711  56.0169071  40.6282334
  83.0221368  52.6330382  35.5997256  83.9513428  52.7841542  35.4266223
  82.6012398  52.7214403  34.7445902  81.8209700  56.6581047  33.3695793
  81.6820785  56.2899831  34.2421731  81.0324296  57.1728686  33.1979751
  82.4157852  61.7590143  24.7121330  82.5909607  61.2878186  25.5266953
  81.7290640  62.3855909  24.9402591  83.3714915  56.0362649  30.7584631
  83.0364747  55.9963419  31.6542281  82.8718860  55.3707365  30.2855041
  77.3459159  51.4430279  36.2837212  77.2078957  50.7110518  36.8848751
  78.2564082  51.3539179  36.0021400  86.3074106  53.3818684  21.0321691
  85.6903277  52.6565512  20.9354744  85.8390595  54.1428044  20.6888765
  79.9741459  51.1550239  35.7720892  80.6841078  50.5143431  35.7307510
  79.9310768  51.4063134  36.6947073  87.9628238  58.0917592  38.6927471
  87.9040784  57.4076812  38.0258054  88.3647756  58.8336582  38.2408097
  78.6870393  48.1415457  37.5916531  78.1507750  47.6906195  38.2438128
  78.0987102  48.2761365  36.8486996  76.9818937  64.9079506  31.4861190
  77.2215535  65.5398030  32.1640209  76.1388133  64.5567546  31.7726549
  78.0972652  47.6004108  20.1542995  77.2202119  47.4792909  19.7905242
  78.5730405  46.8090186  19.9021884  69.6174792  52.3881268  30.2484502
  70.3045832  52.0742998  29.6605518  69.4622921  53.2922632  29.9751754
  74.4209515  47.2771464  34.6769526  74.3367703  46.6697134  33.9419936
  73.5992221  47.7680483  34.6779022  81.4946799  60.7158628  33.8902694
  81.4216970  61.5213600  34.4021999  81.0524192  60.9150594  33.0650715
  81.2836578  59.9530398  27.4005516  80.5004100  60.4952078  27.4943740
  81.9829324  60.4704378  27.7999757  84.5933228  45.7625028  30.0439721
  85.0901928  45.0094990  29.7240791  83.8220210  45.7989344  29.4782930
  83.9545482  60.6145462  36.0460853  84.6673454  61.2492927  35.9736754
  83.4635511  60.7109328  35.2300855  85.6763009  54.5196715  27.6178144
  84.7419288  54.6398177  27.4482849  85.8539678  53.6169182  27.3538154
  81.1768197  47.9042411  29.7711406  80.8065985  47.3513451  30.4592311
  81.6727290  47.3000544  29.2186406  79.0057396  58.3639906  36.8666424
  79.7066855  58.9976389  37.0195818  78.5352511  58.7054637  36.1062063
  87.1311792  56.7057856  25.1514331  87.4071636  56.5914450  26.0608205
  86.2616290  56.3075340  25.1126504  87.0352223  42.7294621  32.1919080
  86.1215303  42.9598848  32.3601287  87.4645325  42.8133065  33.0433112
  86.8058682  50.9184513  34.6918974  86.1530132  51.1660421  34.0371427
  87.1839062  50.1048651  34.3581451  83.7665856  60.9544206  28.7947144
  83.9488250  60.1365862  29.2574897  84.5898842  61.1711899  28.3572034
  84.1008021  59.8812392  26.0562193  84.6295788  59.3704846  25.4432355
  84.3636241  59.5654922  26.9207726  82.8546255  51.6604324  41.1785011
  82.1786892  51.5598454  41.8487386  83.6773889  51.5043538  41.6421008
  74.6025114  57.8976261  33.7997526  75.1878551  57.1519949  33.9325430
  74.4049952  58.2080218  34.6834190  77.4563769  60.9327508  28.8159969
  76.7874144  61.4173636  28.3324009  77.3176639  61.1796729  29.7303347
  81.5969038  62.9671252  35.4142627  82.1487346  63.1302873  36.1791712
  81.9375231  63.5575690  34.7422652  76.5733531  45.3146402  36.0164512
  76.6374857  46.1761232  35.6041909  76.5100651  44.7020403  35.2836870
  76.0485803  47.3869534  39.6637546  76.6757842  47.0046611  40.2775070
  75.1913722  47.1683736  40.0293238  86.4479912  57.7932509  41.2691281
  86.9919816  58.4062468  40.7746236  85.8666757  58.3512088  41.7858294
  72.8251346  49.1945963  25.5955901  73.1204787  48.2856642  25.5422954
  71.9239382  49.1733703  25.2736903  84.7337425  60.9153227  32.4006309
  84.6088564  60.1142967  31.8917255  85.3916516  61.4099421  31.9120279
  86.7972333  58.7162247  34.0285859  85.8502669  58.5967599  33.9564186
  87.1455106  57.8284745  34.1112121  79.1571907  44.6056386  37.8524101
  79.6806309  44.8518683  38.6150410  78.9384240  45.4376421  37.4327238
  74.5539188  46.8760061  25.7195226  74.2251894  45.9957440  25.5370332
  74.9078558  46.8207730  26.6071615  83.8018767  58.5114964  30.2290211
  83.6543729  57.5831671  30.4097781  84.6272260  58.5335054  29.7447287
  77.6681011  47.1633031  26.0870704  78.0077083  47.6918952  25.3649312
  78.1153131  47.5013437  26.8629270  87.4052888  59.3343522  31.3155084
  88.3299436  59.1286384  31.1779535  87.2368192  59.0859923  32.2244426
  80.3624452  45.5470081  35.5373772  80.0221272  44.7477894  35.9394452
  79.6563458  45.8471792  34.9650605  81.0140924  42.6319394  33.9901095
  81.8366993  42.1579872  33.8679985  81.2578987  43.4109878  34.4899781
  79.6549158  45.6607652  24.2863996  80.3757521  46.0388905  23.7827713
  79.0314462  46.3796529  24.3898974  83.7980281  46.3652801  25.2222329
  84.0143895  47.2477439  24.9211157  83.3174348  45.9739015  24.4927971
  78.5379502  49.3238514  31.7993073  78.3924083  49.6378818  32.6917355
  78.0604706  49.9423415  31.2463972  80.3975885  46.3141062  31.8473963
  80.3837454  45.4182156  31.5106261  81.1148313  46.3211726  32.4812249
  82.2502016  46.7478403  33.8927090  81.9919794  47.6695473  33.8911421
  81.7187056  46.3508837  34.5827554  87.1948205  59.8529190  26.6717176
  87.3685082  59.2875612  25.9191028  87.6877096  60.6530085  26.4896666
  73.0125165  51.8643859  34.7380734  72.4678633  52.6403667  34.8701009
  73.8904514  52.2114663  34.5799856  79.8012781  45.1955443  27.1161533
  79.9228692  44.2672089  27.3152420  79.5114824  45.2094129  26.2039848
  82.6703972  42.8810353  30.2528253  82.6925668  42.9449686  29.2980232
  83.0872031  42.0414862  30.4468759  73.7991186  50.9913755  37.6310891
  73.0572922  51.1396390  38.2175522  73.4783931  51.2522021  36.7677641
  81.7434849  60.5329733  37.4291281  82.0521975  60.2878880  38.3013981
  82.5410331  60.7376372  36.9410152  81.7655461  62.6867643  29.6596658
  81.3260451  62.1944022  30.3529515  82.5163578  62.1440611  29.4188733
  74.2447800  58.8779184  29.6621286  75.0705820  58.5782956  29.2819930
  73.8941852  58.1086806  30.1111075  79.2129333  58.2305652  31.7318960
  78.5909342  57.5676357  31.4321187  79.8834200  58.2566784  31.0492607
  72.4456405  56.7965510  30.6210220  71.6088313  56.3687685  30.4394221
  72.4180051  56.9897954  31.5581011  79.2853861  46.7087440  41.3251466
  79.3342016  47.5849563  40.9429235  79.8276375  46.1664833  40.7523109
  78.7742840  56.7809575  25.2077420  78.9230960  57.4645040  24.5544093
  79.5809284  56.7614665  25.7226876  87.1810344  50.0851958  39.2344638
  88.0820207  49.9458423  38.9428636  87.2558318  50.2506413  40.1742815
  81.5153149  47.4618812  38.0797824  80.6456459  47.7552379  37.8080413
  81.7512630  48.0459257  38.8005088  76.5295473  52.8074753  26.2138489
  76.2841515  51.9037083  26.4118699  76.6991388  52.8091903  25.2717967
  84.2192183  43.6798429  35.5963245  84.7374127  44.4159456  35.2709733
  83.8647316  43.9862423  36.4310004  75.7991121  48.5403111  23.7124650
  75.1060366  48.6147466  23.0564686  75.5542873  47.7763454  24.2346167
  84.4704777  40.0998712  31.1164141  84.7506531  39.4321901  31.7424568
  85.2555384  40.2927808  30.6038805  82.2738246  59.2757706  22.6789168
  81.7012213  59.8947893  22.2259639  82.8471039  59.8257068  23.2129089
  86.3628015  45.6071929  35.0495117  85.7677947  45.8876942  34.3541606
  86.0777712  46.0965830  35.8211858  85.4935505  59.5594856  23.8097750
  86.4266179  59.4940418  24.0130625  85.4058718  60.3951123  23.3512282
  82.6585044  50.6118519  20.0205220  83.6044149  50.4824727  20.0893638
  82.2799289  49.8733180  20.4974648  82.5423737  54.6636265  41.4805877
  83.4626746  54.8414864  41.6745924  82.5073320  53.7192310  41.3285576
  80.8427961  48.5368495  19.9560105  79.9359417  48.2401608  20.0322819
  81.1203942  48.2398313  19.0894391  71.7605902  49.8574858  30.4059152
  71.4408686  49.0040167  30.1133526  71.2139330  50.0723437  31.1617119
  75.5385809  52.5737299  34.1228658  75.7571819  53.5054407  34.1416692
  75.9511583  52.2145274  34.9083462  82.4590027  43.0805385  26.1104347
  81.6490755  42.7352470  26.4859593  83.1474444  42.7712928  26.6991958
  84.3880575  42.1583432  27.7328643  84.9411614  42.5778885  28.3918666
  84.6250662  41.2319180  27.7751599  80.4113675  48.1470505  43.5131407
  80.3110401  49.0964862  43.4443498  80.1935217  47.8188744  42.6407477
  79.6126746  45.3955430  20.0972084  80.4745910  45.7210329  20.3567902
  79.7977090  44.6086926  19.5845150  71.6294162  53.4777770  32.3752273
  70.9357633  53.0631723  31.8622228  72.3767153  53.5198306  31.7785692
  87.7659382  44.2683957  27.2407307  87.1858051  44.9268761  26.8585360
  87.4995315  43.4461301  26.8294725  86.2162949  43.6689014  29.4428628
  86.7162727  43.7805549  28.6342947  86.8598557  43.3650067  30.0829436
  80.2744945  51.5767644  42.3296469  79.7912026  52.3768004  42.5360358
  80.3605884  51.5875589  41.3763913  73.5430904  53.4096024  30.2518288
  73.5201592  53.5083711  29.3000171  73.8531541  54.2561174  30.5735454
  76.2018282  55.4672179  34.3664903  77.1561536  55.4356121  34.2994834
  76.0030806  55.0062802  35.1815128  76.7917664  54.0373295  36.9335700
  77.6110553  54.5317373  36.9570537  77.0654472  53.1205263  36.9053268
  86.5484260  46.4284047  26.2963656  85.6610115  46.7133698  26.0783850
  86.9638249  46.2677810  25.4490933  74.5568511  61.0091798  31.3835100
  74.4222979  60.2492199  30.8173098  74.1400573  61.7332698  30.9163889
  85.6927474  56.1928722  20.3911676  86.3963324  56.3978724  21.0069331
  84.9690123  56.7605484  20.6560759  86.5225284  51.9438583  26.5113946
  86.4660486  52.4007134  25.6721578  87.0753627  51.1829268  26.3336789
  77.7137637  61.9061115  31.5953543  77.5970021  62.8506548  31.4932233
  76.8930083  61.6034677  31.9839342  87.6014171  56.6311251  22.4410136
  88.4359775  56.1992449  22.2587611  87.4398514  56.4593265  23.3687030
  87.2560063  53.1343364  23.8066475  87.2008867  52.9687636  22.8654919
  86.6306119  53.8419397  23.9628665  84.5705971  55.4392276  43.1320038
  85.4397130  55.6132928  42.7706673  84.0912722  56.2586693  43.0095767
  80.5656189  42.6351473  23.3851793  80.5534859  43.5793313  23.5420064
  81.4579611  42.4521619  23.0911255  78.7392151  62.5589377  34.8109471
  79.6419398  62.5912987  35.1275966  78.5129521  61.6289828  34.8255807
  80.4945753  61.3120364  31.4719550  79.5441384  61.3122225  31.3583922
  80.7978239  60.5653098  30.9555585  84.3808308  39.2294250  27.6397730
  83.6140704  38.6752737  27.7854413  84.7919013  39.3016119  28.5011882
  76.3850069  45.5179046  41.7302911  77.2481531  45.1615851  41.9406236
  75.8115480  45.1792940  42.4178316  86.4439400  70.4494998  31.3007949
  87.2360692  70.1085823  30.8854248  86.6836050  70.5589973  32.2210102
  86.0126374  66.8188780  31.2422514  86.1418756  67.0723258  32.1561926
  85.3323826  67.4116488  30.9227169  84.9595800  64.2910793  31.2873556
  84.1694854  64.5468321  30.8113667  85.4507047  65.1059130  31.3925597
  86.9110545  64.6555372  28.2457033  86.1141709  64.7674066  28.7640529
  86.6836138  64.9942024  27.3797923  83.2433503  64.5441283  33.7188547
  83.4941541  65.4288293  33.9846123  83.7793051  64.3645884  32.9463639
  85.9093628  70.3643621  26.6346453  86.4218149  71.1586871  26.7852018
  86.5616341  69.6669911  26.5680054  87.0040869  65.5274009  38.5931369
  86.8894384  64.6259266  38.8938468  86.1485387  65.7737705  38.2416186
  83.8742545  68.6932275  27.4106023  84.7117767  69.1029283  27.1939731
  84.0520812  67.7531717  27.3806217  83.8968716  66.0322990  28.0816757
  83.6993116  65.4392351  27.3567823  83.3415380  65.7275200  28.7992696
  86.3914942  65.5587024  25.7657709  85.4612530  65.4971480  25.9827671
  86.4872414  65.0362977  24.9694350  86.3100491  62.0841837  28.3535951
  86.5707308  62.9987170  28.2445111  87.1317663  61.6166279  28.5032563
  87.7825416  63.4979594  35.5234775  88.4548469  63.2896956  34.8747424
  86.9555203  63.3001680  35.0840007  80.4568547  67.7173185  30.2484502
  81.1439587  67.4034915  29.6605518  80.3016676  68.6214550  29.9751754
  85.2603269  62.6063382  34.6769526  85.1761458  61.9989051  33.9419936
  84.4385976  63.0972400  34.6779022  85.4418868  73.2268178  33.7997526
  86.0272305  72.4811866  33.9325430  85.2443707  73.5372135  34.6834190
  80.0336523  65.7973779  32.5201969  80.0720623  65.2637369  33.3139087
  79.5276816  65.2708984  31.9012947  87.4127285  60.6438319  36.0164512
  87.4768612  61.5053150  35.6041909  87.3494406  60.0312321  35.2836870
  86.8879558  62.7161452  39.6637546  87.5151597  62.3338529  40.2775070
  86.0307477  62.4975654  40.0293238  83.6645101  64.5237881  25.5955901
  83.9598542  63.6148559  25.5422954  82.7633136  64.5025620  25.2736903
  87.1939348  62.5993877  31.5783449  86.4725933  63.2129845  31.4390923
  87.9832603  63.1351642  31.5000095  85.3932942  62.2051979  25.7195226
  85.0645648  61.3249357  25.5370332  85.7472313  62.1499647  26.6071615
  83.8518919  67.1935777  34.7380734  83.3072387  67.9695584  34.8701009
  84.7298269  67.5406581  34.5799856  84.6384941  66.3205673  37.6310891
  83.8966677  66.4688308  38.2175522  84.3177685  66.5813938  36.7677641
  85.0841555  74.2071101  29.6621286  85.9099574  73.9074873  29.2819930
  84.7335607  73.4378724  30.1111075  83.2850160  72.1257428  30.6210220
  82.4482068  71.6979602  30.4394221  83.2573805  72.3189871  31.5581011
  87.3689228  68.1366671  26.2138489  87.1235270  67.2329001  26.4118699
  87.5385142  68.1383821  25.2717967  86.6384875  63.8695028  23.7124650
  85.9454120  63.9439383  23.0564686  86.3936627  63.1055372  24.2346167
  82.5999656  65.1866776  30.4059152  82.2802441  64.3332084  30.1133526
  82.0533084  65.4015354  31.1617119  86.3779564  67.9029217  34.1228658
  86.5965573  68.8346325  34.1416692  86.7905338  67.5437191  34.9083462
  82.4687916  68.8069688  32.3752273  81.7751388  68.3923640  31.8622228
  83.2160907  68.8490224  31.7785692  84.3824659  68.7387941  30.2518288
  84.3595347  68.8375629  29.3000171  84.6925295  69.5853092  30.5735454
  87.0412037  70.7964096  34.3664903  87.9955290  70.7648039  34.2994834
  86.8424560  70.3354720  35.1815128  87.6311419  69.3665212  36.9335700
  88.4504308  69.8609291  36.9570537  87.9048226  68.4497181  36.9053268
  85.3962265  76.3383716  31.3835100  85.2616733  75.5784117  30.8173098
  84.9794328  77.0624616  30.9163889  82.8846333  63.7003346  37.6327897
  83.5305197  63.1902300  38.1215122  82.6763484  64.4372028  38.2071323
  87.2243824  60.8470963  41.7302911  88.0875286  60.4907768  41.9406236
  86.6509235  60.5084858  42.4178316  57.6644599   8.5072399  14.0658295
  57.5868629   9.4580224  14.1446775  57.0606243   8.1618272  14.7233221
  59.9382968   3.8654552  12.7863834  59.8028643   4.7106088  13.2148682
  60.4792781   4.0673830  12.0229768  55.2007250   4.4995746  15.4414513
  55.3773879   5.4213711  15.2535497  55.9964084   4.1854166  15.8708892
  61.5651445   4.4878119  26.9164177  61.1215299   3.7014497  26.5985081
  62.2268658   4.6757269  26.2508067  56.3238566   6.0173920  21.4424855
  56.8745991   5.8890984  20.6701849  55.4850042   6.3168809  21.0919748
  62.5379129   7.9388758   9.2219557  61.8640828   8.2420455   9.8304515
  62.9244951   8.7417838   8.8725014  64.4851490   4.7786932  15.5287847
  64.7774464   5.3391989  14.8100213  64.9950111   5.0715493  16.2841006
  59.4485115   5.5567283  16.6181300  59.4061294   5.7828129  15.6889832
  60.3647814   5.3230657  16.7667101  62.3845760   4.8148407  20.7655631
  62.4382783   5.3839344  21.5333346  61.5160542   4.9850292  20.4009668
  60.7370344   8.1068430  11.4366637  60.9122100   7.6356474  12.2512259
  60.0503132   8.7334197  11.6647897  55.3031429  11.2557793  18.2106497
  55.5428027  11.8876317  18.8885515  54.4600626  10.9045833  18.4971856
  59.8159291   7.0636916  20.6148001  59.7429463   7.8691887  21.1267305
  59.3736684   7.2628881  19.7896022  59.6049071   6.3008686  14.1250822
  58.8216593   6.8430366  14.2189047  60.3041816   6.8182665  14.5245063
  62.2757975   6.9623750  22.7706159  62.9885947   7.5971214  22.6982061
  61.7848003   7.0587616  21.9546161  57.3269888   4.7118193  23.5911730
  58.0279348   5.3454676  23.7441124  56.8565003   5.0532925  22.8307369
  62.0878348   7.3022494  15.5192451  62.2700742   6.4844150  15.9820203
  62.9111334   7.5190186  15.0817341  62.4220513   6.2290679  12.7807499
  62.9508280   5.7183133  12.1677661  62.6848733   5.9133209  13.6453032
  52.9237606   4.2454548  20.5242833  53.5091043   3.4998236  20.6570737
  52.7262445   4.5558505  21.4079497  55.7776261   7.2805795  15.5405275
  55.1086637   7.7651923  15.0569315  55.6389131   7.5275016  16.4548654
  59.9181530   9.3149539  22.1387934  60.4699838   9.4781160  22.9037019
  60.2587723   9.9053977  21.4667958  63.0549917   7.2631515  19.1251616
  62.9301057   6.4621254  18.6162561  63.7129008   7.7577708  18.6365586
  62.1231259   4.8593251  16.9535518  61.9756221   3.9309958  17.1343088
  62.9484752   4.8813342  16.4692593  65.7265381   5.6821810  18.0400391
  66.6511928   5.4764671  17.9024842  65.5580684   5.4338211  18.9489732
  65.5160697   6.2007477  13.3962482  65.6897575   5.6353899  12.6436335
  66.0089588   7.0008372  13.2141972  60.0647341   6.8808021  24.1536588
  60.3734468   6.6357167  25.0259288  60.8622823   7.0854659  23.6655458
  60.0867953   9.0345930  16.3841965  59.6472944   8.5422309  17.0774821
  60.8376070   8.4918898  16.1434040  52.5660292   5.2257471  16.3866593
  53.3918312   4.9261243  16.0065236  52.2154344   4.4565093  16.8356381
  57.5341825   4.5783939  18.4564266  56.9121835   3.9154644  18.1566494
  58.2046692   4.6045071  17.7737914  50.7668897   3.1443798  17.3455526
  49.9300806   2.7165972  17.1639527  50.7392543   3.3376241  18.2826317
  57.0955332   3.1287863  11.9322727  57.2443453   3.8123327  11.2789399
  57.9021776   3.1092953  12.4472182  60.5950738   5.6235993   9.4034474
  60.0224705   6.2426180   8.9504946  61.1683532   6.1735355   9.9374396
  49.9506654  -0.1743943  19.0997580  49.2570125  -0.5889990  18.5867534
  50.6979645  -0.1323406  18.5030999  54.5230774   1.8150466  21.0910209
  55.4774028   1.7834408  21.0240141  54.3243298   1.3541090  21.9060435
  52.8781003   7.3570085  18.1080407  52.7435471   6.5970486  17.5418405
  52.4613065   8.0810985  17.6409196  56.0350129   8.2539402  18.3198850
  55.9182513   9.1984835  18.2177540  55.2142575   7.9512964  18.7084649
  57.0604643   8.9067664  21.5354778  57.9631890   8.9391275  21.8521273
  56.8342013   7.9768115  21.5501114  58.8158245   7.6598651  18.1964857
  57.8653876   7.6600512  18.0829229  59.1190731   6.9131385  17.6800891
  74.5510939  13.4959189  19.2610619  75.1889349  13.3765937  18.5573959
  74.4331782  14.4440033  19.3198571  71.3600645  13.4486617  19.1972144
  71.0219156  13.3327682  18.3092679  72.2290413  13.0477782  19.1773150
  67.2187461  15.3022094  15.1869035  66.6552326  15.2112031  14.4185323
  67.1039856  14.4821998  15.6671527  71.8420428  14.6021469  25.1558349
  71.8309069  14.2074267  24.2838853  72.0041067  13.8687542  25.7492121
  64.7651893  16.7973285  18.0253255  65.5573184  16.4564110  17.6099555
  65.0048543  16.9068260  18.9455409  66.7242646  16.0582199  10.8970634
  67.4973523  15.5111186  10.7583510  67.0768045  16.9226448  11.1085095
  68.5627689  17.3858581  24.1037533  68.2717555  18.2904212  23.9884200
  69.1984673  17.4275109  24.8181603  69.4883896  14.7635429  20.6938893
  70.0847468  14.5391452  19.9795856  69.5458867  14.0220175  21.2964341
  71.1236754  13.5813118  14.4360148  70.7594961  13.0543739  15.1473070
  71.9803870  13.1911587  14.2626634  73.5217574  17.0719996  21.0987327
  73.2218297  17.9745035  20.9903134  73.1768634  16.8052180  21.9508480
  66.9730056  13.5233793  17.1324031  66.0480552  13.3910007  17.3401723
  67.2214469  14.3028012  17.6293974  64.3338867  13.1667067  17.9667821
  64.4631248  13.4201546  18.8807232  63.6536318  13.7594775  17.6472476
  68.5038354  23.8364317  14.0658295  68.4262384  24.7872142  14.1446775
  67.8999998  23.4910189  14.7233221  70.9955584  11.0092182  26.7219662
  70.2188918  11.5686102  26.7122526  71.6346147  11.4948965  27.2434532
  69.2501956  13.8177636  26.2837629  69.9916640  14.3562680  26.0072452
  68.5438941  14.4443924  26.4409180  74.7257296  15.9606776  24.8809790
  75.1340652  15.5189187  24.1364422  74.0034557  15.3859404  25.1343983
  71.0788366  10.8979383  22.2543347  71.9249561  11.3218796  22.3977996
  71.0187003  10.2413007  22.9481910  75.0486110  16.5207967  18.6362079
  74.4194973  16.6853681  17.9338147  74.6611772  16.9349576  19.4073043
  74.2287811   8.5583751  23.9124521  73.9848743   9.3125812  23.3758796
  74.5047742   8.9369099  24.7471768  76.1826274  15.1022364  22.5901786
  76.3943169  15.7454123  21.9136167  76.1356022  14.2684680  22.1223716
  70.6014072  16.2582375  15.9012164  71.0652418  16.5370078  15.1116787
  70.3370870  15.3565819  15.7185255  67.4938153  15.8053856  18.8391927
  68.0639510  16.2341125  18.2009412  68.0846265  15.5236441  19.5376113
  69.5382958  12.3805527  12.7101729  70.2407002  12.8326571  13.1775656
  69.2063587  11.7389346  13.3381622  67.9863320  10.9717284  27.0852939
  67.3561980  11.6533565  27.3188335  67.8799408  10.8600365  26.1406077
  63.2808292  10.6389080  18.0118863  62.4907346  10.8946608  17.5358973
  63.7719540  11.4537418  18.1170903  77.2972102  17.9794319  20.7624144
  78.1189545  17.5774506  20.4806825  77.2934505  17.8762553  21.7140259
  65.2323038  11.0033659  14.9702339  64.4354201  11.1152353  15.4885835
  65.0048630  11.3420311  14.1043230  71.0628705  17.5278362  22.9184854
  71.1273138  17.9898769  23.7543026  70.3539629  16.8975727  23.0467164
  61.5645995  10.8919570  20.4433854  61.8154034  11.7766580  20.7091430
  62.1005544  10.7124172  19.6708945  70.7776723  19.1946470  12.7863834
  70.6422398  20.0398005  13.2148682  71.3186535  19.3965747  12.0229768
  64.2306120  16.7121908  13.3591760  64.7430641  17.5065158  13.5097324
  64.8828833  16.0148198  13.2925361  66.0401005  19.8287664  15.4414513
  66.2167633  20.7505629  15.2535497  66.8357838  19.5146083  15.8708892
  65.3253362  11.8752296  25.3176676  65.2106877  10.9737553  25.6183775
  64.4697879  12.1215993  24.9661492  72.4045199  19.8170036  26.9164177
  71.9609053  19.0306415  26.5985081  73.0662413  20.0049187  26.2508067
  67.1632320  21.3465838  21.4424855  67.7139746  21.2182901  20.6701849
  66.3243796  21.6460727  21.0919748  74.5026437  20.0972836  24.9445578
  74.4844913  20.9181717  24.4525847  75.4246357  19.9726911  25.1695719
  70.9599491  17.6116966  25.7869086  71.4927828  16.8505254  25.5568394
  70.4313573  17.3190617  26.5293241  62.1955037  15.0410562  14.1351330
  63.0330259  15.4507570  13.9185038  62.3733305  14.1010004  14.1051524
  72.3252204  16.7402958  13.2987898  71.7973566  16.0055718  12.9861136
  71.8239707  17.5177634  13.0527867  77.3045050  14.9351979  18.4154944
  76.6468725  15.6251240  18.5035073  78.1085449  15.3248411  18.7588931
  67.0570932   7.4022624  15.6594510  67.6314684   7.1797806  14.9267703
  67.6441914   7.4711319  16.4123111  73.3772883  23.2680676   9.2219557
  72.7034582  23.5712372   9.8304515  73.7638705  24.0709756   8.8725014
  72.5931340  10.7645807  18.7117227  71.6753901  10.9860754  18.5538915
  73.0091483  10.8392117  17.8528934  76.8812305  18.2702353  14.5938029
  76.4274632  17.4293263  14.6503219  76.2506272  18.9063751  14.9312809
  75.3245244  20.1078849  15.5287847  75.6168219  20.6683907  14.8100213
  75.8343865  20.4007410  16.2841006  62.2181208  12.3801277  14.8062064
  62.0205608  11.7870638  14.0813130  61.6627872  12.0753488  15.5238002
  70.1977932  12.2724384  16.9256657  70.2526542  11.3198220  16.8499133
  69.3869134  12.4283823  17.4097955  68.1370292  10.8901444  14.6847036
  67.3238157  11.1895614  15.0912228  68.6329286  10.4957132  15.4021518
  70.2878870  20.8859201  16.6181300  70.2455048  21.1120047  15.6889832
  71.2041569  20.6522575  16.7667101  73.7344503  11.3543268  23.5161929
  74.0893891  11.5814741  24.3756395  74.3816635  11.6861645  22.8939185
  67.6284367   8.4619799  20.3008270  68.2683746   8.3208558  19.6031234
  66.7961897   8.1754313  19.9246872  79.4911620  16.5438231  19.2322530
  79.9248127  16.4513520  20.0805584  80.2043201  16.5195731  18.5942546
  68.4044670  17.7622230  16.4143263  69.1985269  17.2672550  16.2125838
  67.6936363  17.2340093  16.0510968  73.2239515  20.1440325  20.7655631
  73.2776537  20.7131261  21.5333346  72.3554296  20.3142210  20.4009668
  64.7127434  11.9065311  12.4903016  63.7825022  11.8449767  12.7072978
  64.8084906  11.3841264  11.6939657  64.6312983   8.4320124  15.0781257
  64.8919800   9.3465457  14.9690418  65.4530155   7.9644567  15.2277870
  66.1037908   9.8457881  22.2480082  66.7760962   9.6375243  21.5992731
  65.2767695   9.6479967  21.8085314  80.3527170  16.5861932  21.7655415
  80.5463060  17.4907742  22.0114690  80.2527788  16.1269351  22.5994000
  75.4142278  16.7368674  27.3396296  75.2627785  16.5079226  26.4226380
  75.4046958  17.6939276  27.3527641  72.1827615  14.3100587  22.3242562
  73.1119675  14.4611747  22.1511530  71.7618645  14.3984608  21.4691209
  70.9815946  18.3351252  20.0941100  70.8427032  17.9670036  20.9667038
  70.1930543  18.8498891  19.9225058  71.5764098  23.4360348  11.4366637
  71.7515854  22.9648391  12.2512259  70.8896886  24.0626114  11.6647897
  72.5321162  17.7132854  17.4829938  72.1970994  17.6733624  18.3787588
  72.0325107  17.0477570  17.0100348  66.5065406  13.1200484  23.0082519
  66.3685203  12.3880723  23.6094058  67.4170329  13.0309384  22.7266707
  69.1347706  12.8320444  22.4966199  69.8447325  12.1913636  22.4552817
  69.0917014  13.0833338  23.4192379  77.1234485  19.7687797  25.4172778
  77.0647031  19.0847017  24.7503361  77.5254003  20.5106787  24.9653404
  67.8476640   9.8185661  24.3161838  67.3113997   9.3676400  24.9683434
  67.2593349   9.9531570  23.5732302  66.1425184  26.5849711  18.2106497
  66.3821782  27.2168235  18.8885515  65.2994380  26.2337751  18.4971856
  77.1251892  17.7327381  23.6486757  76.2378671  17.3953303  23.7713156
  77.6950443  17.0010412  23.8855523  58.7781039  14.0651473  16.9729809
  59.4652079  13.7513203  16.3850824  58.6229168  14.9692837  16.6997060
  63.5815761   8.9541669  21.4014833  63.4973950   8.3467339  20.6665243
  62.7598468   9.4450687  21.4024329  70.6553046  22.3928833  20.6148001
  70.5823217  23.1983805  21.1267305  70.2130439  22.5920799  19.7896022
  70.4442825  21.6300603  14.1250822  69.6610347  22.1722283  14.2189047
  71.1435570  22.1474583  14.5245063  73.1151729  22.2915667  22.7706159
  73.8279701  22.9263132  22.6982061  72.6241758  22.3879533  21.9546161
  70.3374444   9.5812616  16.4956712  69.9672232   9.0283656  17.1837618
  70.8333536   8.9770749  15.9431712  68.1663643  20.0410111  23.5911730
  68.8673102  20.6746594  23.7441124  67.6958758  20.3824842  22.8307369
  75.9664929  12.5954718  21.4164281  75.3136379  12.8430626  20.7616733
  76.3445308  11.7818856  21.0826758  72.9272102  22.6314411  15.5192451
  73.1094497  21.8136067  15.9820203  73.7505088  22.8482104  15.0817341
  73.2614268  21.5582596  12.7807499  73.7902034  21.0475051  12.1677661
  73.5242488  21.2425127  13.6453032  72.0152502  13.3374529  27.9030318
  71.3393139  13.2368659  28.5732693  72.8380135  13.1813743  28.3666315
  63.7631361  19.5746466  20.5242833  64.3484797  18.8290154  20.6570737
  63.5656199  19.8850422  21.4079497  66.6170016  22.6097713  15.5405275
  65.9480391  23.0943841  15.0569315  66.4782886  22.8566934  16.4548654
  58.3549015  12.1452066  19.2447276  58.3933115  11.6115657  20.0384394
  57.8489308  11.6187271  18.6258253  70.7575284  24.6441457  22.1387934
  71.3093592  24.8073078  22.9037019  71.0981478  25.2345894  21.4667958
  65.7339778   6.9916606  22.7409818  65.7981104   7.8531437  22.3287216
  65.6706898   6.3790608  22.0082177  65.2092050   9.0639739  26.3882853
  65.8364089   8.6816816  27.0020377  64.3519969   8.8453941  26.7538545
  75.6086159  19.4702714  27.9936588  76.1526063  20.0832672  27.4991543
  75.0273004  20.0282293  28.5103601  61.9857593  10.8716168  12.3201207
  62.2811034   9.9626847  12.2668261  61.0845629  10.8503908  11.9982210
  73.8943672  22.5923432  19.1251616  73.7694811  21.7913172  18.6162561
  74.5522763  23.0869626  18.6365586  65.5151840   8.9472165  18.3028756
  64.7938426   9.5608132  18.1636229  66.3045096   9.4829930  18.2245402
  75.9578580  20.3932452  20.7531166  75.0108916  20.2737803  20.6809493
  76.3061353  19.5054950  20.8357427  68.3178153   6.2826591  24.5769408
  68.8412555   6.5288888  25.3395717  68.0990487   7.1146626  24.1572545
  63.7145435   8.5530266  12.4440533  63.3858141   7.6727645  12.2615638
  64.0684805   8.4977934  13.3316922  72.9625013  20.1885168  16.9535518
  72.8149976  19.2601876  17.1343088  73.7878507  20.2105259  16.4692593
  66.8287258   8.8403236  12.8116010  67.1683330   9.3689157  12.0894619
  67.2759378   9.1783642  13.5874577  76.5659135  21.0113727  18.0400391
  77.4905683  20.8056589  17.9024842  76.3974439  20.7630128  18.9489732
  69.5230699   7.2240286  22.2619078  69.1827519   6.4248099  22.6639758
  68.8169705   7.5241997  21.6895911  67.6985749  11.0008719  18.5238380
  67.5530330  11.3149022  19.4162661  67.2210953  11.6193620  17.9709279
  69.5582132   7.9911267  18.5719269  69.5443701   7.0952361  18.2351567
  70.2754560   7.9981931  19.2057556  71.4108263   8.4248608  20.6172397
  71.1526041   9.3465678  20.6156727  70.8793303   8.0279042  21.3072861
  76.3554451  21.5299395  13.3962482  76.5291329  20.9645817  12.6436335
  76.8483343  22.3300290  13.2141972  62.1731411  13.5414064  21.4626041
  61.6284879  14.3173872  21.5946315  63.0510761  13.8884868  21.3045163
  62.9597433  12.6683960  24.3556198  62.2179169  12.8166595  24.9420828
  62.6390177  12.9292226  23.4922947  70.9041096  22.2099938  24.1536588
  71.2128222  21.9649085  25.0259288  71.7016578  22.4146577  23.6655458
  70.9261708  24.3637848  16.3841965  70.4866698  23.8714227  17.0774821
  71.6769825  23.8210816  16.1434040  63.4054047  20.5549389  16.3866593
  64.2312067  20.2553161  16.0065236  63.0548099  19.7857011  16.8356381
  68.3735580  19.9075857  18.4564266  67.7515589  19.2446562  18.1566494
  69.0440447  19.9336989  17.7737914  61.6062652  18.4735715  17.3455526
  60.7694560  18.0457890  17.1639527  61.5786297  18.6668159  18.2826317
  68.4460107   8.3857645  28.0496772  68.4948263   9.2619768  27.6674542
  68.9882622   7.8435038  27.4768415  78.9314953  18.9298768  27.3297909
  78.1410497  18.9122907  26.7902409  78.6948308  19.4687062  28.0846946
  79.0512828  15.7791235  24.6430638  79.1010833  15.6141242  25.5846161
  78.9426752  14.9118494  24.2528519  67.9349087  18.4579780  11.9322727
  68.0837207  19.1415245  11.2789399  68.7415530  18.4384870  12.4472182
  76.3416591  11.7622163  25.9589945  77.2426453  11.6228627  25.6673942
  76.4164565  11.9276617  26.8988122  70.6759396   9.1389017  24.8043131
  69.8062705   9.4322583  24.5325719  70.9118876   9.7229462  25.5250395
  80.5531025  18.1988176  24.8872659  80.2615833  18.5618157  25.7236120
  79.9403156  17.4855184  24.7085991  78.8018213  13.3220791  23.3552717
  79.2772335  13.5148437  22.5471569  77.8783779  13.3779977  23.1096101
  65.6901720  14.4844958  12.9383796  65.4447762  13.5807288  13.1364006
  65.8597634  14.4862108  11.9963274  64.9597367  10.2173316  10.4369957
  64.2666612  10.2917671   9.7809993  64.7149119   9.4533659  10.9591474
  71.4344492  20.9527911   9.4034474  70.8618459  21.5718098   8.9504946
  72.0077286  21.5027272   9.9374396  77.5019882  10.1986551  21.5881023
  78.4537305  10.2984649  21.6093247  77.3323333   9.4064819  22.0979107
  79.9807960  13.4192671  20.7023323  79.9484280  12.4808671  20.8883006
  80.5908584  13.4976707  19.9689147  71.7029983  16.3406470  28.2051184
  72.6232993  16.5185069  28.3991230  71.6679566  15.3962515  28.0530883
  60.9212148  11.5345063  17.1304458  60.6014933  10.6810372  16.8378832
  60.3745577  11.7493641  17.8862426  64.6992056  14.2507504  20.8473965
  64.9178066  15.1824612  20.8661999  65.1117830  13.8915479  21.6328769
  69.5719921   9.8240710  30.2376714  69.4716648  10.7735067  30.1688805
  69.3541463   9.4958949  29.3652784  60.7900408  15.1547975  19.0997580
  60.0963880  14.7401928  18.5867534  61.5373399  15.1968511  18.5030999
  69.4351191  13.2537849  29.0541775  68.9518273  14.0538209  29.2605664
  69.5212130  13.2645794  28.1009219  62.7037151  15.0866229  16.9763595
  62.6807839  15.1853916  16.0245478  63.0137787  15.9331379  17.2980761
  65.3624529  17.1442384  21.0910209  66.3167782  17.1126326  21.0240141
  65.1637052  16.6833007  21.9060435  65.9523911  15.7143500  23.6581007
  66.7716800  16.2087578  23.6815844  66.2260719  14.7975468  23.6298574
  63.7174758  22.6862003  18.1080407  63.5829226  21.9262404  17.5418405
  63.3006820  23.4102903  17.6409196  66.8743884  23.5831320  18.3198850
  66.7576268  24.5276753  18.2177540  66.0536330  23.2804882  18.7084649
  61.2058825  10.0481634  24.3573204  61.8517689   9.5380587  24.8460429
  60.9975976  10.7850315  24.9316629  73.7312217  17.1162481  29.8565344
  74.6003377  17.2903133  29.4951979  73.2518969  17.9356898  29.7341074
  67.8998398  24.2359582  21.5354778  68.8025644  24.2683192  21.8521273
  67.6735768  23.3060033  21.5501114  69.6552000  22.9890569  18.1964857
  68.7047631  22.9892430  18.0829229  69.9584486  22.2423303  17.6800891
  65.5456316   7.1949251  28.4548218  66.4087778   6.8386055  28.6651543
  64.9721727   6.8563145  29.1423622  85.3904693  28.8251107  19.2610619
  86.0283103  28.7057854  18.5573959  85.2725536  29.7731951  19.3198571
  82.1994399  28.7778535  19.1972144  81.8612911  28.6619600  18.3092679
  83.0684168  28.3769700  19.1773150  78.0581215  30.6314011  15.1869035
  77.4946080  30.5403948  14.4185323  77.9433610  29.8113916  15.6671527
  82.6814182  29.9313387  25.1558349  82.6702823  29.5366185  24.2838853
  82.8434822  29.1979459  25.7492121  75.6045647  32.1265203  18.0253255
  76.3966939  31.7856028  17.6099555  75.8442297  32.2360178  18.9455409
  77.5636401  31.3874116  10.8970634  78.3367277  30.8403103  10.7583510
  77.9161800  32.2518366  11.1085095  79.4021444  32.7150499  24.1037533
  79.1111310  33.6196129  23.9884200  80.0378428  32.7567026  24.8181603
  80.3277650  30.0927347  20.6938893  80.9241223  29.8683369  19.9795856
  80.3852622  29.3512093  21.2964341  81.9630508  28.9105035  14.4360148
  81.5988716  28.3835656  15.1473070  82.8197624  28.5203505  14.2626634
  84.3611329  32.4011914  21.0987327  84.0612052  33.3036953  20.9903134
  84.0162388  32.1344097  21.9508480  77.8123810  28.8525711  17.1324031
  76.8874307  28.7201925  17.3401723  78.0608223  29.6319930  17.6293974
  75.1732621  28.4958984  17.9667821  75.3025002  28.7493463  18.8807232
  74.4930072  29.0886692  17.6472476  79.3432108  39.1656234  14.0658295
  79.2656138  40.1164060  14.1446775  78.7393752  38.8202107  14.7233221
  81.8349338  26.3384100  26.7219662  81.0582672  26.8978020  26.7122526
  82.4739901  26.8240883  27.2434532  80.0895711  29.1469553  26.2837629
  80.8310395  29.6854597  26.0072452  79.3832696  29.7735842  26.4409180
  85.5651050  31.2898694  24.8809790  85.9734406  30.8481104  24.1364422
  84.8428312  30.7151321  25.1343983  81.9182120  26.2271300  22.2543347
  82.7643315  26.6510714  22.3977996  81.8580758  25.5704925  22.9481910
  85.8879865  31.8499884  18.6362079  85.2588727  32.0145598  17.9338147
  85.5005527  32.2641494  19.4073043  85.0681566  23.8875669  23.9124521
  84.8242497  24.6417729  23.3758796  85.3441496  24.2661016  24.7471768
  87.0220028  30.4314281  22.5901786  87.2336924  31.0746041  21.9136167
  86.9749777  29.5976598  22.1223716  84.6246257  23.0432102  19.4938358
  83.7630736  23.3413355  19.7855096  84.6508692  23.2602501  18.5619391
  81.4407827  31.5874292  15.9012164  81.9046172  31.8661995  15.1116787
  81.1764625  30.6857737  15.7185255  78.3331908  31.1345774  18.8391927
  78.9033265  31.5633042  18.2009412  78.9240020  30.8528359  19.5376113
  80.3776713  27.7097445  12.7101729  81.0800756  28.1618488  13.1775656
  80.0457341  27.0681264  13.3381622  78.8257074  26.3009201  27.0852939
  78.1955735  26.9825482  27.3188335  78.7193162  26.1892283  26.1406077
  74.1202047  25.9680997  18.0118863  73.3301101  26.2238526  17.5358973
  74.6113294  26.7829335  18.1170903  76.0716792  26.3325577  14.9702339
  75.2747955  26.4444271  15.4885835  75.8442384  26.6712229  14.1043230
  81.9022460  32.8570280  22.9184854  81.9666892  33.3190687  23.7543026
  81.1933384  32.2267645  23.0467164  72.4039750  26.2211488  20.4433854
  72.6547788  27.1058498  20.7091430  72.9399298  26.0416089  19.6708945
  81.6170477  34.5238387  12.7863834  81.4816152  35.3689923  13.2148682
  82.1580290  34.7257665  12.0229768  78.1037817  20.6029967  29.4478190
  77.7104763  20.0496166  30.1225834  78.9203957  20.9140546  29.8384707
  75.0699875  32.0413825  13.3591760  75.5824395  32.8357076  13.5097324
  75.7222588  31.3440116  13.2925361  76.8794759  35.1579582  15.4414513
  77.0561388  36.0797546  15.2535497  77.6751593  34.8438001  15.8708892
  81.0205778  22.0187846  27.0398446  81.7615491  22.6194999  26.9602909
  81.2523701  21.2765484  26.4816489  76.1647116  27.2044214  25.3176676
  76.0500631  26.3029471  25.6183775  75.3091634  27.4507910  24.9661492
  83.2438954  35.1461954  26.9164177  82.8002808  34.3598332  26.5985081
  83.9056167  35.3341104  26.2508067  78.0026075  36.6757755  21.4424855
  78.5533500  36.5474819  20.6701849  77.1637551  36.9752645  21.0919748
  85.3420192  35.4264754  24.9445578  85.3238667  36.2473635  24.4525847
  86.2640112  35.3018829  25.1695719  81.7993246  32.9408883  25.7869086
  82.3321583  32.1797171  25.5568394  81.2707327  32.6482535  26.5293241
  73.0348792  30.3702480  14.1351330  73.8724014  30.7799488  13.9185038
  73.2127059  29.4301922  14.1051524  84.0459481  20.4173604  19.2811961
  83.5424277  20.3803740  18.4679766  84.3390088  21.3266347  19.3408618
  80.2902367  20.5012334  18.2878143  81.1555364  20.3055143  17.9284032
  80.3579876  20.2722686  19.2147500  83.1645959  32.0694876  13.2987898
  82.6367320  31.3347635  12.9861136  82.6633461  32.8469552  13.0527867
  77.8964686  22.7314542  15.6594510  78.4708438  22.5089724  14.9267703
  78.4835669  22.8003237  16.4123111  84.2166638  38.5972593   9.2219557
  83.5428336  38.9004290   9.8304515  84.6032460  39.4001674   8.8725014
  83.4325094  26.0937725  18.7117227  82.5147656  26.3152672  18.5538915
  83.8485238  26.1684035  17.8528934  87.7206060  33.5994270  14.5938029
  87.2668387  32.7585180  14.6503219  87.0900026  34.2355669  14.9312809
  86.1638999  35.4370767  15.5287847  86.4561973  35.9975824  14.8100213
  86.6737620  35.7299328  16.2841006  73.0574963  27.7093195  14.8062064
  72.8599362  27.1162556  14.0813130  72.5021627  27.4045405  15.5238002
  81.0371686  27.6016302  16.9256657  81.0920296  26.6490138  16.8499133
  80.2262888  27.7575741  17.4097955  78.9764046  26.2193361  14.6847036
  78.1631912  26.5187532  15.0912228  79.4723040  25.8249050  15.4021518
  81.1272624  36.2151118  16.6181300  81.0848803  36.4411965  15.6889832
  82.0435323  35.9814493  16.7667101  84.5738258  26.6835186  23.5161929
  84.9287646  26.9106659  24.3756395  85.2210389  27.0153563  22.8939185
  78.4678121  23.7911717  20.3008270  79.1077500  23.6500476  19.6031234
  77.6355652  23.5046230  19.9246872  79.2438425  33.0914147  16.4143263
  80.0379023  32.5964467  16.2125838  78.5330117  32.5632010  16.0510968
  84.0633269  35.4732243  20.7655631  84.1170292  36.0423179  21.5333346
  83.1948051  35.6434128  20.4009668  75.5521188  27.2357229  12.4903016
  74.6218776  27.1741684  12.7072978  75.6478660  26.7133182  11.6939657
  75.4706737  23.7612042  15.0781257  75.7313555  24.6757375  14.9690418
  76.2923910  23.2936484  15.2277870  76.9431663  25.1749799  22.2480082
  77.6154716  24.9667161  21.5992731  76.1161449  24.9771885  21.8085314
  82.8457235  21.8011740  24.2645743  82.1985150  22.5001690  24.1710219
  83.6158250  22.2347884  24.6321991  86.2536033  32.0660592  27.3396296
  86.1021539  31.8371144  26.4226380  86.2440712  33.0231193  27.3527641
  83.0221369  29.6392505  22.3242562  83.9513429  29.7903664  22.1511530
  82.6012399  29.7276526  21.4691209  81.8209701  33.6643169  20.0941100
  81.6820787  33.2961954  20.9667038  81.0324297  34.1790809  19.9225058
  82.4157853  38.7652266  11.4366637  82.5909609  38.2940309  12.2512259
  81.7290641  39.3918032  11.6647897  83.3714916  33.0424772  17.4829938
  83.0364749  33.0025542  18.3787588  82.8718862  32.3769488  17.0100348
  77.3459160  28.4492402  23.0082519  77.2078958  27.7172641  23.6094058
  78.2564083  28.3601302  22.7266707  79.9741461  28.1612361  22.4966199
  80.6841079  27.5205553  22.4552817  79.9310769  28.4125256  23.4192379
  87.9628239  35.0979715  25.4172778  87.9040786  34.4138935  24.7503361
  88.3647758  35.8398705  24.9653404  78.6870395  25.1477579  24.3161838
  78.1507752  24.6968318  24.9683434  78.0987103  25.2823488  23.5732302
  76.9818938  41.9141628  18.2106497  77.2215536  42.5460153  18.8885515
  76.1388135  41.5629668  18.4971856  69.6174794  29.3943390  16.9729809
  70.3045834  29.0805120  16.3850824  69.4622922  30.2984755  16.6997060
  74.4209516  24.2833587  21.4014833  74.3367705  23.6759256  20.6665243
  73.5992222  24.7742605  21.4024329  81.4946800  37.7220751  20.6148001
  81.4216972  38.5275722  21.1267305  81.0524193  37.9212717  19.7896022
  81.2836580  36.9592521  14.1250822  80.5004102  37.5014201  14.2189047
  81.9829325  37.4766501  14.5245063  83.9545484  37.6207585  22.7706159
  84.6673456  38.2555050  22.6982061  83.4635512  37.7171451  21.9546161
  81.1768199  24.9104533  16.4956712  80.8065986  24.3575574  17.1837618
  81.6727291  24.3062667  15.9431712  79.0057397  35.3702028  23.5911730
  79.7066857  36.0038511  23.7441124  78.5352512  35.7116760  22.8307369
  86.8058683  27.9246636  21.4164281  86.1530133  28.1722543  20.7616733
  87.1839063  27.1110774  21.0826758  83.7665857  37.9606329  15.5192451
  83.9488251  37.1427985  15.9820203  84.5898843  38.1774021  15.0817341
  84.1008022  36.8874514  12.7807499  84.6295789  36.3766969  12.1677661
  84.3636242  36.5717044  13.6453032  82.8546256  28.6666447  27.9030318
  82.1786893  28.5660576  28.5732693  83.6773890  28.5105661  28.3666315
  74.6025115  34.9038383  20.5242833  75.1878552  34.1582071  20.6570737
  74.4049954  35.2142340  21.4079497  77.4563770  37.9389631  15.5405275
  76.7874146  38.4235758  15.0569315  77.3176640  38.1858851  16.4548654
  69.1942770  27.4743984  19.2447276  69.2326869  26.9407574  20.0384394
  68.6883063  26.9479189  18.6258253  81.5969039  39.9733374  22.1387934
  82.1487347  40.1364996  22.9037019  81.9375232  40.5637812  21.4667958
  76.5733532  22.3208524  22.7409818  76.6374859  23.1823355  22.3287216
  76.5100652  21.7082526  22.0082177  76.0485805  24.3931657  26.3882853
  76.6757844  24.0108734  27.0020377  75.1913724  24.1745859  26.7538545
  86.4479913  34.7994632  27.9936588  86.9919817  35.4124590  27.4991543
  85.8666758  35.3574210  28.5103601  72.8251347  26.2008086  12.3201207
  73.1204789  25.2918764  12.2668261  71.9239383  26.1795825  11.9982210
  84.7337426  37.9215350  19.1251616  84.6088566  37.1205090  18.6162561
  85.3916517  38.4161543  18.6365586  76.3545594  24.2764082  18.3028756
  75.6332180  24.8900050  18.1636229  77.1438850  24.8121847  18.2245402
  86.7972335  35.7224370  20.7531166  85.8502670  35.6029721  20.6809493
  87.1455108  34.8346868  20.8357427  79.1571908  21.6118509  24.5769408
  79.6806310  21.8580805  25.3395717  78.9384241  22.4438544  24.1572545
  74.5539189  23.8822183  12.4440533  74.2251895  23.0019562  12.2615638
  74.9078560  23.8269852  13.3316922  83.8018768  35.5177086  16.9535518
  83.6543730  34.5893794  17.1343088  84.6272261  35.5397177  16.4692593
  77.6681012  24.1695153  12.8116010  78.0077085  24.6981074  12.0894619
  78.1153133  24.5075559  13.5874577  87.4052890  36.3405645  18.0400391
  88.3299437  36.1348506  17.9024842  87.2368193  36.0922046  18.9489732
  80.3624453  22.5532204  22.2619078  80.0221273  21.7540017  22.6639758
  79.6563459  22.8533915  21.6895911  81.0140925  19.6381516  20.7146401
  81.8366994  19.1641995  20.5925292  81.2578988  20.4172000  21.2145088
  78.5379504  26.3300637  18.5238380  78.3924084  26.6440940  19.4162661
  78.0604707  26.9485537  17.9709279  80.3975886  23.3203185  18.5719269
  80.3837455  22.4244278  18.2351567  81.1148315  23.3273849  19.2057556
  82.2502017  23.7540525  20.6172397  81.9919795  24.6757596  20.6156727
  81.7187058  23.3570960  21.3072861  87.1948206  36.8591312  13.3962482
  87.3685083  36.2937735  12.6436335  87.6877097  37.6592207  13.2141972
  73.0125166  28.8705981  21.4626041  72.4678634  29.6465789  21.5946315
  73.8904516  29.2176786  21.3045163  73.7991188  27.9975878  24.3556198
  73.0572924  28.1458513  24.9420828  73.4783932  28.2584143  23.4922947
  81.7434850  37.5391856  24.1536588  82.0521977  37.2941003  25.0259288
  82.5410332  37.7438494  23.6655458  81.7655462  39.6929766  16.3841965
  81.3260453  39.2006144  17.0774821  82.5163579  39.1502733  16.1434040
  74.2447801  35.8841306  16.3866593  75.0705821  35.5845078  16.0065236
  73.8941853  35.1148929  16.8356381  79.2129334  35.2367775  18.4564266
  78.5909344  34.5738480  18.1566494  79.8834201  35.2628907  17.7737914
  72.4456406  33.8027633  17.3455526  71.6088315  33.3749807  17.1639527
  72.4180052  33.9960076  18.2826317  79.2853862  23.7149563  28.0496772
  79.3342017  24.5911685  27.6674542  79.8276376  23.1726956  27.4768415
  78.7742841  33.7871698  11.9322727  78.9230962  34.4707162  11.2789399
  79.5809285  33.7676788  12.4472182  87.1810345  27.0914080  25.9589945
  88.0820208  26.9520545  25.6673942  87.2558320  27.2568535  26.8988122
  81.5153150  24.4680935  24.8043131  80.6456460  24.7614501  24.5325719
  81.7512631  25.0521380  25.5250395  76.5295474  29.8136876  12.9383796
  76.2841516  28.9099206  13.1364006  76.6991389  29.8154026  11.9963274
  84.2192184  20.6860552  22.3208551  84.7374128  21.4221579  21.9955040
  83.8647317  20.9924545  23.1555310  75.7991122  25.5465233  10.4369957
  75.1060367  25.6209588   9.7809993  75.5542874  24.7825577  10.9591474
  82.2738247  36.2819828   9.4034474  81.7012214  36.9010016   8.9504946
  82.8471041  36.8319190   9.9374396  86.3628016  22.6134052  21.7740424
  85.7677948  22.8939064  21.0786913  86.0777713  23.1027953  22.5457165
  82.5423738  31.6698387  28.2051184  83.4626747  31.8476986  28.3991230
  82.5073321  30.7254433  28.0530883  71.7605903  26.8636981  17.1304458
  71.4408687  26.0102289  16.8378832  71.2139331  27.0785559  17.8862426
  75.5385810  29.5799422  20.8473965  75.7571820  30.5116530  20.8661999
  75.9511584  29.2207396  21.6328769  80.4113676  25.1532628  30.2376714
  80.3110403  26.1026985  30.1688805  80.1935218  24.8250867  29.3652784
  71.6294163  30.4839892  19.0997580  70.9357634  30.0693845  18.5867534
  72.3767154  30.5260429  18.5030999  80.2744946  28.5829767  29.0541775
  79.7912028  29.3830127  29.2605664  80.3605885  28.5937711  28.1009219
  73.5430905  30.4158146  16.9763595  73.5201594  30.5145834  16.0245478
  73.8531542  31.2623297  17.2980761  76.2018283  32.4734301  21.0910209
  77.1561537  32.4418244  21.0240141  76.0030807  32.0124925  21.9060435
  76.7917665  31.0435417  23.6581007  77.6110554  31.5379496  23.6815844
  77.0654473  30.1267385  23.6298574  74.5568512  38.0153921  18.1080407
  74.4222980  37.2554322  17.5418405  74.1400574  38.7394821  17.6409196
  77.7137638  38.9123238  18.3198850  77.5970022  39.8568670  18.2177540
  76.8930084  38.6096799  18.7084649  72.0452580  25.3773551  24.3573204
  72.6911443  24.8672505  24.8460429  71.8369731  26.1142233  24.9316629
  84.5705972  32.4454399  29.8565344  85.4397132  32.6195051  29.4951979
  84.0912723  33.2648816  29.7341074  78.7392152  39.5651500  21.5354778
  79.6419399  39.5975110  21.8521273  78.5129522  38.6351951  21.5501114
  80.4945754  38.3182486  18.1964857  79.5441385  38.3184348  18.0829229
  80.7978240  37.5715221  17.6800891  76.3850071  22.5241168  28.4548218
  77.2481532  22.1677973  28.6651543  75.8115481  22.1855063  29.1423622
  86.4439402  47.4557121  18.0253255  87.2360693  47.1147945  17.6099555
  86.6836052  47.5652096  18.9455409  86.0126376  43.8250902  17.9667821
  86.1418757  44.0785381  18.8807232  85.3323827  44.4178610  17.6472476
  84.9595801  41.2972915  18.0118863  84.1694855  41.5530444  17.5358973
  85.4507049  42.1121253  18.1170903  86.9110547  41.6617494  14.9702339
  86.1141710  41.7736189  15.4885835  86.6836139  42.0004147  14.1043230
  83.2433504  41.5503406  20.4433854  83.4941543  42.4350415  20.7091430
  83.7793053  41.3708007  19.6708945  85.9093629  47.3705743  13.3591760
  86.4218150  48.1648993  13.5097324  86.5616342  46.6732034  13.2925361
  87.0040870  42.5336131  25.3176676  86.8894386  41.6321389  25.6183775
  86.1485388  42.7799828  24.9661492  83.8742546  45.6994397  14.1351330
  84.7117768  46.1091406  13.9185038  84.0520814  44.7593840  14.1051524
  83.8968717  43.0385113  14.8062064  83.6993117  42.4454473  14.0813130
  83.3415381  42.7337323  15.5238002  86.3914943  42.5649147  12.4903016
  85.4612531  42.5033602  12.7072978  86.4872415  42.0425099  11.6939657
  86.3100492  39.0903959  15.0781257  86.5707309  40.0049293  14.9690418
  87.1317664  38.6228402  15.2277870  87.7825417  40.5041717  22.2480082
  88.4548471  40.2959079  21.5992731  86.9555204  40.3063803  21.8085314
  87.8212693  57.2433546  18.2106497  88.0609291  57.8752070  18.8885515
  86.9781889  56.8921586  18.4971856  80.4568548  44.7235308  16.9729809
  81.1439588  44.4097038  16.3850824  80.3016677  45.6276673  16.6997060
  85.2603270  39.6125505  21.4014833  85.1761459  39.0051174  20.6665243
  84.4385977  40.1034523  21.4024329  85.4418870  50.2330301  20.5242833
  86.0272306  49.4873989  20.6570737  85.2443708  50.5434258  21.4079497
  88.2957525  53.2681548  15.5405275  87.6267900  53.7527676  15.0569315
  88.1570395  53.5150769  16.4548654  80.0336524  42.8035901  19.2447276
  80.0720624  42.2699492  20.0384394  79.5276817  42.2771107  18.6258253
  87.4127287  37.6500442  22.7409818  87.4768613  38.5115273  22.3287216
  87.3494407  37.0374443  22.0082177  86.8879559  39.7223574  26.3882853
  87.5151598  39.3400652  27.0020377  86.0307478  39.5037776  26.7538545
  83.6645102  41.5300003  12.3201207  83.9598543  40.6210682  12.2668261
  82.7633138  41.5087743  11.9982210  87.1939349  39.6056000  18.3028756
  86.4725935  40.2191968  18.1636229  87.9832605  40.1413765  18.2245402
  85.3932944  39.2114101  12.4440533  85.0645650  38.3311480  12.2615638
  85.7472314  39.1561770  13.3316922  83.8518920  44.1997899  21.4626041
  83.3072388  44.9757707  21.5946315  84.7298270  44.5468704  21.3045163
  84.6384942  43.3267795  24.3556198  83.8966678  43.4750431  24.9420828
  84.3177686  43.5876061  23.4922947  85.0841556  51.2133224  16.3866593
  85.9099576  50.9136996  16.0065236  84.7335608  50.4440847  16.8356381
  83.2850161  49.1319551  17.3455526  82.4482069  48.7041725  17.1639527
  83.2573806  49.3251994  18.2826317  87.3689229  45.1428793  12.9383796
  87.1235271  44.2391123  13.1364006  87.5385143  45.1445944  11.9963274
  86.6384876  40.8757151  10.4369957  85.9454121  40.9501506   9.7809993
  86.3936628  40.1117495  10.9591474  82.5999657  42.1928899  17.1304458
  82.2802442  41.3394207  16.8378832  82.0533086  42.4077477  17.8862426
  86.3779565  44.9091340  20.8473965  86.5965575  45.8408447  20.8661999
  86.7905339  44.5499314  21.6328769  82.4687917  45.8131810  19.0997580
  81.7751389  45.3985763  18.5867534  83.2160908  45.8552347  18.5030999
  84.3824660  45.7450064  16.9763595  84.3595348  45.8437751  16.0245478
  84.6925296  46.5915215  17.2980761  87.0412038  47.8026219  21.0910209
  87.9955291  47.7710161  21.0240141  86.8424561  47.3416843  21.9060435
  87.6311420  46.3727335  23.6581007  88.4504309  46.8671414  23.6815844
  87.9048228  45.4559303  23.6298574  85.3962267  53.3445838  18.1080407
  85.2616735  52.5846239  17.5418405  84.9794329  54.0686738  17.6409196
  82.8846334  40.7065469  24.3573204  83.5305198  40.1964423  24.8460429
  82.6763485  41.4434151  24.9316629  87.2243825  37.8533086  28.4548218
  88.0875287  37.4969891  28.6651543  86.6509236  37.5146981  29.1423622
   3.6304348  41.8169715  70.3415576   4.3629520  41.2468932  70.5753406
   2.8743704  41.4291316  70.7822082   2.9120078  38.4502814  73.6581409
   2.2694458  38.7435347  73.0121203   2.4075006  38.3355734  74.4634605
   3.0519056  48.1146243  69.0925213   2.3670094  48.4945145  68.5422246
   3.1362905  48.7241570  69.8257161   1.4215815  48.6378158  73.8642914
   2.2433259  48.2358345  73.5825596   1.4178218  48.5346392  74.8159030
   9.5121808  44.9816906  70.2127885   8.7585517  44.4124304  70.0571890
   9.6469350  44.9479571  71.1598520   3.1897457  46.1201836  64.8607107
   2.4126900  45.7812996  64.4162269   3.8688938  46.1254459  64.1862072
   1.4288764  45.5935818  71.5173715   0.7712438  46.2835079  71.6053843
   2.2329163  45.9832249  71.8607701   3.5885954  45.1345543  67.3230029
   3.4503853  45.3247139  66.3951218   3.2322173  45.8964926  67.7798080
   3.6155334  47.2022070  72.3341300   4.0491840  47.1097359  73.1824354
   4.3286914  47.1779570  71.6961316   4.4770883  47.2445771  74.8674186
   4.6706773  48.1491581  75.1133461   4.3771501  46.7853190  75.7012771
   5.7312946  43.8019437  71.5122090   5.7202822  44.6844153  71.1416023
   4.8630326  43.4490988  71.3176627   2.3485521  42.6968078  67.9792256
   2.8145973  43.5296070  67.9052558   2.7993021  42.2313060  68.6837514
   0.6902849  51.6697566  71.1419161   1.6149396  51.4640427  71.0043612
   0.5218152  51.4213967  72.0508503   6.3337556  44.9519657  68.1171552
   6.7768702  44.2026982  67.7190676   5.4564066  44.9429793  67.7345284
   1.4673337  51.5049998  63.5978151   2.1624242  52.1256691  63.8165466
   1.8096488  50.6545349  63.8730529   3.3664761  48.9549704  65.1265482
   3.8916085  49.2936976  64.4014802   3.2787113  48.0196719  64.9428616
   3.1756542  46.4375074  77.7449408   3.2254547  46.2725081  78.6864931
   3.0670465  45.5702333  77.3547289   4.6774739  48.8572015  77.9891430
   4.3859547  49.2201996  78.8254891   4.0646870  48.1439023  77.8104762
   5.8770421  46.4224895  70.5094000   6.7117312  46.8614699  70.6731560
   6.0129550  45.9463548  69.6902246   2.9261927  43.9804630  76.4571488
   3.4016048  44.1732276  75.6490339   2.0027492  44.0363815  76.2114871
   1.6263596  40.8570390  74.6899793   2.5781019  40.9568487  74.7112017
   1.4567046  40.0648658  75.1997878   1.4073482  51.2114770  60.5965774
   1.3287114  50.8774634  61.4901532   2.2283149  51.7036538  60.5957247
   4.1051674  44.0776509  73.8042093   4.0727994  43.1392510  73.9901777
   4.7152297  44.1560546  73.0707918   4.2546162  40.8687553  73.8500376
   3.7385211  40.0846010  73.6630305   5.1386111  40.5406269  74.0146896
   1.9156889  34.6128568  69.8096189   1.7181710  34.3043657  70.6939521
   2.5256595  35.3390207  69.9394119   9.9228223  45.1392516  72.9448130
  10.6531612  44.8777804  73.5055833   9.3135169  44.4021238  72.9850198
   8.0043521  43.2800379  73.5422581   7.2776684  43.1456344  72.9339073
   7.5890807  43.5877207  74.3479299   3.1848757  38.7884612  69.8382072
   3.9609147  39.2781064  70.1106689   2.4596891  39.2142666  70.2953941
   5.6221315  39.5012231  70.8956013   6.2165806  39.2607967  70.1849321
   5.6947899  38.7819362  71.5229549   3.6180050  40.0682359  67.1628142
   3.3616985  39.6678994  67.9936350   2.9932918  40.7826153  67.0378282
   7.9292388  42.8078432  69.6699434   7.3691946  42.8771621  70.4430996
   7.3235892  42.6319417  68.9498930   0.8864132  48.9665295  62.2674213
   1.7209736  48.5346493  62.0851688   0.7248475  48.7947308  63.1951107
   9.5148407  59.4834946  72.3629390  10.1526817  59.3641693  71.6592730
   9.3969250  60.4315790  72.4217342   6.3238113  59.4362374  72.2990914
   5.9856624  59.3203439  71.4111449   7.1927881  59.0353539  72.2791920
   2.1824929  61.2897850  68.2887805   1.6189794  61.1987787  67.5204093
   2.0677324  60.4697755  68.7690298   7.7624487  64.9568818  63.6002270
   7.1112467  65.5422898  63.2136284   8.5568850  65.4875013  63.6597308
   1.6880115  62.0457955  63.9989404   2.4610991  61.4986942  63.8602280
   2.0405513  62.9102205  64.2103866   4.4521364  60.7511186  73.7957663
   5.0484936  60.5267208  73.0814626   4.5096335  60.0095931  74.3983111
   4.0246392  58.2050621  61.6307854   4.2771913  57.6832143  60.8691317
   3.0870951  58.0416767  61.7334538   9.0689675  57.2086400  69.4382598
   9.8552764  56.7905823  69.0873015   9.3328379  58.1132492  69.6064246
   9.2399753  62.6459250  64.1371254   8.6045586  62.7193877  64.8492159
   8.9097159  63.2352849  63.4590334  14.4698102  57.1461633  70.3415576
  15.2023274  56.5760850  70.5753406  13.7137458  56.7583233  70.7822082
   3.7442681  60.1078727  63.8332229   3.6278939  59.4323631  64.5013314
   3.8544941  59.6211101  63.0164382   6.0874222  59.5688874  67.5378919
   5.7232429  59.0419495  68.2491840   6.9441338  59.1787343  67.3645404
  11.9923523  50.8583207  74.8010185  11.6606847  51.7278618  74.5771400
  11.3969136  50.5419491  75.4804215   5.7279709  54.5978774  62.5340267
   5.8954111  55.4659011  62.9010738   5.5376878  54.7606056  61.6101556
   8.4855042  63.0595753  74.2006097   8.1855765  63.9620792  74.0921905
   8.1406102  62.7927936  75.0527250   1.9367524  59.5109550  70.2342802
   1.0118020  59.3785764  70.4420494   2.1851937  60.2903769  70.7312744
  11.8852186  55.5778293  71.8803535  10.9769063  55.5093702  71.5862296
  11.8339782  56.0550238  72.7085360   5.7068930  57.0536432  63.5186934
   5.5868555  57.4993482  64.3572414   5.0121518  57.4021749  62.9600472
  13.7513832  53.7794732  73.6581409  13.1088213  54.0727265  73.0121203
  13.2468761  53.6647652  74.4634605  11.4053996  57.5257905  64.3467268
  12.3171852  57.7585292  64.1714965  10.8963643  58.1094949  63.7842347
   6.0425834  56.8855139  75.3562117   6.8887029  57.3094553  75.4996766
   5.9824471  56.2288764  76.0500681  10.0123578  62.5083723  71.7380849
   9.3832441  62.6729437  71.0356917   9.6249240  62.9225333  72.5091813
  13.8912810  63.4438161  69.0925213  13.2063848  63.8237062  68.5422246
  13.9756660  64.0533488  69.8257161   9.1925279  54.5459508  77.0143291
   8.9486211  55.3001568  76.4777567   9.4685210  54.9244855  77.8490538
  11.1463742  61.0898120  75.6920557  11.3580637  61.7329880  75.0154938
  11.0993490  60.2560437  75.2242487   8.7489971  53.7015941  72.5957129
   7.8874450  53.9997194  72.8873866   8.7752405  53.9186340  71.6638161
   5.5651540  62.2458131  69.0030934   6.0289886  62.5245834  68.2135557
   5.3008338  61.3441576  68.8204025   4.5020426  58.3681284  65.8120500
   5.2044470  58.8202327  66.2794426   4.1701055  57.7265103  66.4400393
  12.2609570  63.9670076  73.8642914  13.0827014  63.5650263  73.5825596
  12.2571973  63.8638310  74.8159030  20.3515563  60.3108824  70.2127885
  19.5979271  59.7416222  70.0571890  20.4863104  60.2771489  71.1598520
   5.7414191  65.1822226  65.8882605   5.6059866  66.0273762  66.3167453
   6.2824003  65.3841504  65.1248539   9.0906654  48.7052788  74.4181498
   8.7470924  49.5954430  74.3420609   9.4585617  48.5154446  73.5551083
   9.0556937  58.6961399  62.9253933   8.5403561  59.4666004  63.1642321
   8.7834246  58.0226535  63.5486995   6.6404048  53.5411100  67.9839172
   5.7845645  53.1517950  67.8044810   7.0531000  53.6203061  67.1238957
   8.1703195  51.0757443  72.3830732   7.6667990  51.0387579  71.5698537
   8.4633802  51.9850186  72.4427388   4.4146081  51.1596173  71.3896913
   5.2799078  50.9638982  71.0302803   4.4823590  50.9306525  72.3166270
  14.0291211  61.4493754  64.8607107  13.2520654  61.1104913  64.4162269
  14.7082692  61.4546377  64.1862072   8.8443240  56.5688491  64.7513715
   8.5393376  56.8834641  65.6023858   9.7973682  56.6469911  64.7941048
   7.2889672  62.7278715  66.4006669   6.7611034  61.9931474  66.0879906
   6.7877175  63.5053391  66.1546637  12.2682518  60.9227735  71.5173715
  11.6106193  61.6126997  71.6053843  13.0722917  61.3124167  71.8607701
   2.0208400  53.3898381  68.7613280   2.5952152  53.1673562  68.0286473
   2.6079382  53.4587075  69.5141881  11.0787977  59.2772108  69.5677657
  11.5919859  59.9102100  70.0699366  11.7289201  58.6773303  69.2021017
   2.3477987  55.4202842  62.7809165   1.5115299  55.7577529  63.1018440
   2.2082757  55.2851822  61.8436302   4.3231068  50.2639630  67.4888349
   3.6695480  49.9488647  66.8644964   4.2811542  49.6415370  68.2148172
   5.4342272  60.5458925  59.4041642   4.5269334  60.3148178  59.6032791
   5.9313304  59.7496544  59.5915623   8.3410351  69.2556432  62.3238328
   7.6672050  69.5588129  62.9323286   8.7276173  70.0585513  61.9743785
   7.5568808  56.7521563  71.8135997   6.6391369  56.9736510  71.6557685
   7.9728952  56.8267874  70.9547704   8.3403856  58.1512979  66.9438677
   9.0875675  58.6634376  66.6345799   8.6095445  57.8297032  67.8043071
   6.6130506  60.6471520  63.9265632   5.7041725  60.3630553  64.0238101
   6.6425590  61.0670598  63.0668939  11.8449773  64.2578109  67.6956799
  11.3912100  63.4169019  67.7521990  11.2143740  64.8939508  68.0331579
  10.7882693  55.1870095  68.9257467  10.0505450  54.6747482  69.2567709
  11.0409466  54.7470477  68.1140744  10.2882712  66.0954606  68.6306617
  10.5805687  66.6559663  67.9118983  10.7981333  66.3883167  69.3859776
  10.8894320  47.9646347  69.5199236  11.1953197  47.1043711  69.2325151
  11.6146925  48.5563968  69.3198230   5.1615400  58.2600140  70.0275427
   5.2164010  57.3073977  69.9517904   4.3506602  58.4159580  70.5116725
   6.3106594  62.1880264  61.2653710   5.8726024  61.4716122  60.8059348
   7.0517034  62.4156378  60.7038802   3.1007760  56.8777200  67.7865806
   2.2875625  57.1771371  68.1930998   3.5966754  56.4832889  68.5040288
   5.2516338  66.8734957  69.7200071   5.2092516  67.0995803  68.7908603
   6.1679037  66.6398332  69.8685872   8.6981971  57.3419025  76.6180700
   9.0531359  57.5690498  77.4775166   9.3454103  57.6737401  75.9957955
  14.4279708  60.4637461  67.3230029  14.2897607  60.6539057  66.3951218
  14.0715927  61.2256843  67.7798080   2.5921835  54.4495556  73.4027041
   3.2321214  54.3084315  72.7050004   1.7599365  54.1630069  73.0265643
  14.4549088  62.5313988  72.3341300  14.8885595  62.4389277  73.1824354
  15.1680669  62.5071488  71.6961316   3.3682138  63.7497986  69.5162033
   4.1622737  63.2548306  69.3144608   2.6573831  63.2215849  69.1529739
  15.3164638  62.5737688  74.8674186  15.5100528  63.4783499  75.1133461
  15.2165256  62.1145107  75.7012771   6.9700948  52.4595579  77.3664513
   6.3228863  53.1585528  77.2728989   7.7401964  52.8931723  77.7340761
   7.1465083  60.2976344  75.4261333   8.0757143  60.4487503  75.2530300
   6.7256113  60.3860364  74.5709979   6.5401566  69.4236105  64.5385407
   6.7153322  68.9524148  65.3531030   5.8534354  70.0501871  64.7666668
   7.4958630  63.7008611  70.5848708   7.1608462  63.6609381  71.4806358
   6.9962575  63.0353327  70.1119118  10.4317821  61.0464645  60.8585768
   9.8146992  60.3211473  60.7618821   9.9634310  61.8074005  60.5152842
   2.2216367  55.2650069  59.9807072   1.3445833  55.1438870  59.6169319
   2.6974120  54.4736148  59.7285961  12.0889360  63.7203137  76.7505528
  11.2016139  63.3829059  76.8731927  12.6587911  62.9886169  76.9874293
   5.4080293  67.6176360  67.2269593   4.6247815  68.1598040  67.3207817
   6.1073038  68.1350339  67.6263834   8.7176943  53.4270989  69.8703798
   9.2145643  52.6740952  69.5504868   7.9463925  53.4635306  69.3047007
  16.5706701  59.1311355  71.5122090  16.5596577  60.0136070  71.1416023
  15.7024080  58.7782906  71.3176627   9.8006724  62.1842677  67.4442221
   8.8663003  62.3044139  67.2746926   9.9783392  61.2815143  67.1802231
   5.3011912  55.5688372  69.5975483   4.9309700  55.0159413  70.2856388
   5.7971005  54.9646506  69.0450483  13.1879275  58.0259996  67.9792256
  13.6539728  58.8587987  67.9052558  13.6386776  57.5604977  68.6837514
  11.2555506  64.3703817  64.9778408  11.5315350  64.2560412  65.8872282
  10.3860005  63.9721302  64.9390581  11.1595938  50.3940583  72.0183157
  10.2459018  50.6244810  72.1865364  11.5889040  50.4779027  72.8697189
  10.9302397  58.5830475  74.5183051  10.2773847  58.8306382  73.8635504
  11.3082776  57.7694613  74.1845528   7.8909570  68.6190168  68.6211221
   8.0731965  67.8011824  69.0838974   8.7142556  68.8357860  68.1836111
   8.2251736  67.5458353  65.8826270   8.7539502  67.0350808  65.2696432
   8.4879956  67.2300883  66.7471803   8.8581140  68.5799189  72.2270386
   8.7332279  67.7788929  71.7181332   9.5160231  69.0745382  71.7384356
  10.9216048  66.3808209  73.8549936   9.9746384  66.2613560  73.7828263
  11.2698821  65.4930707  73.9376198   7.9262481  66.1760925  70.0554288
   7.7787444  65.2477632  70.2361859   8.7515975  66.1981016  69.5711364
   1.7924726  54.8278992  65.9134781   2.1320798  55.3564913  65.1913389
   2.2396846  55.1659398  66.6893347  11.5296603  66.9989484  71.1419161
  12.4543151  66.7932345  71.0043612  11.3611907  66.7505885  72.0508503
   4.4868167  53.2116043  75.3637849   4.1464987  52.4123856  75.7658529
   3.7807173  53.5117754  74.7914682   5.1384638  50.2965355  73.8165172
   5.9610708  49.8225833  73.6944062   5.3822702  51.0755839  74.3163858
   3.7792873  53.3253614  64.1128073   4.5001235  53.7034867  63.6091790
   3.1558177  54.0442491  64.2163051   7.9223996  54.0298763  65.0486406
   8.1387610  54.9123401  64.7475234   7.4418063  53.6384976  64.3192048
   2.6623217  56.9884476  71.6257150   2.5167798  57.3024779  72.5181432
   2.1848421  57.6069376  71.0728049   4.5219600  53.9787024  71.6738040
   4.5081169  53.0828117  71.3370338   5.2392028  53.9857688  72.3076326
   6.3745731  54.4124364  73.7191167   6.1163509  55.3341435  73.7175498
   5.8430771  54.0154799  74.4091631  11.3191920  67.5175151  66.4981253
  11.4928797  66.9521574  65.7455105  11.8120811  68.3176046  66.3160743
   3.9256496  52.8601404  66.9425610   4.0472407  51.9318050  67.1416497
   3.6358538  52.8740090  66.0303925   6.7947686  50.5456315  70.0792330
   6.8169383  50.6095648  69.1244309   7.2115745  49.7060823  70.2732836
  17.1731311  60.2811574  68.1171552  17.6162457  59.5318899  67.7190676
  16.2957821  60.2721711  67.7345284  12.3067092  66.8341916  63.5978151
  13.0017997  67.4548608  63.8165466  12.6490242  65.9837267  63.8730529
  14.2058515  64.2841621  65.1265482  14.7309839  64.6228894  64.4014802
  14.1180868  63.3488637  64.9428616  14.0150296  61.7666991  77.7449408
  14.0648301  61.6016999  78.6864931  13.9064220  60.8994250  77.3547289
   2.8986555  64.4455537  65.0341497   3.0474675  65.1291001  64.3808170
   3.7052998  64.4260627  65.5490953  11.3054059  57.7497919  79.0608715
  12.2063921  57.6104384  78.7692713  11.3802033  57.9152374  80.0006892
  15.5168493  64.1863933  77.9891430  15.2253301  64.5493913  78.8254891
  14.9040624  63.4730941  77.8104762  16.7164175  61.7516813  70.5094000
  17.5511067  62.1906617  70.6731560  16.8523304  61.2755466  69.6902246
  13.7655681  59.3096547  76.4571488  14.2409803  59.5024194  75.6490339
  12.8421247  59.3655733  76.2114871   8.3435898  51.3444391  75.4227322
   8.8617842  52.0805418  75.0973810   7.9891031  51.6508384  76.2574081
   8.5948492  47.7644673  70.9428218   8.8750246  47.0967863  71.5688645
   9.3799099  47.9573769  70.4302882   6.3981960  66.9403667  62.5053245
   5.8255928  67.5593854  62.0523716   6.9714754  67.4903029  63.0393166
  12.4657350  56.1862307  74.6899793  13.4174773  56.2860405  74.7112017
  12.2960801  55.3940576  75.1997878  10.4871730  53.2717891  74.8759194
   9.8921662  53.5522903  74.1805683  10.2021426  53.7611792  75.6475935
   9.6179220  67.2240817  63.6361827  10.5509893  67.1586379  63.8394702
   9.5302433  68.0597084  63.1776359  12.2467237  66.5406688  60.5965774
  12.1680868  66.2066551  61.4901532  13.0676904  67.0328456  60.5957247
  14.9445428  59.4068427  73.8042093  14.9121748  58.4684428  73.9901777
  15.5546052  59.4852464  73.0707918   6.7828759  58.2764480  59.8469297
   7.7287864  58.1470688  59.9157715   6.4043004  57.5379142  60.3238725
  15.0939917  56.1979471  73.8500376  14.5778965  55.4137927  73.6630305
  15.9779865  55.8698187  74.0146896  12.7550643  49.9420486  69.8096189
  12.5575465  49.6335574  70.6939521  13.3650349  50.6682125  69.9394119
  20.7621978  60.4684434  72.9448130  21.4925366  60.2069722  73.5055833
  20.1528923  59.7313156  72.9850198  18.8437275  58.6092297  73.5422581
  18.1170439  58.4748261  72.9339073  18.4284562  58.9169125  74.3479299
   4.9671676  56.2014456  59.7824182   4.0603131  55.9047569  59.8586896
   5.2447657  55.9044275  58.9158468   6.5833742  50.7451346  65.9368424
   5.7734470  50.3998431  66.3123670   7.2718159  50.4358890  66.5256035
   8.5124290  49.8229393  67.5592720   9.0655329  50.2424846  68.2182743
   8.7494376  48.8965141  67.6015676   3.7370461  53.0601392  59.9236161
   4.5989625  53.3856290  60.1831979   3.9220805  52.2732888  59.4109227
  11.8903097  51.9329918  67.0671384  11.3101766  52.5914722  66.6849437
  11.6239030  51.1107263  66.6558802  10.3406664  51.3334976  69.2692705
  10.8406442  51.4451510  68.4607024  10.9842271  51.0296029  69.9093513
  10.6727975  54.0930009  66.1227733   9.7853830  54.3779659  65.9047927
  11.0881964  53.9323772  65.2755010  14.0242511  54.1176530  69.8382072
  14.8002901  54.6072982  70.1106689  13.2990646  54.5434584  70.2953941
  16.4615070  54.8304149  70.8956013  17.0559561  54.5899885  70.1849321
  16.5341654  54.1111279  71.5229549   9.8171189  63.8574683  60.2175753
  10.5207039  64.0624686  60.8333408   9.0933837  64.4251445  60.4824836
  10.6468999  59.6084544  66.3378023  10.5904200  60.0653096  65.4985655
  11.1997341  58.8475229  66.1600866  14.4573805  55.3974276  67.1628142
  14.2010739  54.9970912  67.9936350  13.8326673  56.1118070  67.0378282
  18.7686143  58.1370350  69.6699434  18.2085701  58.2063539  70.4430996
  18.1629646  57.9611334  68.9498930  11.7257886  64.2957212  62.2674213
  12.5603490  63.8638411  62.0851688  11.5642229  64.1239226  63.1951107
  11.3803778  60.7989326  63.6330552  11.3252582  60.6333597  62.6918996
  10.7549834  61.5065359  63.7892742   4.6899904  50.2997435  63.2115870
   4.6778574  51.2439275  63.3684141   5.5823326  50.1167580  62.9175332
   8.5052023  46.8940211  67.4661807   7.7384419  46.3398698  67.6118490
   8.9162728  46.9662080  68.3275959  20.3542161  74.8126864  72.3629390
  20.9920571  74.6933611  71.6592730  20.2363004  75.7607707  72.4217342
  17.1631867  74.7654292  72.2990914  16.8250379  74.6495356  71.4111449
  18.0321636  74.3645457  72.2791920  13.0218683  76.6189768  68.2887805
  12.4583548  76.5279705  67.5204093  12.9071078  75.7989673  68.7690298
  18.6018242  80.2860736  63.6002270  17.9506222  80.8714816  63.2136284
  19.3962605  80.8166931  63.6597308  12.5273869  77.3749873  63.9989404
  13.3004745  76.8278860  63.8602280  12.8799268  78.2394122  64.2103866
  15.2915118  76.0803104  73.7957663  15.8878691  75.8559126  73.0814626
  15.3490090  75.3387849  74.3983111  14.8640147  73.5342539  61.6307854
  15.1165668  73.0124060  60.8691317  13.9264706  73.3708684  61.7334538
  19.9083430  72.5378317  69.4382598  20.6946519  72.1197741  69.0873015
  20.1722134  73.4424410  69.6064246  20.0793507  77.9751168  64.1371254
  19.4439340  78.0485794  64.8492159  19.7490913  78.5644767  63.4590334
  25.3091857  72.4753551  70.3415576  26.0417029  71.9052767  70.5753406
  24.5531212  72.0875151  70.7822082  14.5836436  75.4370645  63.8332229
  14.4672694  74.7615548  64.5013314  14.6938695  74.9503019  63.0164382
  16.9267977  74.8980792  67.5378919  16.5626184  74.3711413  68.2491840
  17.7835092  74.5079261  67.3645404  22.8317277  66.1875125  74.8010185
  22.5000602  67.0570536  74.5771400  22.2362891  65.8711409  75.4804215
  16.5673463  69.9270692  62.5340267  16.7347866  70.7950928  62.9010738
  16.3770633  70.0897973  61.6101556  19.3248797  78.3887671  74.2006097
  19.0249520  79.2912709  74.0921905  18.9799856  78.1219854  75.0527250
  12.7761278  74.8401468  70.2342802  11.8511775  74.7077682  70.4420494
  13.0245691  75.6195687  70.7312744  22.7245940  70.9070211  71.8803535
  21.8162818  70.8385619  71.5862296  22.6733536  71.3842156  72.7085360
  16.5462684  72.3828349  63.5186934  16.4262310  72.8285400  64.3572414
  15.8515273  72.7313667  62.9600472  24.5907587  69.1086649  73.6581409
  23.9481967  69.4019182  73.0121203  24.0862515  68.9939570  74.4634605
  22.2447751  72.8549822  64.3467268  23.1565607  73.0877209  64.1714965
  21.7357398  73.4386867  63.7842347  16.8819588  72.2147057  75.3562117
  17.7280783  72.6386471  75.4996766  16.8218226  71.5580681  76.0500681
  20.8517333  77.8375641  71.7380849  20.2226195  78.0021355  71.0356917
  20.4642995  78.2517250  72.5091813  24.7306565  78.7730079  69.0925213
  24.0457603  79.1528980  68.5422246  24.8150414  79.3825405  69.8257161
  20.0319034  69.8751425  77.0143291  19.7879965  70.6293486  76.4777567
  20.3078964  70.2536773  77.8490538  21.9857496  76.4190038  75.6920557
  22.1974392  77.0621798  75.0154938  21.9387245  75.5852354  75.2242487
  19.5883725  69.0307858  72.5957129  18.7268204  69.3289112  72.8873866
  19.6146160  69.2478257  71.6638161  16.4045295  77.5750049  69.0030934
  16.8683640  77.8537752  68.2135557  16.1402093  76.6733494  68.8204025
  15.3414181  73.6973201  65.8120500  16.0438224  74.1494245  66.2794426
  15.0094809  73.0557020  66.4400393  23.1003324  79.2961993  73.8642914
  23.9220768  78.8942180  73.5825596  23.0965727  79.1930227  74.8159030
  11.0354260  72.3201333  68.0721110  10.2385423  72.4320028  68.5904606
  10.8079852  72.6587985  67.2062000  31.1909317  75.6400742  70.2127885
  30.4373026  75.0708140  70.0571890  31.3256859  75.6063406  71.1598520
  10.0337343  78.0289582  66.4610530  10.5461863  78.8232832  66.6116095
  10.6860056  77.3315872  66.3944131  19.9300409  64.0344706  74.4181498
  19.5864678  64.9246348  74.3420609  20.2979372  63.8446364  73.5551083
   7.9986260  76.3578236  67.2370100   8.8361482  76.7675245  67.0203808
   8.1764527  75.4177678  67.2070294  19.8950692  74.0253317  62.9253933
  19.3797315  74.7957922  63.1642321  19.6228000  73.3518453  63.5486995
  17.4797803  68.8703018  67.9839172  16.6239399  68.4809868  67.8044810
  17.8924754  68.9494979  67.1238957  19.0096949  66.4049361  72.3830732
  18.5061745  66.3679496  71.5698537  19.3027556  67.3142104  72.4427388
  15.2539835  66.4888091  71.3896913  16.1192832  66.2930899  71.0302803
  15.3217344  66.2598443  72.3166270  24.8684966  76.7785672  64.8607107
  24.0914409  76.4396831  64.4162269  25.5476447  76.7838295  64.1862072
  19.6836995  71.8980409  64.7513715  19.3787130  72.2126558  65.6023858
  20.6367437  71.9761829  64.7941048  18.1283427  78.0570632  66.4006669
  17.6004788  77.3223392  66.0879906  17.6270929  78.8345309  66.1546637
  23.1076273  76.2519653  71.5173715  22.4499947  76.9418914  71.6053843
  23.9116672  76.6416085  71.8607701  12.8602154  68.7190299  68.7613280
  13.4345906  68.4965480  68.0286473  13.4473137  68.7878993  69.5141881
  21.9181732  74.6064026  69.5677657  22.4313613  75.2394017  70.0699366
  22.5682955  74.0065221  69.2021017  13.1871741  70.7494760  62.7809165
  12.3509054  71.0869446  63.1018440  13.0476511  70.6143739  61.8436302
  15.1624822  65.5931548  67.4888349  14.5089234  65.2780565  66.8644964
  15.1205296  64.9707288  68.2148172  16.2736027  75.8750843  59.4041642
  15.3663089  75.6440096  59.6032791  16.7707059  75.0788462  59.5915623
  18.3962562  72.0813481  71.8135997  17.4785124  72.3028428  71.6557685
  18.8122706  72.1559792  70.9547704  19.1797610  73.4804897  66.9438677
  19.9269429  73.9926294  66.6345799  19.4489200  73.1588950  67.8043071
  17.4524260  75.9763438  63.9265632  16.5435480  75.6922470  64.0238101
  17.4819344  76.3962516  63.0668939  22.6843528  79.5870027  67.6956799
  22.2305855  78.7460937  67.7521990  22.0537494  80.2231425  68.0331579
  21.6276447  70.5162013  68.9257467  20.8899204  70.0039399  69.2567709
  21.8803221  70.0762395  68.1140744  21.1276467  81.4246524  68.6306617
  21.4199441  81.9851581  67.9118983  21.6375088  81.7175085  69.3859776
  21.7288075  63.2938265  69.5199236  22.0346951  62.4335628  69.2325151
  22.4540679  63.8855885  69.3198230   8.0212431  73.6968952  67.9080834
   7.8236831  73.1038312  67.1831900   7.4659095  73.3921162  68.6256773
  16.0009154  73.5892058  70.0275427  16.0557764  72.6365895  69.9517904
  15.1900356  73.7451497  70.5116725  17.1500348  77.5172181  61.2653710
  16.7119778  76.8008040  60.8059348  17.8910789  77.7448296  60.7038802
  13.9401514  72.2069118  67.7865806  13.1269380  72.5063288  68.1930998
  14.4360508  71.8124807  68.5040288  19.5375726  72.6710942  76.6180700
  19.8925114  72.8982415  77.4775166  20.1847857  73.0029319  75.9957955
  25.2673463  75.7929378  67.3230029  25.1291361  75.9830974  66.3951218
  24.9109682  76.5548761  67.7798080  13.4315589  69.7787473  73.4027041
  14.0714968  69.6376232  72.7050004  12.5993120  69.4921987  73.0265643
  25.2942843  77.8605905  72.3341300  25.7279349  77.7681194  73.1824354
  26.0074423  77.8363406  71.6961316  14.2075893  79.0789904  69.5162033
  15.0016491  78.5840224  69.3144608  13.4967585  78.5507767  69.1529739
  10.5158656  73.2232986  65.5921786   9.5856245  73.1617441  65.8091748
  10.6116128  72.7008938  64.7958427  10.4344205  69.7487798  68.1800028
  10.6951023  70.6633132  68.0709188  11.2561378  69.2812241  68.3296640
  26.1558392  77.9029606  74.8674186  26.3494282  78.8075416  75.1133461
  26.0559010  77.4437025  75.7012771  17.8094703  67.7887496  77.3664513
  17.1622618  68.4877446  77.2728989  18.5795718  68.2223640  77.7340761
  17.9858837  75.6268261  75.4261333  18.9150897  75.7779421  75.2530300
  17.5649867  75.7152282  74.5709979  18.3352384  79.0300528  70.5848708
  18.0002217  78.9901298  71.4806358  17.8356330  78.3645244  70.1119118
  21.2711576  76.3756563  60.8585768  20.6540746  75.6503391  60.7618821
  20.8028064  77.1365923  60.5152842  13.0610122  70.5941987  59.9807072
  12.1839588  70.4730788  59.6169319  13.5367875  69.8028065  59.7285961
  22.9283115  79.0495055  76.7505528  22.0409893  78.7120977  76.8731927
  23.4981666  78.3178086  76.9874293  19.5570698  68.7562907  69.8703798
  20.0539397  68.0032869  69.5504868  18.7857679  68.7927224  69.3047007
  27.4100455  74.4603272  71.5122090  27.3990331  75.3427988  71.1416023
  26.5417835  74.1074823  71.3176627  20.6400478  77.5134594  67.4442221
  19.7056757  77.6336057  67.2746926  20.8177147  76.6107061  67.1802231
  16.1405667  70.8980290  69.5975483  15.7703454  70.3451330  70.2856388
  16.6364759  70.2938423  69.0450483  24.0273030  73.3551913  67.9792256
  24.4933482  74.1879905  67.9052558  24.4780530  72.8896895  68.6837514
  22.0949261  79.6995735  64.9778408  22.3709105  79.5852329  65.8872282
  21.2253760  79.3013220  64.9390581  21.9989693  65.7232500  72.0183157
  21.0852772  65.9536727  72.1865364  22.4282794  65.8070945  72.8697189
  21.7696151  73.9122392  74.5183051  21.1167601  74.1598300  73.8635504
  22.1476531  73.0986531  74.1845528   7.7888815  72.1883842  65.4219978
   8.0842257  71.2794521  65.3687031   6.8876851  72.1671582  65.1000980
  11.3183062  70.2639839  71.4047526  10.5969648  70.8775807  71.2655000
  12.1076318  70.7997604  71.3264172  21.7609803  81.7100127  73.8549936
  20.8140138  81.5905478  73.7828263  22.1092576  80.8222625  73.9376198
   9.5176657  69.8697940  65.5459303   9.1889363  68.9895319  65.3634409
   9.8716028  69.8145609  66.4335692  18.7656236  81.5052843  70.0554288
  18.6181198  80.5769550  70.2361859  19.5909729  81.5272933  69.5711364
  12.6318480  70.1570910  65.9134781  12.9714553  70.6856831  65.1913389
  13.0790601  70.4951316  66.6893347  22.3690358  82.3281401  71.1419161
  23.2936905  82.1224263  71.0043612  22.2005661  82.0797803  72.0508503
  15.3261921  68.5407961  75.3637849  14.9858741  67.7415774  75.7658529
  14.6200927  68.8409671  74.7914682  15.9778393  65.6257273  73.8165172
  16.8004462  65.1517751  73.6944062  16.2216456  66.4047757  74.3163858
  14.6186627  68.6545531  64.1128073  15.3394990  69.0326784  63.6091790
  13.9951931  69.3734408  64.2163051  18.7617750  69.3590680  65.0486406
  18.9781365  70.2415318  64.7475234  18.2811817  68.9676894  64.3192048
  13.5016972  72.3176394  71.6257150  13.3561552  72.6316697  72.5181432
  13.0242175  72.9361294  71.0728049  15.3613355  69.3078942  71.6738040
  15.3474923  68.4120035  71.3370338  16.0785783  69.3149605  72.3076326
  17.2139485  69.7416282  73.7191167  16.9557263  70.6633352  73.7175498
  16.6824526  69.3446716  74.4091631  14.7650250  68.1893322  66.9425610
  14.8866162  67.2609968  67.1416497  14.4752293  68.2032008  66.0303925
  17.6341441  65.8748232  70.0792330  17.6563138  65.9387565  69.1244309
  18.0509500  65.0352741  70.2732836  28.0125065  75.6103492  68.1171552
  28.4556211  74.8610817  67.7190676  27.1351575  75.6013628  67.7345284
  23.1460846  82.1633833  63.5978151  23.8411751  82.7840526  63.8165466
  23.4883997  81.3129185  63.8730529  25.0452270  79.6133539  65.1265482
  25.5703594  79.9520812  64.4014802  24.9574622  78.6780554  64.9428616
  24.8544051  77.0958909  77.7449408  24.9042056  76.9308916  78.6864931
  24.7457974  76.2286168  77.3547289  22.1447813  73.0789837  79.0608715
  23.0457676  72.9396302  78.7692713  22.2195788  73.2444292  80.0006892
  26.3562248  79.5155850  77.9891430  26.0647056  79.8785831  78.8254891
  25.7434379  78.8022859  77.8104762  27.5557930  77.0808730  70.5094000
  28.3904821  77.5198534  70.6731560  27.6917059  76.6047383  69.6902246
  24.6049436  74.6388465  76.4571488  25.0803557  74.8316111  75.6490339
  23.6815001  74.6947651  76.2114871  11.4932942  75.8012632  66.0402566
  11.2478984  74.8974962  66.2382776  11.6628857  75.8029783  65.0982044
  19.1829652  66.6736309  75.4227322  19.7011596  67.4097336  75.0973810
  18.8284785  66.9800302  76.2574081  10.7628590  71.5340990  63.5388727
  10.0697835  71.6085345  62.8828763  10.5180342  70.7701333  64.0610244
  19.4342246  63.0936591  70.9428218  19.7144000  62.4259780  71.5688645
  20.2192853  63.2865687  70.4302882  23.3051105  71.5154225  74.6899793
  24.2568528  71.6152323  74.7112017  23.1354555  70.7232494  75.1997878
  21.3265484  68.6009808  74.8759194  20.7315416  68.8814821  74.1805683
  21.0415181  69.0903709  75.6475935  23.0860991  81.8698605  60.5965774
  23.0074623  81.5358469  61.4901532  23.9070658  82.3620373  60.5957247
  25.7839183  74.7360345  73.8042093  25.7515503  73.7976346  73.9901777
  26.3939806  74.8144382  73.0707918  17.6222513  73.6056398  59.8469297
  18.5681618  73.4762606  59.9157715  17.2436758  72.8671060  60.3238725
  23.5944398  65.2712404  69.8096189  23.3969219  64.9627492  70.6939521
  24.2044104  65.9974043  69.9394119  31.6015732  75.7976352  72.9448130
  32.3319121  75.5361640  73.5055833  30.9922678  75.0605074  72.9850198
  29.6831030  73.9384214  73.5422581  28.9564193  73.8040179  72.9339073
  29.2678316  74.2461043  74.3479299  15.8065431  71.5306374  59.7824182
  14.8996886  71.2339487  59.8586896  16.0841412  71.2336192  58.9158468
  17.4227496  66.0743264  65.9368424  16.6128225  65.7290349  66.3123670
  18.1111913  65.7650808  66.5256035  19.3518045  65.1521311  67.5592720
  19.9049083  65.5716764  68.2182743  19.5888131  64.2257059  67.6015676
  14.5764215  68.3893309  59.9236161  15.4383379  68.7148208  60.1831979
  14.7614559  67.6024805  59.4109227  22.7296852  67.2621836  67.0671384
  22.1495521  67.9206640  66.6849437  22.4632784  66.4399180  66.6558802
  21.1800418  66.6626894  69.2692705  21.6800196  66.7743428  68.4607024
  21.8236026  66.3587946  69.9093513  21.5121730  69.4221926  66.1227733
  20.6247585  69.7071577  65.9047927  21.9275719  69.2615690  65.2755010
  24.8636266  69.4468447  69.8382072  25.6396656  69.9364900  70.1106689
  24.1384400  69.8726501  70.2953941  27.3008824  70.1596066  70.8956013
  27.8953315  69.9191802  70.1849321  27.3735408  69.4403197  71.5229549
  20.6564943  79.1866601  60.2175753  21.3600793  79.3916603  60.8333408
  19.9327592  79.7543363  60.4824836  21.4862753  74.9376462  66.3378023
  21.4297955  75.3945014  65.4985655  22.0391096  74.1767147  66.1600866
  25.2967559  70.7266194  67.1628142  25.0404494  70.3262830  67.9936350
  24.6720427  71.4409988  67.0378282  29.6079897  73.4662267  69.6699434
  29.0479455  73.5355457  70.4430996  29.0023401  73.2903252  68.9498930
  22.5651641  79.6249130  62.2674213  23.3997245  79.1930329  62.0851688
  22.4035983  79.4531144  63.1951107  22.2197533  76.1281243  63.6330552
  22.1646337  75.9625515  62.6918996  21.5943588  76.8357276  63.7892742
  15.5293658  65.6289352  63.2115870  15.5172328  66.5731192  63.3684141
  16.4217080  65.4459498  62.9175332  19.3445778  62.2232129  67.4661807
  18.5778173  61.6690616  67.6118490  19.7556483  62.2953998  68.3275959
  36.1485611  87.8045468  70.3415576  36.8810783  87.2344685  70.5753406
  35.3924967  87.4167069  70.7822082  33.6711032  81.5167042  74.8010185
  33.3394356  82.3862453  74.5771400  33.0756645  81.2003326  75.4804215
  33.5639695  86.2362129  71.8803535  32.6556572  86.1677537  71.5862296
  33.5127291  86.7134073  72.7085360  35.4301341  84.4378567  73.6581409
  34.7875722  84.7311100  73.0121203  34.9256270  84.3231487  74.4634605
  30.8712788  85.2043343  77.0143291  30.6273720  85.9585404  76.4777567
  31.1472719  85.5828691  77.8490538  30.4277480  84.3599776  72.5957129
  29.5661959  84.6581030  72.8873866  30.4539914  84.5770175  71.6638161
  30.7694163  79.3636624  74.4181498  30.4258433  80.2538265  74.3420609
  31.1373126  79.1738281  73.5551083  28.3191557  84.1994935  67.9839172
  27.4633154  83.8101786  67.8044810  28.7318509  84.2786896  67.1238957
  29.8490704  81.7341279  72.3830732  29.3455499  81.6971414  71.5698537
  30.1421311  82.6434021  72.4427388  26.0933590  81.8180008  71.3896913
  26.9586586  81.6222817  71.0302803  26.1611099  81.5890360  72.3166270
  26.0018577  80.9223465  67.4888349  25.3482989  80.6072482  66.8644964
  25.9599051  80.2999206  68.2148172  32.4670202  85.8453931  68.9257467
  31.7292959  85.3331317  69.2567709  32.7196975  85.4054312  68.1140744
  32.5681829  78.6230183  69.5199236  32.8740706  77.7627546  69.2325151
  33.2934434  79.2147803  69.3198230  28.6488457  83.1179414  77.3664513
  28.0016372  83.8169364  77.2728989  29.4189473  83.5515558  77.7340761
  30.3964452  84.0854825  69.8703798  30.8933152  83.3324787  69.5504868
  29.6251434  84.1219141  69.3047007  32.8383447  81.0524418  72.0183157
  31.9246527  81.2828645  72.1865364  33.2676549  81.1362862  72.8697189
  26.1655676  83.8699878  75.3637849  25.8252496  83.0707691  75.7658529
  25.4594682  84.1701589  74.7914682  26.8172147  80.9549191  73.8165172
  27.6398217  80.4809669  73.6944062  27.0610211  81.7339674  74.3163858
  29.6011505  84.6882598  65.0486406  29.8175119  85.5707236  64.7475234
  29.1205572  84.2968811  64.3192048  25.6044005  83.5185240  66.9425610
  25.7259916  82.5901886  67.1416497  25.3146047  83.5323926  66.0303925
  28.4735195  81.2040150  70.0792330  28.4956892  81.2679483  69.1244309
  28.8903254  80.3644659  70.2732836  30.0223407  82.0028226  75.4227322
  30.5405351  82.7389253  75.0973810  29.6678540  82.3092220  76.2574081
  30.2736001  78.4228509  70.9428218  30.5537755  77.7551698  71.5688645
  31.0586608  78.6157604  70.4302882  34.1444859  86.8446143  74.6899793
  35.0962282  86.9444240  74.7112017  33.9748310  86.0524411  75.1997878
  32.1659239  83.9301726  74.8759194  31.5709171  84.2106739  74.1805683
  31.8808935  84.4195627  75.6475935  36.7727426  86.8563306  73.8500376
  36.2566474  86.0721763  73.6630305  37.6567374  86.5282023  74.0146896
  34.4338152  80.6004321  69.8096189  34.2362974  80.2919410  70.6939521
  35.0437858  81.3265960  69.9394119  28.2621251  81.4035182  65.9368424
  27.4521979  81.0582267  66.3123670  28.9505668  81.0942725  66.5256035
  30.1911799  80.4813228  67.5592720  30.7442838  80.9008682  68.2182743
  30.4281885  79.5548976  67.6015676  25.4157970  83.7185227  59.9236161
  26.2777134  84.0440125  60.1831979  25.6008314  82.9316723  59.4109227
  33.5690606  82.5913754  67.0671384  32.9889275  83.2498558  66.6849437
  33.3026539  81.7691098  66.6558802  32.0194173  81.9918811  69.2692705
  32.5193951  82.1035346  68.4607024  32.6629780  81.6879864  69.9093513
  32.3515484  84.7513844  66.1227733  31.4641339  85.0363495  65.9047927
  32.7669473  84.5907607  65.2755010  35.7030020  84.7760365  69.8382072
  36.4790410  85.2656817  70.1106689  34.9778154  85.2018419  70.2953941
  38.1402579  85.4887984  70.8956013  38.7347070  85.2483720  70.1849321
  38.2129163  84.7695115  71.5229549  36.1361314  86.0558112  67.1628142
  35.8798248  85.6554747  67.9936350  35.5114182  86.7701906  67.0378282
  40.4473652  88.7954185  69.6699434  39.8873210  88.8647374  70.4430996
  39.8417155  88.6195170  68.9498930  26.3687413  80.9581270  63.2115870
  26.3566083  81.9023110  63.3684141  27.2610835  80.7751415  62.9175332
  30.1839532  77.5524047  67.4661807  29.4171928  76.9982533  67.6118490
  30.5950237  77.6245915  68.3275959   3.6304349  18.8231838  57.0660883
   4.3629521  18.2531055  57.2998712   2.8743705  18.4353438  57.5067388
   2.9120079  15.4564937  60.3826715   2.2694459  15.7497470  59.7366510
   2.4075008  15.3417857  61.1879912   3.0519057  25.1208366  55.8170520
   2.3670095  25.5007267  55.2667553   3.1362906  25.7303693  56.5502468
   1.4215817  25.6440280  60.5888221   2.2433260  25.2420468  60.3070902
   1.4178219  25.5408515  61.5404336   9.5121810  21.9879029  56.9373192
   8.7585518  21.4186427  56.7817197   9.6469351  21.9541693  57.8843827
   3.1897458  23.1263959  51.5852414   2.4126901  22.7875118  51.1407576
   3.8688939  23.1316582  50.9107379   1.4288765  22.5997940  58.2419021
   0.7712439  23.2897202  58.3299150   2.2329164  22.9894372  58.5853008
   3.5885955  22.1407665  54.0475335   3.4503854  22.3309261  53.1196525
   3.2322174  22.9027048  54.5043387   3.6155335  24.2084192  59.0586607
   4.0491841  24.1159482  59.9069661   4.3286915  24.1841693  58.4206623
   4.4770884  24.2507893  61.5919492   4.6706774  25.1553704  61.8378767
   4.3771503  23.7915312  62.4258077   1.2478200  27.4333758  65.2436855
   1.1890746  26.7492979  64.5767438   1.6497718  28.1752748  64.7917481
   5.7312947  20.8081560  58.2367396   5.7202824  21.6906275  57.8661329
   4.8630327  20.4553111  58.0421933   2.3485522  19.7030201  54.7037562
   2.8145974  20.5358192  54.6297865   2.7993023  19.2375182  55.4082821
   0.6902850  28.6759689  57.8664468   1.6149398  28.4702550  57.7288919
   0.5218153  28.4276090  58.7753809   6.3337557  21.9581779  54.8416859
   6.7768703  21.2089104  54.4435982   5.4564068  21.9491915  54.4590591
   1.4673339  28.5112121  50.3223458   2.1624243  29.1318813  50.5410772
   1.8096489  27.6607472  50.5975835   3.3664762  25.9611826  51.8510788
   3.8916086  26.2999099  51.1260108   3.2787114  25.0258841  51.6673923
   3.0558668  26.5944730  67.1561986   2.2654212  26.5768869  66.6166486
   2.8192023  27.1333023  67.9111023   3.1756543  23.4437196  64.4694715
   3.2254548  23.2787204  65.4110238   3.0670466  22.5764455  64.0792596
   4.6774740  25.8634138  64.7136736   4.3859548  26.2264118  65.5500197
   4.0646871  25.1501146  64.5350068   5.8770422  23.4287017  57.2339307
   6.7117314  23.8676821  57.3976867   6.0129551  22.9525671  56.4147552
   2.9261928  20.9866752  63.1816794   3.4016050  21.1794399  62.3735646
   2.0027493  21.0425938  62.9360178   1.6263597  17.8632512  61.4145100
   2.5781020  17.9630610  61.4357324   1.4567047  17.0710781  61.9243184
   1.4073484  28.2176893  47.3211081   1.3287115  27.8836756  48.2146839
   2.2283150  28.7098661  47.3202553   4.1051675  21.0838632  60.5287400
   4.0727995  20.1454633  60.7147083   4.7152298  21.1622669  59.7953224
   4.2546163  17.8749675  60.5745683   3.7385212  17.0908132  60.3875612
   5.1386112  17.5468392  60.7392202   9.9228225  22.1454639  59.6693436
  10.6531613  21.8839927  60.2301140   9.3135170  21.4083361  59.7095504
   8.0043522  20.2862501  60.2667888   7.2776685  20.1518466  59.6584379
   7.5890809  20.5939330  61.0724606   3.1848758  15.7946734  56.5627379
   3.9609148  16.2843187  56.8351995   2.4596892  16.2204789  57.0199248
   5.6221317  16.5074354  57.6201319   6.2165808  16.2670090  56.9094627
   5.6947900  15.7881484  58.2474856   3.6180052  17.0744481  53.8873449
   3.3616986  16.6741117  54.7181657   2.9932920  17.7888275  53.7623588
   7.9292389  19.8140555  56.3944740   7.3691947  19.8833744  57.1676302
   7.3235893  19.6381539  55.6744237   0.8864133  25.9727417  48.9919519
   1.7209737  25.5408616  48.8096994   0.7248476  25.8009431  49.9196414
   9.5148408  36.4897068  59.0874696  10.1526818  36.3703816  58.3838036
   9.3969251  37.4377912  59.1462648   6.3238114  36.4424497  59.0236221
   5.9856626  36.3265561  58.1356756   7.1927882  36.0415662  59.0037227
   2.1824930  38.2959973  55.0133112   1.6189795  38.2049910  54.2449400
   2.0677325  37.4759877  55.4935604   6.8057897  37.5959348  64.9822426
   6.7946538  37.2012147  64.1102930   6.9678537  36.8625421  65.5756198
   7.7624489  41.9630941  50.3247577   7.1112468  42.5485021  49.9381590
   8.5568851  42.4937136  50.3842614   1.6880116  39.0520078  50.7234711
   2.4610992  38.5049065  50.5847587   2.0405515  39.9164327  50.9349172
   3.5265158  40.3796460  63.9301610   3.2355024  41.2842091  63.8148277
   4.1622143  40.4212988  64.6445680   4.4521365  37.7573309  60.5202970
   5.0484937  37.5329331  59.8059933   4.5096337  37.0158054  61.1228418
   4.0246394  35.2112744  48.3553161   4.2771914  34.6894265  47.5936624
   3.0870953  35.0478889  48.4579845   9.0689676  34.2148522  56.1627904
   9.8552766  33.7967945  55.8118321   9.3328381  35.1194614  56.3309553
   9.2399754  39.6521373  50.8616561   8.6045587  39.7255999  51.5737466
   8.9097160  40.2414971  50.1835640  14.4698104  34.1523755  57.0660883
  15.2023275  33.5822972  57.2998712  13.7137459  33.7645356  57.5067388
   3.7442682  37.1140850  50.5577536   3.6278940  36.4385753  51.2258620
   3.8544942  36.6273224  49.7409689   6.0874223  36.5750997  54.2624225
   5.7232431  36.0481618  54.9737147   6.9441339  36.1849466  54.0890711
  11.9923524  27.8645330  61.5255491  11.6606849  28.7340741  61.3016706
  11.3969137  27.5481614  62.2049522   5.7279710  31.6040897  49.2585574
   5.8954113  32.4721133  49.6256045   5.5376879  31.7668178  48.3346863
   8.4855043  40.0657876  60.9251404   8.1855767  40.9682914  60.8167211
   8.1406103  39.7990059  61.7772557   1.9367525  36.5171672  56.9588108
   1.0118021  36.3847887  57.1665800   2.1851938  37.2965892  57.4558051
  11.8852187  32.5840416  58.6048841  10.9769065  32.5155824  58.3107602
  11.8339783  33.0612361  59.4330667   5.7068931  34.0598554  50.2432240
   5.5868556  34.5055605  51.0817721   5.0121520  34.4083872  49.6845779
   3.4675823  46.8302196  53.8922372   3.3899853  47.7810021  53.9710852
   2.8637467  46.4848068  54.5497298   5.9593053  34.0030061  66.5483739
   5.1826387  34.5623982  66.5386603   6.5983616  34.4886844  67.0698609
  13.7513834  30.7856854  60.3826715  13.1088214  31.0789387  59.7366510
  13.2468762  30.6709775  61.1879912  11.4053997  34.5320027  51.0712575
  12.3171853  34.7647414  50.8960272  10.8963644  35.1157072  50.5087653
   4.2139425  36.8115515  66.1101706   4.9554110  37.3500559  65.8336529
   3.5076411  37.4381803  66.2673257   9.6894765  38.9544655  64.7073867
  10.0978121  38.5127066  63.9628499   8.9672026  38.3797283  64.9608060
   6.0425835  33.8917262  62.0807424   6.8887030  34.3156676  62.2242073
   5.9824473  33.2350886  62.7745987  10.0123580  39.5145846  58.4626156
   9.3832442  39.6791560  57.7602224   9.6249242  39.9287455  59.2337120
  13.8912812  40.4500284  55.8170520  13.2063850  40.8299185  55.2667553
  13.9756661  41.0595610  56.5502468   9.1925280  31.5521630  63.7388598
   8.9486212  32.3063691  63.2022873   9.4685211  31.9306978  64.5735845
  11.1463743  38.0960243  62.4165863  11.3580638  38.7392003  61.7400244
  11.0993491  37.2622559  61.9487793   8.7489972  30.7078063  59.3202435
   7.8874451  31.0059317  59.6119173   8.7752407  30.9248462  58.3883468
   5.5651541  39.2520254  55.7276241   6.0289887  39.5307957  54.9380864
   5.3008340  38.3503698  55.5449332   2.4575623  38.7991735  58.6656004
   3.0276980  39.2279004  58.0273489   3.0483734  38.5174320  59.3640190
   4.5020428  35.3743406  52.5365806   5.2044471  35.8264450  53.0039733
   4.1701056  34.7327225  53.1645699   2.9500789  33.9655163  66.9117016
   2.3199450  34.6471444  67.1452412   2.8436877  33.8538245  65.9670154
  12.2609571  40.9732198  60.5888221  13.0827015  40.5712385  60.3070902
  12.2571974  40.8700432  61.5404336   6.0266174  40.5216241  62.7448931
   6.0910607  40.9836649  63.5807103   5.3177098  39.8913606  62.8731241
  20.3515564  37.3170947  56.9373192  19.5979272  36.7478345  56.7817197
  20.4863105  37.2833611  57.8843827   5.7414192  42.1884349  52.6127911
   5.6059867  43.0335885  53.0412759   6.2824005  42.3903627  51.8493845
   2.2281532  28.2675929  69.2742267   1.8348477  27.7142127  69.9489911
   3.0447672  28.5786507  69.6648784   1.0038474  42.8225543  55.2678590
   1.1805103  43.7443508  55.0799574   1.7995308  42.5083962  55.6972969
   5.1449493  29.6833808  66.8662523   5.8859206  30.2840961  66.7866986
   5.3767416  28.9411446  66.3080566   7.3682669  42.8107915  66.7428254
   6.9246523  42.0244294  66.4249158   8.0299882  42.9987066  66.0772144
   2.1269790  44.3403717  61.2688932   2.6777215  44.2120780  60.4965926
   1.2881266  44.6398606  60.9183825   9.4663907  43.0910715  64.7709655
   9.4482382  43.9119596  64.2789924  10.3883827  42.9664791  64.9959796
   5.9236961  40.6054845  65.6133163   6.4565298  39.8443133  65.3832471
   5.3951042  40.3128497  66.3557318   9.0906656  25.7114911  61.1426805
   8.7470925  26.6016552  61.0665915   9.4585618  25.5216568  60.2796390
   9.0556938  35.7023522  49.6499240   8.5403562  36.4728127  49.8887627
   8.7834247  35.0288658  50.2732301   6.6404049  30.5473223  54.7084478
   5.7845646  30.1580073  54.5290117   7.0531001  30.6265183  53.8484264
   8.1703196  28.0819566  59.1076038   7.6667992  28.0449701  58.2943843
   8.4633803  28.9912309  59.1672695   4.4146082  28.1658296  58.1142220
   5.2799079  27.9701104  57.7548109   4.4823591  27.9368647  59.0411577
  14.0291213  38.4555877  51.5852414  13.2520655  38.1167036  51.1407576
  14.7082694  38.4608500  50.9107379   8.8443242  33.5750614  51.4759021
   8.5393377  33.8896763  52.3269164   9.7973684  33.6532034  51.5186354
   7.2889673  39.7340837  53.1251975   6.7611035  38.9993597  52.8125213
   6.7877176  40.5115514  52.8791944  12.2682519  37.9289858  58.2419021
  11.6106194  38.6189119  58.3299150  13.0722919  38.3186290  58.5853008
   2.0208401  30.3960504  55.4858587   2.5952153  30.1735685  54.7531780
   2.6079384  30.4649198  56.2387188  11.0787978  36.2834230  56.2922963
  11.5919860  36.9164222  56.7944673  11.7289202  35.6835426  55.9266323
   2.3477988  32.4264965  49.5054472   1.5115300  32.7639651  49.8263747
   2.2082758  32.2913944  48.5681609   4.3231069  27.2701752  54.2133656
   3.6695481  26.9550770  53.5890271   4.2811543  26.6477493  54.9393479
   5.4342274  37.5521048  46.1286948   4.5269335  37.3210301  46.3278097
   5.9313306  36.7558667  46.3160930   8.3410353  46.2618555  49.0483634
   7.6672051  46.5650252  49.6568592   8.7276174  47.0647635  48.6989091
   7.5568809  33.7583686  58.5381304   6.6391371  33.9798633  58.3802992
   7.9728953  33.8329997  57.6793011   8.3403857  35.1575102  53.6683984
   9.0875676  35.6696499  53.3591106   8.6095446  34.8359154  54.5288378
   6.6130507  37.6533642  50.6510938   5.7041726  37.3692675  50.7483408
   6.6425591  38.0732721  49.7914245  11.8449774  41.2640232  54.4202106
  11.3912102  40.4231142  54.4767296  11.2143741  41.9001630  54.7576886
  10.7882694  32.1932218  55.6502773  10.0505451  31.6809604  55.9813016
  11.0409468  31.7532600  54.8386050  10.2882714  43.1016729  55.3551924
  10.5805688  43.6621786  54.6364290  10.7981334  43.3945290  56.1105083
  10.8894321  24.9708470  56.2444543  11.1953198  24.1105833  55.9570458
  11.6146926  25.5626090  56.0443536   5.1615401  35.2662263  56.7520734
   5.2164011  34.3136099  56.6763210   4.3506603  35.4221702  57.2362032
   6.3106595  39.1942386  47.9899017   5.8726025  38.4778245  47.5304654
   7.0517036  39.4218501  47.4284108   3.1007761  33.8839323  54.5111113
   2.2875627  34.1833493  54.9176305   3.5966755  33.4895012  55.2285595
   5.2516339  43.8797080  56.4445377   5.2092518  44.1057926  55.5153909
   6.1679038  43.6460454  56.5931178   8.6981973  34.3481147  63.3426006
   9.0531360  34.5752620  64.2020472   9.3454104  34.6799524  62.7203262
  14.4279710  37.4699583  54.0475335  14.2897608  37.6601179  53.1196525
  14.0715928  38.2318966  54.5043387   2.5921836  31.4557678  60.1272347
   3.2321215  31.3146437  59.4295311   1.7599366  31.1692192  59.7510949
  14.4549089  39.5376110  59.0586607  14.8885596  39.4451399  59.9069661
  15.1680670  39.5133611  58.4206623   3.3682140  40.7560109  56.2407340
   4.1622738  40.2610429  56.0389915   2.6573832  40.2277972  55.8775046
   8.1876984  43.1378204  60.5919708   8.2414006  43.7069141  61.3597423
   7.3191766  43.3080089  60.2273745  15.3164639  39.5799811  61.5919492
  15.5100529  40.4845621  61.8378767  15.2165257  39.1207230  62.4258077
   6.9700950  29.4657701  64.0909820   6.3228865  30.1647651  63.9974296
   7.7401965  29.8993845  64.4586068  10.3779748  39.7306554  67.1660373
  10.2265254  39.5017105  66.2490457  10.3684427  40.6877155  67.1791718
   7.1465084  37.3038466  62.1506639   8.0757144  37.4549626  61.9775607
   6.7256114  37.3922487  61.2955286   5.9453416  41.3289131  59.9205177
   5.8064501  40.9607915  60.7931115   5.1568012  41.8436770  59.7489135
   6.5401568  46.4298227  51.2630714   6.7153323  45.9586270  52.0776336
   5.8534356  47.0563993  51.4911974   7.4958631  40.7070733  57.3094015
   7.1608463  40.6671503  58.2051665   6.9962577  40.0415449  56.8364425
   1.4702875  36.1138363  62.8346596   1.3322673  35.3818602  63.4358135
   2.3807798  36.0247264  62.5530784  10.4317822  38.0526768  47.5831074
   9.8146993  37.3273596  47.4864127   9.9634311  38.8136128  47.2398149
   4.0985175  35.8258323  62.3230276   4.8084794  35.1851515  62.2816894
   4.0554484  36.0771218  63.2456456  12.0871954  42.7625676  65.2436855
  12.0284500  42.0784896  64.5767438  12.4891473  43.5044666  64.7917481
   2.8114109  32.8123541  64.1425915   2.2751466  32.3614279  64.7947511
   2.2230818  32.9469449  63.3996379   2.2216368  32.2712192  46.7052379
   1.3445835  32.1500993  46.3414625   2.6974121  31.4798270  46.4531267
  12.0889361  40.7265260  63.4750835  11.2016140  40.3891182  63.5977233
  12.6587912  39.9948291  63.7119600   5.6190515  45.3866712  60.4412078
   5.5460686  46.1921684  60.9531382   5.1767908  45.5858678  59.6160099
   5.4080294  44.6238482  53.9514899   4.6247816  45.1660163  54.0453124
   6.1073040  45.1412462  54.3509140   8.7176945  30.4333112  56.5949105
   9.2145644  29.6803074  56.2750175   7.9463926  30.4697429  56.0292314
  16.5706702  36.1373477  58.2367396  16.5596578  37.0198193  57.8661329
  15.7024081  35.7845028  58.0421933   8.0789198  45.2853546  62.5970236
   8.7917171  45.9201011  62.5246138   7.5879227  45.3817412  61.7810238
   9.8006725  39.1904799  54.1687528   8.8663004  39.3106262  53.9992232
   9.9783394  38.2877266  53.9047538   5.3011913  32.5750495  56.3220789
   4.9309701  32.0221535  57.0101695   5.7971006  31.9708628  55.7695789
  13.1879277  35.0322118  54.7037562  13.6539729  35.8650110  54.6297865
  13.6386777  34.5667100  55.4082821   3.1301112  43.0347990  63.4175807
   3.8310571  43.6684473  63.5705201   2.6596227  43.3762721  62.6571446
  11.2555508  41.3765940  51.7023714  11.5315352  41.2622534  52.6117588
  10.3860006  40.9783425  51.6635887  11.1595939  27.4002705  58.7428464
  10.2459019  27.6306932  58.9110670  11.5889041  27.4841149  59.5942496
  10.9302398  35.5892597  61.2428358  10.2773848  35.8368505  60.5880810
  11.3082778  34.7756736  60.9090835   7.8909572  45.6252291  55.3456528
   8.0731966  44.8073946  55.8084280   8.7142558  45.8419983  54.9081418
   8.2251737  44.5520476  52.6071576   8.7539504  44.0412930  51.9941738
   8.4879957  44.2363006  53.4717109   6.9789971  36.3312408  67.7294395
   6.3030608  36.2306538  68.3996770   7.8017605  36.1751622  68.1930392
   1.5807485  45.6035592  55.3669352   0.9117860  46.0881720  54.8833392
   1.4420355  45.8504813  56.2812731   5.7212754  47.6379336  61.9652011
   6.2731062  47.8010957  62.7301096   6.0618947  48.2283774  61.2932035
   0.6977247  29.9854486  62.5673895   0.7618573  30.8469317  62.1551293
   0.6344367  29.3728487  61.8346254  10.5723628  42.4640593  67.8200665
  11.1163532  43.0770552  67.3255620   9.9910473  43.0220172  68.3367678
   8.8581141  45.5861311  58.9515693   8.7332280  44.7851051  58.4426638
   9.5160232  46.0807505  58.4629663  10.9216049  43.3870331  60.5795243
   9.9746385  43.2675683  60.5073570  11.2698823  42.4992829  60.6621504
   3.2815623  29.2764470  64.4033485   3.8050025  29.5226767  65.1659794
   3.0627956  30.1084505  63.9836622   7.9262483  43.1823048  56.7799595
   7.7787445  42.2539755  56.9607165   8.7515976  43.2043138  56.2956670
   1.7924727  31.8341115  52.6380087   2.1320799  32.3627036  51.9158696
   2.2396847  32.1721521  53.4138654  11.5296605  44.0051606  57.8664468
  12.4543152  43.7994468  57.7288919  11.3611908  43.7568008  58.7753809
   4.4868168  30.2178165  62.0883155   4.1464988  29.4185979  62.4903835
   3.7807174  30.5179876  61.5159988   5.1384640  27.3027478  60.5410478
   5.9610709  26.8287956  60.4189369   5.3822703  28.0817962  61.0409165
   3.7792874  30.3315736  50.8373380   4.5001237  30.7096989  50.3337097
   3.1558178  31.0504613  50.9408358   7.9223997  31.0360885  51.7731712
   8.1387611  31.9185523  51.4720540   7.4418064  30.6447099  51.0437354
   2.6623218  33.9946599  58.3502457   2.5167799  34.3086902  59.2426738
   2.1848422  34.6131499  57.7973356   4.5219601  30.9849147  58.3983346
   4.5081170  30.0890240  58.0615644   5.2392029  30.9919810  59.0321633
   6.3745732  31.4186487  60.4436474   6.1163510  32.3403557  60.4420804
   5.8430772  31.0216921  61.1336938  11.3191921  44.5237274  53.2226559
  11.4928798  43.9583696  52.4700412  11.8120812  45.3238169  53.0406049
   3.9256497  29.8663527  53.6670917   4.0472408  28.9380173  53.8661804
   3.6358540  29.8802213  52.7549232   6.7947688  27.5518437  56.8037636
   6.8169384  27.6157770  55.8489616   7.2115747  26.7122946  56.9978143
  17.1731312  37.2873697  54.8416859  17.6162458  36.5381022  54.4435982
  16.2957822  37.2783833  54.4590591  12.3067093  43.8404038  50.3223458
  13.0017998  44.4610731  50.5410772  12.6490243  42.9899389  50.5975835
  14.2058516  41.2903744  51.8510788  14.7309840  41.6291017  51.1260108
  14.1180869  40.3550759  51.6673923   5.8678565  45.2037817  63.9800665
   6.1765692  44.9586964  64.8523365   6.6654047  45.4084456  63.4919535
   5.8899177  47.3575727  56.2106042   5.4504167  46.8652106  56.9038898
   6.6407294  46.8148695  55.9698117   3.3373049  42.9013736  58.2828343
   2.7153059  42.2384441  57.9830571   4.0077916  42.9274868  57.6001991
   3.4097577  31.3795524  67.8760849   3.4585732  32.2557647  67.4938619
   3.9520091  30.8372917  67.3032492  13.8952422  41.9236647  67.1561986
  13.1047966  41.9060786  66.6166486  13.6585777  42.4624941  67.9111023
  14.0150297  38.7729114  64.4694715  14.0648302  38.6079121  65.4110238
  13.9064221  37.9056373  64.0792596   2.8986556  41.4517659  51.7586804
   3.0474677  42.1353124  51.1053476   3.7053000  41.4322750  52.2736259
  11.3054060  34.7560042  65.7854022  12.2063923  34.6166507  65.4938019
  11.3802034  34.9214497  66.7252199   5.6396865  32.1326897  64.6307208
   4.7700175  32.4260463  64.3589796   5.8756346  32.7167342  65.3514472
  15.5168494  41.1926055  64.7136736  15.2253303  41.5556036  65.5500197
  14.9040626  40.4793064  64.5350068  16.7164177  38.7578935  57.2339307
  17.5511068  39.1968739  57.3976867  16.8523305  38.2817588  56.4147552
  13.7655683  36.3158670  63.1816794  14.2409804  36.5086316  62.3735646
  12.8421248  36.3717856  62.9360178   8.3435899  28.3506514  62.1472628
   8.8617843  29.0867540  61.8219117   7.9891032  28.6570507  62.9819387
   8.5948493  24.7706796  57.6673525   8.8750247  24.1029985  58.2933951
   9.3799100  24.9635892  57.1548189   6.3981962  43.9465790  49.2298551
   5.8255929  44.5655977  48.7769023   6.9714755  44.4965152  49.7638473
  12.4657352  33.1924430  61.4145100  13.4174774  33.2922528  61.4357324
  12.2960802  32.4002699  61.9243184  10.4871731  30.2780013  61.6004501
   9.8921663  30.5585026  60.9050990  10.2021428  30.7673914  62.3721242
   9.6179221  44.2302940  50.3607133  10.5509895  44.1648502  50.5640009
   9.5302434  45.0659207  49.9021666  12.2467238  43.5468810  47.3211081
  12.1680870  43.2128674  48.2146839  13.0676905  44.0390578  47.3202553
  14.9445429  36.4130550  60.5287400  14.9121749  35.4746550  60.7147083
  15.5546053  36.4914586  59.7953224   6.7828760  35.2826603  46.5714604
   7.7287865  35.1532811  46.6403022   6.4043005  34.5441265  47.0484032
  15.0939918  33.2041593  60.5745683  14.5778966  32.4200050  60.3875612
  15.9779866  32.8760310  60.7392202  12.7550645  26.9482609  56.5341495
  12.5575466  26.6397697  57.4184827  13.3650350  27.6744248  56.6639425
  20.7621979  37.4746557  59.6693436  21.4925368  37.2131845  60.2301140
  20.1528925  36.7375279  59.7095504  18.8437276  35.6154419  60.2667888
  18.1170440  35.4810384  59.6584379  18.4284563  35.9231248  61.0724606
   6.6667453  39.3344349  68.0315261   7.5870462  39.5122948  68.2255307
   6.6317036  38.3900394  67.8794960   4.9671677  33.2076579  46.5069489
   4.0603133  32.9109692  46.5832202   5.2447658  32.9106397  45.6403775
   6.5833743  27.7513469  52.6613730   5.7734471  27.4060554  53.0368976
   7.2718160  27.4421013  53.2501342   8.5124291  26.8291516  54.2838027
   9.0655330  27.2486969  54.9428050   8.7494378  25.9027264  54.3260983
   4.5357391  32.8178589  70.0640791   4.4354117  33.7672946  69.9952882
   4.3178933  32.4896828  69.1916861   3.7370462  30.0663514  46.6481468
   4.5989626  30.3918413  46.9077285   3.9220806  29.2795010  46.1354534
  11.8903098  28.9392041  53.7916691  11.3101768  29.5976845  53.4094743
  11.6239031  28.1169385  53.3804109  10.3406665  28.3397098  55.9938011
  10.8406443  28.4513633  55.1852330  10.9842273  28.0358151  56.6338820
   4.3988661  36.2475728  68.8805852   3.9155742  37.0476088  69.0869741
   4.4849600  36.2583673  67.9273296   0.9161380  38.7081379  63.4845084
   1.7354269  39.2025458  63.5079921   1.1898188  37.7913347  63.4562651
  10.6727976  31.0992131  52.8473039   9.7853831  31.3841782  52.6293234
  11.0881966  30.9385895  52.0000316  14.0242513  31.1238652  56.5627379
  14.8002903  31.6135105  56.8351995  13.2990647  31.5496706  57.0199248
  16.4615071  31.8366271  57.6201319  17.0559562  31.5962007  56.9094627
  16.5341655  31.1173402  58.2474856   9.8171190  40.8636806  46.9421059
  10.5207040  41.0686808  47.5578715   9.0933839  41.4313568  47.2070143
  10.6469000  36.6146667  53.0623329  10.5904202  37.0715219  52.2230962
  11.1997343  35.8537352  52.8846172  14.4573806  32.4036399  53.8873449
  14.2010740  32.0033035  54.7181657  13.8326674  33.1180193  53.7623588
  18.7686144  35.1432472  56.3944740  18.2085702  35.2125662  57.1676302
  18.1629647  34.9673457  55.6744237   1.8381353  46.5769199  58.1462927
   1.7213737  47.5214632  58.0441617   1.0173799  46.2742761  58.5348726
  11.7257887  41.3019335  48.9919519  12.5603491  40.8700533  48.8096994
  11.5642230  41.1301349  49.9196414  11.3803780  37.8051448  50.3575859
  11.3252583  37.6395720  49.4164303  10.7549835  38.5127481  50.5138048
   8.6949687  40.1100360  69.6829421   9.5640846  40.2841012  69.3216056
   8.2156438  40.9294777  69.5605151   4.6899905  27.3059557  49.9361177
   4.6778575  28.2501397  50.0929448   5.5823327  27.1229703  49.6420638
   2.8635867  47.2297461  61.3618855   3.7663114  47.2621071  61.6785350
   2.6373237  46.2997912  61.3765191   4.6189469  45.9828448  58.0228934
   3.6685100  45.9830309  57.9093306   4.9221955  45.2361182  57.5064968
   8.5052024  23.9002334  54.1907114   7.7384420  23.3460821  54.3363796
   8.9162729  23.9724203  55.0521266  20.3542162  51.8188986  59.0874696
  20.9920572  51.6995733  58.3838036  20.2363005  52.7669830  59.1462648
  17.1631869  51.7716414  59.0236221  16.8250380  51.6557479  58.1356756
  18.0321637  51.3707579  59.0037227  13.0218684  53.6251891  55.0133112
  12.4583550  53.5341828  54.2449400  12.9071079  52.8051795  55.4935604
  17.6451652  52.9251266  64.9822426  17.6340292  52.5304064  64.1102930
  17.8072291  52.1917339  65.5756198  10.5683116  55.1203082  57.8517332
  11.3604408  54.7793907  57.4363632  10.8079767  55.2298057  58.7719486
  18.6018243  57.2922858  50.3247577  17.9506223  57.8776939  49.9381590
  19.3962606  57.8229053  50.3842614  12.5273870  54.3811995  50.7234711
  13.3004746  53.8340983  50.5847587  12.8799269  55.2456245  50.9349172
  14.3658913  55.7088378  63.9301610  14.0748779  56.6134009  63.8148277
  15.0015897  55.7504905  64.6445680  15.2915120  53.0865226  60.5202970
  15.8878692  52.8621249  59.8059933  15.3490091  52.3449972  61.1228418
  14.8640148  50.5404662  48.3553161  15.1165669  50.0186183  47.5936624
  13.9264707  50.3770807  48.4579845  19.9083431  49.5440440  56.1627904
  20.6946520  49.1259863  55.8118321  20.1722135  50.4486532  56.3309553
  20.0793508  54.9813290  50.8616561  19.4439341  55.0547917  51.5737466
  19.7490915  55.5706889  50.1835640  25.3091858  49.4815673  57.0660883
  26.0417030  48.9114890  57.2998712  24.5531214  49.0937274  57.5067388
  14.5836437  52.4432768  50.5577536  14.4672695  51.7677671  51.2258620
  14.6938697  51.9565141  49.7409689  16.9267978  51.9042915  54.2624225
  16.5626185  51.3773536  54.9737147  17.7835094  51.5141384  54.0890711
  22.8317278  43.1937247  61.5255491  22.5000603  44.0632658  61.3016706
  22.2362892  42.8773531  62.2049522  16.5673465  46.9332814  49.2585574
  16.7347867  47.8013051  49.6256045  16.3770634  47.0960096  48.3346863
  19.3248798  55.3949793  60.9251404  19.0249521  56.2974832  60.8167211
  18.9799857  55.1281976  61.7772557  12.7761279  51.8463590  56.9588108
  11.8511776  51.7139804  57.1665800  13.0245693  52.6257809  57.4558051
  22.7245942  47.9132333  58.6048841  21.8162819  47.8447742  58.3107602
  22.6733538  48.3904278  59.4330667  16.5462686  49.3890472  50.2432240
  16.4262311  49.8347523  51.0817721  15.8515274  49.7375790  49.6845779
  10.1370090  51.4896864  57.7931898  10.2662472  51.7431343  58.7071309
   9.4567542  52.0824572  57.4736553  14.3069578  62.1594114  53.8922372
  14.2293607  63.1101939  53.9710852  13.7031221  61.8139986  54.5497298
  16.7986807  49.3321979  66.5483739  16.0220142  49.8915899  66.5386603
  17.4377371  49.8178762  67.0698609  24.5907588  46.1148772  60.3826715
  23.9481968  46.4081305  59.7366510  24.0862517  46.0001692  61.1879912
  22.2447752  49.8611945  51.0712575  23.1565608  50.0939332  50.8960272
  21.7357399  50.4448989  50.5087653  15.0533180  52.1407432  66.1101706
  15.7947864  52.6792476  65.8336529  14.3470165  52.7673721  66.2673257
  20.5288519  54.2836573  64.7073867  20.9371875  53.8418983  63.9628499
  19.8065781  53.7089200  64.9608060  16.8819589  49.2209180  62.0807424
  17.7280785  49.6448593  62.2242073  16.8218227  48.5642804  62.7745987
  20.8517334  54.8437763  58.4626156  20.2226197  55.0083478  57.7602224
  20.4642996  55.2579373  59.2337120  24.7306566  55.7792201  55.8170520
  24.0457604  56.1591103  55.2667553  24.8150415  56.3887528  56.5502468
  20.0319035  46.8813548  63.7388598  19.7879967  47.6355609  63.2022873
  20.3078965  47.2598896  64.5735845  21.9857498  53.4252160  62.4165863
  22.1974393  54.0683920  61.7400244  21.9387246  52.5914477  61.9487793
  19.5883727  46.0369981  59.3202435  18.7268206  46.3351235  59.6119173
  19.6146161  46.2540380  58.3883468  16.4045296  54.5812172  55.7276241
  16.8683642  54.8599875  54.9380864  16.1402094  53.6795616  55.5449332
  13.2969377  54.1283653  58.6656004  13.8670734  54.5570921  58.0273489
  13.8877489  53.8466238  59.3640190  15.3414182  50.7035324  52.5365806
  16.0438225  51.1556368  53.0039733  15.0094811  50.0619143  53.1645699
  13.7894544  49.2947081  66.9117016  13.1593204  49.9763361  67.1452412
  13.6830631  49.1830162  65.9670154   9.0839516  48.9618877  57.8382940
   8.2938570  49.2176405  57.3623050   9.5750763  49.7767214  57.9434980
  23.1003326  56.3024116  60.5888221  23.9220769  55.9004303  60.3070902
  23.0965728  56.1992350  61.5404336  11.0354261  49.3263456  54.7966416
  10.2385425  49.4382150  55.3149912  10.8079854  49.6650108  53.9307307
  16.8659929  55.8508159  62.7448931  16.9304362  56.3128566  63.5807103
  16.1570853  55.2205524  62.8731241   7.3677219  49.2149367  60.2697931
   7.6185257  50.0996377  60.5355507   7.9036767  49.0353969  59.4973022
  31.1909319  52.6462864  56.9373192  30.4373027  52.0770262  56.7817197
  31.3256860  52.6125529  57.8843827  16.5807947  57.5176267  52.6127911
  16.4453621  58.3627802  53.0412759  17.1217759  57.7195544  51.8493845
  13.0675286  43.5967846  69.2742267  12.6742232  43.0434045  69.9489911
  13.8841427  43.9078425  69.6648784  10.0337344  55.0351705  53.1855837
  10.5461865  55.8294955  53.3361401  10.6860057  54.3377995  53.1189438
  11.8432229  58.1517461  55.2678590  12.0198857  59.0735426  55.0799574
  12.6389062  57.8375880  55.6972969  15.9843247  45.0125726  66.8662523
  16.7252961  45.6132879  66.7866986  16.2161170  44.2703363  66.3080566
  11.1284585  50.1982093  65.1440753  11.0138100  49.2967350  65.4447852
  10.2729103  50.4445790  64.7925569  18.2076423  58.1399833  66.7428254
  17.7640277  57.3536212  66.4249158  18.8693637  58.3278984  66.0772144
  12.9663544  59.6695635  61.2688932  13.5170969  59.5412698  60.4965926
  12.1275020  59.9690524  60.9183825  20.3057661  58.4202633  64.7709655
  20.2876136  59.2411514  64.2789924  21.2277581  58.2956708  64.9959796
  16.7630715  55.9346763  65.6133163  17.2959052  55.1735051  65.3832471
  16.2344796  55.6420414  66.3557318  19.9300410  41.0406828  61.1426805
  19.5864680  41.9308470  61.0665915  20.2979373  40.8508486  60.2796390
   7.9986261  53.3640359  53.9615407   8.8361483  53.7737367  53.7449115
   8.1764529  52.4239801  53.9315601  19.8950693  51.0315440  49.6499240
  19.3797316  51.8020044  49.8887627  19.6228001  50.3580576  50.2732301
  17.4797804  45.8765140  54.7084478  16.6239400  45.4871991  54.5290117
  17.8924756  45.9557101  53.8484264  19.0096951  43.4111484  59.1076038
  18.5061746  43.3741619  58.2943843  19.3027557  44.3204226  59.1672695
  15.2539836  43.4950213  58.1142220  16.1192833  43.2993022  57.7548109
  15.3217345  43.2660565  59.0411577  24.8684967  53.7847794  51.5852414
  24.0914410  53.4458954  51.1407576  25.5476448  53.7900417  50.9107379
  19.6836996  48.9042532  51.4759021  19.3787132  49.2188681  52.3269164
  20.6367438  48.9823952  51.5186354  18.1283428  55.0632755  53.1251975
  17.6004790  54.3285515  52.8125213  17.6270931  55.8407431  52.8791944
  23.1076274  53.2581775  58.2419021  22.4499948  53.9481037  58.3299150
  23.9116673  53.6478207  58.5853008  12.8602156  45.7252421  55.4858587
  13.4345907  45.5027603  54.7531780  13.4473138  45.7941116  56.2387188
  21.9181733  51.6126148  56.2922963  22.4313615  52.2456140  56.7944673
  22.5682957  51.0127344  55.9266323  13.1871743  47.7556882  49.5054472
  12.3509055  48.0931569  49.8263747  13.0476512  47.6205862  48.5681609
  15.1624823  42.5993670  54.2133656  14.5089236  42.2842687  53.5890271
  15.1205297  41.9769411  54.9393479  16.2736028  52.8812965  46.1286948
  15.3663090  52.6502219  46.3278097  16.7707060  52.0850584  46.3160930
  19.1804107  61.5910472  49.0483634  18.5065806  61.8942169  49.6568592
  19.5669929  62.3939553  48.6989091  18.3962564  49.0875604  58.5381304
  17.4785125  49.3090551  58.3802992  18.8122707  49.1621914  57.6793011
  19.1797611  50.4867019  53.6683984  19.9269430  50.9988417  53.3591106
  19.4489201  50.1651072  54.5288378  17.4524262  52.9825560  50.6510938
  16.5435481  52.6984593  50.7483408  17.4819345  53.4024639  49.7914245
  22.6843529  56.5932150  54.4202106  22.2305856  55.7523059  54.4767296
  22.0537496  57.2293548  54.7576886  21.6276449  47.5224136  55.6502773
  20.8899205  47.0101522  55.9813016  21.8803222  47.0824517  54.8386050
  21.1276468  58.4308646  55.3551924  21.4199443  58.9913703  54.6364290
  21.6375089  58.7237207  56.1105083  21.7288076  40.3000388  56.2444543
  22.0346953  39.4397751  55.9570458  22.4540681  40.8918008  56.0443536
   8.0212432  50.7031074  54.6326141   7.8236832  50.1100435  53.9077207
   7.4659096  50.3983284  55.3502079  16.0009156  50.5954181  56.7520734
  16.0557765  49.6428017  56.6763210  15.1900358  50.7513620  57.2362032
  17.1500349  54.5234304  47.9899017  16.7119779  53.8070163  47.5304654
  17.8910790  54.7510419  47.4284108  13.9401516  49.2131240  54.5111113
  13.1269381  49.5125411  54.9176305  14.4360510  48.8186929  55.2285595
  16.0910093  59.2088997  56.4445377  16.0486272  59.4349844  55.5153909
  17.0072792  58.9752372  56.5931178  19.5375727  49.6773065  63.3426006
  19.8925115  49.9044538  64.2020472  20.1847858  50.0091442  62.7203262
  25.2673464  52.7991501  54.0475335  25.1291363  52.9893097  53.1196525
  24.9109683  53.5610884  54.5043387  13.4315590  46.7849596  60.1272347
  14.0714970  46.6438355  59.4295311  12.5993121  46.4984109  59.7510949
  25.2942844  54.8668028  59.0586607  25.7279350  54.7743317  59.9069661
  26.0074424  54.8425528  58.4206623  14.2075894  56.0852026  56.2407340
  15.0016493  55.5902347  56.0389915  13.4967587  55.5569890  55.8775046
  19.0270739  58.4670122  60.5919708  19.0807761  59.0361058  61.3597423
  18.1585520  58.6372007  60.2273745  10.5158658  50.2295108  52.3167093
   9.5856246  50.1679564  52.5337055  10.6116130  49.7071061  51.5203734
  10.4344207  46.7549921  54.9045334  10.6951024  47.6695254  54.7954495
  11.2561379  46.2874364  55.0541947  11.9069132  48.1687678  62.0744159
  12.5792185  47.9605040  61.4256808  11.0798919  47.9709764  61.6349391
  26.1558393  54.9091728  61.5919492  26.3494283  55.8137539  61.8378767
  26.0559011  54.4499148  62.4258077  17.8094704  44.7949619  64.0909820
  17.1622619  45.4939569  63.9974296  18.5795719  45.2285763  64.4586068
  21.2173502  55.0598471  67.1660373  21.0659008  54.8309023  66.2490457
  21.2078181  56.0169073  67.1791718  17.9858838  52.6330384  62.1506639
  18.9150898  52.7841544  61.9775607  17.5649868  52.7214405  61.2955286
  16.7847170  56.6581048  59.9205177  16.6458256  56.2899833  60.7931115
  15.9961766  57.1728688  59.7489135  17.3795322  61.7590145  51.2630714
  17.5547078  61.2878188  52.0776336  16.6928110  62.3855911  51.4911974
  18.3352385  56.0362651  57.3094015  18.0002218  55.9963421  58.2051665
  17.8356331  55.3707367  56.8364425  12.3096629  51.4430281  62.8346596
  12.1716427  50.7110520  63.4358135  13.2201553  51.3539181  62.5530784
  21.2711577  53.3818685  47.5831074  20.6540748  52.6565514  47.4864127
  20.8028065  54.1428046  47.2398149  14.9378930  51.1550240  62.3230276
  15.6478548  50.5143433  62.2816894  14.8948238  51.4063135  63.2456456
  22.9265709  58.0917594  65.2436855  22.8678255  57.4076814  64.5767438
  23.3285227  58.8336584  64.7917481  13.6507864  48.1415458  64.1425915
  13.1145221  47.6906197  64.7947511  13.0624572  48.2761367  63.3996379
  11.9456407  64.9079508  58.0370574  12.1853006  65.5398032  58.7149592
  11.1025604  64.5567548  58.3235933  13.0610123  47.6004110  46.7052379
  12.1839589  47.4792911  46.3414625  13.5367876  46.8090188  46.4531267
  22.9283116  56.0557178  63.4750835  22.0409895  55.7183100  63.5977233
  23.4981667  55.3240209  63.7119600   4.5812263  52.3881269  56.7993886
   5.2683303  52.0742999  56.2114901   4.4260392  53.2922634  56.5261137
   9.3846985  47.2771466  61.2278910   9.3005174  46.6697136  60.4929320
   8.5629692  47.7680484  61.2288406  16.4584269  60.7158630  60.4412078
  16.3854441  61.5213602  60.9531382  16.0161662  60.9150596  59.6160099
  16.2474049  59.9530400  53.9514899  15.4641571  60.4952080  54.0453124
  16.9466794  60.4704380  54.3509140  19.5570699  45.7625030  56.5949105
  20.0539399  45.0094992  56.2750175  18.7857681  45.7989346  56.0292314
  27.4100456  51.4665395  58.2367396  27.3990333  52.3490111  57.8661329
  26.5417836  51.1136946  58.0421933  18.9182953  60.6145464  62.5970236
  19.6310925  61.2492929  62.5246138  18.4272981  60.7109330  61.7810238
  20.6400480  54.5196717  54.1687528  19.7056758  54.6398179  53.9992232
  20.8177148  53.6169184  53.9047538  16.1405668  47.9042413  56.3220789
  15.7703455  47.3513453  57.0101695  16.6364760  47.3000546  55.7695789
  24.0273031  50.3614036  54.7037562  24.4933483  51.1942028  54.6297865
  24.4780532  49.8959018  55.4082821  13.9694866  58.3639908  63.4175807
  14.6704326  58.9976391  63.5705201  13.4989981  58.7054639  62.6571446
  22.0949262  56.7057857  51.7023714  22.3709106  56.5914452  52.6117588
  21.2253761  56.3075342  51.6635887  21.9989694  42.7294623  58.7428464
  21.0852774  42.9598850  58.9110670  22.4282795  42.8133067  59.5942496
  21.7696152  50.9184515  61.2428358  21.1167603  51.1660422  60.5880810
  22.1476532  50.1048653  60.9090835  18.7303326  60.9544208  55.3456528
  18.9125721  60.1365864  55.8084280  19.5536312  61.1711900  54.9081418
  19.0645492  59.8812393  52.6071576  19.5933258  59.3704848  51.9941738
  19.3273711  59.5654924  53.4717109  17.8183725  51.6604326  67.7294395
  17.1424362  51.5598455  68.3996770  18.6411359  51.5043540  68.1930392
   9.5662584  57.8976263  60.3506910  10.1516021  57.1519951  60.4834814
   9.3687423  58.2080219  61.2343574  12.4201240  60.9327510  55.3669352
  11.7511615  61.4173638  54.8833392  12.2814109  61.1796730  56.2812731
   4.1580239  50.4681863  59.0711353   4.1964339  49.9345454  59.8648471
   3.6520532  49.9417068  58.4522330  16.5606508  62.9671254  61.9652011
  17.1124816  63.1302875  62.7301096  16.9012702  63.5575691  61.2932035
  11.5371001  45.3146403  62.5673895  11.6012328  46.1761234  62.1551293
  11.4738122  44.7020405  61.8346254  11.0123274  47.3869536  66.2146930
  11.6395313  47.0046613  66.8284454  10.1551193  47.1683738  66.5802622
  21.4117383  57.7932511  67.8200665  21.9557287  58.4062469  67.3255620
  20.8304227  58.3512089  68.3367678   7.7888817  49.1945965  52.1465284
   8.0842258  48.2856643  52.0932338   6.8876853  49.1733704  51.8246287
  19.6974896  60.9153229  58.9515693  19.5726035  60.1142969  58.4426638
  20.3553987  61.4099422  58.4629663  11.3183064  47.2701962  58.1292833
  10.5969649  47.8837929  57.9900306  12.1076320  47.8059726  58.0509479
  21.7609804  58.7162249  60.5795243  20.8140139  58.5967600  60.5073570
  22.1092577  57.8284747  60.6621504  14.1209377  44.6056388  64.4033485
  14.6443779  44.8518685  65.1659794  13.9021711  45.4376423  63.9836622
   9.5176658  46.8760063  52.2704610   9.1889364  45.9957442  52.0879715
   9.8716029  46.8207731  53.1580999  18.7656237  58.5114965  56.7799595
  18.6181200  57.5831673  56.9607165  19.5909731  58.5335056  56.2956670
  12.6318481  47.1633032  52.6380087  12.9714554  47.6918954  51.9158696
  13.0790602  47.5013439  53.4138654  22.3690359  59.3343524  57.8664468
  23.2936907  59.1286385  57.7288919  22.2005662  59.0859925  58.7753809
  15.3261922  45.5470083  62.0883155  14.9858743  44.7477896  62.4903835
  14.6200929  45.8471794  61.5159988  15.9778394  42.6319396  60.5410478
  16.8004463  42.1579874  60.4189369  16.2216458  43.4109879  61.0409165
  14.6186629  45.6607654  50.8373380  15.3394991  46.0388907  50.3337097
  13.9951933  46.3796531  50.9408358  18.7617752  46.3652803  51.7731712
  18.9781366  47.2477441  51.4720540  18.2811819  45.9739016  51.0437354
  13.5016973  49.3238516  58.3502457  13.3561554  49.6378819  59.2426738
  13.0242177  49.9423417  57.7973356  15.3613356  46.3141064  58.3983346
  15.3474925  45.4182158  58.0615644  16.0785784  46.3211728  59.0321633
  17.2139486  46.7478404  60.4436474  16.9557264  47.6695475  60.4420804
  16.6824527  46.3508839  61.1336938  22.1585675  59.8529192  53.2226559
  22.3322553  59.2875614  52.4700412  22.6514566  60.6530086  53.0406049
   7.9762635  51.8643861  61.2890118   7.4316103  52.6403669  61.4210392
   8.8541985  52.2114665  61.1309240  14.7650252  45.1955444  53.6670917
  14.8866163  44.2672091  53.8661804  14.4752294  45.2094130  52.7549232
  17.6341442  42.8810355  56.8037636  17.6563139  42.9449688  55.8489616
  18.0509501  42.0414864  56.9978143  28.0125066  52.6165614  54.8416859
  28.4556212  51.8672940  54.4435982  27.1351577  52.6075751  54.4590591
  23.1460848  59.1695956  50.3223458  23.8411752  59.7902649  50.5410772
  23.4883998  58.3191307  50.5975835   8.7628657  50.9913757  64.1820275
   8.0210393  51.1396392  64.7684905   8.4421401  51.2522022  63.3187024
  25.0452271  56.6195661  51.8510788  25.5703595  56.9582934  51.1260108
  24.9574623  55.6842677  51.6673923  16.7072320  60.5329735  63.9800665
  17.0159446  60.2878882  64.8523365  17.5047802  60.7376374  63.4919535
  16.7292932  62.6867645  56.2106042  16.2897922  62.1944023  56.9038898
  17.4801049  62.1440612  55.9698117   9.2085271  58.8779186  56.2130670
  10.0343290  58.5782957  55.8329313   8.8579323  58.1086808  56.6620458
  14.1766804  58.2305654  58.2828343  13.5546813  57.5676359  57.9830571
  14.8471671  58.2566786  57.6001991   7.4093876  56.7965512  57.1719603
   6.5725784  56.3687686  56.9903604   7.3817521  56.9897955  58.1090394
  14.2491331  46.7087442  67.8760849  14.2979487  47.5849565  67.4938619
  14.7913845  46.1664835  67.3032492  24.7346177  57.2528565  67.1561986
  23.9441721  57.2352704  66.6166486  24.4979531  57.7916859  67.9111023
  24.8544052  54.1021031  64.4694715  24.9042057  53.9371039  65.4110238
  24.7457975  53.2348290  64.0792596  13.7380311  56.7809577  51.7586804
  13.8868431  57.4645042  51.1053476  14.5446754  56.7614667  52.2736259
  22.1447814  50.0851959  65.7854022  23.0457677  49.9458424  65.4938019
  22.2195789  50.2506414  66.7252199  16.4790620  47.4618814  64.6307208
  15.6093929  47.7552380  64.3589796  16.7150100  48.0459259  65.3514472
  26.3562249  56.5217973  64.7136736  26.0647057  56.8847954  65.5500197
  25.7434380  55.8084981  64.5350068  27.5557931  54.0870853  57.2339307
  28.3904822  54.5260657  57.3976867  27.6917060  53.6109506  56.4147552
  24.6049437  51.6450588  63.1816794  25.0803559  51.8378234  62.3735646
  23.6815002  51.7009773  62.9360178  11.4932944  52.8074755  52.7647873
  11.2478986  51.9037085  52.9628083  11.6628858  52.8091905  51.8227351
  19.1829654  43.6798431  62.1472628  19.7011597  44.4159458  61.8219117
  18.8284786  43.9862424  62.9819387  10.7628591  48.5403112  50.2634034
  10.0697836  48.6147467  49.6074070  10.5180343  47.7763456  50.7855551
  19.4342248  40.0998714  57.6673525  19.7144001  39.4321903  58.2933951
  20.2192855  40.2927809  57.1548189  17.2375716  59.2757708  49.2298551
  16.6649683  59.8947895  48.7769023  17.8108510  59.8257069  49.7638473
  23.3051106  48.5216348  61.4145100  24.2568529  48.6214445  61.4357324
  23.1354556  47.7294616  61.9243184  21.3265486  45.6071931  61.6004501
  20.7315418  45.8876944  60.9050990  21.0415182  46.0965832  62.3721242
  20.4572976  59.5594858  50.3607133  21.3903649  59.4940419  50.5640009
  20.3696189  60.3951125  49.9021666  23.0860993  58.8760728  47.3211081
  23.0074624  58.5420592  48.2146839  23.9070659  59.3682496  47.3202553
  25.7839184  51.7422467  60.5287400  25.7515504  50.8038468  60.7147083
  26.3939807  51.8206504  59.7953224  17.6222515  50.6118520  46.5714604
  18.5681619  50.4824728  46.6403022  17.2436760  49.8733182  47.0484032
  25.9333672  48.5333511  60.5745683  25.4172721  47.7491967  60.3875612
  26.8173621  48.2052227  60.7392202  23.5944399  42.2774526  56.5341495
  23.3969220  41.9689615  57.4184827  24.2044105  43.0036165  56.6639425
  29.6831031  50.9446337  60.2667888  28.9564194  50.8102302  59.6584379
  29.2678318  51.2523165  61.0724606  17.5061207  54.6636266  68.0315261
  18.4264217  54.8414866  68.2255307  17.4710790  53.7192312  67.8794960
  15.8065432  48.5368497  46.5069489  14.8996887  48.2401609  46.5832202
  16.0841413  48.2398315  45.6403775   6.7243372  49.8574860  56.9568535
   6.4046157  49.0040168  56.6642909   6.1776800  50.0723438  57.7126503
  10.5023280  52.5737301  60.6738042  10.7209290  53.5054409  60.6926076
  10.9149054  52.2145276  61.4592846  17.4227498  43.0805386  52.6613730
  16.6128226  42.7352471  53.0368976  18.1111914  42.7712930  53.2501342
  19.3518046  42.1583433  54.2838027  19.9049084  42.5778887  54.9428050
  19.5888132  41.2319181  54.3260983  15.3751145  48.1470507  70.0640791
  15.2747872  49.0964864  69.9952882  15.1572687  47.8188746  69.1916861
  14.5764216  45.3955432  46.6481468  15.4383380  45.7210330  46.9077285
  14.7614561  44.6086928  46.1354534   6.5931632  53.4777772  58.9261657
   5.8995104  53.0631724  58.4131611   7.3404623  53.5198308  58.3295076
  22.7296853  44.2683958  53.7916691  22.1495522  44.9268762  53.4094743
  22.4632786  43.4461303  53.3804109  21.1800419  43.6689016  55.9938011
  21.6800198  43.7805551  55.1852330  21.8236027  43.3650069  56.6338820
  15.2382415  51.5767646  68.8805852  14.7549497  52.3768006  69.0869741
  15.3243354  51.5875591  67.9273296   8.5068375  53.4096025  56.8027672
   8.4839063  53.5083713  55.8509555   8.8169011  54.2561176  57.1244838
  11.1655753  55.4672180  60.9174286  12.1199006  55.4356123  60.8504218
  10.9668276  55.0062804  61.7324512  11.7555135  54.0373297  63.4845084
  12.5748024  54.5317375  63.5079921  12.0291942  53.1205265  63.4562651
  21.5121731  46.4284049  52.8473039  20.6247586  46.7133699  52.6293234
  21.9275720  46.2677812  52.0000316  24.8636267  46.4530570  56.5627379
  25.6396657  46.9427022  56.8351995  24.1384401  46.8788624  57.0199248
  27.3008826  47.1658189  57.6201319  27.8953317  46.9253925  56.9094627
  27.3735409  46.4465320  58.2474856   9.5205981  61.0091800  57.9344484
   9.3860449  60.2492201  57.3682482   9.1038044  61.7332700  57.4673273
  20.6564944  56.1928723  46.9421059  21.3600795  56.3978726  47.5578715
  19.9327593  56.7605485  47.2070143  21.4862755  51.9438585  53.0623329
  21.4297956  52.4007136  52.2230962  22.0391097  51.1829269  52.8846172
  25.2967561  47.7328317  53.8873449  25.0404495  47.3324952  54.7181657
  24.6720429  48.4472111  53.7623588  29.6079898  50.4724390  56.3944740
  29.0479456  50.5417579  57.1676302  29.0023402  50.2965374  55.6744237
  12.6775107  61.9061117  58.1462927  12.5607491  62.8506549  58.0441617
  11.8567554  61.6034679  58.5348726  22.5651642  56.6311253  48.9919519
  23.3997246  56.1992451  48.8096994  22.4035985  56.4593266  49.9196414
  22.2197534  53.1343366  50.3575859  22.1646338  52.9687637  49.4164303
  21.5943589  53.8419399  50.5138048   7.0090049  48.3711430  64.1837281
   7.6548913  47.8610384  64.6724506   6.8007200  49.1080112  64.7580706
  19.5343441  55.4392278  69.6829421  20.4034601  55.6132930  69.3216056
  19.0550193  56.2586695  69.5605151  15.5293659  42.6351475  49.9361177
  15.5172329  43.5793315  50.0929448  16.4217081  42.4521620  49.6420638
  13.7029621  62.5589379  61.3618855  14.6056868  62.5912989  61.6785350
  13.4766991  61.6289830  61.3765191  15.4583223  61.3120365  58.0228934
  14.5078854  61.3122227  57.9093306  15.7615710  60.5653100  57.5064968
  19.3445779  39.2294252  54.1907114  18.5778175  38.6752738  54.3363796
  19.7556484  39.3016120  55.0521266  11.3487540  45.5179047  68.2812295
  12.2119002  45.1615852  68.4915620  10.7752951  45.1792942  68.9687699
  31.1935917  67.1480904  59.0874696  31.8314327  67.0287651  58.3838036
  31.0756760  68.0961748  59.1462648  28.0025623  67.1008332  59.0236221
  27.6644135  66.9849397  58.1356756  28.8715391  66.6999497  59.0037227
  23.8612439  68.9543808  55.0133112  23.2977304  68.8633745  54.2449400
  23.7464834  68.1343713  55.4935604  28.4845406  68.2543184  64.9822426
  28.4734047  67.8595982  64.1102930  28.6466046  67.5209256  65.5756198
  21.4076871  70.4495000  57.8517332  22.1998163  70.1085825  57.4363632
  21.6473521  70.5589975  58.7719486  29.4411998  72.6214776  50.3247577
  28.7899977  73.2068856  49.9381590  30.2356360  73.1520971  50.3842614
  23.3667625  69.7103913  50.7234711  24.1398501  69.1632900  50.5847587
  23.7193024  70.5748162  50.9349172  25.2052667  71.0380295  63.9301610
  24.9142533  71.9425926  63.8148277  25.8409652  71.0796823  64.6445680
  26.1308874  68.4157144  60.5202970  26.7272446  68.1913166  59.8059933
  26.1883846  67.6741889  61.1228418  25.7033903  65.8696579  48.3553161
  25.9559423  65.3478101  47.5936624  24.7658462  65.7062725  48.4579845
  30.9187263  70.3105208  50.8616561  30.2833096  70.3839834  51.5737466
  30.5884669  70.8998807  50.1835640  25.4230191  67.7724685  50.5577536
  25.3066449  67.0969589  51.2258620  25.5332451  67.2857059  49.7409689
  27.7661732  67.2334832  54.2624225  27.4019939  66.7065453  54.9737147
  28.6228848  66.8433301  54.0890711  27.4067219  62.2624732  49.2585574
  27.5741622  63.1304968  49.6256045  27.2164388  62.4252014  48.3346863
  30.1642552  70.7241711  60.9251404  29.8643276  71.6266750  60.8167211
  29.8193612  70.4573894  61.7772557  23.6155034  67.1755508  56.9588108
  22.6905530  67.0431722  57.1665800  23.8639447  67.9549727  57.4558051
  27.3856440  64.7182390  50.2432240  27.2656065  65.1639440  51.0817721
  26.6909028  65.0667707  49.6845779  20.9763845  66.8188781  57.7931898
  21.1056226  67.0723260  58.7071309  20.2961296  67.4116489  57.4736553
  25.1463332  77.4886031  53.8922372  25.0687362  78.4393856  53.9710852
  24.5424976  77.1431904  54.5497298  27.6380562  64.6613897  66.5483739
  26.8613896  65.2207817  66.5386603  28.2771125  65.1470680  67.0698609
  33.0841506  65.1903863  51.0712575  33.9959362  65.4231249  50.8960272
  32.5751153  65.7740907  50.5087653  25.8926934  67.4699350  66.1101706
  26.6341619  68.0084394  65.8336529  25.1863920  68.0965639  66.2673257
  31.3682274  69.6128491  64.7073867  31.7765630  69.1710901  63.9628499
  30.6459535  69.0381118  64.9608060  27.7213344  64.5501097  62.0807424
  28.5674539  64.9740511  62.2242073  27.6611982  63.8934722  62.7745987
  31.6911089  70.1729681  58.4626156  31.0619951  70.3375395  57.7602224
  31.3036751  70.5871291  59.2337120  35.5700320  71.1084119  55.8170520
  34.8851359  71.4883020  55.2667553  35.6544170  71.7179446  56.5502468
  32.8251252  68.7544078  62.4165863  33.0368147  69.3975838  61.7400244
  32.7781000  67.9206395  61.9487793  27.2439050  69.9104089  55.7276241
  27.7077396  70.1891792  54.9380864  26.9795849  69.0087534  55.5449332
  24.1363132  69.4575571  58.6656004  24.7064489  69.8862839  58.0273489
  24.7271243  69.1758156  59.3640190  26.1807937  66.0327242  52.5365806
  26.8831980  66.4848285  53.0039733  25.8488565  65.3911060  53.1645699
  24.6288298  64.6238998  66.9117016  23.9986959  65.3055279  67.1452412
  24.5224386  64.5122080  65.9670154  19.9233270  64.2910794  57.8382940
  19.1332324  64.5468323  57.3623050  20.4144518  65.1059132  57.9434980
  33.9397080  71.6316033  60.5888221  34.7614524  71.2296221  60.3070902
  33.9359483  71.5284268  61.5404336  21.8748016  64.6555374  54.7966416
  21.0779179  64.7674068  55.3149912  21.6473608  64.9942026  53.9307307
  27.7053683  71.1800077  62.7448931  27.7698116  71.6420484  63.5807103
  26.9964607  70.5497442  62.8731241  18.2070973  64.5441285  60.2697931
  18.4579012  65.4288295  60.5355507  18.7430522  64.3645886  59.4973022
  42.0303073  67.9754782  56.9373192  41.2766781  67.4062180  56.7817197
  42.1650614  67.9417446  57.8843827  27.4201701  72.8468184  52.6127911
  27.2847376  73.6919720  53.0412759  27.9611514  73.0487462  51.8493845
  23.9069041  58.9259764  69.2742267  23.5135986  58.3725963  69.9489911
  24.7235181  59.2370343  69.6648784  20.8731099  70.3643622  53.1855837
  21.3855619  71.1586873  53.3361401  21.5253811  69.6669913  53.1189438
  22.6825983  73.4809379  55.2678590  22.8592612  74.4027343  55.0799574
  23.4782817  73.1667798  55.6972969  26.8237002  60.3417643  66.8662523
  27.5646715  60.9424796  66.7866986  27.0554925  59.5995281  66.3080566
  21.9678340  65.5274010  65.1440753  21.8531855  64.6259268  65.4447852
  21.1122858  65.7737707  64.7925569  29.0470178  73.4691751  66.7428254
  28.6034032  72.6828129  66.4249158  29.7087391  73.6570901  66.0772144
  23.8057299  74.9987552  61.2688932  24.3564724  74.8704616  60.4965926
  22.9668775  75.2982441  60.9183825  31.1451416  73.7494551  64.7709655
  31.1269891  74.5703432  64.2789924  32.0671336  73.6248626  64.9959796
  27.6024470  71.2638680  65.6133163  28.1352807  70.5026968  65.3832471
  27.0738551  70.9712332  66.3557318  18.8380015  68.6932277  53.9615407
  19.6755237  69.1029285  53.7449115  19.0158283  67.7531719  53.9315601
  30.7344447  66.3607357  49.6499240  30.2191071  67.1311962  49.8887627
  30.4621756  65.6872493  50.2732301  26.0933591  58.8242131  58.1142220
  26.9586588  58.6284940  57.7548109  26.1611100  58.5952483  59.0411577
  35.7078722  69.1139712  51.5852414  34.9308164  68.7750871  51.1407576
  36.3870203  69.1192335  50.9107379  30.5230751  64.2334449  51.4759021
  30.2180886  64.5480599  52.3269164  31.4761193  64.3115869  51.5186354
  28.9677182  70.3924673  53.1251975  28.4398544  69.6577432  52.8125213
  28.4664685  71.1699349  52.8791944  33.9470028  68.5873693  58.2419021
  33.2893703  69.2772955  58.3299150  34.7510428  68.9770125  58.5853008
  23.6995910  61.0544339  55.4858587  24.2739662  60.8319520  54.7531780
  24.2866892  61.1233033  56.2387188  24.0265497  63.0848800  49.5054472
  23.1902809  63.4223487  49.8263747  23.8870267  62.9497780  48.5681609
  26.0018578  57.9285588  54.2133656  25.3482990  57.6134605  53.5890271
  25.9599052  57.3061328  54.9393479  27.1129783  68.2104883  46.1286948
  26.2056844  67.9794136  46.3278097  27.6100815  67.4142502  46.3160930
  30.0197862  76.9202390  49.0483634  29.3459560  77.2234087  49.6568592
  30.4063683  77.7231470  48.6989091  28.2918016  68.3117478  50.6510938
  27.3829235  68.0276511  50.7483408  28.3213100  68.7316556  49.7914245
  33.5237283  71.9224067  54.4202106  33.0699611  71.0814977  54.4767296
  32.8931250  72.5585466  54.7576886  31.9670223  73.7600564  55.3551924
  32.2593197  74.3205621  54.6364290  32.4768843  74.0529125  56.1105083
  18.8606186  66.0322992  54.6326141  18.6630586  65.4392353  53.9077207
  18.3052850  65.7275202  55.3502079  26.8402910  65.9246098  56.7520734
  26.8951520  64.9719935  56.6763210  26.0294112  66.0805537  57.2362032
  27.9894104  69.8526221  47.9899017  27.5513534  69.1362080  47.5304654
  28.7304545  70.0802336  47.4284108  24.7795270  64.5423158  54.5111113
  23.9663136  64.8417329  54.9176305  25.2754264  64.1478847  55.2285595
  26.9303848  74.5380915  56.4445377  26.8880027  74.7641761  55.5153909
  27.8466547  74.3044290  56.5931178  30.3769482  65.0064983  63.3426006
  30.7318869  65.2336456  64.2020472  31.0241613  65.3383359  62.7203262
  36.1067219  68.1283418  54.0475335  35.9685117  68.3185014  53.1196525
  35.7503437  68.8902801  54.5043387  24.2709345  62.1141514  60.1272347
  24.9108724  61.9730273  59.4295311  23.4386875  61.8276027  59.7510949
  36.1336598  70.1959945  59.0586607  36.5673105  70.1035235  59.9069661
  36.8468179  70.1717446  58.4206623  25.0469649  71.4143944  56.2407340
  25.8410247  70.9194264  56.0389915  24.3361341  70.8861807  55.8775046
  29.8664493  73.7962040  60.5919708  29.9201515  74.3652976  61.3597423
  28.9979275  73.9663925  60.2273745  21.3552412  65.5587026  52.3167093
  20.4250000  65.4971481  52.5337055  21.4509884  65.0362979  51.5203734
  21.2737961  62.0841839  54.9045334  21.5344779  62.9987172  54.7954495
  22.0955134  61.6166281  55.0541947  22.7462887  63.4979596  62.0744159
  23.4185940  63.2896958  61.4256808  21.9192673  63.3001682  61.6349391
  36.9952148  70.2383646  61.5919492  37.1888038  71.1429457  61.8378767
  36.8952766  69.7791065  62.4258077  28.6488459  60.1241537  64.0909820
  28.0016374  60.8231486  63.9974296  29.4189474  60.5577681  64.4586068
  32.0567256  70.3890389  67.1660373  31.9052763  70.1600941  66.2490457
  32.0471936  71.3460990  67.1791718  28.8252593  67.9622302  62.1506639
  29.7544653  68.1133461  61.9775607  28.4043623  68.0506322  61.2955286
  27.6240925  71.9872966  59.9205177  27.4852010  71.6191750  60.7931115
  26.8355521  72.5020605  59.7489135  28.2189077  77.0882063  51.2630714
  28.3940832  76.6170106  52.0776336  27.5321865  77.7147829  51.4911974
  29.1746140  71.3654569  57.3094015  28.8395972  71.3255339  58.2051665
  28.6750086  70.6999285  56.8364425  23.1490384  66.7722199  62.8346596
  23.0110182  66.0402438  63.4358135  24.0595307  66.6831099  62.5530784
  25.7772684  66.4842158  62.3230276  26.4872303  65.8435350  62.2816894
  25.7341993  66.7355053  63.2456456  33.7659463  73.4209511  65.2436855
  33.7072009  72.7368732  64.5767438  34.1678982  74.1628501  64.7917481
  24.4901618  63.4707376  64.1425915  23.9538975  63.0198114  64.7947511
  23.9018327  63.6053285  63.3996379  22.7850162  80.2371425  58.0370574
  23.0246760  80.8689949  58.7149592  21.9419358  79.8859465  58.3235933
  23.9003877  62.9296027  46.7052379  23.0233344  62.8084828  46.3414625
  24.3761630  62.1382106  46.4531267  33.7676870  71.3849095  63.4750835
  32.8803649  71.0475017  63.5977233  34.3375421  70.6532127  63.7119600
  15.4206018  67.7173187  56.7993886  16.1077057  67.4034917  56.2114901
  15.2654146  68.6214552  56.5261137  20.2240740  62.6063384  61.2278910
  20.1398928  61.9989053  60.4929320  19.4023446  63.0972402  61.2288406
  27.2978024  76.0450548  60.4412078  27.2248195  76.8505519  60.9531382
  26.8555417  76.2442514  59.6160099  27.0867803  75.2822318  53.9514899
  26.3035325  75.8243998  54.0453124  27.7860549  75.7996297  54.3509140
  38.2494211  66.7957313  58.2367396  38.2384087  67.6782028  57.8661329
  37.3811590  66.4428864  58.0421933  29.7576707  75.9437382  62.5970236
  30.4704680  76.5784847  62.5246138  29.2666736  76.0401248  61.7810238
  31.4794234  69.8488634  54.1687528  30.5450513  69.9690097  53.9992232
  31.6570903  68.9461101  53.9047538  26.9799422  63.2334330  56.3220789
  26.6097210  62.6805371  57.0101695  27.4758515  62.6292464  55.7695789
  24.8088621  73.6931825  63.4175807  25.5098080  74.3268308  63.5705201
  24.3383736  74.0346557  62.6571446  32.9343017  72.0349775  51.7023714
  33.2102861  71.9206370  52.6117588  32.0647515  71.6367260  51.6635887
  32.6089907  66.2476433  61.2428358  31.9561357  66.4952340  60.5880810
  32.9870287  65.4340571  60.9090835  29.5697081  76.2836126  55.3456528
  29.7519475  75.4657782  55.8084280  30.3930067  76.5003818  54.9081418
  29.9039246  75.2104311  52.6071576  30.4327013  74.6996766  51.9941738
  30.1667466  74.8946841  53.4717109  28.6577480  66.9896244  67.7294395
  27.9818117  66.8890373  68.3996770  29.4805114  66.8335457  68.1930392
  20.4056339  73.2268180  60.3506910  20.9909776  72.4811868  60.4834814
  20.2081177  73.5372137  61.2343574  23.2594994  76.2619428  55.3669352
  22.5905369  76.7465555  54.8833392  23.1207864  76.5088648  56.2812731
  14.9973994  65.7973780  59.0711353  15.0358093  65.2637371  59.8648471
  14.4914286  65.2708986  58.4522330  27.4000263  78.2963171  61.9652011
  27.9518571  78.4594793  62.7301096  27.7406456  78.8867609  61.2932035
  22.3764756  60.6438321  62.5673895  22.4406082  61.5053152  62.1551293
  22.3131876  60.0312323  61.8346254  21.8517028  62.7161454  66.2146930
  22.4789067  62.3338531  66.8284454  20.9944947  62.4975655  66.5802622
  32.2511137  73.1224429  67.8200665  32.7951041  73.7354387  67.3255620
  31.6697982  73.6804007  68.3367678  18.6282571  64.5237883  52.1465284
  18.9236012  63.6148561  52.0932338  17.7270607  64.5025622  51.8246287
  30.5368650  76.2445147  58.9515693  30.4119789  75.4434887  58.4426638
  31.1947741  76.7391340  58.4629663  22.1576818  62.5993879  58.1292833
  21.4363404  63.2129847  57.9900306  22.9470074  63.1351644  58.0509479
  32.6003558  74.0454167  60.5795243  31.6533894  73.9259518  60.5073570
  32.9486331  73.1576665  60.6621504  24.9603132  59.9348306  64.4033485
  25.4837534  60.1810602  65.1659794  24.7415465  60.7668341  63.9836622
  20.3570413  62.2051980  52.2704610  20.0283119  61.3249359  52.0879715
  20.7109784  62.1499649  53.1580999  29.6049992  73.8406883  56.7799595
  29.4574954  72.9123590  56.9607165  30.4303485  73.8626974  56.2956670
  23.4712236  62.4924950  52.6380087  23.8108308  63.0210871  51.9158696
  23.9184356  62.8305356  53.4138654  33.2084114  74.6635442  57.8664468
  34.1330661  74.4578303  57.7288919  33.0399417  74.4151843  58.7753809
  26.1655677  60.8762001  62.0883155  25.8252497  60.0769814  62.4903835
  25.4594683  61.1763712  61.5159988  26.8172149  57.9611313  60.5410478
  27.6398218  57.4871791  60.4189369  27.0610212  58.7401797  61.0409165
  25.4580383  60.9899572  50.8373380  26.1788746  61.3680824  50.3337097
  24.8345687  61.7088449  50.9408358  29.6011506  61.6944721  51.7731712
  29.8175120  62.5769359  51.4720540  29.1205573  61.3030934  51.0437354
  24.3410727  64.6530434  58.3502457  24.1955308  64.9670737  59.2426738
  23.8635931  65.2715334  57.7973356  26.2007110  61.6432982  58.3983346
  26.1868679  60.7474075  58.0615644  26.9179538  61.6503646  59.0321633
  32.9979430  75.1821109  53.2226559  33.1716307  74.6167532  52.4700412
  33.4908321  75.9822004  53.0406049  18.8156390  67.1935778  61.2890118
  18.2709858  67.9695586  61.4210392  19.6935739  67.5406583  61.1309240
  25.6044006  60.5247362  53.6670917  25.7259917  59.5964008  53.8661804
  25.3146049  60.5386048  52.7549232  33.9854602  74.4987874  50.3223458
  34.6805507  75.1194566  50.5410772  34.3277752  73.6483225  50.5975835
  19.6022411  66.3205675  64.1820275  18.8604147  66.4688310  64.7684905
  19.2815156  66.5813940  63.3187024  35.8846025  71.9487579  51.8510788
  36.4097349  72.2874852  51.1260108  35.7968378  71.0134594  51.6673923
  27.5466074  75.8621653  63.9800665  27.8553200  75.6170800  64.8523365
  28.3441556  76.0668291  63.4919535  27.5686686  78.0159562  56.2106042
  27.1291676  77.5235941  56.9038898  28.3194803  77.4732530  55.9698117
  20.0479025  74.2071103  56.2130670  20.8737045  73.9074875  55.8329313
  19.6973077  73.4378726  56.6620458  25.0160558  73.5597572  58.2828343
  24.3940568  72.8968277  57.9830571  25.6865425  73.5858703  57.6001991
  18.2487630  72.1257430  57.1719603  17.4119538  71.6979604  56.9903604
  18.2211276  72.3189873  58.1090394  25.0885086  62.0379360  67.8760849
  25.1373241  62.9141482  67.4938619  25.6307600  61.4956753  67.3032492
  35.5739931  72.5820483  67.1561986  34.7835475  72.5644622  66.6166486
  35.3373286  73.1208776  67.9111023  35.6937806  69.4312949  64.4694715
  35.7435811  69.2662957  65.4110238  35.5851730  68.5640208  64.0792596
  24.5774065  72.1101495  51.7586804  24.7262186  72.7936959  51.1053476
  25.3840509  72.0906585  52.2736259  32.9841569  65.4143877  65.7854022
  33.8851432  65.2750342  65.4938019  33.0589543  65.5798332  66.7252199
  27.3184374  62.7910732  64.6307208  26.4487684  63.0844298  64.3589796
  27.5543855  63.3751177  65.3514472  37.1956003  71.8509891  64.7136736
  36.9040812  72.2139871  65.5500197  36.5828135  71.1376899  64.5350068
  38.3951686  69.4162770  57.2339307  39.2298577  69.8552575  57.3976867
  38.5310814  68.9401424  56.4147552  35.4443192  66.9742505  63.1816794
  35.9197313  67.1670152  62.3735646  34.5208757  67.0301691  62.9360178
  22.3326698  68.1366672  52.7647873  22.0872740  67.2329002  52.9628083
  22.5022613  68.1383823  51.8227351  21.6022346  63.8695030  50.2634034
  20.9091591  63.9439385  49.6074070  21.3574098  63.1055374  50.7855551
  28.0769471  74.6049625  49.2298551  27.5043438  75.2239812  48.7769023
  28.6502264  75.1548987  49.7638473  31.2966730  74.8886775  50.3607133
  32.2297404  74.8232337  50.5640009  31.2089943  75.7243042  49.9021666
  33.9254747  74.2052646  47.3211081  33.8468379  73.8712509  48.2146839
  34.7464414  74.6974414  47.3202553  36.6232938  67.0714385  60.5287400
  36.5909258  66.1330386  60.7147083  37.2333562  67.1498422  59.7953224
  28.4616269  65.9410438  46.5714604  29.4075374  65.8116646  46.6403022
  28.0830514  65.2025100  47.0484032  42.4409488  68.1330392  59.6693436
  43.1712877  67.8715680  60.2301140  41.8316434  67.3959114  59.7095504
  40.5224785  66.2738254  60.2667888  39.7957949  66.1394219  59.6584379
  40.1072072  66.5815083  61.0724606  28.3454962  69.9928184  68.0315261
  29.2657971  70.1706783  68.2255307  28.3104545  69.0484230  67.8794960
  26.6459186  63.8660414  46.5069489  25.7390642  63.5693527  46.5832202
  26.9235167  63.5690233  45.6403775  17.5637127  65.1866778  56.9568535
  17.2439911  64.3332086  56.6642909  17.0170555  65.4015356  57.7126503
  21.3417034  67.9029219  60.6738042  21.5603044  68.8346327  60.6926076
  21.7542808  67.5437193  61.4592846  26.2144900  63.4762425  70.0640791
  26.1141626  64.4256782  69.9952882  25.9966442  63.1480663  69.1916861
  25.4157971  60.7247350  46.6481468  26.2777135  61.0502248  46.9077285
  25.6008315  59.9378846  46.1354534  17.4325387  68.8069689  58.9261657
  16.7388858  68.3923642  58.4131611  18.1798378  68.8490226  58.3295076
  26.0776170  66.9059563  68.8805852  25.5943251  67.7059924  69.0869741
  26.1637109  66.9167508  67.9273296  19.3462129  68.7387943  56.8027672
  19.3232817  68.8375630  55.8509555  19.6562766  69.5853094  57.1244838
  22.0049507  70.7964098  60.9174286  22.9592761  70.7648040  60.8504218
  21.8062031  70.3354722  61.7324512  22.5948889  69.3665214  63.4845084
  23.4141778  69.8609293  63.5079921  22.8685697  68.4497182  63.4562651
  20.3599736  76.3383718  57.9344484  20.2254204  75.5784119  57.3682482
  19.9431798  77.0624617  57.4673273  31.4958699  71.5220641  46.9421059
  32.1994549  71.7270644  47.5578715  30.7721348  72.0897403  47.2070143
  32.3256509  67.2730502  53.0623329  32.2691711  67.7299054  52.2230962
  32.8784852  66.5121187  52.8846172  23.5168862  77.2353035  58.1462927
  23.4001246  78.1798467  58.0441617  22.6961308  76.9326596  58.5348726
  33.4045396  71.9603170  48.9919519  34.2391000  71.5284369  48.8096994
  33.2429739  71.7885184  49.9196414  33.0591289  68.4635284  50.3575859
  33.0040092  68.2979555  49.4164303  32.4337344  69.1711317  50.5138048
  17.8483803  63.7003348  64.1837281  18.4942667  63.1902302  64.6724506
  17.6400955  64.4372030  64.7580706  30.3737196  70.7684196  69.6829421
  31.2428355  70.9424848  69.3216056  29.8943947  71.5878612  69.5605151
  26.3687414  57.9643393  49.9361177  26.3566084  58.9085233  50.0929448
  27.2610836  57.7813538  49.6420638  24.5423376  77.8881297  61.3618855
  25.4450623  77.9204907  61.6785350  24.3160746  76.9581747  61.3765191
  26.2976978  76.6412283  58.0228934  25.3472609  76.6414145  57.9093306
  26.6009464  75.8945018  57.5064968  22.1881294  60.8470965  68.2812295
  23.0512756  60.4907770  68.4915620  21.6146705  60.5084860  68.9687699
  42.0329671  82.4772821  59.0874696  42.6708081  82.3579569  58.3838036
  41.9150514  83.4253665  59.1462648  38.8419378  82.4300250  59.0236221
  38.5037889  82.3141314  58.1356756  39.7109146  82.0291415  59.0037227
  34.7006193  84.2835726  55.0133112  34.1371059  84.1925663  54.2449400
  34.5858588  83.4635630  55.4935604  39.3239161  83.5835101  64.9822426
  39.3127801  83.1887900  64.1102930  39.4859800  82.8501174  65.5756198
  32.2470625  85.7786918  57.8517332  33.0391917  85.4377742  57.4363632
  32.4867275  85.8881893  58.7719486  40.2805752  87.9506694  50.3247577
  39.6293732  88.5360774  49.9381590  41.0750115  88.4812889  50.3842614
  34.2061379  85.0395831  50.7234711  34.9792255  84.4924818  50.5847587
  34.5586778  85.9040080  50.9349172  36.0446422  86.3672213  63.9301610
  35.7536288  87.2717844  63.8148277  36.6803406  86.4088741  64.6445680
  36.9702629  83.7449062  60.5202970  37.5666201  83.5205084  59.8059933
  37.0277600  83.0033807  61.1228418  36.5427657  81.1988497  48.3553161
  36.7953178  80.6770018  47.5936624  35.6052216  81.0354642  48.4579845
  41.5870940  80.2024275  56.1627904  42.3734029  79.7843698  55.8118321
  41.8509644  81.1070368  56.3309553  41.7581017  85.6397126  50.8616561
  41.1226850  85.7131752  51.5737466  41.4278424  86.2290724  50.1835640
  46.9879367  80.1399509  57.0660883  47.7204539  79.5698725  57.2998712
  46.2318723  79.7521109  57.5067388  36.2623946  83.1016603  50.5577536
  36.1460204  82.4261506  51.2258620  36.3726206  82.6148977  49.7409689
  38.6055487  82.5626750  54.2624225  38.2413694  82.0357371  54.9737147
  39.4622603  82.1725219  54.0890711  44.5104787  73.8521083  61.5255491
  44.1788112  74.7216494  61.3016706  43.9150401  73.5357367  62.2049522
  38.2460974  77.5916650  49.2585574  38.4135376  78.4596886  49.6256045
  38.0558143  77.7543931  48.3346863  41.0036307  86.0533629  60.9251404
  40.7037030  86.9558667  60.8167211  40.6587366  85.7865812  61.7772557
  34.4548788  82.5047425  56.9588108  33.5299285  82.3723640  57.1665800
  34.7033202  83.2841645  57.4558051  44.4033451  78.5716169  58.6048841
  43.4950328  78.5031577  58.3107602  44.3521046  79.0488114  59.4330667
  38.2250195  80.0474307  50.2432240  38.1049820  80.4931358  51.0817721
  37.5302783  80.3959625  49.6845779  31.8157599  82.1480699  57.7931898
  31.9449981  82.4015178  58.7071309  31.1355051  82.7408407  57.4736553
  38.4774316  79.9905814  66.5483739  37.7007651  80.5499735  66.5386603
  39.1164880  80.4762597  67.0698609  46.2695097  76.7732607  60.3826715
  45.6269477  77.0665140  59.7366510  45.7650026  76.6585528  61.1879912
  43.9235261  80.5195780  51.0712575  44.8353117  80.7523167  50.8960272
  43.4144908  81.1032825  50.5087653  36.7320689  82.7991268  66.1101706
  37.4735373  83.3376312  65.8336529  36.0257674  83.4257557  66.2673257
  42.2076028  84.9420408  64.7073867  42.6159384  84.5002819  63.9628499
  41.4853290  84.3673036  64.9608060  38.5607098  79.8793015  62.0807424
  39.4068294  80.3032429  62.2242073  38.5005736  79.2226639  62.7745987
  42.5304843  85.5021599  58.4626156  41.9013706  85.6667313  57.7602224
  42.1430505  85.9163208  59.2337120  46.4094075  86.4376037  55.8170520
  45.7245113  86.8174938  55.2667553  46.4937924  87.0471363  56.5502468
  41.7106544  77.5397383  63.7388598  41.4667476  78.2939444  63.2022873
  41.9866474  77.9182731  64.5735845  43.6645007  84.0835996  62.4165863
  43.8761902  84.7267756  61.7400244  43.6174755  83.2498312  61.9487793
  41.2671236  76.6953816  59.3202435  40.4055715  76.9935070  59.6119173
  41.2933670  76.9124215  58.3883468  38.0832805  85.2396007  55.7276241
  38.5471150  85.5183710  54.9380864  37.8189603  84.3379452  55.5449332
  34.9756886  84.7867488  58.6656004  35.5458243  85.2154757  58.0273489
  35.5664998  84.5050073  59.3640190  37.0201691  81.3619159  52.5365806
  37.7225734  81.8140203  53.0039733  36.6882320  80.7202978  53.1645699
  35.4682053  79.9530916  66.9117016  34.8380713  80.6347197  67.1452412
  35.3618140  79.8413998  65.9670154  30.7627025  79.6202712  57.8382940
  29.9726079  79.8760241  57.3623050  31.2538272  80.4351050  57.9434980
  44.7790835  86.9607951  60.5888221  45.6008278  86.5588138  60.3070902
  44.7753237  86.8576185  61.5404336  32.7141770  79.9847291  54.7966416
  31.9172934  80.0965985  55.3149912  32.4867363  80.3233943  53.9307307
  38.5447438  86.5091994  62.7448931  38.6091870  86.9712402  63.5807103
  37.8358362  85.8789359  62.8731241  29.0464728  79.8733202  60.2697931
  29.2972766  80.7580212  60.5355507  29.5824276  79.6937804  59.4973022
  52.8696828  83.3046700  56.9373192  52.1160536  82.7354098  56.7817197
  53.0044369  83.2709364  57.8843827  34.7462795  74.2551682  69.2742267
  34.3529741  73.7017880  69.9489911  35.5628936  74.5662260  69.6648784
  31.7124853  85.6935540  53.1855837  32.2249374  86.4878790  53.3361401
  32.3647566  84.9961830  53.1189438  37.6630756  75.6709561  66.8662523
  38.4040470  76.2716714  66.7866986  37.8948679  74.9287199  66.3080566
  32.8072094  80.8565928  65.1440753  32.6925609  79.9551185  65.4447852
  31.9516612  81.1029625  64.7925569  39.8863932  88.7983668  66.7428254
  39.4427786  88.0120047  66.4249158  40.5481146  88.9862819  66.0772144
  41.9845170  89.0786468  64.7709655  41.9663645  89.8995349  64.2789924
  42.9065090  88.9540544  64.9959796  38.4418224  86.5930598  65.6133163
  38.9746561  85.8318886  65.3832471  37.9132305  86.3004250  66.3557318
  41.6087919  71.6990664  61.1426805  41.2652189  72.5892305  61.0665915
  41.9766882  71.5092321  60.2796390  29.6773770  84.0224194  53.9615407
  30.5148992  84.4321203  53.7449115  29.8552037  83.0823636  53.9315601
  41.5738202  81.6899275  49.6499240  41.0584825  82.4603880  49.8887627
  41.3015510  81.0164411  50.2732301  39.1585313  76.5348976  54.7084478
  38.3026909  76.1455826  54.5290117  39.5712265  76.6140937  53.8484264
  40.6884460  74.0695319  59.1076038  40.1849255  74.0325454  58.2943843
  40.9815066  74.9788062  59.1672695  36.9327345  74.1534049  58.1142220
  37.7980342  73.9576857  57.7548109  37.0004854  73.9244400  59.0411577
  46.5472476  84.4431630  51.5852414  45.7701919  84.1042789  51.1407576
  47.2263957  84.4484253  50.9107379  41.3624505  79.5626367  51.4759021
  41.0574641  79.8772516  52.3269164  42.3154947  79.6407787  51.5186354
  39.8070937  85.7216590  53.1251975  39.2792299  84.9869350  52.8125213
  39.3058440  86.4991267  52.8791944  44.7863783  83.9165611  58.2419021
  44.1287457  84.6064872  58.3299150  45.5904182  84.3062043  58.5853008
  34.5389665  76.3836257  55.4858587  35.1133416  76.1611438  54.7531780
  35.1260647  76.4524951  56.2387188  43.5969242  82.2709984  56.2922963
  44.1101124  82.9039975  56.7944673  44.2470466  81.6711179  55.9266323
  34.8659252  78.4140718  49.5054472  34.0296564  78.7515404  49.8263747
  34.7264021  78.2789697  48.5681609  36.8412332  73.2577506  54.2133656
  36.1876745  72.9426523  53.5890271  36.7992806  72.6353246  54.9393479
  37.9523537  83.5396801  46.1286948  37.0450599  83.3086054  46.3278097
  38.4494569  82.7434420  46.3160930  40.0750073  79.7459439  58.5381304
  39.1572634  79.9674386  58.3802992  40.4910216  79.8205750  57.6793011
  40.8585120  81.1450855  53.6683984  41.6056939  81.6572252  53.3591106
  41.1276710  80.8234907  54.5288378  39.1311771  83.6409395  50.6510938
  38.2222990  83.3568428  50.7483408  39.1606854  84.0608474  49.7914245
  44.3631038  87.2515985  54.4202106  43.9093365  86.4106895  54.4767296
  43.7325005  87.8877383  54.7576886  43.3063958  78.1807971  55.6502773
  42.5686714  77.6685357  55.9813016  43.5590731  77.7408353  54.8386050
  42.8063977  89.0892482  55.3551924  43.0986952  89.6497539  54.6364290
  43.3162598  89.3821043  56.1105083  43.4075585  70.9584223  56.2444543
  43.7134462  70.0981586  55.9570458  44.1328190  71.5501843  56.0443536
  29.6999941  81.3614910  54.6326141  29.5024341  80.7684270  53.9077207
  29.1446605  81.0567120  55.3502079  37.6796665  81.2538016  56.7520734
  37.7345274  80.3011852  56.6763210  36.8687867  81.4097455  57.2362032
  38.8287858  85.1818139  47.9899017  38.3907288  84.4653998  47.5304654
  39.5698299  85.4094254  47.4284108  35.6189025  79.8715076  54.5111113
  34.8056890  80.1709246  54.9176305  36.1148019  79.4770765  55.2285595
  41.2163236  80.3356900  63.3426006  41.5712624  80.5628373  64.2020472
  41.8635367  80.6675277  62.7203262  46.9460973  83.4575336  54.0475335
  46.8078872  83.6476932  53.1196525  46.5897192  84.2194719  54.5043387
  35.1103099  77.4433431  60.1272347  35.7502479  77.3022190  59.4295311
  34.2780630  77.1567945  59.7510949  46.9730353  85.5251863  59.0586607
  47.4066859  85.4327152  59.9069661  47.6861933  85.5009364  58.4206623
  35.8863403  86.7435862  56.2407340  36.6804002  86.2486182  56.0389915
  35.1755096  86.2153725  55.8775046  32.1946167  80.8878943  52.3167093
  31.2643755  80.8263399  52.5337055  32.2903639  80.3654896  51.5203734
  32.1131716  77.4133756  54.9045334  32.3738533  78.3279090  54.7954495
  32.9348888  76.9458199  55.0541947  33.5856641  78.8271513  62.0744159
  34.2579694  78.6188876  61.4256808  32.7586428  78.6293599  61.6349391
  47.8345902  85.5675564  61.5919492  48.0281792  86.4721374  61.8378767
  47.7346520  85.1082983  62.4258077  39.4882213  75.4533454  64.0909820
  38.8410128  76.1523404  63.9974296  40.2583228  75.8869598  64.4586068
  42.8961011  85.7182307  67.1660373  42.7446517  85.4892858  66.2490457
  42.8865690  86.6752908  67.1791718  39.6646347  83.2914219  62.1506639
  40.5938407  83.4425379  61.9775607  39.2437377  83.3798240  61.2955286
  38.4634679  87.3164884  59.9205177  38.3245765  86.9483668  60.7931115
  37.6749275  87.8312523  59.7489135  40.0139894  86.6946486  57.3094015
  39.6789727  86.6547256  58.2051665  39.5143840  86.0291202  56.8364425
  33.9884138  82.1014116  62.8346596  33.8503936  81.3694355  63.4358135
  34.8989062  82.0123017  62.5530784  42.9499086  84.0402521  47.5831074
  42.3328257  83.3149349  47.4864127  42.4815574  84.8011881  47.2398149
  36.6166439  81.8134076  62.3230276  37.3266057  81.1727268  62.2816894
  36.5735747  82.0646971  63.2456456  44.6053218  88.7501429  65.2436855
  44.5465764  88.0660649  64.5767438  45.0072736  89.4920419  64.7917481
  35.3295373  78.7999294  64.1425915  34.7932730  78.3490032  64.7947511
  34.7412081  78.9345203  63.3996379  34.7397632  78.2587945  46.7052379
  33.8627098  78.1376746  46.3414625  35.2155385  77.4674023  46.4531267
  44.6070625  86.7141013  63.4750835  43.7197404  86.3766935  63.5977233
  45.1769176  85.9824044  63.7119600  26.2599772  83.0465105  56.7993886
  26.9470812  82.7326835  56.2114901  26.1047901  83.9506469  56.5261137
  31.0634494  77.9355301  61.2278910  30.9792683  77.3280971  60.4929320
  30.2417201  78.4264320  61.2288406  41.2358208  76.4208865  56.5949105
  41.7326908  75.6678827  56.2750175  40.4645190  76.4573182  56.0292314
  49.0887965  82.1249230  58.2367396  49.0777842  83.0073946  57.8661329
  48.2205345  81.7720781  58.0421933  42.3187989  85.1780552  54.1687528
  41.3844267  85.2982015  53.9992232  42.4964657  84.2753019  53.9047538
  37.8193177  78.5626248  56.3220789  37.4490964  78.0097288  57.0101695
  38.3152269  77.9584381  55.7695789  45.7060540  81.0197871  54.7037562
  46.1720992  81.8525863  54.6297865  46.1568041  80.5542853  55.4082821
  43.7736771  87.3641693  51.7023714  44.0496615  87.2498287  52.6117588
  42.9041270  86.9659178  51.6635887  43.6777203  73.3878458  58.7428464
  42.7640283  73.6182685  58.9110670  44.1070304  73.4716902  59.5942496
  43.4483661  81.5768350  61.2428358  42.7955112  81.8244258  60.5880810
  43.8264041  80.7632489  60.9090835  39.4971234  82.3188161  67.7294395
  38.8211871  82.2182291  68.3996770  40.3198868  82.1627375  68.1930392
  25.8367748  81.1265698  59.0711353  25.8751848  80.5929289  59.8648471
  25.3308041  80.6000904  58.4522330  33.2158510  75.9730239  62.5673895
  33.2799837  76.8345070  62.1551293  33.1525631  75.3604240  61.8346254
  32.6910783  78.0453371  66.2146930  33.3182822  77.6630449  66.8284454
  31.8338702  77.8267573  66.5802622  43.0904892  88.4516346  67.8200665
  43.6344796  89.0646305  67.3255620  42.5091736  89.0095925  68.3367678
  29.4676326  79.8529800  52.1465284  29.7629767  78.9440479  52.0932338
  28.5664361  79.8317540  51.8246287  32.9970573  77.9285797  58.1292833
  32.2757158  78.5421765  57.9900306  33.7863828  78.4643562  58.0509479
  43.4397313  89.3746084  60.5795243  42.4927648  89.2551436  60.5073570
  43.7880086  88.4868583  60.6621504  35.7996886  75.2640223  64.4033485
  36.3231288  75.5102520  65.1659794  35.5809220  76.0960258  63.9836622
  31.1964167  77.5343898  52.2704610  30.8676873  76.6541277  52.0879715
  31.5503538  77.4791567  53.1580999  40.4443746  89.1698801  56.7799595
  40.2968709  88.2415508  56.9607165  41.2697240  89.1918891  56.2956670
  34.3105990  77.8216868  52.6380087  34.6502063  78.3502789  51.9158696
  34.7578111  78.1597274  53.4138654  44.0477868  89.9927359  57.8664468
  44.9724415  89.7870221  57.7288919  43.8793171  89.7443761  58.7753809
  37.0049431  76.2053919  62.0883155  36.6646252  75.4061732  62.4903835
  36.2988438  76.5055629  61.5159988  37.6565903  73.2903231  60.5410478
  38.4791972  72.8163709  60.4189369  37.9003967  74.0693715  61.0409165
  36.2974138  76.3191489  50.8373380  37.0182500  76.6972742  50.3337097
  35.6739442  77.0380366  50.9408358  40.4405260  77.0236638  51.7731712
  40.6568875  77.9061276  51.4720540  39.9599328  76.6322852  51.0437354
  35.1804482  79.9822352  58.3502457  35.0349063  80.2962655  59.2426738
  34.7029685  80.6007252  57.7973356  37.0400865  76.9724900  58.3983346
  37.0262434  76.0765993  58.0615644  37.7573293  76.9795563  59.0321633
  38.8926995  77.4062240  60.4436474  38.6344773  78.3279310  60.4420804
  38.3612036  77.0092674  61.1336938  29.6550144  82.5227696  61.2890118
  29.1103612  83.2987504  61.4210392  30.5329494  82.8698500  61.1309240
  36.4437761  75.8539280  53.6670917  36.5653672  74.9255926  53.8661804
  36.1539803  75.8677966  52.7549232  39.3128951  73.5394190  56.8037636
  39.3350648  73.6033523  55.8489616  39.7297010  72.6998699  56.9978143
  49.6912575  83.2749450  54.8416859  50.1343721  82.5256775  54.4435982
  48.8139086  83.2659586  54.4590591  44.8248357  89.8279791  50.3223458
  45.5199261  90.4486484  50.5410772  45.1671507  88.9775143  50.5975835
  30.4416166  81.6497592  64.1820275  29.6997902  81.7980228  64.7684905
  30.1208910  81.9105858  63.3187024  46.7239780  87.2779497  51.8510788
  47.2491104  87.6166770  51.1260108  46.6362132  86.3426512  51.6673923
  35.9278840  77.3671277  67.8760849  35.9766996  78.2433400  67.4938619
  36.4701354  76.8248670  67.3032492  46.4133686  87.9112400  67.1561986
  45.6229230  87.8936539  66.6166486  46.1767040  88.4500694  67.9111023
  46.5331561  84.7604867  64.4694715  46.5829566  84.5954874  65.4110238
  46.4245484  83.8932126  64.0792596  43.8235323  80.7435795  65.7854022
  44.7245186  80.6042260  65.4938019  43.8983298  80.9090250  66.7252199
  38.1578129  78.1202650  64.6307208  37.2881438  78.4136216  64.3589796
  38.3937609  78.7043095  65.3514472  48.0349758  87.1801808  64.7136736
  47.7434566  87.5431789  65.5500197  47.4221889  86.4668817  64.5350068
  49.2345440  84.7454688  57.2339307  50.0692331  85.1844492  57.3976867
  49.3704569  84.2693341  56.4147552  46.2836946  82.3034423  63.1816794
  46.7591068  82.4962069  62.3735646  45.3602511  82.3593609  62.9360178
  33.1720453  83.4658590  52.7647873  32.9266495  82.5620920  52.9628083
  33.3416367  83.4675741  51.8227351  40.8617163  74.3382267  62.1472628
  41.3799106  75.0743293  61.8219117  40.5072295  74.6446260  62.9819387
  32.4416100  79.1986948  50.2634034  31.7485345  79.2731303  49.6074070
  32.1967852  78.4347291  50.7855551  41.1129757  70.7582549  57.6673525
  41.3931510  70.0905738  58.2933951  41.8980364  70.9511645  57.1548189
  44.9838615  79.1800183  61.4145100  45.9356038  79.2798281  61.4357324
  44.8142065  78.3878452  61.9243184  43.0052994  76.2655766  61.6004501
  42.4102927  76.5460779  60.9050990  42.7202691  76.7549667  62.3721242
  44.7648502  89.5344563  47.3211081  44.6862133  89.2004427  48.2146839
  45.5858168  90.0266331  47.3202553  47.4626693  82.4006303  60.5287400
  47.4303013  81.4622303  60.7147083  48.0727316  82.4790339  59.7953224
  39.3010024  81.2702356  46.5714604  40.2469128  81.1408564  46.6403022
  38.9224269  80.5317018  47.0484032  47.6121181  79.1917346  60.5745683
  47.0960230  78.4075803  60.3875612  48.4961130  78.8636063  60.7392202
  45.2731908  72.9358362  56.5341495  45.0756729  72.6273450  57.4184827
  45.8831614  73.6620001  56.6639425  53.2803243  83.4622310  59.6693436
  54.0106631  83.2007598  60.2301140  52.6710188  82.7251032  59.7095504
  51.3618540  81.6030172  60.2667888  50.6351703  81.4686137  59.6584379
  50.9465827  81.9107001  61.0724606  39.1848716  85.3220102  68.0315261
  40.1051726  85.4998701  68.2255307  39.1498299  84.3776147  67.8794960
  37.4852941  79.1952332  46.5069489  36.5784396  78.8985445  46.5832202
  37.7628922  78.8982150  45.6403775  28.4030881  80.5158696  56.9568535
  28.0833666  79.6624004  56.6642909  27.8564309  80.7307274  57.7126503
  32.1810789  83.2321137  60.6738042  32.3996799  84.1638244  60.6926076
  32.5936563  82.8729111  61.4592846  39.1015007  73.7389222  52.6613730
  38.2915735  73.3936307  53.0368976  39.7899423  73.4296766  53.2501342
  41.0305555  72.8167269  54.2838027  41.5836593  73.2362722  54.9428050
  41.2675641  71.8903017  54.3260983  37.0538654  78.8054342  70.0640791
  36.9535381  79.7548699  69.9952882  36.8360196  78.4772581  69.1916861
  36.2551725  76.0539267  46.6481468  37.1170889  76.3794166  46.9077285
  36.4402070  75.2670763  46.1354534  28.2719141  84.1361607  58.9261657
  27.5782613  83.7215560  58.4131611  29.0192132  84.1782144  58.3295076
  44.4084362  74.9267794  53.7916691  43.8283031  75.5852598  53.4094743
  44.1420295  74.1045138  53.3804109  42.8587928  74.3272851  55.9938011
  43.3587707  74.4389386  55.1852330  43.5023536  74.0233904  56.6338820
  36.9169924  82.2351481  68.8805852  36.4337006  83.0351841  69.0869741
  37.0030863  82.2459426  67.9273296  30.1855884  84.0679861  56.8027672
  30.1626572  84.1667548  55.8509555  30.4956520  84.9145012  57.1244838
  32.8443262  86.1256016  60.9174286  33.7986515  86.0939958  60.8504218
  32.6455785  85.6646640  61.7324512  33.4342644  84.6957132  63.4845084
  34.2535533  85.1901211  63.5079921  33.7079451  83.7789100  63.4562651
  43.1909240  77.0867884  52.8473039  42.3035095  77.3717535  52.6293234
  43.6063229  76.9261648  52.0000316  46.5423776  77.1114405  56.5627379
  47.3184166  77.6010858  56.8351995  45.8171910  77.5372459  57.0199248
  48.9796335  77.8242024  57.6201319  49.5740826  77.5837760  56.9094627
  49.0522918  77.1049155  58.2474856  42.3352453  86.8512559  46.9421059
  43.0388304  87.0562561  47.5578715  41.6115102  87.4189321  47.2070143
  43.1650264  82.6022420  53.0623329  43.1085465  83.0590972  52.2230962
  43.7178606  81.8413105  52.8846172  46.9755070  78.3912152  53.8873449
  46.7192004  77.9908788  54.7181657  46.3507938  79.1055946  53.7623588
  51.2867407  81.1308225  56.3944740  50.7266965  81.2001415  57.1676302
  50.6810911  80.9549210  55.6744237  44.2439151  87.2895088  48.9919519
  45.0784755  86.8576287  48.8096994  44.0823494  87.1177102  49.9196414
  43.8985043  83.7927201  50.3575859  43.8433847  83.6271473  49.4164303
  43.2731098  84.5003234  50.5138048  28.6877558  79.0295266  64.1837281
  29.3336422  78.5194220  64.6724506  28.4794709  79.7663947  64.7580706
  41.2130950  86.0976113  69.6829421  42.0822110  86.2716766  69.3216056
  40.7337702  86.9170530  69.5605151  37.2081168  73.2935310  49.9361177
  37.1959838  74.2377150  50.0929448  38.1004590  73.1105456  49.6420638
  41.0233288  69.8878087  54.1907114  40.2565684  69.3336574  54.3363796
  41.4343993  69.9599956  55.0521266  33.0275049  76.1762883  68.2812295
  33.8906511  75.8199688  68.4915620  32.4540460  75.8376778  68.9687699
  57.8273122  95.4691426  57.0660883  58.5598293  94.8990643  57.2998712
  57.0712477  95.0813027  57.5067388  55.3498542  89.1813000  61.5255491
  55.0181867  90.0508411  61.3016706  54.7544155  88.8649284  62.2049522
  55.2427205  93.9008086  58.6048841  54.3344083  93.8323495  58.3107602
  55.1914801  94.3780031  59.4330667  57.1088852  92.1024525  60.3826715
  56.4663232  92.3957058  59.7366510  56.6043780  91.9877445  61.1879912
  52.5500298  92.8689301  63.7388598  52.3061230  93.6231362  63.2022873
  52.8260229  93.2474649  64.5735845  52.1064990  92.0245734  59.3202435
  51.2449469  92.3226988  59.6119173  52.1327425  92.2416133  58.3883468
  45.5856550  89.5843599  69.2742267  45.1923495  89.0309798  69.9489911
  46.4022690  89.8954178  69.6648784  48.5024511  91.0001479  66.8662523
  49.2434224  91.6008632  66.7866986  48.7342434  90.2579116  66.3080566
  52.4481674  87.0282581  61.1426805  52.1045943  87.9184223  61.0665915
  52.8160636  86.8384239  60.2796390  49.9979067  91.8640893  54.7084478
  49.1420664  91.4747744  54.5290117  50.4106019  91.9432854  53.8484264
  51.5278214  89.3987237  59.1076038  51.0243010  89.3617372  58.2943843
  51.8208821  90.3079979  59.1672695  47.7721100  89.4825966  58.1142220
  48.6374097  89.2868775  57.7548109  47.8398609  89.2536318  59.0411577
  47.6806087  88.5869423  54.2133656  47.0270499  88.2718440  53.5890271
  47.6386561  87.9645164  54.9393479  54.1457712  93.5099889  55.6502773
  53.4080469  92.9977275  55.9813016  54.3984486  93.0700270  54.8386050
  54.2469339  86.2876141  56.2444543  54.5528216  85.4273504  55.9570458
  54.9721944  86.8793761  56.0443536  50.3275968  90.7825372  64.0909820
  49.6803883  91.4815322  63.9974296  51.0976983  91.2161516  64.4586068
  52.0751963  91.7500783  56.5949105  52.5720662  90.9970745  56.2750175
  51.3038944  91.7865099  56.0292314  54.5170957  88.7170376  58.7428464
  53.6034037  88.9474603  58.9110670  54.9464059  88.8008820  59.5942496
  46.6390641  90.5932141  64.4033485  47.1625043  90.8394438  65.1659794
  46.4202974  91.4252176  63.9836622  47.8443186  91.5345836  62.0883155
  47.5040006  90.7353649  62.4903835  47.1382192  91.8347547  61.5159988
  48.4959658  88.6195149  60.5410478  49.3185727  88.1455627  60.4189369
  48.7397721  89.3985632  61.0409165  51.2799015  92.3528556  51.7731712
  51.4962629  93.2353194  51.4720540  50.7993082  91.9614769  51.0437354
  47.2831515  91.1831198  53.6670917  47.4047426  90.2547844  53.8661804
  46.9933558  91.1969883  52.7549232  50.1522706  88.8686108  56.8037636
  50.1744402  88.9325441  55.8489616  50.5690765  88.0290617  56.9978143
  51.7010917  89.6674184  62.1472628  52.2192861  90.4035211  61.8219117
  51.3466050  89.9738178  62.9819387  51.9523511  86.0874467  57.6673525
  52.2325265  85.4197656  58.2933951  52.7374118  86.2803562  57.1548189
  55.8232370  94.5092101  61.4145100  56.7749792  94.6090198  61.4357324
  55.6535820  93.7170369  61.9243184  53.8446749  91.5947684  61.6004501
  53.2496681  91.8752697  60.9050990  53.5596446  92.0841585  62.3721242
  58.4514936  94.5209264  60.5745683  57.9353984  93.7367720  60.3875612
  59.3354884  94.1927980  60.7392202  56.1125663  88.2650279  56.5341495
  55.9150484  87.9565368  57.4184827  56.7225368  88.9911918  56.6639425
  49.9408761  89.0681139  52.6613730  49.1309489  88.7228224  53.0368976
  50.6293178  88.7588683  53.2501342  51.8699309  88.1459186  54.2838027
  52.4230348  88.5654640  54.9428050  52.1069396  87.2194934  54.3260983
  47.0945480  91.3831185  46.6481468  47.9564644  91.7086083  46.9077285
  47.2795824  90.5962681  46.1354534  55.2478116  90.2559711  53.7916691
  54.6676785  90.9144515  53.4094743  54.9814049  89.4337056  53.3804109
  53.6981683  89.6564769  55.9938011  54.1981461  89.7681304  55.1852330
  54.3417291  89.3525822  56.6338820  54.0302994  92.4159802  52.8473039
  53.1428849  92.7009452  52.6293234  54.4456984  92.2553565  52.0000316
  57.3817531  92.4406323  56.5627379  58.1577921  92.9302775  56.8351995
  56.6565665  92.8664377  57.0199248  59.8190089  93.1533942  57.6201319
  60.4134580  92.9129678  56.9094627  59.8916673  92.4341073  58.2474856
  57.8148824  93.7204070  53.8873449  57.5585758  93.3200705  54.7181657
  57.1901692  94.4347864  53.7623588  48.0474923  88.6227228  49.9361177
  48.0353593  89.5669068  50.0929448  48.9398345  88.4397373  49.6420638
  51.8627042  85.2170005  54.1907114  51.0959438  84.6628491  54.3363796
  52.2737747  85.2891873  55.0521266   9.5148409  13.4959191  45.8120003
  10.1526819  13.3765938  45.1083343   9.3969252  14.4440035  45.8707955
   6.3238115  13.4486619  45.7481527   5.9856627  13.3327684  44.8602062
   7.1927884  13.0477784  45.7282534   2.1824931  15.3022096  41.7378418
   1.6189796  15.2112033  40.9694706   2.0677326  14.4822000  42.2180911
   6.8057898  14.6021471  51.7067733   6.7946539  14.2074269  50.8348237
   6.9678538  13.8687543  52.3001504   7.7624490  18.9693063  37.0492883
   7.1112470  19.5547144  36.6626897   8.5568853  19.4999258  37.1087921
   1.6880117  16.0582200  37.4480018   2.4610993  15.5111187  37.3092893
   2.0405516  16.9226450  37.6594479   3.5265160  17.3858583  50.6546917
   3.2355026  18.2904214  50.5393583   4.1622144  17.4275110  51.3690987
   4.4521366  14.7635431  47.2448277   5.0484939  14.5391454  46.5305240
   4.5096338  14.0220177  47.8473724   4.0246395  12.2174867  35.0798468
   4.2771916  11.6956388  34.3181931   3.0870954  12.0541012  35.1825151
   9.0689678  11.2210645  42.8873211   9.8552767  10.8030068  42.5363628
   9.3328382  12.1256737  43.0554859   9.2399755  16.6583495  37.5861868
   8.6045588  16.7318122  38.2982772   8.9097161  17.2477094  36.9080947
  14.4698105  11.1585878  43.7906189  15.2023277  10.5885095  44.0244019
  13.7137461  10.7707479  44.2312695   3.7442684  14.1202972  37.2822843
   3.6278942  13.4447876  37.9503927   3.8544944  13.6335346  36.4654996
   6.0874225  13.5813120  40.9869532   5.7232432  13.0543741  41.6982453
   6.9441340  13.1911589  40.8136017   8.4855045  17.0719998  47.6496711
   8.1855768  17.9745037  47.5412518   8.1406104  16.8052181  48.5017864
   1.9367526  13.5233795  43.6833415   1.0118023  13.3910009  43.8911107
   2.1851939  14.3028014  44.1803357  11.8852188   9.5902538  45.3294148
  10.9769066   9.5217947  45.0352909  11.8339784  10.0674483  46.1575973
   5.7068932  11.0660677  36.9677547   5.5868558  11.5117728  37.8063027
   5.0121521  11.4145994  36.4091085   3.4675825  23.8364319  40.6167678
   3.3899854  24.7872144  40.6956159   2.8637468  23.4910191  41.2742605
   5.9593054  11.0092184  53.2729045   5.1826388  11.5686104  53.2631910
   6.5983617  11.4948967  53.7943915  13.7513835   7.7918977  47.1072022
  13.1088215   8.0851510  46.4611816  13.2468763   7.6771897  47.9125219
  11.4053999  11.5382150  37.7957881  12.3171855  11.7709537  37.6205579
  10.8963646  12.1219194  37.2332960   4.2139427  13.8177637  52.8347012
   4.9554111  14.3562681  52.5581836   3.5076412  14.4443926  52.9918564
   9.6894766  15.9606778  51.4319174  10.0978122  15.5189188  50.6873806
   8.9672028  15.3859405  51.6853367   6.0425836  10.8979385  48.8052731
   6.8887031  11.3218798  48.9487380   5.9824474  10.2413009  49.4991294
  10.0123581  16.5207968  45.1871463   9.3832443  16.6853683  44.4847530
   9.6249243  16.9349578  45.9582427  13.8912813  17.4562406  42.5415826
  13.2063851  17.8361308  41.9912860  13.9756662  18.0657733  43.2747774
   9.1925282   8.5583753  50.4633904   8.9486213   9.3125813  49.9268180
   9.4685212   8.9369101  51.2981151  11.1463744  15.1022365  49.1411170
  11.3580640  15.7454125  48.4645551  11.0993493  14.2684682  48.6733100
   8.7489973   7.7140186  46.0447742   7.8874452   8.0121440  46.3364480
   8.7752408   7.9310585  45.1128775   5.5651543  16.2582377  42.4521548
   6.0289888  16.5370079  41.6626170   5.3008341  15.3565821  42.2694638
   2.4575624  15.8053858  45.3901311   3.0276981  16.2341126  44.7518795
   3.0483736  15.5236443  46.0885497   4.5020429  12.3805529  39.2611113
   5.2044472  12.8326573  39.7285039   4.1701057  11.7389348  39.8891006
  12.2609572  17.9794321  47.3133527  13.0827016  17.5774508  47.0316209
  12.2571975  17.8762555  48.2649643   6.0266176  17.5278364  49.4694238
   6.0910608  17.9898771  50.3052410   5.3177100  16.8975729  49.5976548
  20.3515565  14.3233069  43.6618499  19.5979274  13.7540467  43.5062503
  20.4863107  14.2895734  44.6089133   5.7414193  19.1946472  39.3373218
   5.6059868  20.0398007  39.7658066   6.2824006  19.3965749  38.5739152
   1.0038476  19.8287666  41.9923896   1.1805104  20.7505631  41.8044880
   1.7995309  19.5146085  42.4218276   7.3682670  19.8170038  53.4673560
   6.9246524  19.0306417  53.1494465   8.0299883  20.0049189  52.8017451
   2.1269791  21.3465840  47.9934239   2.6777216  21.2182903  47.2211233
   1.2881267  21.6460729  47.6429131   9.4663908  20.0972838  51.4954961
   9.4482383  20.9181719  51.0035231  10.3883828  19.9726913  51.7205103
   5.9236962  17.6116967  52.3378470   6.4565299  16.8505256  52.1077778
   5.3951043  17.3190619  53.0802624   9.0556940  12.7085644  36.3744547
   8.5403563  13.4790249  36.6132934   8.7834248  12.0350781  36.9977608
  14.0291214  15.4617999  38.3097720  13.2520657  15.1229159  37.8652882
  14.7082695  15.4670622  37.6352685   8.8443243  10.5812737  38.2004328
   8.5393378  10.8958886  39.0514471   9.7973685  10.6594156  38.2431661
   7.2889675  16.7402960  39.8497282   6.7611036  16.0055719  39.5370519
   6.7877177  17.5177636  39.6037250  12.2682521  14.9351980  44.9664328
  11.6106195  15.6251242  45.0544457  13.0722920  15.3248412  45.3098314
  11.0787980  13.2896353  43.0168270  11.5919861  13.9226345  43.5189980
  11.7289203  12.6897549  42.6511630   5.4342275  14.5583170  32.8532255
   4.5269337  14.3272424  33.0523404   5.9313307  13.7620789  33.0406236
   8.3410354  23.2680677  35.7728941   7.6672053  23.5712374  36.3813899
   8.7276176  24.0709758  35.4234398   7.5568810  10.7645809  45.2626610
   6.6391372  10.9860756  45.1048298   7.9728954  10.8392119  44.4038318
   8.3403858  12.1637224  40.3929291   9.0875677  12.6758622  40.0836413
   8.6095448  11.8421277  41.2533684   6.6130508  14.6595765  37.3756245
   5.7041728  14.3754798  37.4728715   6.6425592  15.0794844  36.5159552
  11.8449776  18.2702355  41.1447413  11.3912103  17.4293264  41.2012603
  11.2143742  18.9063753  41.4822193  10.7882695   9.1994341  42.3748080
  10.0505452   8.6871727  42.7058323  11.0409469   8.7594722  41.5631357
  10.2882715  20.1078851  42.0797231  10.5805689  20.6683908  41.3609596
  10.7981336  20.4007412  42.8350390   5.1615402  12.2724386  43.4766040
   5.2164012  11.3198222  43.4008517   4.3506604  12.4283825  43.9607339
   6.3106596  16.2004509  34.7144324   5.8726026  15.4840368  34.2549961
   7.0517037  16.4280624  34.1529415   5.2516340  20.8859202  43.1690684
   5.2092519  21.1120049  42.2399216   6.1679039  20.6522577  43.3176485
   8.6981974  11.3543270  50.0671313   9.0531362  11.5814743  50.9265779
   9.3454105  11.6861647  49.4448568  14.4279711  14.4761706  40.7720642
  14.2897610  14.6663302  39.8441831  14.0715930  15.2381089  41.2288693
  14.4549091  16.5438233  45.7831914  14.8885597  16.4513522  46.6314968
  15.1680671  16.5195733  45.1451930   3.3682141  17.7622231  42.9652647
   4.1622739  17.2672551  42.7635222   2.6573833  17.2340094  42.6020352
   8.1876985  20.1440327  47.3165014   8.2414008  20.7131263  48.0842730
   7.3191767  20.3142212  46.9519051  15.3164640  16.5861933  48.3164799
  15.5100530  17.4907744  48.5624074  15.2165258  16.1269352  49.1503384
  10.3779749  16.7368676  53.8905680  10.2265255  16.5079228  52.9735763
  10.3684428  17.6939278  53.9037025   7.1465085  14.3100589  48.8751946
   8.0757145  14.4611749  48.7020913   6.7256115  14.3984610  48.0200593
   5.9453417  18.3351253  46.6450484   5.8064503  17.9670038  47.5176422
   5.1568013  18.8498893  46.4734441   6.5401569  23.4360350  37.9876020
   6.7153325  22.9648393  38.8021643   5.8534357  24.0626116  38.2157281
   7.4958632  17.7132856  44.0339321   7.1608465  17.6733626  44.9296971
   6.9962578  17.0477572  43.5609732  10.4317824  15.0588890  34.3076381
   9.8146994  14.3335719  34.2109434   9.9634312  15.8198251  33.9643455
   4.0985177  12.8320445  49.0475582   4.8084795  12.1913638  49.0062201
   4.0554485  13.0833340  49.9701763  12.0871955  19.7687799  51.9682161
  12.0284502  19.0847019  51.3012744  12.4891474  20.5106789  51.5162787
  12.0889363  17.7327383  50.1996141  11.2016141  17.3953304  50.3222540
  12.6587914  17.0010414  50.4364907   5.6190516  22.3928835  47.1657384
   5.5460688  23.1983806  47.6776689   5.1767909  22.5920801  46.3405406
   5.4080296  21.6300605  40.6760206   4.6247818  22.1722285  40.7698430
   6.1073041  22.1474585  41.0754447  16.5706703  13.1435600  44.9612703
  16.5596579  14.0260315  44.5906636  15.7024083  12.7907151  44.7667240
   8.0789200  22.2915669  49.3215543   8.7917172  22.9263134  49.2491444
   7.5879228  22.3879535  48.5055545   9.8006727  16.1966922  40.8932835
   8.8663005  16.3168384  40.7237539   9.9783395  15.2939388  40.6292845
  13.1879278  12.0384241  41.4282869  13.6539730  12.8712233  41.3543171
  13.6386778  11.5729223  42.1328127   3.1301113  20.0410112  50.1421114
   3.8310573  20.6746595  50.2950508   2.6596228  20.3824844  49.3816753
  11.2555509  18.3828062  38.4269021  11.5315353  18.2684657  39.3362895
  10.3860008  17.9845547  38.3881194  10.9302399  12.5954720  47.9673664
  10.2773849  12.8430627  47.3126117  11.3082779  11.7818858  47.6336141
   7.8909573  22.6314413  42.0701834   8.0731968  21.8136069  42.5329587
   8.7142559  22.8482105  41.6326724   8.2251738  21.5582598  39.3316883
   8.7539505  21.0475053  38.7187045   8.4879958  21.2425128  40.1962416
   6.9789972  13.3374531  54.4539701   6.3030609  13.2368660  55.1242076
   7.8017606  13.1813745  54.9175698   1.5807486  22.6097715  42.0914659
   0.9117862  23.0943843  41.6078699   1.4420356  22.8566935  43.0058037
   5.7212755  24.6441458  48.6897317   6.2731063  24.8073080  49.4546402
   6.0618948  25.2345896  48.0177342  10.5723629  19.4702716  54.5445972
  11.1163533  20.0832674  54.0500926   9.9910474  20.0282294  55.0612985
   8.8581142  22.5923434  45.6760999   8.7332282  21.7913174  45.1671945
   9.5160233  23.0869627  45.1874969  10.9216051  20.3932454  47.3040549
   9.9746386  20.2737805  47.2318876  11.2698824  19.5054952  47.3866811
   7.9262484  20.1885170  43.5044902   7.7787446  19.2601878  43.6852472
   8.7515977  20.2105261  43.0201977  11.5296606  21.0113729  44.5909774
  12.4543153  20.8056590  44.4534226  11.3611909  20.7630130  45.4999116
  11.3191922  21.5299396  39.9471866  11.4928800  20.9645819  39.1945718
  11.8120813  22.3300291  39.7651356  17.1731313  14.2935819  41.5662166
  17.6162459  13.5443145  41.1681289  16.2957823  14.2845956  41.1835898
  12.3067095  20.8466161  37.0468764  13.0017999  21.4672854  37.2656079
  12.6490245  19.9961512  37.3221142  14.2058518  18.2965866  38.5756095
  14.7309842  18.6353139  37.8505415  14.1180870  17.3612882  38.3919230
   5.8678566  22.2099940  50.7045972   6.1765693  21.9649087  51.5768671
   6.6654048  22.4146578  50.2164842   5.8899178  24.3637850  42.9351348
   5.4504169  23.8714228  43.6284205   6.6407295  23.8210817  42.6943423
   3.3373051  19.9075859  45.0073650   2.7153060  19.2446564  44.7075878
   4.0077917  19.9336991  44.3247298  13.8952424  18.9298770  53.8807293
  13.1047967  18.9122909  53.3411792  13.6585778  19.4687064  54.6356330
  14.0150299  15.7791236  51.1940021  14.0648304  15.6141244  52.1355544
  13.9064222  14.9118495  50.8037902   2.8986557  18.4579782  38.4832110
   3.0474678  19.1415246  37.8298783   3.7053001  18.4384872  38.9981566
  11.3054061  11.7622164  52.5099328  12.2063924  11.6228629  52.2183326
  11.3802036  11.9276619  53.4497506  15.5168496  18.1988178  51.4382043
  15.2253304  18.5618158  52.2745504  14.9040627  17.4855186  51.2595375
  16.7164178  15.7641058  43.9584613  17.5511069  16.2030862  44.1222174
  16.8523307  15.2879711  43.1392859  13.7655684  13.3220793  49.9062101
  14.2409805  13.5148439  49.0980952  12.8421249  13.3779978  49.6605485
   6.3981963  20.9527913  35.9543858   5.8255930  21.5718100  35.5014330
   6.9714757  21.5027274  36.4883780  12.4657353  10.1986553  48.1390407
  13.4174776  10.2984650  48.1602631  12.2960803   9.4064821  48.6488491
  10.4871732   7.2842136  48.3249808   9.8921664   7.5647149  47.6296296
  10.2021429   7.7736037  49.0966549   9.6179223  21.2365063  37.0852440
  10.5509896  21.1710624  37.2885316   9.5302436  22.0721330  36.6266973
  12.2467239  20.5530933  34.0456388  12.1680871  20.2190797  34.9392146
  13.0676906  21.0452701  34.0447860  14.9445431  13.4192672  47.2532706
  14.9121751  12.4808673  47.4392390  15.5546054  13.4976709  46.5198531
   6.7828761  12.2888725  33.2959910   7.7287866  12.1594933  33.3648328
   6.4043006  11.5503387  33.7729338  15.0939919  10.2103716  47.2990989
  14.5778968   9.4262172  47.1120918  15.9779868   9.8822432  47.4637509
  20.7621980  14.4808679  46.3938743  21.4925369  14.2193967  46.9546446
  20.1528926  13.7437401  46.4340811  18.8437278  12.6216542  46.9913194
  18.1170441  12.4872507  46.3829686  18.4284564  12.9293370  47.7969912
   6.6667454  16.3406471  54.7560567   7.5870463  16.5185070  54.9500614
   6.6317037  15.3962517  54.6040267   4.3988662  13.2537851  55.6051159
   3.9155744  14.0538211  55.8115048   4.4849601  13.2645796  54.6518603
   0.9161382  15.7143501  50.2090390   1.7354271  16.2087580  50.2325228
   1.1898189  14.7975470  50.1807958  10.6727978   8.1054254  39.5718346
   9.7853833   8.3903904  39.3538541  11.0881967   7.9448017  38.7245623
  14.0242514   8.1300775  43.2872685  14.8002904   8.6197227  43.5597302
  13.2990648   8.5558829  43.7444555  16.4615072   8.8428394  44.3446626
  17.0559563   8.6024130  43.6339934  16.5341656   8.1235525  44.9720162
   9.8171191  17.8698928  33.6666366  10.5207041  18.0748931  34.2824022
   9.0933840  18.4375690  33.9315449  10.6469001  13.6208790  39.7868636
  10.5904203  14.0777341  38.9476269  11.1997344  12.8599474  39.6091479
  14.4573807   9.4098522  40.6118756  14.2010742   9.0095157  41.4426963
  13.8326675  10.1242315  40.4868895  18.7686145  12.1494595  43.1190047
  18.2085703  12.2187784  43.8921609  18.1629649  11.9735579  42.3989543
   1.8381354  23.5831322  44.8708233   1.7213738  24.5276754  44.7686924
   1.0173800  23.2804883  45.2594033  11.7257889  18.3081458  35.7164826
  12.5603493  17.8762656  35.5342301  11.5642232  18.1363471  36.6441721
  11.3803781  14.8113571  37.0821165  11.3252585  14.6457842  36.1409609
  10.7549836  15.5189604  37.2383355   8.6949688  17.1162483  56.4074728
   9.5640848  17.2903135  56.0461363   8.2156439  17.9356900  56.2850457
   2.8635868  24.2359584  48.0864162   3.7663115  24.2683194  48.4030657
   2.6373238  23.3060035  48.1010498   4.6189470  22.9890570  44.7474240
   3.6685101  22.9892432  44.6338613   4.9221956  22.2423305  44.2310275
  13.0218686  30.6314013  41.7378418  12.4583551  30.5403950  40.9694706
  12.9071081  29.8113918  42.2180911  17.6451653  29.9313389  51.7067733
  17.6340294  29.5366187  50.8348237  17.8072292  29.1979461  52.3001504
  10.5683118  32.1265205  44.5762639  11.3604410  31.7856029  44.1608938
  10.8079768  32.2360180  45.4964792  18.6018244  34.2984981  37.0492883
  17.9506224  34.8839061  36.6626897  19.3962607  34.8291176  37.1087921
  14.3658914  32.7150500  50.6546917  14.0748780  33.6196131  50.5393583
  15.0015898  32.7567028  51.3690987  15.2915121  30.0927349  47.2448277
  15.8878693  29.8683371  46.5305240  15.3490092  29.3512094  47.8473724
  14.8640149  27.5466784  35.0798468  15.1165670  27.0248305  34.3181931
  13.9264708  27.3832930  35.1825151  14.5836438  29.4494890  37.2822843
  14.4672696  28.7739794  37.9503927  14.6938698  28.9627264  36.4654996
  16.9267979  28.9105037  40.9869532  16.5626186  28.3835658  41.6982453
  17.7835095  28.5203506  40.8136017  22.8317280  20.1999370  48.2500798
  22.5000604  21.0694781  48.0262013  22.2362893  19.8835654  48.9294828
  16.5673466  23.9394937  35.9830880  16.7347868  24.8075173  36.3501351
  16.3770635  24.1022219  35.0592170  12.7761281  28.8525713  43.6833415
  11.8511777  28.7201927  43.8911107  13.0245694  29.6319932  44.1803357
  16.5462687  26.3952594  36.9677547  16.4262312  26.8409645  37.8063027
  15.8515275  26.7437912  36.4091085  10.1370092  28.4958986  44.5177204
  10.2662473  28.7493465  45.4316616   9.4567543  29.0886694  44.1981859
  14.3069579  39.1656236  40.6167678  14.2293609  40.1164061  40.6956159
  13.7031223  38.8202109  41.2742605  16.7986809  26.3384102  53.2729045
  16.0220143  26.8978022  53.2631910  17.4377372  26.8240885  53.7943915
  15.0533181  29.1469555  52.8347012  15.7947865  29.6854599  52.5581836
  14.3470167  29.7735844  52.9918564  16.8819591  26.2271302  48.8052731
  17.7280786  26.6510716  48.9487380  16.8218228  25.5704927  49.4991294
  20.0319036  23.8875671  50.4633904  19.7879968  24.6417731  49.9268180
  20.3078967  24.2661018  51.2981151  19.5883728  23.0432104  46.0447742
  18.7268207  23.3413357  46.3364480  19.6146162  23.2602503  45.1128775
  16.4045297  31.5874294  42.4521548  16.8683643  31.8661997  41.6626170
  16.1402095  30.6857739  42.2694638  13.2969378  31.1345776  45.3901311
  13.8670735  31.5633044  44.7518795  13.8877490  30.8528360  46.0885497
  15.3414183  27.7097447  39.2611113  16.0438227  28.1618490  39.7285039
  15.0094812  27.0681265  39.8891006  13.7894545  26.3009203  53.6362322
  13.1593205  26.9825484  53.8697719  13.6830633  26.1892285  52.6915461
   9.0839517  25.9680999  44.5628246   8.2938571  26.2238528  44.0868357
   9.5750765  26.7829337  44.6680287  11.0354263  26.3325578  41.5211723
  10.2385426  26.4444273  42.0395219  10.8079855  26.6712231  40.6552614
  16.8659930  32.8570282  49.4694238  16.9304363  33.3190689  50.3052410
  16.1570854  32.2267647  49.5976548   7.3677220  26.2211490  46.9943237
   7.6185259  27.1058500  47.2600813   7.9036769  26.0416091  46.2218329
  16.5807948  34.5238389  39.3373218  16.4453623  35.3689925  39.7658066
  17.1217760  34.7257667  38.5739152  13.0675288  20.6029969  55.9987573
  12.6742233  20.0496168  56.6735218  13.8841428  20.9140548  56.3894091
  10.0337345  32.0413827  39.9101143  10.5461866  32.8357077  40.0606708
  10.6860058  31.3440118  39.8434745  11.8432230  35.1579583  41.9923896
  12.0198858  36.0797548  41.8044880  12.6389064  34.8438003  42.4218276
  15.9843249  22.0187848  53.5907830  16.7252962  22.6195001  53.5112292
  16.2161171  21.2765486  53.0325872  11.1284587  27.2044215  51.8686060
  11.0138102  26.3029473  52.1693158  10.2729104  27.4507912  51.5170876
  18.2076424  35.1461956  53.4673560  17.7640278  34.3598334  53.1494465
  18.8693638  35.3341106  52.8017451  12.9663545  36.6757757  47.9934239
  13.5170971  36.5474821  47.2211233  12.1275021  36.9752646  47.6429131
  16.7630717  32.9408885  52.3378470  17.2959053  32.1797173  52.1077778
  16.2344798  32.6482537  53.0802624  19.9300411  18.0468951  47.8672112
  19.5864681  18.9370593  47.7911222  20.2979374  17.8570609  47.0041697
   7.9986262  30.3702482  40.6860714   8.8361484  30.7799490  40.4694421
   8.1764530  29.4301924  40.6560908  19.8950694  28.0377562  36.3744547
  19.3797318  28.8082167  36.6132934  19.6228003  27.3642698  36.9977608
  17.4797805  22.8827263  41.4329785  16.6239402  22.4934113  41.2535424
  17.8924757  22.9619224  40.5729571  19.0096952  20.4173606  45.8321345
  18.5061747  20.3803741  45.0189150  19.3027559  21.3266349  45.8918001
  15.2539838  20.5012336  44.8387527  16.1192835  20.3055145  44.4793416
  15.3217347  20.2722688  45.7656883  19.6836997  25.9104654  38.2004328
  19.3787133  26.2250803  39.0514471  20.6367439  25.9886074  38.2431661
  18.1283429  32.0694878  39.8497282  17.6004791  31.3347637  39.5370519
  17.6270932  32.8469554  39.6037250  12.8602157  22.7314544  42.2103893
  13.4345909  22.5089725  41.4777086  13.4473139  22.8003238  42.9632495
  13.1871744  24.7619005  36.2299779  12.3509056  25.0993691  36.5509053
  13.0476514  24.6267985  35.2926916  15.1624825  19.6055793  40.9378963
  14.5089237  19.2904810  40.3135578  15.1205299  18.9831533  41.6638786
  16.2736029  29.8875088  32.8532255  15.3663091  29.6564341  33.0523404
  16.7707061  29.0912707  33.0406236  19.1804108  38.5972595  35.7728941
  18.5065807  38.9004292  36.3813899  19.5669930  39.4001675  35.4234398
  18.3962565  26.0937726  45.2626610  17.4785126  26.3152673  45.1048298
  18.8122709  26.1684037  44.4038318  17.4524263  29.9887683  37.3756245
  16.5435482  29.7046716  37.4728715  17.4819347  30.4086761  36.5159552
  21.7288077  17.3062510  42.9689849  22.0346954  16.4459874  42.6815764
  22.4540682  17.8980130  42.7688843   8.0212433  27.7093197  41.3571447
   7.8236833  27.1162558  40.6322514   7.4659097  27.4045407  42.0747386
  16.0009157  27.6016303  43.4766040  16.0557767  26.6490140  43.4008517
  15.1900359  27.7575742  43.9607339  17.1500351  31.5296426  34.7144324
  16.7119781  30.8132285  34.2549961  17.8910791  31.7572541  34.1529415
  13.9401517  26.2193363  41.2356419  13.1269382  26.5187534  41.6421611
  14.4360511  25.8249052  41.9530901  16.0910095  36.2151120  43.1690684
  16.0486273  36.4411966  42.2399216  17.0072794  35.9814495  43.3176485
  19.5375728  26.6835188  50.0671313  19.8925116  26.9106661  50.9265779
  20.1847860  27.0153564  49.4448568  13.4315592  23.7911719  46.8517654
  14.0714971  23.6500478  46.1540617  12.5993122  23.5046232  46.4756256
  14.2075895  33.0914149  42.9652647  15.0016494  32.5964469  42.7635222
  13.4967588  32.5632012  42.6020352  19.0270740  35.4732245  47.3165014
  19.0807762  36.0423181  48.0842730  18.1585521  35.6434130  46.9519051
  10.5158659  27.2357231  39.0412399   9.5856247  27.1741686  39.2582361
  10.6116131  26.7133183  38.2449041  10.4344208  23.7612044  41.6290641
  10.6951025  24.6757377  41.5199801  11.2561380  23.2936486  41.7787254
  11.9069133  25.1749801  48.7989465  12.5792187  24.9667163  48.1502114
  11.0798920  24.9771887  48.3594698  17.8094705  21.8011742  50.8155126
  17.1622620  22.5001691  50.7219603  18.5795721  22.2347886  51.1831375
  16.7847171  33.6643171  46.6450484  16.6458257  33.2961955  47.5176422
  15.9961768  34.1790810  46.4734441  17.3795323  38.7652267  37.9876020
  17.5547079  38.2940311  38.8021643  16.6928111  39.3918034  38.2157281
  18.3352387  33.0424774  44.0339321  18.0002219  33.0025544  44.9296971
  17.8356332  32.3769490  43.5609732  12.3096631  28.4492404  49.5591903
  12.1716428  27.7172643  50.1603442  13.2201554  28.3601304  49.2776090
  14.9378931  28.1612363  49.0475582  15.6478550  27.5205555  49.0062201
  14.8948239  28.4125258  49.9701763  13.6507865  25.1477581  50.8671222
  13.1145222  24.6968319  51.5192818  13.0624574  25.2823490  50.1241686
  11.9456409  41.9141630  44.7615880  12.1853007  42.5460154  45.4394899
  11.1025605  41.5629670  45.0481240  13.0610124  24.6066232  33.4297685
  12.1839590  24.4855033  33.0659932  13.5367877  23.8152311  33.1776574
   4.5812264  29.3943392  43.5239193   5.2683304  29.0805122  42.9360208
   4.4260393  30.2984757  43.2506444   9.3846986  24.2833589  47.9524216
   9.3005175  23.6759258  47.2174626   8.5629693  24.7742607  47.9533713
  16.4584271  37.7220753  47.1657384  16.3854442  38.5275724  47.6776689
  16.0161664  37.9212718  46.3405406  16.2474050  36.9592523  40.6760206
  15.4641572  37.5014203  40.7698430  16.9466795  37.4766502  41.0754447
  19.5570700  22.7687152  43.3194411  20.0539400  22.0157114  42.9995482
  18.7857682  22.8051469  42.7537621  18.9182954  37.6207587  49.3215543
  19.6310926  38.2555052  49.2491444  18.4272983  37.7171453  48.5055545
  16.1405669  24.9104535  43.0466096  15.7703457  24.3575576  43.7347001
  16.6364762  24.3062669  42.4941096  13.9694868  35.3702030  50.1421114
  14.6704327  36.0038513  50.2950508  13.4989983  35.7116762  49.3816753
  21.9989695  19.7356746  45.4673770  21.0852775  19.9660972  45.6355977
  22.4282797  19.8195190  46.3187803  18.7303327  37.9606331  42.0701834
  18.9125722  37.1427987  42.5329587  19.5536313  38.1774023  41.6326724
  19.0645493  36.8874516  39.3316883  19.5933259  36.3766970  38.7187045
  19.3273713  36.5717046  40.1962416  17.8183727  28.6666449  54.4539701
  17.1424364  28.5660578  55.1242076  18.6411360  28.5105662  54.9175698
   9.5662586  34.9038385  47.0752217  10.1516023  34.1582073  47.2080121
   9.3687424  35.2142342  47.9588880  12.4201241  37.9389633  42.0914659
  11.7511616  38.4235760  41.6078699  12.2814111  38.1858853  43.0058037
   4.1580240  27.4743985  45.7956660   4.1964340  26.9407576  46.5893778
   3.6520533  26.9479191  45.1767637  16.5606509  39.9733376  48.6897317
  17.1124818  40.1364998  49.4546402  16.9012703  40.5637814  48.0177342
  11.5371003  22.3208526  49.2919202  11.6012329  23.1823357  48.8796600
  11.4738123  21.7082528  48.5591560  11.0123275  24.3931658  52.9392236
  11.6395314  24.0108736  53.5529761  10.1551194  24.1745860  53.3047929
  21.4117384  34.7994634  54.5445972  21.9557288  35.4124592  54.0500926
  20.8304229  35.3574212  55.0612985   7.7888818  26.2008088  38.8710591
   8.0842259  25.2918766  38.8177645   6.8876854  26.1795827  38.5491593
  19.6974897  37.9215352  45.6760999  19.5726036  37.1205091  45.1671945
  20.3553988  38.4161545  45.1874969  11.3183065  24.2764084  44.8538140
  10.5969651  24.8900052  44.7145613  12.1076321  24.8121849  44.7754786
  14.1209379  21.6118511  51.1278791  14.6443780  21.8580807  51.8905101
  13.9021712  22.4438545  50.7081929   9.5176660  23.8822185  38.9949916
   9.1889366  23.0019564  38.8125022   9.8716030  23.8269854  39.8826305
  18.7656238  35.5177088  43.5044902  18.6181201  34.5893795  43.6852472
  19.5909732  35.5397179  43.0201977  12.6318483  24.1695155  39.3625394
  12.9714555  24.6981076  38.6404002  13.0790603  24.5075561  40.1383960
  15.3261924  22.5532206  48.8128462  14.9858744  21.7540019  49.2149142
  14.6200930  22.8533917  48.2405295  15.9778395  19.6381518  47.2655785
  16.8004465  19.1641996  47.1434675  16.2216459  20.4172002  47.7654471
  14.6186630  22.6669777  37.5618687  15.3394992  23.0451029  37.0582403
  13.9951934  23.3858653  37.6653665  18.7617753  23.3714926  38.4977019
  18.9781367  24.2539563  38.1965847  18.2811820  22.9801139  37.7682661
  13.5016974  26.3300639  45.0747764  13.3561555  26.6440942  45.9672045
  13.0242178  26.9485539  44.5218662  15.3613357  23.3203187  45.1228653
  15.3474926  22.4244280  44.7860951  16.0785785  23.3273851  45.7566939
  17.2139488  23.7540527  47.1681781  16.9557266  24.6757598  47.1666111
  16.6824528  23.3570962  47.8582245   7.9762636  28.8705983  48.0135425
   7.4316104  29.6465791  48.1455699   8.8541986  29.2176788  47.8554546
  14.7650253  22.2017567  40.3916223  14.8866164  21.2734213  40.5907111
  14.4752295  22.2156253  39.4794539  17.6341443  19.8872478  43.5282943
  17.6563140  19.9511811  42.5734923  18.0509502  19.0476986  43.7223449
   8.7628658  27.9975879  50.9065582   8.0210394  28.1458515  51.4930212
   8.4421402  28.2584145  50.0432331  16.7072321  37.5391858  50.7045972
  17.0159447  37.2941004  51.5768671  17.5047803  37.7438496  50.2164842
  16.7292933  39.6929767  42.9351348  16.2897923  39.2006146  43.6284205
  17.4801050  39.1502735  42.6943423   9.2085272  35.8841308  42.9375976
  10.0343292  35.5845080  42.5574620   8.8579324  35.1148931  43.3865765
  14.1766805  35.2367776  45.0073650  13.5546814  34.5738481  44.7075878
  14.8471672  35.2628908  44.3247298   7.4093877  33.8027635  43.8964910
   6.5725785  33.3749809  43.7148911   7.3817522  33.9960078  44.8335701
  14.2491333  23.7149564  54.6006156  14.2979488  24.5911687  54.2183925
  14.7913847  23.1726957  54.0277799  13.7380312  33.7871700  38.4832110
  13.8868432  34.4707164  37.8298783  14.5446755  33.7676790  38.9981566
  16.4790621  24.4680937  51.3552515  15.6093930  24.7614503  51.0835103
  16.7150101  25.0521382  52.0759778  11.4932945  29.8136877  39.4893179
  11.2478987  28.9099207  39.6873389  11.6628859  29.8154028  38.5472657
  19.1829655  20.6860554  48.8717935  19.7011599  21.4221581  48.5464423
  18.8284788  20.9924547  49.7064694  10.7628592  25.5465235  36.9879341
  10.0697837  25.6209590  36.3319377  10.5180344  24.7825579  37.5100858
  19.4342249  17.1060836  44.3918832  19.7144003  16.4384025  45.0179258
  20.2192856  17.2989932  43.8793495  17.2375717  36.2819830  35.9543858
  16.6649685  36.9010017  35.5014330  17.8108511  36.8319192  36.4883780
  20.4572977  36.5656980  37.0852440  21.3903650  36.5002542  37.2885316
  20.3696190  37.4013247  36.6266973  17.6222516  27.6180643  33.2959910
  18.5681621  27.4886851  33.3648328  17.2436761  26.8795305  33.7729338
  23.5944400  19.2836649  43.2586802  23.3969222  18.9751737  44.1430134
  24.2044106  20.0098288  43.3884732  17.5061208  31.6698389  54.7560567
  18.4264218  31.8476988  54.9500614  17.4710792  30.7254434  54.6040267
  15.8065433  25.5430619  33.2314796  14.8996888  25.2463732  33.3077509
  16.0841414  25.2460437  32.3649082   6.7243373  26.8636983  43.6813842
   6.4046158  26.0102291  43.3888216   6.1776802  27.0785561  44.4371809
  10.5023281  29.5799424  47.3983348  10.7209291  30.5116532  47.4171382
  10.9149055  29.2207398  48.1838152  17.4227499  20.0867509  39.3859037
  16.6128227  19.7414594  39.7614283  18.1111916  19.7775053  39.9746648
  19.3518047  19.1645556  41.0083333  19.9049086  19.5841009  41.6673357
  19.5888133  18.2381304  41.0506289  15.3751146  25.1532630  56.7886097
  15.2747873  26.1026986  56.7198188  15.1572688  24.8250868  55.9162167
  14.5764218  22.4017555  33.3726775  15.4383382  22.7272453  33.6322592
  14.7614562  21.6149050  32.8599841   6.5931633  30.4839894  45.6506964
   5.8995105  30.0693847  45.1376918   7.3404624  30.5260431  45.0540382
  22.7296854  21.2746081  40.5161998  22.1495523  21.9330885  40.1340050
  22.4632787  20.4523426  40.1049415  21.1800421  20.6751139  42.7183318
  21.6800199  20.7867673  41.9097637  21.8236028  20.3712192  43.3584126
  15.2382416  28.5829768  55.6051159  14.7549498  29.3830128  55.8115048
  15.3243355  28.5937713  54.6518603   8.5068376  30.4158148  43.5272978
   8.4839064  30.5145835  42.5754861   8.8169013  31.2623299  43.8490145
  11.1655754  32.4734303  47.6419593  12.1199007  32.4418245  47.5749524
  10.9668277  32.0124927  48.4569819  11.7555136  31.0435419  50.2090390
  12.5748025  31.5379498  50.2325228  12.0291944  30.1267387  50.1807958
  21.5121732  23.4346171  39.5718346  20.6247587  23.7195822  39.3538541
  21.9275721  23.2739935  38.7245623   9.5205983  38.0153923  44.6589791
   9.3860451  37.2554323  44.0927789   9.1038045  38.7394822  44.1918580
  20.6564946  33.1990846  33.6666366  21.3600796  33.4040849  34.2824022
  19.9327594  33.7667608  33.9315449  12.6775109  38.9123240  44.8708233
  12.5607493  39.8568672  44.7686924  11.8567555  38.6096801  45.2594033
   7.0090050  25.3773553  50.9082588   7.6548914  24.8672507  51.3969813
   6.8007201  26.1142235  51.4826013  19.5343442  32.4454400  56.4074728
  20.4034602  32.6195053  56.0461363  19.0550194  33.2648817  56.2850457
  15.5293661  19.6413598  36.6606484  15.5172331  20.5855438  36.8174755
  16.4217083  19.4583743  36.3665945  13.7029623  39.5651501  48.0864162
  14.6056869  39.5975112  48.4030657  13.4766993  38.6351952  48.1010498
  15.4583225  38.3182488  44.7474240  14.5078856  38.3184350  44.6338613
  15.7615711  37.5715223  44.2310275  19.3445780  16.2356374  40.9152421
  18.5778176  15.6814861  41.0609103  19.7556485  16.3078243  41.7766572
  11.3487541  22.5241170  55.0057602  12.2119003  22.1677975  55.2160926
  10.7752952  22.1855065  55.6933006  23.8612440  45.9605931  41.7378418
  23.2977305  45.8695868  40.9694706  23.7464835  45.1405835  42.2180911
  21.4076872  47.4557123  44.5762639  22.1998164  47.1147947  44.1608938
  21.6473522  47.5652098  45.4964792  29.4411999  49.6276899  37.0492883
  28.7899979  50.2130979  36.6626897  30.2356362  50.1583094  37.1087921
  23.3667626  46.7166036  37.4480018  24.1398502  46.1695023  37.3092893
  23.7193025  47.5810285  37.6594479  25.2052669  48.0442418  50.6546917
  24.9142535  48.9488049  50.5393583  25.8409653  48.0858946  51.3690987
  25.7033904  42.8758702  35.0798468  25.9559425  42.3540223  34.3181931
  24.7658463  42.7124847  35.1825151  30.9187264  47.3167331  37.5861868
  30.2833097  47.3901957  38.2982772  30.5884670  47.9060929  36.9080947
  25.4230193  44.7786808  37.2822843  25.3066451  44.1031711  37.9503927
  25.5332452  44.2919182  36.4654996  20.9763846  43.8250904  44.5177204
  21.1056227  44.0785383  45.4316616  20.2961298  44.4178612  44.1981859
  25.1463333  54.4948154  40.6167678  25.0687363  55.4455979  40.6956159
  24.5424977  54.1494026  41.2742605  25.8926936  44.4761473  52.8347012
  26.6341620  45.0146517  52.5581836  25.1863921  45.1027761  52.9918564
  27.2439052  46.9166212  42.4521548  27.7077397  47.1953915  41.6626170
  26.9795850  46.0149656  42.2694638  24.1363133  46.4637693  45.3901311
  24.7064490  46.8924962  44.7518795  24.7271245  46.1820278  46.0885497
  24.6288299  41.6301121  53.6362322  23.9986960  42.3117402  53.8697719
  24.5224387  41.5184202  52.6915461  19.9233272  41.2972917  44.5628246
  19.1332326  41.5530445  44.0868357  20.4144519  42.1121255  44.6680287
  27.7053685  48.1862199  49.4694238  27.7698117  48.6482607  50.3052410
  26.9964609  47.5559564  49.5976548  18.2070975  41.5503407  46.9943237
  18.4579013  42.4350417  47.2600813  18.7430523  41.3708009  46.2218329
  27.4201702  49.8530307  39.3373218  27.2847377  50.6981843  39.7658066
  27.9611515  50.0549584  38.5739152  23.9069042  35.9321887  55.9987573
  23.5135988  35.3788085  56.6735218  24.7235182  36.2432465  56.3894091
  20.8731100  47.3705745  39.9101143  21.3855620  48.1648995  40.0606708
  21.5253813  46.6732035  39.8434745  22.6825984  50.4871501  41.9923896
  22.8592613  51.4089466  41.8044880  23.4782818  50.1729920  42.4218276
  21.9678341  42.5336133  51.8686060  21.8531856  41.6321390  52.1693158
  21.1122859  42.7799830  51.5170876  23.8057300  52.0049675  47.9934239
  24.3564725  51.8766738  47.2211233  22.9668776  52.3044564  47.6429131
  27.6024471  48.2700803  52.3378470  28.1352808  47.5089091  52.1077778
  27.0738552  47.9774455  53.0802624  18.8380017  45.6994399  40.6860714
  19.6755239  46.1091408  40.4694421  19.0158284  44.7593841  40.6560908
  28.9677184  47.3986795  39.8497282  28.4398545  46.6639555  39.5370519
  28.4664686  48.1761472  39.6037250  24.0265498  40.0910923  36.2299779
  23.1902811  40.4285609  36.5509053  23.8870268  39.9559902  35.2926916
  27.1129784  45.2167006  32.8532255  26.2056846  44.9856259  33.0523404
  27.6100816  44.4204625  33.0406236  30.0197863  53.9264513  35.7728941
  29.3459562  54.2296209  36.3813899  30.4063685  54.7293593  35.4234398
  28.2918017  45.3179600  37.3756245  27.3829237  45.0338633  37.4728715
  28.3213101  45.7378679  36.5159552  18.8606188  43.0385115  41.3571447
  18.6630588  42.4454475  40.6322514  18.3052852  42.7337325  42.0747386
  27.9894105  46.8588344  34.7144324  27.5513535  46.1424203  34.2549961
  28.7304546  47.0864459  34.1529415  26.9303849  51.5443038  43.1690684
  26.8880028  51.7703884  42.2399216  27.8466548  51.3106412  43.3176485
  25.0469650  48.4206067  42.9652647  25.8410248  47.9256387  42.7635222
  24.3361342  47.8923930  42.6020352  21.3552413  42.5649148  39.0412399
  20.4250002  42.5033604  39.2582361  21.4509885  42.0425101  38.2449041
  22.7462888  40.5041718  48.7989465  23.4185941  40.2959081  48.1502114
  21.9192674  40.3063804  48.3594698  28.8252594  44.9684424  48.8751946
  29.7544654  45.1195584  48.7020913  28.4043624  45.0568445  48.0200593
  27.6240926  48.9935089  46.6450484  27.4852012  48.6253873  47.5176422
  26.8355522  49.5082728  46.4734441  28.2189078  54.0944185  37.9876020
  28.3940834  53.6232228  38.8021643  27.5321866  54.7209951  38.2157281
  29.1746141  48.3716691  44.0339321  28.8395974  48.3317461  44.9296971
  28.6750087  47.7061407  43.5609732  23.1490385  43.7784321  49.5591903
  23.0110183  43.0464560  50.1603442  24.0595309  43.6893221  49.2776090
  32.1105333  45.7172726  34.3076381  31.4934503  44.9919554  34.2109434
  31.6421821  46.4782086  33.9643455  24.4901620  40.4769499  50.8671222
  23.9538977  40.0260237  51.5192818  23.9018328  40.6115407  50.1241686
  22.7850163  57.2433548  44.7615880  23.0246761  57.8752072  45.4394899
  21.9419360  56.8921588  45.0481240  23.9003879  39.9358150  33.4297685
  23.0233345  39.8146951  33.0659932  24.3761632  39.1444228  33.1776574
  15.4206019  44.7235310  43.5239193  16.1077059  44.4097040  42.9360208
  15.2654147  45.6276674  43.2506444  20.2240741  39.6125506  47.9524216
  20.1398930  39.0051176  47.2174626  19.4023447  40.1034525  47.9533713
  27.2978025  53.0512670  47.1657384  27.2248197  53.8567642  47.6776689
  26.8555418  53.2504636  46.3405406  27.0867805  52.2884440  40.6760206
  26.3035327  52.8306121  40.7698430  27.7860550  52.8058420  41.0754447
  24.8088622  50.6993948  50.1421114  25.5098082  51.3330431  50.2950508
  24.3383737  51.0408679  49.3816753  32.9343018  49.0411898  38.4269021
  33.2102862  48.9268492  39.3362895  32.0647517  48.6429382  38.3881194
  29.5697082  53.2898248  42.0701834  29.7519476  52.4719904  42.5329587
  30.3930068  53.5065941  41.6326724  29.9039247  52.2166434  39.3316883
  30.4327014  51.7058888  38.7187045  30.1667467  51.9008964  40.1962416
  20.4056340  50.2330303  47.0752217  20.9909777  49.4873991  47.2080121
  20.2081179  50.5434260  47.9588880  23.2594995  53.2681550  42.0914659
  22.5905371  53.7527678  41.6078699  23.1207865  53.5150771  43.0058037
  14.9973995  42.8035903  45.7956660  15.0358094  42.2699494  46.5893778
  14.4914288  42.2771109  45.1767637  27.4000264  55.3025294  48.6897317
  27.9518572  55.4656915  49.4546402  27.7406457  55.8929732  48.0177342
  21.8517030  39.7223576  52.9392236  22.4789069  39.3400653  53.5529761
  20.9944949  39.5037778  53.3047929  18.6282572  41.5300005  38.8710591
  18.9236014  40.6210684  38.8177645  17.7270608  41.5087745  38.5491593
  20.3570414  39.2114103  38.9949916  20.0283120  38.3311482  38.8125022
  20.7109785  39.1561772  39.8826305  18.8156391  44.1997901  48.0135425
  18.2709859  44.9757709  48.1455699  19.6935741  44.5468705  47.8554546
  33.9854603  51.5049996  37.0468764  34.6805508  52.1256689  37.2656079
  34.3277754  50.6545347  37.3221142  19.6022413  43.3267797  50.9065582
  18.8604149  43.4750433  51.4930212  19.2815157  43.5876063  50.0432331
  35.8846027  48.9549702  38.5756095  36.4097351  49.2936974  37.8505415
  35.7968379  48.0196717  38.3919230  27.5686687  55.0221685  42.9351348
  27.1291678  54.5298064  43.6284205  28.3194804  54.4794653  42.6943423
  20.0479026  51.2133226  42.9375976  20.8737046  50.9136998  42.5574620
  19.6973078  50.4440848  43.3865765  25.0160560  50.5659694  45.0073650
  24.3940569  49.9030399  44.7075878  25.6865426  50.5920826  44.3247298
  18.2487631  49.1319552  43.8964910  17.4119540  48.7041727  43.7148911
  18.2211277  49.3251996  44.8335701  24.5774066  49.1163617  38.4832110
  24.7262187  49.7999082  37.8298783  25.3840510  49.0968707  38.9981566
  22.3326699  45.1428795  39.4893179  22.0872741  44.2391125  39.6873389
  22.5022614  45.1445946  38.5472657  21.6022347  40.8757153  36.9879341
  20.9091592  40.9501508  36.3319377  21.3574099  40.1117496  37.5100858
  28.0769472  51.6111748  35.9543858  27.5043439  52.2301935  35.5014330
  28.6502266  52.1611110  36.4883780  31.2966732  51.8948898  37.0852440
  32.2297405  51.8294460  37.2885316  31.2089945  52.7305165  36.6266973
  33.9254748  51.2114768  34.0456388  33.8468380  50.8774632  34.9392146
  34.7464415  51.7036536  34.0447860  17.5637128  42.1928900  43.6813842
  17.2439912  41.3394209  43.3888216  17.0170556  42.4077479  44.4371809
  21.3417036  44.9091341  47.3983348  21.5603045  45.8408449  47.4171382
  21.7542809  44.5499316  48.1838152  26.2144901  40.4824547  56.7886097
  26.1141628  41.4318904  56.7198188  25.9966443  40.1542786  55.9162167
  17.4325388  45.8131812  45.6506964  16.7388859  45.3985765  45.1376918
  18.1798379  45.8552348  45.0540382  26.0776171  43.9121686  55.6051159
  25.5943253  44.7122046  55.8115048  26.1637110  43.9229631  54.6518603
  19.3462130  45.7450066  43.5272978  19.3232819  45.8437753  42.5754861
  19.6562767  46.5915217  43.8490145  22.0049508  47.8026221  47.6419593
  22.9592762  47.7710163  47.5749524  21.8062032  47.3416844  48.4569819
  22.5948891  46.3727337  50.2090390  23.4141779  46.8671415  50.2325228
  22.8685698  45.4559305  50.1807958  20.3599737  53.3445840  44.6589791
  20.2254205  52.5846241  44.0927789  19.9431799  54.0686740  44.1918580
  31.4958700  48.5282764  33.6666366  32.1994550  48.7332766  34.2824022
  30.7721349  49.0959526  33.9315449  23.5168863  54.2415157  44.8708233
  23.4001247  55.1860590  44.7686924  22.6961309  53.9388719  45.2594033
  33.4045398  48.9665293  35.7164826  34.2391002  48.5346491  35.5342301
  33.2429740  48.7947307  36.6441721  17.8483805  40.7065471  50.9082588
  18.4942668  40.1964425  51.3969813  17.6400956  41.4434152  51.4826013
  24.5423377  54.8943419  48.0864162  25.4450624  54.9267029  48.4030657
  24.3160747  53.9643870  48.1010498  26.2976979  53.6474406  44.7474240
  25.3472610  53.6476267  44.6338613  26.6009465  52.9007140  44.2310275
  22.1881296  37.8533088  55.0057602  23.0512757  37.4969893  55.2160926
  21.6146706  37.5146983  55.6933006  34.2061381  62.0457953  37.4480018
  34.9792257  61.4986941  37.3092893  34.5586779  62.9102203  37.6594479
  29.6773771  61.0286317  40.6860714  30.5148993  61.4383325  40.4694421
  29.8552039  60.0885759  40.6560908  39.0582832  69.4236103  37.9876020
  39.2334588  68.9524146  38.8021643  38.3715620  70.0501869  38.2157281
  33.6243918  72.5725466  44.7615880  33.8640516  73.2043990  45.4394899
  32.7813114  72.2213506  45.0481240  34.7397633  55.2650068  33.4297685
  33.8627099  55.1438868  33.0659932  35.2155386  54.4736146  33.1776574
  26.2599773  60.0527227  43.5239193  26.9470813  59.7388957  42.9360208
  26.1047902  60.9568592  43.2506444  25.8367749  58.1327821  45.7956660
  25.8751849  57.5991411  46.5893778  25.3308042  57.6063026  45.1767637
  38.2394018  70.6317211  48.6897317  38.7912327  70.7948833  49.4546402
  38.5800212  71.2221649  48.0177342  29.4676327  56.8591923  38.8710591
  29.7629768  55.9502601  38.8177645  28.5664363  56.8379662  38.5491593
  31.1964169  54.5406021  38.9949916  30.8676875  53.6603400  38.8125022
  31.5503539  54.4853689  39.8826305  29.0881386  64.4611470  43.8964910
  28.2513294  64.0333644  43.7148911  29.0605031  64.6543913  44.8335701
  36.2551727  53.0601390  33.3726775  37.1170891  53.3856288  33.6322592
  36.4402071  52.2732886  32.8599841  37.2081170  50.2997433  36.6606484
  37.1959840  51.2439273  36.8174755  38.1004592  50.1167578  36.3665945
  35.3817132  70.2235337  48.0864162  36.2844378  70.2558947  48.4030657
  35.1554502  69.2935788  48.1010498  45.5399949  76.6189766  41.7378418
  44.9764814  76.5279703  40.9694706  45.4252344  75.7989671  42.2180911
  50.1632916  75.9189142  51.7067733  50.1521557  75.5241940  50.8348237
  50.3253556  75.1855214  52.3001504  43.0864381  78.1140958  44.5762639
  43.8785673  77.7731783  44.1608938  43.3261031  78.2235933  45.4964792
  51.1199508  80.2860734  37.0492883  50.4687488  80.8714814  36.6626897
  51.9143871  80.8166929  37.1087921  45.0455135  77.3749871  37.4480018
  45.8186011  76.8278858  37.3092893  45.3980534  78.2394120  37.6594479
  46.8840178  78.7026253  50.6546917  46.5930044  79.6071884  50.5393583
  47.5197162  78.7442781  51.3690987  47.8096384  76.0803102  47.2448277
  48.4059957  75.8559124  46.5305240  47.8671356  75.3387847  47.8473724
  47.3821413  73.5342537  35.0798468  47.6346934  73.0124059  34.3181931
  46.4445972  73.3708683  35.1825151  52.5974773  77.9751166  37.5861868
  51.9620606  78.0485792  38.2982772  52.2672179  78.5644765  36.9080947
  57.8273123  72.4753549  43.7906189  58.5598295  71.9052766  44.0244019
  57.0712478  72.0875149  44.2312695  47.1017702  75.4370643  37.2822843
  46.9853960  74.7615547  37.9503927  47.2119961  74.9503017  36.4654996
  49.0854729  69.9270690  35.9830880  49.2529132  70.7950926  36.3501351
  48.8951899  70.0897972  35.0592170  51.8430063  78.3887669  47.6496711
  51.5430786  79.2912708  47.5412518  51.4981122  78.1219852  48.5017864
  49.0643950  72.3828347  36.9677547  48.9443576  72.8285398  37.8063027
  48.3696539  72.7313665  36.4091085  42.6551355  74.4834739  44.5177204
  42.7843736  74.7369218  45.4316616  41.9748806  75.0762447  44.1981859
  46.8250842  85.1531989  40.6167678  46.7474872  86.1039814  40.6956159
  46.2212486  84.8077862  41.2742605  47.5714445  75.1345308  52.8347012
  48.3129129  75.6730352  52.5581836  46.8651430  75.7611597  52.9918564
  53.0469784  77.2774449  51.4319174  53.4553140  76.8356859  50.6873806
  52.3247046  76.7027076  51.6853367  53.3698599  77.8375639  45.1871463
  52.7407461  78.0021353  44.4847530  52.9824261  78.2517249  45.9582427
  57.2487831  78.7730077  42.5415826  56.5638869  79.1528978  41.9912860
  57.3331680  79.3825404  43.2747774  54.5038762  76.4190036  49.1411170
  54.7155658  77.0621796  48.4645551  54.4568511  75.5852353  48.6733100
  45.8150642  77.1221529  45.3901311  46.3851999  77.5508797  44.7518795
  46.4058754  76.8404113  46.0885497  41.6020781  71.9556752  44.5628246
  40.8119835  72.2114281  44.0868357  42.0932028  72.7705090  44.6680287
  55.6184590  79.2961991  47.3133527  56.4402034  78.8942179  47.0316209
  55.6146993  79.1930226  48.2649643  43.5535526  72.3201331  41.5211723
  42.7566689  72.4320026  42.0395219  43.3261118  72.6587984  40.6552614
  49.3841194  78.8446035  49.4694238  49.4485626  79.3066442  50.3052410
  48.6752118  78.2143400  49.5976548  39.8858484  72.2087243  46.9943237
  40.1366522  73.0934253  47.2600813  40.4218032  72.0291844  46.2218329
  63.7090583  75.6400740  43.6618499  62.9554292  75.0708138  43.5062503
  63.8438125  75.6063404  44.6089133  49.0989211  80.5114142  39.3373218
  48.9634886  81.3565678  39.7658066  49.6399024  80.7133420  38.5739152
  42.5518609  78.0289580  39.9101143  43.0643129  78.8232830  40.0606708
  43.2041322  77.3315871  39.8434745  44.3613493  81.1455337  41.9923896
  44.5380122  82.0673301  41.8044880  45.1570327  80.8313756  42.4218276
  43.6465850  73.1919968  51.8686060  43.5319365  72.2905226  52.1693158
  42.7910368  73.4383665  51.5170876  50.7257688  81.1337709  53.4673560
  50.2821542  80.3474087  53.1494465  51.3874901  81.3216859  52.8017451
  45.4844809  82.6633510  47.9934239  46.0352234  82.5350574  47.2211233
  44.6456285  82.9628399  47.6429131  52.8238926  81.4140509  51.4954961
  52.8057401  82.2349390  51.0035231  53.7458846  81.2894584  51.7205103
  49.2811980  78.9284638  52.3378470  49.8140317  78.1672926  52.1077778
  48.7526061  78.6358290  53.0802624  40.5167526  76.3578235  40.6860714
  41.3542748  76.7675243  40.4694421  40.6945793  75.4177677  40.6560908
  52.4131958  74.0253315  36.3744547  51.8978581  74.7957920  36.6132934
  52.1409266  73.3518451  36.9977608  57.3866232  76.7785670  38.3097720
  56.6095675  76.4396829  37.8652882  58.0657713  76.7838293  37.6352685
  50.6464693  78.0570631  39.8497282  50.1186054  77.3223390  39.5370519
  50.1452195  78.8345307  39.6037250  55.6257539  76.2519651  44.9664328
  54.9681213  76.9418912  45.0544457  56.4297938  76.6416083  45.3098314
  45.7053007  70.7494758  36.2299779  44.8690320  71.0869444  36.5509053
  45.5657777  70.6143738  35.2926916  48.7917293  75.8750841  32.8532255
  47.8844355  75.6440094  33.0523404  49.2888325  75.0788460  33.0406236
  51.6985372  84.5848348  35.7728941  51.0247071  84.8880045  36.3813899
  52.0851194  85.3877428  35.4234398  49.9705526  75.9763436  37.3756245
  49.0616746  75.6922469  37.4728715  50.0000610  76.3962514  36.5159552
  55.2024794  79.5870025  41.1447413  54.7487121  78.7460935  41.2012603
  54.5718760  80.2231424  41.4822193  53.6457733  81.4246522  42.0797231
  53.9380707  81.9851579  41.3609596  54.1556354  81.7175083  42.8350390
  49.6681614  77.5172179  34.7144324  49.2301044  76.8008038  34.2549961
  50.4092055  77.7448294  34.1529415  48.6091358  82.2026873  43.1690684
  48.5667537  82.4287719  42.2399216  49.5254057  81.9690248  43.3176485
  52.0556992  72.6710941  50.0671313  52.4106380  72.8982414  50.9265779
  52.7029123  73.0029317  49.4448568  57.7854729  75.7929376  40.7720642
  57.6472627  75.9830972  39.8441831  57.4290948  76.5548759  41.2288693
  57.8124108  77.8605903  45.7831914  58.2460615  77.7681193  46.6314968
  58.5255689  77.8363404  45.1451930  46.7257159  79.0789902  42.9652647
  47.5197757  78.5840222  42.7635222  46.0148851  78.5507765  42.6020352
  51.5452003  81.4607998  47.3165014  51.5989026  82.0298934  48.0842730
  50.6766785  81.6309883  46.9519051  43.0339922  73.2232984  39.0412399
  42.1037510  73.1617439  39.2582361  43.1297394  72.7008937  38.2449041
  44.4250397  71.1625554  48.7989465  45.0973450  70.9542916  48.1502114
  43.5980183  70.9647640  48.3594698  58.6739658  77.9029604  48.3164799
  58.8675548  78.8075415  48.5624074  58.5740276  77.4437023  49.1503384
  53.7354767  78.0536347  53.8905680  53.5840273  77.8246899  52.9735763
  53.7259446  79.0106948  53.9037025  50.5040103  75.6268260  48.8751946
  51.4332163  75.7779419  48.7020913  50.0831133  75.7152280  48.0200593
  49.3028435  79.6518924  46.6450484  49.1639521  79.2837708  47.5176422
  48.5143031  80.1666563  46.4734441  49.8976587  84.7528020  37.9876020
  50.0728343  84.2816064  38.8021643  49.2109375  85.3793787  38.2157281
  50.8533650  79.0300527  44.0339321  50.5183483  78.9901297  44.9296971
  50.3537596  78.3645243  43.5609732  44.8277894  74.4368157  49.5591903
  44.6897692  73.7048396  50.1603442  45.7382817  74.3477057  49.2776090
  53.7892842  76.3756561  34.3076381  53.1722012  75.6503389  34.2109434
  53.3209330  77.1365921  33.9643455  47.4560195  74.1488116  49.0475582
  48.1659813  73.5081308  49.0062201  47.4129503  74.4001011  49.9701763
  55.4446973  81.0855469  51.9682161  55.3859520  80.4014690  51.3012744
  55.8466492  81.8274459  51.5162787  46.1689129  71.1353334  50.8671222
  45.6326486  70.6844072  51.5192818  45.5805837  71.2699243  50.1241686
  44.4637672  87.9017383  44.7615880  44.7034270  88.5335907  45.4394899
  43.6206869  87.5505423  45.0481240  45.5791388  70.5941985  33.4297685
  44.7020854  70.4730786  33.0659932  46.0549141  69.8028064  33.1776574
  55.4464381  79.0495053  50.1996141  54.5591159  78.7120975  50.3222540
  56.0162932  78.3178085  50.4364907  41.9028250  70.2709342  47.9524216
  41.8186439  69.6635011  47.2174626  41.0810956  70.7618360  47.9533713
  48.9765534  83.7096506  47.1657384  48.9035706  84.5151477  47.6776689
  48.5342927  83.9088472  46.3405406  48.7655314  82.9468276  40.6760206
  47.9822836  83.4889956  40.7698430  49.4648059  83.4642255  41.0754447
  59.9281721  74.4603271  44.9612703  59.9171597  75.3427986  44.5906636
  59.0599101  74.1074822  44.7667240  51.4364218  83.6083340  49.3215543
  52.1492190  84.2430805  49.2491444  50.9454246  83.7047206  48.5055545
  53.1581744  77.5134592  40.8932835  52.2238023  77.6336055  40.7237539
  53.3358413  76.6107059  40.6292845  56.5454296  73.3551912  41.4282869
  57.0114748  74.1879903  41.3543171  56.9961796  72.8896893  42.1328127
  46.4876131  81.3577783  50.1421114  47.1885591  81.9914266  50.2950508
  46.0171246  81.6992515  49.3816753  54.6130527  79.6995733  38.4269021
  54.8890371  79.5852328  39.3362895  53.7435026  79.3013218  38.3881194
  54.2877417  73.9122391  47.9673664  53.6348867  74.1598298  47.3126117
  54.6657797  73.0986529  47.6336141  51.2484591  83.9482084  42.0701834
  51.4306985  83.1303740  42.5329587  52.0717577  84.1649776  41.6326724
  51.5826756  82.8750269  39.3316883  52.1114523  82.3642724  38.7187045
  51.8454976  82.5592799  40.1962416  50.3364990  74.6542202  54.4539701
  49.6605627  74.5536331  55.1242076  51.1592624  74.4981415  54.9175698
  42.0843849  80.8914138  47.0752217  42.6697286  80.1457826  47.2080121
  41.8868688  81.2018095  47.9588880  44.9382504  83.9265386  42.0914659
  44.2692880  84.4111513  41.6078699  44.7995374  84.1734606  43.0058037
  49.0787773  85.9609129  48.6897317  49.6306081  86.1240751  49.4546402
  49.4193966  86.5513567  48.0177342  44.0552266  68.3084279  49.2919202
  44.1193593  69.1699110  48.8796600  43.9919386  67.6958281  48.5591560
  53.9298647  80.7870387  54.5445972  54.4738551  81.4000345  54.0500926
  53.3485492  81.3449965  55.0612985  40.3070081  72.1883841  38.8710591
  40.6023523  71.2794519  38.8177645  39.4058117  72.1671580  38.5491593
  52.2156160  83.9091105  45.6760999  52.0907300  83.1080845  45.1671945
  52.8735251  84.4037298  45.1874969  43.8364328  70.2639837  44.8538140
  43.1150914  70.8775805  44.7145613  44.6257584  70.7997602  44.7754786
  54.2791069  81.7100125  47.3040549  53.3321404  81.5905476  47.2318876
  54.6273842  80.8222623  47.3866811  42.0357923  69.8697938  38.9949916
  41.7070629  68.9895317  38.8125022  42.3897294  69.8145607  39.8826305
  51.2837502  81.5052841  43.5044902  51.1362464  80.5769548  43.6852472
  52.1090995  81.5272932  43.0201977  54.8871624  82.3281400  44.5909774
  55.8118171  82.1224261  44.4534226  54.7186927  82.0797801  45.4999116
  54.6766940  82.8467067  39.9471866  54.8503818  82.2813490  39.1945718
  55.1695831  83.6467962  39.7651356  40.4943900  74.8581736  48.0135425
  39.9497368  75.6341544  48.1455699  41.3723250  75.2052541  47.8554546
  60.5306331  75.6103490  41.5662166  60.9737477  74.8610815  41.1681289
  59.6532841  75.6013626  41.1835898  55.6642112  82.1633832  37.0468764
  56.3593017  82.7840524  37.2656079  56.0065263  81.3129183  37.3221142
  41.2809922  73.9851633  50.9065582  40.5391658  74.1334268  51.4930212
  40.9602666  74.2459898  50.0432331  57.5633536  79.6133537  38.5756095
  58.0884860  79.9520810  37.8505415  57.4755888  78.6780552  38.3919230
  49.2253584  83.5267611  50.7045972  49.5340711  83.2816757  51.5768671
  50.0229066  83.7314249  50.2164842  49.2474196  85.6805520  42.9351348
  48.8079187  85.1881899  43.6284205  49.9982313  85.1378488  42.6943423
  41.7266535  81.8717061  42.9375976  42.5524555  81.5720833  42.5574620
  41.3760587  81.1024684  43.3865765  46.6948068  81.2243529  45.0073650
  46.0728078  80.5614234  44.7075878  47.3652935  81.2504661  44.3247298
  39.9275140  79.7903388  43.8964910  39.0907049  79.3625562  43.7148911
  39.8998786  79.9835831  44.8335701  57.2527442  80.2466441  53.8807293
  56.4622985  80.2290580  53.3411792  57.0160796  80.7854734  54.6356330
  57.3725317  77.0958907  51.1940021  57.4223322  76.9308915  52.1355544
  57.2639240  76.2286166  50.8037902  46.2561575  79.7747453  38.4832110
  46.4049696  80.4582917  37.8298783  47.0628019  79.7552543  38.9981566
  58.8743514  79.5155849  51.4382043  58.5828322  79.8785829  52.2745504
  58.2615645  78.8022857  51.2595375  60.0739196  77.0808728  43.9584613
  60.9086087  77.5198532  44.1222174  60.2098325  76.6047382  43.1392859
  57.1230702  74.6388463  49.9062101  57.5984823  74.8316110  49.0980952
  56.1996267  74.6947649  49.6605485  44.0114208  75.8012630  39.4893179
  43.7660250  74.8974960  39.6873389  44.1810123  75.8029781  38.5472657
  43.2809856  71.5340988  36.9879341  42.5879101  71.6085343  36.3319377
  43.0361608  70.7701332  37.5100858  49.7556981  82.2695583  35.9543858
  49.1830948  82.8885770  35.5014330  50.3289775  82.8194945  36.4883780
  55.8232371  71.5154223  48.1390407  56.7749794  71.6152321  48.1602631
  55.6535821  70.7232492  48.6488491  52.9754241  82.5532733  37.0852440
  53.9084914  82.4878295  37.2885316  52.8877454  83.3889000  36.6266973
  55.6042257  81.8698604  34.0456388  55.5255889  81.5358467  34.9392146
  56.4251924  82.3620372  34.0447860  58.3020449  74.7360343  47.2532706
  58.2696769  73.7976344  47.4392390  58.9121072  74.8144380  46.5198531
  50.1403779  73.6056396  33.2959910  51.0862884  73.4762604  33.3648328
  49.7618024  72.8671058  33.7729338  58.4514937  71.5271386  47.2990989
  57.9353986  70.7429843  47.1120918  59.3354886  71.1990103  47.4637509
  64.1196998  75.7976350  46.3938743  64.8500387  75.5361638  46.9546446
  63.5103944  75.0605072  46.4340811  62.2012296  73.9384212  46.9913194
  61.4745459  73.8040177  46.3829686  61.7859582  74.2461041  47.7969912
  50.0242472  77.6574142  54.7560567  50.9445481  77.8352741  54.9500614
  49.9892055  76.7130187  54.6040267  48.3246697  71.5306372  33.2314796
  47.4178152  71.2339485  33.3077509  48.6022678  71.2336190  32.3649082
  43.0204545  75.5675177  47.3983348  43.2390554  76.4992285  47.4171382
  43.4330318  75.2083151  48.1838152  39.1112897  76.4715647  45.6506964
  38.4176368  76.0569600  45.1376918  39.8585888  76.5136184  45.0540382
  47.7563680  74.5705521  55.6051159  47.2730762  75.3705881  55.8115048
  47.8424619  74.5813466  54.6518603  41.0249639  76.4033901  43.5272978
  41.0020328  76.5021588  42.5754861  41.3350276  77.2499052  43.8490145
  43.6837017  78.4610056  47.6419593  44.6380271  78.4293998  47.5749524
  43.4849541  78.0000680  48.4569819  44.2736399  77.0311172  50.2090390
  45.0929288  77.5255251  50.2325228  44.5473207  76.1143140  50.1807958
  42.0387246  84.0029676  44.6589791  41.9041714  83.2430076  44.0927789
  41.6219308  84.7270575  44.1918580  53.1746209  79.1866599  33.6666366
  53.8782059  79.3916602  34.2824022  52.4508858  79.7543361  33.9315449
  54.0044019  74.9376460  39.7868636  53.9479221  75.3945012  38.9476269
  54.5572362  74.1767145  39.6091479  62.1261163  73.4662265  43.1190047
  61.5660721  73.5355455  43.8921609  61.5204667  73.2903250  42.3989543
  45.1956372  84.8998993  44.8708233  45.0788756  85.8444425  44.7686924
  44.3748818  84.5972554  45.2594033  55.0832907  79.6249128  35.7164826
  55.9178510  79.1930327  35.5342301  54.9217249  79.4531142  36.6441721
  54.7378799  76.1281242  37.0821165  54.6827603  75.9625513  36.1409609
  54.1124854  76.8357275  37.2383355  39.5271314  71.3649306  50.9082588
  40.1730177  70.8548260  51.3969813  39.3188465  72.1017988  51.4826013
  52.0524706  78.4330153  56.4074728  52.9215866  78.6070806  56.0461363
  51.5731457  79.2524570  56.2850457  46.2210886  85.5527254  48.0864162
  47.1238133  85.5850865  48.4030657  45.9948256  84.6227705  48.1010498
  47.9764488  84.3058241  44.7474240  47.0260119  84.3060103  44.6338613
  48.2796974  83.5590976  44.2310275  63.7117182  90.1418779  45.8120003
  64.3495592  90.0225527  45.1083343  63.5938025  91.0899623  45.8707955
  60.5206888  90.0946208  45.7481527  60.1825399  89.9787272  44.8602062
  61.3896656  89.6937373  45.7282534  56.3793704  91.9481684  41.7378418
  55.8158569  91.8571621  40.9694706  56.2646099  91.1281588  42.2180911
  61.0026671  91.2481059  51.7067733  60.9915312  90.8533858  50.8348237
  61.1647310  90.5147132  52.3001504  53.9258136  93.4432876  44.5762639
  54.7179427  93.1023700  44.1608938  54.1654786  93.5527851  45.4964792
  55.8848889  92.7041789  37.4480018  56.6579765  92.1570776  37.3092893
  56.2374288  93.5686038  37.6594479  57.7233932  94.0318171  50.6546917
  57.4323798  94.9363802  50.5393583  58.3590916  94.0734699  51.3690987
  58.6490139  91.4095020  47.2448277  59.2453711  91.1851042  46.5305240
  58.7065110  90.6679765  47.8473724  58.2215167  88.8634455  35.0798468
  58.4740688  88.3415976  34.3181931  57.2839726  88.7000600  35.1825151
  63.2658450  87.8670233  42.8873211  64.0521539  87.4489656  42.5363628
  63.5297154  88.7716325  43.0554859  68.6666877  87.8045466  43.7906189
  69.3992049  87.2344683  44.0244019  67.9106233  87.4167067  44.2312695
  57.9411456  90.7662561  37.2822843  57.8247714  90.0907464  37.9503927
  58.0513716  90.2794935  36.4654996  60.2842997  90.2272708  40.9869532
  59.9201204  89.7003329  41.6982453  61.1410113  89.8371177  40.8136017
  66.1892298  81.5167041  48.2500798  65.8575622  82.3862452  48.0262013
  65.5937911  81.2003325  48.9294828  59.9248484  85.2562608  35.9830880
  60.0922886  86.1242844  36.3501351  59.7345653  85.4189889  35.0592170
  56.1336299  90.1693383  43.6833415  55.2086795  90.0369598  43.8911107
  56.3820712  90.9487603  44.1803357  66.0820961  86.2362127  45.3294148
  65.1737838  86.1677535  45.0352909  66.0308557  86.7134072  46.1575973
  59.9037705  87.7120265  36.9677547  59.7837330  88.1577316  37.8063027
  59.2090293  88.0605583  36.4091085  53.4945110  89.8126657  44.5177204
  53.6237491  90.0661136  45.4316616  52.8142561  90.4054365  44.1981859
  60.1561827  87.6551772  53.2729045  59.3795161  88.2145692  53.2631910
  60.7952390  88.1408555  53.7943915  67.9482607  84.4378565  47.1072022
  67.3056988  84.7311098  46.4611816  67.4437536  84.3231485  47.9125219
  65.6022771  88.1841738  37.7957881  66.5140627  88.4169125  37.6205579
  65.0932418  88.7678783  37.2332960  58.4108199  90.4637226  52.8347012
  59.1522883  91.0022270  52.5581836  57.7045184  91.0903514  52.9918564
  63.8863539  92.6066366  51.4319174  64.2946895  92.1648777  50.6873806
  63.1640800  92.0318994  51.6853367  60.2394609  87.5438973  48.8052731
  61.0855804  87.9678387  48.9487380  60.1793246  86.8872597  49.4991294
  63.3894054  85.2043341  50.4633904  63.1454986  85.9585402  49.9268180
  63.6653985  85.5828689  51.2981151  62.9458746  84.3599774  46.0447742
  62.0843225  84.6581028  46.3364480  62.9721180  84.5770173  45.1128775
  59.7620315  92.9041965  42.4521548  60.2258661  93.1829668  41.6626170
  59.4977113  92.0025409  42.2694638  56.6544396  92.4513446  45.3901311
  57.2245753  92.8800715  44.7518795  57.2452508  92.1696031  46.0885497
  58.6989201  89.0265117  39.2611113  59.4013245  89.4786161  39.7285039
  58.3669830  88.3848936  39.8891006  57.1469563  87.6176874  53.6362322
  56.5168223  88.2993155  53.8697719  57.0405651  87.5059955  52.6915461
  52.4414535  87.2848670  44.5628246  51.6513589  87.5406198  44.0868357
  52.9325783  88.0997008  44.6680287  54.3929281  87.6493249  41.5211723
  53.5960444  87.7611943  42.0395219  54.1654873  87.9879901  40.6552614
  60.2234948  94.1737952  49.4694238  60.2879381  94.6358360  50.3052410
  59.5145872  93.5435317  49.5976548  50.7252238  87.5379160  46.9943237
  50.9760277  88.4226170  47.2600813  51.2611787  87.3583762  46.2218329
  56.4250306  81.9197640  55.9987573  56.0317251  81.3663838  56.6735218
  57.2416446  82.2308218  56.3894091  53.3912363  93.3581498  39.9101143
  53.9036884  94.1524748  40.0606708  54.0435076  92.6607788  39.8434745
  59.3418266  83.3355519  53.5907830  60.0827980  83.9362672  53.5112292
  59.5736189  82.5933157  53.0325872  54.4859605  88.5211886  51.8686060
  54.3713120  87.6197143  52.1693158  53.6304122  88.7675583  51.5170876
  60.1205734  94.2576556  52.3378470  60.6534071  93.4964844  52.1077778
  59.5919816  93.9650208  53.0802624  63.2875429  79.3636622  47.8672112
  62.9439699  80.2538263  47.7911222  63.6554392  79.1738279  47.0041697
  51.3561280  91.6870152  40.6860714  52.1936502  92.0967161  40.4694421
  51.5339548  90.7469594  40.6560908  63.2525712  89.3545233  36.3744547
  62.7372336  90.1249838  36.6132934  62.9803021  88.6810369  36.9977608
  60.8372823  84.1994934  41.4329785  59.9814420  83.8101784  41.2535424
  61.2499775  84.2786894  40.5729571  62.3671970  81.7341277  45.8321345
  61.8636765  81.6971412  45.0189150  62.6602577  82.6434020  45.8918001
  58.6114856  81.8180007  44.8387527  59.4767852  81.6222815  44.4793416
  58.6792365  81.5890358  45.7656883  63.0412015  87.2272325  38.2004328
  62.7362151  87.5418474  39.0514471  63.9942457  87.3053745  38.2431661
  61.4858447  93.3862548  39.8497282  60.9579809  92.6515308  39.5370519
  60.9845950  94.1637225  39.6037250  56.2177175  84.0482215  42.2103893
  56.7920927  83.8257396  41.4777086  56.8048157  84.1170909  42.9632495
  65.2756752  89.9355941  43.0168270  65.7888634  90.5685933  43.5189980
  65.9257976  89.3357137  42.6511630  56.5446762  86.0786676  36.2299779
  55.7084074  86.4161362  36.5509053  56.4051532  85.9435655  35.2926916
  58.5199842  80.9223463  40.9378963  57.8664255  80.6072481  40.3135578
  58.4780317  80.2999204  41.6638786  59.6311047  91.2042759  32.8532255
  58.7238109  90.9732012  33.0523404  60.1282079  90.4080378  33.0406236
  61.7537583  87.4105397  45.2626610  60.8360144  87.6320344  45.1048298
  62.1697726  87.4851707  44.4038318  62.5372631  88.8096813  40.3929291
  63.2844450  89.3218210  40.0836413  62.8064220  88.4880865  41.2533684
  60.8099281  91.3055353  37.3756245  59.9010500  91.0214386  37.4728715
  60.8394365  91.7254432  36.5159552  64.9851468  85.8453929  42.3748080
  64.2474225  85.3331315  42.7058323  65.2378241  85.4054311  41.5631357
  65.0863095  78.6230181  42.9689849  65.3921972  77.7627544  42.6815764
  65.8115700  79.2147801  42.7688843  51.3787451  89.0260868  41.3571447
  51.1811851  88.4330228  40.6322514  50.8234115  88.7213078  42.0747386
  59.3584175  88.9183974  43.4766040  59.4132785  87.9657810  43.4008517
  58.5475377  89.0743413  43.9607339  60.5075369  92.8464097  34.7144324
  60.0694799  92.1299956  34.2549961  61.2485809  93.0740212  34.1529415
  57.2976535  87.5361034  41.2356419  56.4844400  87.8355204  41.6421611
  57.7935529  87.1416723  41.9530901  62.8950746  88.0002858  50.0671313
  63.2500134  88.2274331  50.9265779  63.5422878  88.3321235  49.4448568
  56.7890610  85.1079389  46.8517654  57.4289989  84.9668148  46.1540617
  55.9568140  84.8213903  46.4756256  57.5650913  94.4081820  42.9652647
  58.3591512  93.9132140  42.7635222  56.8542606  93.8799683  42.6020352
  53.8733677  88.5524901  39.0412399  52.9431265  88.4909357  39.2582361
  53.9691149  88.0300854  38.2449041  53.7919226  85.0779714  41.6290641
  54.0526043  85.9925048  41.5199801  54.6136398  84.6104157  41.7787254
  55.2644151  86.4917471  48.7989465  55.9367205  86.2834834  48.1502114
  54.4373938  86.2939557  48.3594698  61.1669723  83.1179412  50.8155126
  60.5197638  83.8169362  50.7219603  61.9370739  83.5515556  51.1831375
  61.3433858  90.9560177  48.8751946  62.2725918  91.1071337  48.7020913
  60.9224888  91.0444198  48.0200593  60.1422189  94.9810842  46.6450484
  60.0033275  94.6129626  47.5176422  59.3536786  95.4958481  46.4734441
  55.6671649  89.7660074  49.5591903  55.5291446  89.0340313  50.1603442
  56.5776572  89.6768975  49.2776090  64.6286596  91.7048479  34.3076381
  64.0115767  90.9795307  34.2109434  64.1603085  92.4657839  33.9643455
  58.2953949  89.4780034  49.0475582  59.0053568  88.8373226  49.0062201
  58.2523257  89.7292929  49.9701763  57.0082883  86.4645252  50.8671222
  56.4720240  86.0135990  51.5192818  56.4199592  86.5991160  50.1241686
  56.4185142  85.9233903  33.4297685  55.5414608  85.8022704  33.0659932
  56.8942895  85.1319981  33.1776574  47.9387282  90.7111063  43.5239193
  48.6258322  90.3972793  42.9360208  47.7835411  91.6152427  43.2506444
  52.7422004  85.6001259  47.9524216  52.6580193  84.9926929  47.2174626
  51.9204711  86.0910278  47.9533713  62.9145718  84.0854823  43.3194411
  63.4114418  83.3324785  42.9995482  62.1432700  84.1219140  42.7537621
  59.4980687  86.2272206  43.0466096  59.1278475  85.6743246  43.7347001
  59.9939779  85.6230339  42.4941096  67.3848050  88.6843829  41.4282869
  67.8508503  89.5171821  41.3543171  67.8355551  88.2188811  42.1328127
  65.3564713  81.0524416  45.4673770  64.4427793  81.2828643  45.6355977
  65.7857815  81.1362860  46.3187803  65.1271172  89.2414308  47.9673664
  64.4742622  89.4890216  47.3126117  65.5051551  88.4278446  47.6336141
  61.1758745  89.9834119  54.4539701  60.4999382  89.8828249  55.1242076
  61.9986378  89.8273333  54.9175698  47.5155258  88.7911656  45.7956660
  47.5539358  88.2575247  46.5893778  47.0095551  88.2646862  45.1767637
  54.8946021  83.6376197  49.2919202  54.9587347  84.4991028  48.8796600
  54.8313141  83.0250198  48.5591560  54.3698293  85.7099329  52.9392236
  54.9970332  85.3276406  53.5529761  53.5126212  85.4913531  53.3047929
  51.1463836  87.5175758  38.8710591  51.4417277  86.6086437  38.8177645
  50.2451872  87.4963498  38.5491593  54.6758083  85.5931755  44.8538140
  53.9544669  86.2067723  44.7145613  55.4651339  86.1289520  44.7754786
  57.4784396  82.9286181  51.1278791  58.0018798  83.1748478  51.8905101
  57.2596730  83.7606216  50.7081929  52.8751678  85.1989856  38.9949916
  52.5464384  84.3187235  38.8125022  53.2291048  85.1437525  39.8826305
  55.9893501  85.4862826  39.3625394  56.3289573  86.0148747  38.6404002
  56.4365621  85.8243232  40.1383960  58.6836942  83.8699876  48.8128462
  58.3433762  83.0707690  49.2149142  57.9775948  84.1701587  48.2405295
  59.3353413  80.9549189  47.2655785  60.1579483  80.4809667  47.1434675
  59.5791477  81.7339673  47.7654471  57.9761648  83.9837447  37.5618687
  58.6970010  84.3618700  37.0582403  57.3526952  84.7026324  37.6653665
  62.1192771  84.6882596  38.4977019  62.3356385  85.5707234  38.1965847
  61.6386838  84.2968810  37.7682661  56.8591992  87.6468310  45.0747764
  56.7136573  87.9608613  45.9672045  56.3817196  88.2653210  44.5218662
  58.7188375  84.6370858  45.1228653  58.7049944  83.7411951  44.7860951
  59.4360803  84.6441521  45.7566939  60.5714506  85.0708198  47.1681781
  60.3132284  85.9925268  47.1666111  60.0399546  84.6738632  47.8582245
  51.3337654  90.1873654  48.0135425  50.7891122  90.9633462  48.1455699
  52.2117004  90.5344458  47.8554546  58.1225271  83.5185238  40.3916223
  58.2441182  82.5901884  40.5907111  57.8327313  83.5323924  39.4794539
  60.9916461  81.2040148  43.5282943  61.0138158  81.2679481  42.5734923
  61.4084520  80.3644657  43.7223449  52.1203676  89.3143550  50.9065582
  51.3785412  89.4626186  51.4930212  51.7996420  89.5751816  50.0432331
  57.6066350  85.0317235  54.6006156  57.6554506  85.9079358  54.2183925
  58.1488865  84.4894628  54.0277799  65.5022834  88.4081753  52.5099328
  66.4032696  88.2688218  52.2183326  65.5770808  88.5736208  53.4497506
  59.8365639  85.7848608  51.3552515  58.9668948  86.0782174  51.0835103
  60.0725119  86.3689053  52.0759778  54.8507963  91.1304548  39.4893179
  54.6054005  90.2266878  39.6873389  55.0203877  91.1321699  38.5472657
  62.5404673  82.0028224  48.8717935  63.0586617  82.7389251  48.5464423
  62.1859806  82.3092218  49.7064694  54.1203610  86.8632906  36.9879341
  53.4272855  86.9377261  36.3319377  53.8755362  86.0993249  37.5100858
  62.7917267  78.4228507  44.3918832  63.0719021  77.7551696  45.0179258
  63.5767874  78.6157603  43.8793495  66.6626125  86.8446141  48.1390407
  67.6143548  86.9444239  48.1602631  66.4929576  86.0524410  48.6488491
  64.6840505  83.9301724  48.3249808  64.0890437  84.2106737  47.6296296
  64.3990201  84.4195625  49.0966549  60.9797534  88.9348314  33.2959910
  61.9256639  88.8054522  33.3648328  60.6011779  88.1962976  33.7729338
  69.2908692  86.8563304  47.2990989  68.7747740  86.0721761  47.1120918
  70.1748640  86.5282021  47.4637509  66.9519418  80.6004320  43.2586802
  66.7544240  80.2919408  44.1430134  67.5619124  81.3265959  43.3884732
  60.8636226  92.9866060  54.7560567  61.7839236  93.1644659  54.9500614
  60.8285809  92.0422105  54.6040267  59.1640451  86.8598290  33.2314796
  58.2571906  86.5631403  33.3077509  59.4416432  86.5628108  32.3649082
  50.0818391  88.1804653  43.6813842  49.7621176  87.3269962  43.3888216
  49.5351820  88.3953232  44.4371809  53.8598299  90.8967094  47.3983348
  54.0784309  91.8284202  47.4171382  54.2724073  90.5375069  48.1838152
  60.7802517  81.4035180  39.3859037  59.9703245  81.0582265  39.7614283
  61.4686934  81.0942724  39.9746648  62.7093065  80.4813227  41.0083333
  63.2624104  80.9008680  41.6673357  62.9463151  79.5548975  41.0506289
  58.7326164  86.4700300  56.7886097  58.6322891  87.4194657  56.7198188
  58.5147706  86.1418539  55.9162167  57.9339236  83.7185225  33.3726775
  58.7958400  84.0440124  33.6322592  58.1189580  82.9316721  32.8599841
  49.9506651  91.8007565  45.6506964  49.2570123  91.3861518  45.1376918
  50.6979642  91.8428101  45.0540382  66.0871872  82.5913752  40.5161998
  65.5070541  83.2498556  40.1340050  65.8207805  81.7691096  40.1049415
  64.5375439  81.9918809  42.7183318  65.0375217  82.1035344  41.9097637
  65.1811046  81.6879862  43.3584126  58.5957434  89.8997439  55.6051159
  58.1124516  90.6997799  55.8115048  58.6818373  89.9105384  54.6518603
  51.8643394  91.7325819  43.5272978  51.8414082  91.8313506  42.5754861
  52.1744030  92.5790970  43.8490145  54.5230772  93.7901974  47.6419593
  55.4774025  93.7585916  47.5749524  54.3243295  93.3292598  48.4569819
  55.1130154  92.3603090  50.2090390  55.9323043  92.8547168  50.2325228
  55.3866962  91.4435058  50.1807958  64.8696750  84.7513842  39.5718346
  63.9822605  85.0363493  39.3538541  65.2850739  84.5907605  38.7245623
  68.2211286  84.7760363  43.2872685  68.9971676  85.2656816  43.5597302
  67.4959420  85.2018417  43.7444555  70.6583845  85.4887982  44.3446626
  71.2528336  85.2483718  43.6339934  70.7310429  84.7695113  44.9720162
  64.8437774  90.2668378  39.7868636  64.7872975  90.7236929  38.9476269
  65.3966116  89.5059063  39.6091479  68.6542580  86.0558110  40.6118756
  68.3979514  85.6554746  41.4426963  68.0295448  86.7701904  40.4868895
  50.3665068  86.6941224  50.9082588  51.0123932  86.1840178  51.3969813
  50.1582219  87.4309905  51.4826013  58.8868679  80.9581268  36.6606484
  58.8747349  81.9023108  36.8174755  59.7792101  80.7751414  36.3665945
  62.7020798  77.5524045  40.9152421  61.9353194  76.9982532  41.0609103
  63.1131503  77.6245914  41.7766572  54.7062559  83.8408841  55.0057602
  55.5694021  83.4845646  55.2160926  54.1327970  83.5022736  55.6933006
  20.3542165   5.8313231  32.5365309  20.9920575   5.7119979  31.8328649
  20.2363008   6.7794075  32.5953262  17.1631871   5.7840659  32.4726834
  16.8250383   5.6681724  31.5847369  18.0321639   5.3831825  32.4527840
  13.0218687   7.6376136  28.4623725  12.4583552   7.5466073  27.6940013
  12.9071082   6.8176040  28.9426218  17.6451654   6.9375511  38.4313040
  17.6340295   6.5428309  37.5593543  17.8072294   6.2041584  39.0246811
  10.5683119   9.1327327  31.3007946  11.3604411   8.7918152  30.8854245
  10.8079769   9.2422302  32.2210099  18.6018246  11.3047104  23.7738190
  17.9506225  11.8901184  23.3872204  19.3962608  11.8353298  23.8333227
  14.3658915   9.7212623  37.3792224  14.0748781  10.6258254  37.2638890
  15.0015900   9.7629151  38.0936293  15.2915122   7.0989471  33.9693583
  15.8878694   6.8745494  33.2550546  15.3490094   6.3574217  34.5719031
  19.9083433   3.5564685  29.6118517  20.6946523   3.1384108  29.2608934
  20.1722138   4.4610777  29.7800166  20.0793511   8.9937535  24.3107174
  19.4439344   9.0672162  25.0228079  19.7490917   9.5831134  23.6326254
  25.3091861   3.4939918  30.5151496  26.0417033   2.9239135  30.7489325
  24.5531216   3.1061519  30.9558002  16.9267980   5.9167160  27.7114838
  16.5626188   5.3897781  28.4227760  17.7835096   5.5265629  27.5381324
  19.3248800   9.4074038  34.3742017  19.0249524  10.3099077  34.2657825
  18.9799860   9.1406222  35.2263170  12.7761282   5.8587835  30.4078722
  11.8511778   5.7264049  30.6156413  13.0245695   6.6382055  30.9048664
  22.7245944   1.9256579  32.0539455  21.8162822   1.8571987  31.7598216
  22.6733540   2.4028524  32.8821280  14.3069580  16.1718359  27.3412985
  14.2293610  17.1226184  27.4201466  13.7031224  15.8264231  27.9987911
  16.7986810   3.3446224  39.9974352  16.0220144   3.9040144  39.9877217
  17.4377373   3.8303007  40.5189222  24.5907591   0.1273017  33.8317329
  23.9481971   0.4205550  33.1857123  24.0862519   0.0125937  34.6370525
  22.2447754   3.8736190  24.5203188  23.1565610   4.1063577  24.3450885
  21.7357401   4.4573234  23.9578266  15.0533182   6.1531678  39.5592319
  15.7947867   6.6916722  39.2827143  14.3470168   6.7797966  39.7163871
  20.5288522   8.2960818  38.1564480  20.9371878   7.8543229  37.4119113
  19.8065783   7.7213446  38.4098673  16.8819592   3.2333425  35.5298037
  17.7280787   3.6572838  35.6732686  16.8218230   2.5767049  36.2236600
  20.8517337   8.8562009  31.9116769  20.2226199   9.0207723  31.2092837
  20.4642999   9.2703618  32.6827733  24.7306569   9.7916447  29.2661133
  24.0457607  10.1715348  28.7158166  24.8150418  10.4011773  29.9993081
  20.0319037   0.8937793  37.1879211  19.7879969   1.6479854  36.6513487
  20.3078968   1.2723141  38.0226458  21.9857500   7.4376406  35.8656477
  22.1974395   8.0808165  35.1890858  21.9387248   6.6038722  35.3978407
  19.5883729   0.0494226  32.7693049  18.7268208   0.3475480  33.0609786
  19.6146164   0.2664625  31.8374081  16.4045298   8.5936417  29.1766854
  16.8683644   8.8724120  28.3871477  16.1402097   7.6919861  28.9939945
  13.2969380   8.1407898  32.1146618  13.8670737   8.5695167  31.4764102
  13.8877491   7.8590483  32.8130803  15.3414185   4.7159569  25.9856420
  16.0438228   5.1680613  26.4530346  15.0094813   4.0743388  26.6136313
  23.1003328  10.3148361  34.0378834  23.9220772   9.9128548  33.7561516
  23.0965731  10.2116595  34.9894950  16.8659932   9.8632404  36.1939544
  16.9304364  10.3252812  37.0297716  16.1570855   9.2329769  36.3221854
  31.1909321   6.6587109  30.3863805  30.4373029   6.0894508  30.2307810
  31.3256862   6.6249774  31.3334440  16.5807949  11.5300512  26.0618525
  16.4453624  12.3752047  26.4903373  17.1217762  11.7319789  25.2984459
  10.0337347   9.0475950  26.6346450  10.5461867   9.8419200  26.7852014
  10.6860059   8.3502240  26.5680051  11.8432231  12.1641706  28.7169203
  12.0198860  13.0859671  28.5290187  12.6389065  11.8500125  29.1463583
  18.2076426  12.1524078  40.1918867  17.7640280  11.3660457  39.8739771
  18.8693639  12.3403229  39.5262758  12.9663547  13.6819880  34.7179545
  13.5170972  13.5536943  33.9456539  12.1275023  13.9814769  34.3674438
  20.3057664  12.4326878  38.2200268  20.2876139  13.2535759  37.7280537
  21.2277584  12.3080953  38.4450409  16.7630718   9.9471008  39.0623776
  17.2959055   9.1859296  38.8323084  16.2344799   9.6544660  39.8047931
  24.8684970   7.7972039  25.0343027  24.0914412   7.4583199  24.5898189
  25.5476451   7.8024663  24.3597992  19.6836999   2.9166777  24.9249634
  19.3787134   3.2312926  25.7759778  20.6367441   2.9948197  24.9676967
  18.1283430   9.0757000  26.5742588  17.6004792   8.3409760  26.2615826
  17.6270933   9.8531677  26.3282557  23.1076276   7.2706021  31.6909635
  22.4499951   7.9605282  31.7789763  23.9116676   7.6602453  32.0343621
  21.9181735   5.6250393  29.7413577  22.4313617   6.2580385  30.2435286
  22.5682959   5.0251589  29.3756937  19.1804110  15.6034718  22.4974248
  18.5065808  15.9066414  23.1059205  19.5669931  16.4063798  22.1479705
  18.3962566   3.0999849  31.9871917  17.4785128   3.3214796  31.8293605
  18.8122710   3.1746159  31.1283624  19.1797614   4.4991265  27.1174597
  19.9269433   5.0112662  26.8081719  19.4489203   4.1775317  27.9778991
  17.4524264   6.9949805  24.1001552  16.5435483   6.7108838  24.1974021
  17.4819348   7.4148884  23.2404858  22.6843532  10.6056395  27.8692719
  22.2305859   9.7647305  27.9257910  22.0537498  11.2417793  28.2067499
  21.6276451   1.5348381  29.0993387  20.8899208   1.0225767  29.4303629
  21.8803225   1.0948762  28.2876663  21.1276471  12.4432891  28.8042537
  21.4199445  13.0037949  28.0854903  21.6375091  12.7361452  29.5595696
  16.0009158   4.6078426  30.2011347  16.0557768   3.6552262  30.1253824
  15.1900360   4.7637865  30.6852645  16.0910096  13.2213243  29.8935990
  16.0486275  13.4474089  28.9644523  17.0072795  12.9876617  30.0421792
  19.5375730   3.6897310  36.7916620  19.8925117   3.9168783  37.6511085
  20.1847861   4.0215687  36.1693875  25.2673467   6.8115746  27.4965949
  25.1291365   7.0017342  26.5687138  24.9109685   7.5735129  27.9534000
  25.2942846   8.8792273  32.5077220  25.7279353   8.7867562  33.3560274
  26.0074427   8.8549773  31.8697236  14.2075897  10.0976272  29.6897953
  15.0016495   9.6026592  29.4880528  13.4967589   9.5694135  29.3265659
  19.0270741  12.4794367  34.0410321  19.0807763  13.0485303  34.8088037
  18.1585523  12.6496252  33.6764358  26.1558396   8.9215974  35.0410106
  26.3494286   9.8261784  35.2869381  26.0559014   8.4623393  35.8748691
  21.2173505   9.0722716  40.6150986  21.0659011   8.8433268  39.6981070
  21.2078184  10.0293318  40.6282331  17.9858841   6.6454629  35.5997253
  18.9150901   6.7965789  35.4266220  17.5649871   6.7338650  34.7445899
  16.7847173  10.6705294  33.3695790  16.6458258  10.3024078  34.2421728
  15.9961769  11.1852933  33.1979748  17.3795325  15.7714390  24.7121327
  17.5547080  15.3002433  25.5266950  16.6928113  16.3980156  24.9402588
  18.3352388  10.0486896  30.7584628  18.0002220  10.0087666  31.6542278
  17.8356334   9.3831612  30.2855038  14.9378932   5.1674486  35.7720889
  15.6478551   4.5267678  35.7307507  14.8948241   5.4187380  36.6947070
  22.9265711  12.1041839  38.6927468  22.8678257  11.4201059  38.0258051
  23.3285230  12.8460829  38.2408094  11.9456410  18.9203753  31.4861187
  12.1853008  19.5522277  32.1640206  11.1025606  18.5691793  31.7726546
  22.9283118  10.0681423  36.9241448  22.0409897   9.7307345  37.0467847
  23.4981669   9.3364454  37.1610213  16.4584272  14.7282875  33.8902691
  16.3854443  15.5337847  34.4021996  16.0161665  14.9274841  33.0650712
  16.2474051  13.9654645  27.4005513  15.4641573  14.5076325  27.4943737
  16.9466797  14.4828625  27.7999754  27.4100459   5.4789640  31.6858009
  27.3990335   6.3614356  31.3151943  26.5417838   5.1261191  31.4912546
  18.9182955  14.6269709  36.0460850  19.6310928  15.2617174  35.9736751
  18.4272984  14.7233575  35.2300851  20.6400482   8.5320962  27.6178141
  19.7056761   8.6522424  27.4482846  20.8177151   7.6293429  27.3538151
  24.0273034   4.3738281  28.1528175  24.4933486   5.2066273  28.0788478
  24.4780534   3.9083263  28.8573434  13.9694869  12.3764153  36.8666420
  14.6704328  13.0100636  37.0195815  13.4989984  12.7178884  36.1062060
  22.0949265  10.7182103  25.1514327  22.3709109  10.6038697  26.0608202
  21.2253763  10.3199587  25.1126501  21.7696155   4.9308760  34.6918971
  21.1167605   5.1784668  34.0371424  22.1476535   4.1172898  34.3581448
  18.7303329  14.9668453  28.7947141  18.9125723  14.1490109  29.2574893
  19.5536315  15.1836146  28.3572031  19.0645494  13.8936639  26.0562190
  19.5933261  13.3829093  25.4432352  19.3273714  13.5779169  26.9207723
  17.8183728   5.6728571  41.1785008  17.1424365   5.5722701  41.8487383
  18.6411362   5.5167785  41.6421005   9.5662587  11.9100508  33.7997523
  10.1516024  11.1644196  33.9325427   9.3687425  12.2204465  34.6834187
  12.4201242  14.9451755  28.8159966  11.7511617  15.4297883  28.3324006
  12.2814112  15.1920976  29.7303344  16.5606511  16.9795499  35.4142624
  17.1124819  17.1427120  36.1791709  16.9012704  17.5699937  34.7422649
  21.4117385  11.8056756  41.2691278  21.9557289  12.4186714  40.7746233
  20.8304230  12.3636335  41.7858291  19.6974898  14.9277474  32.4006306
  19.5726037  14.1267214  31.8917252  20.3553989  15.4223668  31.9120276
  21.7609806  12.7286494  34.0285856  20.8140142  12.6091846  33.9564183
  22.1092580  11.8408992  34.1112118  18.7656240  12.5239211  30.2290208
  18.6181202  11.5955918  30.4097778  19.5909733  12.5459301  29.7447284
  22.3690362  13.3467769  31.3155081  23.2936909  13.1410631  31.1779532
  22.2005665  13.0984170  32.2244423  22.1585678  13.8653437  26.6717173
  22.3322555  13.2999859  25.9191025  22.6514569  14.6654332  26.4896663
  28.0125069   6.6289860  28.2907472  28.4556215   5.8797185  27.8926596
  27.1351579   6.6199996  27.9081204  23.1460850  13.1820201  23.7714071
  23.8411755  13.8026894  23.9901386  23.4884000  12.3315552  24.0466449
  25.0452273  10.6319907  25.3001402  25.5703597  10.9707179  24.5750722
  24.9574626   9.6966922  25.1164536  16.7072322  14.5453980  37.4291278
  17.0159449  14.3003127  38.3013978  17.5047804  14.7500619  36.9410148
  16.7292934  16.6991890  29.6596655  16.2897924  16.2068269  30.3529512
  17.4801051  16.1564858  29.4188730   9.2085273  12.8903431  29.6621283
  10.0343293  12.5907203  29.2819926   8.8579325  12.1211053  30.1111072
  14.1766806  12.2429899  31.7318956  13.5546816  11.5800604  31.4321184
  14.8471673  12.2691031  31.0492604   7.4093878  10.8089757  30.6210216
   6.5725786  10.3811932  30.4394218   7.3817524  11.0022201  31.5581008
  24.7346179  11.2652810  40.6052600  23.9441723  11.2476949  40.0657099
  24.4979534  11.8041104  41.3601636  24.8544054   8.1145277  37.9185328
  24.9042059   7.9495284  38.8600851  24.7457978   7.2472536  37.5283209
  13.7380313  10.7933822  25.2077417  13.8868434  11.4769287  24.5544090
  14.5446757  10.7738912  25.7226873  22.1447817   4.0976205  39.2344635
  23.0457680   3.9582670  38.9428633  22.2195791   4.2630660  40.1742812
  26.3562251  10.5342218  38.1627350  26.0647060  10.8972199  38.9990811
  25.7434383   9.8209226  37.9840682  27.5557934   8.0995098  30.6829920
  28.3904825   8.5384902  30.8467480  27.6917062   7.6233751  29.8638166
  24.6049440   5.6574833  36.6307408  25.0803561   5.8502479  35.8226259
  23.6815005   5.7134019  36.3850791  17.2375719  13.2881953  22.6789164
  16.6649686  13.9072140  22.2259636  17.8108512  13.8381314  23.2129086
  23.3051109   2.5340593  34.8635713  24.2568531   2.6338691  34.8847937
  23.1354559   1.7418861  35.3733798  21.3265488  -0.3803824  35.0495114
  20.7315420  -0.0998811  34.3541603  21.0415185   0.1090077  35.8211855
  20.4572978  13.5719103  23.8097747  21.3903652  13.5064665  24.0130622
  20.3696191  14.4075370  23.3512279  23.0860995  12.8884973  20.7701694
  23.0074627  12.5544837  21.6637452  23.9070662  13.3806741  20.7693167
  25.7839186   5.7546713  33.9778013  25.7515506   4.8162713  34.1637697
  26.3939810   5.8330749  33.2443838  25.9333675   2.5457756  34.0236296
  25.4172723   1.7616213  33.8366225  26.8173623   2.2176473  34.1882816
  31.6015736   6.8162719  33.1184050  32.3319125   6.5548008  33.6791753
  30.9922682   6.0791441  33.1586118  29.6831033   4.9570582  33.7158501
  28.9564197   4.8226547  33.1074992  29.2678320   5.2647411  34.5215219
  17.5061210   8.6760512  41.4805874  18.4264219   8.8539111  41.6745920
  17.4710793   7.7316557  41.3285573  10.5023282   6.5861546  34.1228655
  10.7209292   7.5178654  34.1416689  10.9149056   6.2269521  34.9083459
  15.2382418   5.5891891  42.3296466  14.7549499   6.3892251  42.5360355
  15.3243357   5.5999836  41.3763910  11.1655755   9.4796426  34.3664899
  12.1199009   9.4480368  34.2994831  10.9668279   9.0187049  35.1815125
  11.7555137   8.0497542  36.9335697  12.5748026   8.5441620  36.9570534
  12.0291945   7.1329510  36.9053265  21.5121733   0.4408294  26.2963653
  20.6247589   0.7257945  26.0783847  21.9275723   0.2802057  25.4490930
  24.8636270   0.4654815  30.0117992  25.6396660   0.9551267  30.2842609
  24.1384404   0.8912869  30.4689861  27.3008828   1.1782434  31.0691933
  27.8953319   0.9378170  30.3585241  27.3735412   0.4589565  31.6965469
   9.5205984  15.0216045  31.3835097   9.3860452  14.2616446  30.8173095
   9.1038046  15.7456945  30.9163886  20.6564947  10.2052969  20.3911673
  21.3600797  10.4102971  21.0069328  19.9327596  10.7729731  20.6560756
  21.4862757   5.9562830  26.5113943  21.4297959   6.4131381  25.6721575
  22.0391100   5.1953515  26.3336786  25.2967563   1.7452562  27.3364062
  25.0404497   1.3449197  28.1672270  24.6720431   2.4596356  27.2114201
  29.6079901   4.4848635  29.8435354  29.0479459   4.5541824  30.6166916
  29.0023404   4.3089620  29.1234850  12.6775110  15.9185362  31.5953540
  12.5607494  16.8630795  31.4932230  11.8567556  15.6158924  31.9839339
  22.5651644  10.6435498  22.4410133  23.3997248  10.2116696  22.2587607
  22.4035987  10.4717512  23.3687027  22.2197537   7.1467611  23.8066472
  22.1646340   6.9811883  22.8654916  21.5943592   7.8543644  23.9628662
  19.5343444   9.4516523  43.1320035  20.4034603   9.6257175  42.7706670
  19.0550195  10.2710940  43.0095764  13.7029624  16.5713624  34.8109468
  14.6056871  16.6037234  35.1275963  13.4766994  15.6414075  34.8255804
  15.4583226  15.3244611  31.4719547  14.5078857  15.3246472  31.3583919
  15.7615712  14.5777345  30.9555582  23.8612441  22.9668054  28.4623725
  23.2977307  22.8757990  27.6940013  23.7464836  22.1467958  28.9426218
  28.4845409  22.2667429  38.4313040  28.4734049  21.8720227  37.5593543
  28.6466048  21.5333501  39.0246811  21.4076873  24.4619245  31.3007946
  22.1998165  24.1210070  30.8854245  21.6473524  24.5714220  32.2210099
  29.4412000  26.6339021  23.7738190  28.7899980  27.2193102  23.3872204
  30.2356363  27.1645216  23.8333227  23.3667627  23.7228158  24.1725324
  24.1398503  23.1757145  24.0338200  23.7193026  24.5872408  24.3839786
  25.7033905  19.8820824  21.8043774  25.9559426  19.3602346  21.0427237
  24.7658464  19.7186970  21.9070458  30.7477188  18.8856603  29.6118517
  31.5340277  18.4676026  29.2608934  31.0115892  19.7902695  29.7800166
  30.9187265  24.3229453  24.3107174  30.2833098  24.3964080  25.0228079
  30.5884672  24.9123052  23.6326254  25.4230194  21.7848930  24.0068149
  25.3066452  21.1093834  24.6749233  25.5332454  21.2981304  23.1900302
  27.7661735  21.2459078  27.7114838  27.4019942  20.7189699  28.4227760
  28.6228851  20.8557547  27.5381324  33.6711035  12.5353410  34.9746105
  33.3394360  13.4048821  34.7507320  33.0756649  12.2189694  35.6540135
  27.4067222  16.2748977  22.7076187  27.5741624  17.1429214  23.0746658
  27.2164391  16.4376259  21.7837476  23.6155036  21.1879753  30.4078722
  22.6905533  21.0555967  30.6156413  23.8639450  21.9673972  30.9048664
  27.3856443  18.7306635  23.6922854  27.2656068  19.1763686  24.5308334
  26.6909031  19.0791952  23.1336392  20.9763847  20.8313027  31.2422511
  21.1056229  21.0847505  32.1561923  20.2961299  21.4240735  30.9227166
  27.6380564  18.6738142  39.9974352  26.8613899  19.2332062  39.9877217
  28.2771128  19.1594925  40.5189222  33.0841509  19.2028108  24.5203188
  33.9959365  19.4355495  24.3450885  32.5751156  19.7865152  23.9578266
  25.8926937  21.4823595  39.5592319  26.6341621  22.0208639  39.2827143
  25.1863922  22.1089884  39.7163871  30.8712792  16.2229711  37.1879211
  30.6273724  16.9771771  36.6513487  31.1472722  16.6015058  38.0226458
  30.4277484  15.3786144  32.7693049  29.5661963  15.6767397  33.0609786
  30.4539918  15.5956543  31.8374081  27.2439053  23.9228334  29.1766854
  27.7077399  24.2016037  28.3871477  26.9795851  23.0211779  28.9939945
  24.1363134  23.4699816  32.1146618  24.7064491  23.8987084  31.4764102
  24.7271246  23.1882401  32.8130803  26.1807939  20.0451487  25.9856420
  26.8831982  20.4972530  26.4530346  25.8488568  19.4035306  26.6136313
  24.6288301  18.6363243  40.3607629  23.9986961  19.3179524  40.5943026
  24.5224388  18.5246325  39.4160767  19.9233273  18.3035039  31.2873553
  19.1332327  18.5592568  30.8113664  20.4144520  19.1183377  31.3925594
  21.8748018  18.6679619  28.2457030  21.0779182  18.7798313  28.7640525
  21.6473611  19.0066271  27.3797920  18.2070976  18.5565530  33.7188544
  18.4579014  19.4412540  33.9846120  18.7430524  18.3770131  32.9463636
  42.0303076  21.9879027  30.3863805  41.2766784  21.4186425  30.2307810
  42.1650617  21.9541692  31.3334440  27.4201704  26.8592429  26.0618525
  27.2847378  27.7043965  26.4903373  27.9611516  27.0611707  25.2984459
  23.9069043  12.9384009  42.7232880  23.5135989  12.3850208  43.3980524
  24.7235184  13.2494588  43.1139397  20.8731101  24.3767867  26.6346450
  21.3855622  25.1711118  26.7852014  21.5253814  23.6794158  26.5680051
  22.6825986  27.4933624  28.7169203  22.8592614  28.4151588  28.5290187
  23.4782819  27.1792043  29.1463583  26.8237004  14.3541888  40.3153137
  27.5646718  14.9549042  40.2357599  27.0554927  13.6119526  39.7571179
  21.9678342  19.5398256  38.5931366  21.8531857  18.6383513  38.8938465
  21.1122860  19.7861952  38.2416183  30.7694167  10.3822991  34.5917418
  30.4258437  11.2724633  34.5156529  31.1373130  10.1924649  33.7287003
  18.8380018  22.7056522  27.4106020  19.6755240  23.1153530  27.1939728
  19.0158286  21.7655964  27.3806214  30.7344450  20.3731602  23.0989853
  30.2191073  21.1436207  23.3378241  30.4621758  19.6996739  23.7222915
  28.3191561  15.2181303  28.1575092  27.4633157  14.8288154  27.9780730
  28.7318513  15.2973264  27.2974877  29.8490708  12.7527646  32.5566651
  29.3455503  12.7157782  31.7434457  30.1421314  13.6620389  32.6163308
  26.0933593  12.8366376  31.5632833  26.9586590  12.6409185  31.2038723
  26.1611102  12.6076728  32.4902190  30.5230753  18.2458695  24.9249634
  30.2180889  18.5604844  25.7759778  31.4761195  18.3240114  24.9676967
  28.9677185  24.4048918  26.5742588  28.4398547  23.6701677  26.2615826
  28.4664688  25.1823594  26.3282557  23.6995913  15.0668584  28.9349200
  24.2739664  14.8443766  28.2022393  24.2866895  15.1357279  29.6877801
  24.0265500  17.0973045  22.9545085  23.1902812  17.4347732  23.2754360
  23.8870269  16.9622025  22.0172222  26.0018580  11.9409833  27.6624269
  25.3482993  11.6258850  27.0380884  25.9599054  11.3185573  28.3884092
  27.1129785  22.2229128  19.5777561  26.2056847  21.9918382  19.7768710
  27.6100817  21.4266747  19.7651543  30.0191368  19.8283182  27.1174597
  30.7663187  20.3404579  26.8081719  30.2882958  19.5067235  27.9778991
  28.2918019  22.3241723  24.1001552  27.3829238  22.0400756  24.1974021
  28.3213102  22.7440802  23.2404858  32.4670206  16.8640299  29.0993387
  31.7292962  16.3517685  29.4303629  32.7196979  16.4240680  28.2876663
  31.9670225  27.7724809  28.8042537  32.2593200  28.3329866  28.0854903
  32.4768846  28.0653370  29.5595696  32.5681833   9.6416551  29.6935156
  32.8740710   8.7813914  29.4061071  33.2934438  10.2334171  29.4934150
  18.8606189  20.0447237  28.0816754  18.6630589  19.4516598  27.3567820
  18.3052853  19.7399447  28.7992693  27.9894106  23.8650467  21.4389630
  27.5513536  23.1486326  20.9795268  28.7304547  24.0926581  20.8774722
  24.7795273  18.5547403  27.9601726  23.9663138  18.8541574  28.3666918
  25.2754267  18.1603092  28.6776208  26.9303850  28.5505160  29.8935990
  26.8880029  28.7766007  28.9644523  27.8466549  28.3168535  30.0421792
  30.3769484  19.0189228  36.7916620  30.7318872  19.2460701  37.6511085
  31.0241615  19.3507605  36.1693875  24.2709347  16.1265759  33.5762961
  24.9108727  15.9854518  32.8785924  23.4386878  15.8400272  33.2001563
  25.0469651  25.4268189  29.6897953  25.8410250  24.9318509  29.4880528
  24.3361344  24.8986052  29.3265659  21.3552415  19.5711271  25.7657706
  20.4250003  19.5095726  25.9827668  21.4509887  19.0487224  24.9694347
  21.2737964  16.0966084  28.3535948  21.5344781  17.0111417  28.2445108
  22.0955136  15.6290526  28.5032560  22.7462889  17.5103841  35.5234772
  23.4185942  17.3021203  34.8747421  21.9192676  17.3125927  35.0840004
  28.6488461  14.1365782  37.5400433  28.0016376  14.8355732  37.4464909
  29.4189476  14.5701926  37.9076681  27.6240927  25.9997211  33.3695790
  27.4852013  25.6315996  34.2421728  26.8355523  26.5144851  33.1979748
  29.1746142  25.3778814  30.7584628  28.8395975  25.3379584  31.6542278
  28.6750088  24.7123530  30.2855038  23.1490386  20.7846444  36.2837209
  23.0110184  20.0526683  36.8848748  24.0595310  20.6955344  36.0021397
  32.1105334  22.7234848  21.0321688  31.4934505  21.9981676  20.9354740
  31.6421822  23.4844209  20.6888762  24.4901621  17.4831621  37.5916528
  23.9538978  17.0322360  38.2438125  23.9018329  17.6177530  36.8486993
  22.7850164  34.2495670  31.4861187  23.0246763  34.8814195  32.1640206
  21.9419361  33.8983711  31.7726546  23.9003880  16.9420273  20.1542992
  23.0233346  16.8209073  19.7905239  24.3761633  16.1506351  19.9021881
  15.4206020  21.7297432  30.2484499  16.1077060  21.4159162  29.6605514
  15.2654149  22.6338797  29.9751751  20.2240742  16.6187629  34.6769523
  20.1398931  16.0113298  33.9419933  19.4023449  17.1096647  34.6779019
  30.3964456  15.1041192  30.0439718  30.8933156  14.3511155  29.7240788
  29.6251438  15.1405509  29.4782927  31.4794237  23.8612880  27.6178141
  30.5450515  23.9814342  27.4482846  31.6570905  22.9585346  27.3538151
  26.9799425  17.2458575  29.7711403  26.6097212  16.6929616  30.4592308
  27.4758517  16.6416709  29.2186403  34.8666788  19.7030199  28.1528175
  35.3327240  20.5358191  28.0788478  35.3174289  19.2375180  28.8573434
  32.9343019  26.0474020  25.1514327  33.2102863  25.9330615  26.0608202
  32.0647518  25.6491505  25.1126501  32.8383451  12.0710786  32.1919077
  31.9246531  12.3015013  32.3601284  33.2676552  12.1549230  33.0433109
  29.9039249  29.2228556  26.0562190  30.4327015  28.7121011  25.4432352
  30.1667468  28.9071086  26.9207723  20.4056341  27.2392425  33.7997523
  20.9909778  26.4936113  33.9325427  20.2081180  27.5496382  34.6834187
  23.2594997  30.2743673  28.8159966  22.5905372  30.7589800  28.3324006
  23.1207866  30.5212893  29.7303344  14.9973996  19.8098026  32.5201966
  15.0358096  19.2761616  33.3139084  14.4914289  19.2833231  31.9012943
  22.3764758  14.6562566  36.0164509  22.4406085  15.5177397  35.6041906
  22.3131879  14.0436568  35.2836867  21.8517031  16.7285699  39.6637543
  22.4789070  16.3462776  40.2775067  20.9944950  16.5099901  40.0293235
  18.6282574  18.5362128  25.5955898  18.9236015  17.6272806  25.5422951
  17.7270610  18.5149867  25.2736900  22.1576821  16.6118124  31.5783446
  21.4363407  17.2254092  31.4390920  22.9470077  17.1475889  31.5000092
  24.9603134  13.9472551  37.8524098  25.4837536  14.1934847  38.6150407
  24.7415468  14.7792586  37.4327235  20.3570415  16.2176225  25.7195223
  20.0283121  15.3373604  25.5370329  20.7109786  16.1623894  26.6071612
  29.6049994  27.8531128  30.2290208  29.4574957  26.9247836  30.4097778
  30.4303488  27.8751219  29.7447284  23.4712238  16.5049195  26.0870701
  23.8108311  17.0335117  25.3649309  23.9184359  16.8429601  26.8629267
  26.1655679  14.8886246  35.5373769  25.8252500  14.0894059  35.9394448
  25.4594686  15.1887957  34.9650602  26.8172151  11.9735558  33.9901092
  27.6398220  11.4996037  33.8679982  27.0610215  12.7526042  34.4899778
  25.4580386  15.0023817  24.2863993  26.1788748  15.3805070  23.7827710
  24.8345690  15.7212694  24.3898971  29.6011509  15.7068966  25.2222326
  29.8175123  16.5893604  24.9211154  29.1205576  15.3155179  24.4927968
  24.3410730  18.6654679  31.7993070  24.1955311  18.9794982  32.6917352
  23.8635934  19.2839579  31.2463969  26.2007113  15.6557227  31.8473960
  26.1868682  14.7598320  31.5106258  26.9179541  15.6627891  32.4812246
  28.0533243  16.0894567  33.8927087  27.7951021  17.0111638  33.8911418
  27.5218284  15.6925002  34.5827551  32.9979432  29.1945354  26.6717173
  33.1716310  28.6291777  25.9191025  33.4908323  29.9946249  26.4896663
  18.8156392  21.2060023  34.7380731  18.2709860  21.9819831  34.8701006
  19.6935742  21.5530828  34.5799853  25.6044009  14.5371607  27.1161530
  25.7259920  13.6088254  27.3152417  25.3146051  14.5510293  26.2039845
  28.4735199  12.2226518  30.2528250  28.4956896  12.2865851  29.2980229
  28.8903258  11.3831026  30.4468756  33.9854605  28.5112119  23.7714071
  34.6805509  29.1318811  23.9901386  34.3277755  27.6607470  24.0466449
  19.6022414  20.3329920  37.6310888  18.8604150  20.4812555  38.2175519
  19.2815158  20.5938185  36.7677638  20.0479028  28.2195348  29.6621283
  20.8737048  27.9199120  29.2819926  19.6973080  27.4502971  30.1111072
  25.0160561  27.5721817  31.7318956  24.3940570  26.9092522  31.4321184
  25.6865428  27.5982949  31.0492604  18.2487633  26.1381675  30.6210216
  17.4119541  25.7103849  30.4394218  18.2211278  26.3314118  31.5581008
  25.0885088  16.0503605  41.3251463  25.1373244  16.9265728  40.9429232
  25.6307602  15.5080998  40.7523106  24.5774068  26.1225740  25.2077417
  24.7262188  26.8061204  24.5544090  25.3840511  26.1030830  25.7226873
  32.9841571  19.4268122  39.2344635  33.8851434  19.2874587  38.9428633
  33.0589546  19.5922577  40.1742812  27.3184377  16.8034977  38.0797821
  26.4487686  17.0968543  37.8080410  27.5543857  17.3875422  38.8005085
  22.3326701  22.1490918  26.2138486  22.0872743  21.2453248  26.4118696
  22.5022615  22.1508068  25.2717964  30.0223411  13.0214594  35.5963242
  30.5405354  13.7575621  35.2709730  29.6678543  13.3278587  36.4310001
  21.6022348  17.8819275  23.7124647  20.9091593  17.9563630  23.0564683
  21.3574100  17.1179619  24.2346164  30.2736005   9.4414877  31.1164138
  30.5537758   8.7738066  31.7424565  31.0586612   9.6343972  30.6038802
  28.0769473  28.6173870  22.6789164  27.5043440  29.2364058  22.2259636
  28.6502267  29.1673232  23.2129086  32.1659243  14.9488094  35.0495114
  31.5709175  15.2293107  34.3541603  31.8808939  15.4381995  35.8211855
  31.2966733  28.9011021  23.8097747  32.2297406  28.8356582  24.0130622
  31.2089946  29.7367287  23.3512279  33.9254750  28.2176891  20.7701694
  33.8468381  27.8836755  21.6637452  34.7464416  28.7098659  20.7693167
  28.4616272  19.9534683  20.0205217  29.4075376  19.8240891  20.0893635
  28.0830517  19.2149345  20.4974645  34.4338156  11.6190689  29.9832109
  34.2362977  11.3105777  30.8675441  35.0437862  12.3452328  30.1130039
  42.4409491  22.1454637  33.1184050  43.1712879  21.8839925  33.6791753
  41.8316436  21.4083359  33.1586118  26.6459189  17.8784660  19.9560102
  25.7390644  17.5817772  20.0322816  26.9235170  17.5814478  19.0894388
  17.5637129  19.1991023  30.4059149  17.2439914  18.3456331  30.1133523
  17.0170557  19.4139601  31.1617116  21.3417037  21.9153464  34.1228655
  21.5603047  22.8470572  34.1416689  21.7542811  21.5561438  34.9083459
  28.2621255  12.4221549  26.1104343  27.4521983  12.0768634  26.4859590
  28.9505672  12.1129093  26.6991955  30.1911803  11.4999596  27.7328640
  30.7442841  11.9195050  28.3918663  30.4281889  10.5735344  27.7751596
  26.2144902  17.4886670  43.5131404  26.1141629  18.4381027  43.4443495
  25.9966444  17.1604909  42.6407474  25.4157973  14.7371595  20.0972081
  26.2777137  15.0626493  20.3567899  25.6008318  13.9503091  19.5845147
  17.4325389  22.8193935  32.3752270  16.7388861  22.4047887  31.8622225
  18.1798380  22.8614471  31.7785689  33.5690610  13.6100121  27.2407304
  32.9889279  14.2684925  26.8585357  33.3026543  12.7877466  26.8294722
  32.0194176  13.0105179  29.4428625  32.5193955  13.1221714  28.6342944
  32.6629784  12.7066232  30.0829433  19.3462132  22.7512188  30.2518285
  19.3232820  22.8499876  29.3000168  19.6562768  23.5977339  30.5735451
  22.0049510  24.8088343  34.3664899  22.9592763  24.7772286  34.2994831
  21.8062033  24.3478967  35.1815125  22.5948892  23.3789459  36.9335697
  23.4141781  23.8733538  36.9570534  22.8685699  22.4621428  36.9053265
  32.3515488  15.7700212  26.2963653  31.4641343  16.0549862  26.0783847
  32.7669477  15.6093975  25.4490930  20.3599738  30.3507963  31.3835097
  20.2254206  29.5908364  30.8173095  19.9431801  31.0748863  30.9163886
  31.4958701  25.5344886  20.3911673  32.1994552  25.7394889  21.0069328
  30.7721350  26.1021648  20.6560756  32.3256512  21.2854748  26.5113943
  32.2691713  21.7423299  25.6721575  32.8784854  20.5245432  26.3336786
  36.1361318  17.0744479  27.3364062  35.8798252  16.6741115  28.1672270
  35.5114186  17.7888273  27.2114201  40.4473655  19.8140553  29.8435354
  39.8873213  19.8833742  30.6166916  39.8417159  19.6381537  29.1234850
  23.5168864  31.2477280  31.5953540  23.4001248  32.1922712  31.4932230
  22.6961311  30.9450841  31.9839339  33.4045399  25.9727416  22.4410133
  34.2391003  25.5408614  22.2587607  33.2429742  25.8009429  23.3687027
  33.0591291  22.4759529  23.8066472  33.0040095  22.3103800  22.8654916
  32.4337346  23.1835562  23.9628662  17.8483806  17.7127593  37.6327894
  18.4942670  17.2026547  38.1215119  17.6400957  18.4496275  38.2071319
  26.3687416  11.9767638  23.3851790  26.3566086  12.9209478  23.5420061
  27.2610838  11.7937783  23.0911252  30.1839536   8.5710415  27.6397727
  29.4171932   8.0168901  27.7854410  30.5950241   8.6432283  28.5011879
  22.1881297  14.8595210  41.7302908  23.0512759  14.5032015  41.9406233
  21.6146708  14.5209105  42.4178313  34.7006196  38.2959971  28.4623725
  34.1371061  38.2049908  27.6940013  34.5858591  37.4759876  28.9426218
  32.2470628  39.7911163  31.3007946  33.0391920  39.4501987  30.8854245
  32.4867278  39.9006138  32.2210099  40.2805755  41.9630939  23.7738190
  39.6293734  42.5485019  23.3872204  41.0750117  42.4937134  23.8333227
  34.2061382  39.0520076  24.1725324  34.9792258  38.5049063  24.0338200
  34.5586781  39.9164325  24.3839786  36.5427660  35.2112742  21.8043774
  36.7953180  34.6894263  21.0427237  35.6052219  35.0478888  21.9070458
  41.7581020  39.6521371  24.3107174  41.1226853  39.7255997  25.0228079
  41.4278426  40.2414970  23.6326254  36.2623948  37.1140848  24.0068149
  36.1460206  36.4385751  24.6749233  36.3726208  36.6273222  23.1900302
  38.6055489  36.5750995  27.7114838  38.2413696  36.0481616  28.4227760
  39.4622605  36.1849464  27.5381324  38.2460976  31.6040895  22.7076187
  38.4135379  32.4721131  23.0746658  38.0558145  31.7668177  21.7837476
  34.4548791  36.5171671  30.4078722  33.5299287  36.3847885  30.6156413
  34.7033204  37.2965890  30.9048664  38.2250197  34.0598552  23.6922854
  38.1049822  34.5055603  24.5308334  37.5302785  34.4083870  23.1336392
  35.9857089  46.8302194  27.3412985  35.9081119  47.7810019  27.4201466
  35.3818733  46.4848067  27.9987911  38.0832807  39.2520252  29.1766854
  38.5471153  39.5307955  28.3871477  37.8189606  38.3503697  28.9939945
  37.0201694  35.3743405  25.9856420  37.7225737  35.8264448  26.4530346
  36.6882322  34.7327223  26.6136313  52.8696830  37.3170945  30.3863805
  52.1160538  36.7478343  30.2307810  53.0044371  37.2833609  31.3334440
  38.2595458  42.1884347  26.0618525  38.1241133  43.0335883  26.4903373
  38.8005271  42.3903625  25.2984459  33.5219740  42.8225541  28.7169203
  33.6986369  43.7443506  28.5290187  34.3176574  42.5083961  29.1463583
  39.8070939  39.7340836  26.5742588  39.2792301  38.9993595  26.2615826
  39.3058442  40.5115512  26.3282557  34.8659254  32.4264963  22.9545085
  34.0296566  32.7639649  23.2754360  34.7264024  32.2913943  22.0172222
  37.9523540  37.5521046  19.5777561  37.0450601  37.3210299  19.7768710
  38.4494572  36.7558665  19.7651543  40.8591619  46.2618553  22.4974248
  40.1853317  46.5650250  23.1059205  41.2457440  47.0647633  22.1479705
  39.1311773  37.6533641  24.1001552  38.2222992  37.3692673  24.1974021
  39.1606857  38.0732719  23.2404858  42.8063980  43.1016727  28.8042537
  43.0986954  43.6621784  28.0854903  43.3162600  43.3945288  29.5595696
  38.8287861  39.1942384  21.4389630  38.3907291  38.4778243  20.9795268
  39.5698302  39.4218499  20.8774722  35.6189027  33.8839321  27.9601726
  34.8056893  34.1833492  28.3666918  36.1148021  33.4895010  28.6776208
  37.7697605  43.8797078  29.8935990  37.7273784  44.1057924  28.9644523
  38.6860304  43.6460453  30.0421792  35.8863406  40.7560107  29.6897953
  36.6804004  40.2610427  29.4880528  35.1755098  40.2277970  29.3265659
  32.1131718  31.4258002  28.3535948  32.3738536  32.3403335  28.2445108
  32.9348891  30.9582444  28.5032560  39.0582834  46.4298225  24.7121327
  39.2334589  45.9586269  25.5266950  38.3715622  47.0563992  24.9402588
  42.9499088  38.0526766  21.0321688  42.3328259  37.3273594  20.9354740
  42.4815577  38.8136126  20.6888762  33.6243919  49.5787588  31.4861187
  33.8640517  50.2106112  32.1640206  32.7813115  49.2275628  31.7726546
  34.7397634  32.2712190  20.1542992  33.8627101  32.1500991  19.7905239
  35.2155387  31.4798269  19.9021881  38.1371781  45.3866711  33.8902691
  38.0641952  46.1921682  34.4021996  37.6949174  45.5858676  33.0650712
  37.9261560  44.6238481  27.4005513  37.1429082  45.1660161  27.4943737
  38.6254306  45.1412460  27.7999754  40.4090838  45.6252289  28.7947141
  40.5913232  44.8073945  29.2574893  41.2323824  45.8419981  28.3572031
  40.7433003  44.5520474  26.0562190  41.2720770  44.0412928  25.4432352
  41.0061223  44.2363004  26.9207723  34.0988751  45.6035591  28.8159966
  33.4299126  46.0881718  28.3324006  33.9601621  45.8504811  29.7303344
  38.2394020  47.6379334  35.4142624  38.7912328  47.8010956  36.1791709
  38.5800213  48.2283772  34.7422649  41.3762407  45.5861310  32.4006306
  41.2513546  44.7851049  31.8917252  42.0341498  46.0807503  31.9120276
  34.3105993  31.8341113  26.0870701  34.6502065  32.3627034  25.3649309
  34.7578113  32.1721519  26.8629267  36.2974140  30.3315735  24.2863993
  37.0182503  30.7096987  23.7827710  35.6739444  31.0504611  24.3898971
  43.8373187  44.5237272  26.6717173  44.0110064  43.9583695  25.9191025
  44.3302078  45.3238167  26.4896663  44.8248359  43.8404036  23.7714071
  45.5199264  44.4610729  23.9901386  45.1671509  42.9899388  24.0466449
  38.4080443  47.3575725  29.6596655  37.9685433  46.8652104  30.3529512
  39.1588560  46.8148693  29.4188730  30.8872782  43.5487266  29.6621283
  31.7130802  43.2491038  29.2819926  30.5366834  42.7794889  30.1111072
  35.4167822  41.4517658  25.2077417  35.5655943  42.1353122  24.5544090
  36.2234266  41.4322748  25.7226873  38.9163228  43.9465788  22.6789164
  38.3437195  44.5655975  22.2259636  39.4896021  44.4965150  23.2129086
  42.1360487  44.2302938  23.8097747  43.0691161  44.1648500  24.0130622
  42.0483700  45.0659205  23.3512279  44.7648504  43.5468809  20.7701694
  44.6862136  43.2128672  21.6637452  45.5858171  44.0390577  20.7693167
  39.3010026  35.2826601  20.0205217  40.2469131  35.1532809  20.0893635
  38.9224271  34.5441263  20.4974645  37.4852943  33.2076577  19.9560102
  36.5784399  32.9109690  20.0322816  37.7628924  32.9106395  19.0894388
  36.2551728  30.0663513  20.0972081  37.1170892  30.3918411  20.3567899
  36.4402072  29.2795008  19.5845147  30.1855886  38.0804106  30.2518285
  30.1626574  38.1791793  29.3000168  30.4956523  38.9269257  30.5735451
  31.1993493  45.6799881  31.3835097  31.0647961  44.9200281  30.8173095
  30.7825555  46.4040780  30.9163886  42.3352456  40.8636804  20.3911673
  43.0388306  41.0686807  21.0069328  41.6115105  41.4313566  20.6560756
  34.3562619  46.5769198  31.5953540  34.2395003  47.5214630  31.4932230
  33.5355065  46.2742759  31.9839339  44.2439153  41.3019333  22.4410133
  45.0784757  40.8700532  22.2587607  44.0823496  41.1301347  23.3687027
  43.8985046  37.8051447  23.8066472  43.8433849  37.6395718  22.8654916
  43.2731101  38.5127479  23.9628662  35.3817133  47.2297459  34.8109468
  36.2844380  47.2621070  35.1275963  35.1554503  46.2997910  34.8255804
  37.1370735  45.9828446  31.4719547  36.1866366  45.9830308  31.3583919
  37.4403221  45.2361181  30.9555582  47.3821414  50.5404660  21.8043774
  47.6346935  50.0186181  21.0427237  46.4445973  50.3770805  21.9070458
  49.0854731  46.9332813  22.7076187  49.2529133  47.8013049  23.0746658
  48.8951900  47.0960094  21.7837476  41.6020782  48.9618875  31.2873553
  40.8119836  49.2176403  30.8113664  42.0932029  49.7767213  31.3925594
  43.5535527  49.3263454  28.2457030  42.7566691  49.4382148  28.7640525
  43.3261120  49.6650106  27.3797920  39.8858485  49.2149365  33.7188544
  40.1366523  50.0996375  33.9846120  40.4218033  49.0353967  32.9463636
  45.7053009  47.7556881  22.9545085  44.8690321  48.0931567  23.2754360
  45.5657778  47.6205860  22.0172222  40.5393698  50.7031072  28.0816754
  40.3418098  50.1100433  27.3567820  39.9840362  50.3983283  28.7992693
  43.0339924  50.2295106  25.7657706  42.1037512  50.1679562  25.9827668
  43.1297396  49.7071059  24.9694347  42.9525473  46.7549919  28.3535948
  43.2132290  47.6695252  28.2445108  43.7742645  46.2874362  28.5032560
  45.5791389  47.6004108  20.1542992  44.7020855  47.4792909  19.7905239
  46.0549142  46.8090186  19.9021881  37.0993529  52.3881268  30.2484499
  37.7864569  52.0742998  29.6605514  36.9441658  53.2922632  29.9751751
  36.6761505  50.4681861  32.5201966  36.7145605  49.9345452  33.3139084
  36.1701798  49.9417067  31.9012943  40.3070083  49.1945963  25.5955898
  40.6023524  48.2856642  25.5422951  39.4058118  49.1733703  25.2736900
  42.0357924  46.8760061  25.7195223  41.7070630  45.9957440  25.5370329
  42.3897295  46.8207730  26.6071612  45.1499747  47.1633031  26.0870701
  45.4895820  47.6918952  25.3649309  45.5971868  47.5013437  26.8629267
  47.1367895  45.6607652  24.2863993  47.8576257  46.0388905  23.7827710
  46.5133199  46.3796529  24.3898971  40.4943901  51.8643859  34.7380731
  39.9497369  52.6403667  34.8701006  41.3723251  52.2114663  34.5799853
  47.2831518  45.1955443  27.1161530  47.4047429  44.2672089  27.3152417
  46.9933560  45.2094129  26.2039845  43.2809857  48.5403111  23.7124647
  42.5879102  48.6147466  23.0564683  43.0361609  47.7763454  24.2346164
  50.1403781  50.6118519  20.0205217  51.0862885  50.4824727  20.0893635
  49.7618026  49.8733180  20.4974645  48.3246698  48.5368495  19.9560102
  47.4178153  48.2401608  20.0322816  48.6022679  48.2398313  19.0894388
  39.2424638  49.8574858  30.4059149  38.9227423  49.0040167  30.1133523
  38.6958066  50.0723437  31.1617116  47.0945482  45.3955430  20.0972081
  47.9564646  45.7210329  20.3567899  47.2795827  44.6086926  19.5845147
  39.1112898  53.4777770  32.3752270  38.4176370  53.0631723  31.8622225
  39.8585889  53.5198306  31.7785689  41.0249641  53.4096024  30.2518285
  41.0020329  53.5083711  29.3000168  41.3350277  54.2561174  30.5735451
  48.0474925  42.6351473  23.3851790  48.0353595  43.5793313  23.5420061
  48.9398347  42.4521619  23.0911252  63.7117183  67.1480902  32.5365309
  64.3495593  67.0287649  31.8328649  63.5938026  68.0961746  32.5953262
  56.3793705  68.9543807  28.4623725  55.8158570  68.8633743  27.6940013
  56.2646100  68.1343711  28.9426218  53.9258137  70.4494998  31.3007946
  54.7179429  70.1085823  30.8854245  54.1654787  70.5589973  32.2210099
  61.9593264  72.6214774  23.7738190  61.3081243  73.2068855  23.3872204
  62.7537626  73.1520969  23.8333227  55.8848891  69.7103911  24.1725324
  56.6579767  69.1632898  24.0338200  56.2374290  70.5748161  24.3839786
  63.4368529  70.3105206  24.3107174  62.8014362  70.3839833  25.0228079
  63.1065935  70.8998805  23.6326254  68.6666879  64.8107589  30.5151496
  69.3992050  64.2406806  30.7489325  67.9106234  64.4229190  30.9558002
  66.1892299  58.5229163  34.9746105  65.8575624  59.3924574  34.7507320
  65.5937912  58.2065447  35.6540135  66.0820962  63.2424249  32.0539455
  65.1737840  63.1739658  31.7598216  66.0308558  63.7196194  32.8821280
  57.6644598  77.4886030  27.3412985  57.5868628  78.4393855  27.4201466
  57.0606242  77.1431902  27.9987911  67.9482609  61.4440688  33.8317329
  67.3056989  61.7373221  33.1857123  67.4437537  61.3293608  34.6370525
  65.6022772  65.1903861  24.5203188  66.5140628  65.4231248  24.3450885
  65.0932419  65.7740905  23.9578266  64.2092355  70.1729679  31.9116769
  63.5801217  70.3375394  31.2092837  63.8218017  70.5871289  32.6827733
  68.0881586  71.1084117  29.2661133  67.4032625  71.4883019  28.7158166
  68.1725436  71.7179444  29.9993081  63.3894055  62.2105464  37.1879211
  63.1454987  62.9647524  36.6513487  63.6653986  62.5890812  38.0226458
  59.7620316  69.9104087  29.1766854  60.2258662  70.1891790  28.3871477
  59.4977115  69.0087532  28.9939945  66.4578346  71.6316032  34.0378834
  67.2795790  71.2296219  33.7561516  66.4540749  71.5284266  34.9894950
  74.5484339  67.9754780  30.3863805  73.7948047  67.4062178  30.2307810
  74.6831880  67.9417445  31.3334440  59.9382967  72.8468182  26.0618525
  59.8028642  73.6919718  26.4903373  60.4792780  73.0487460  25.2984459
  53.3912365  70.3643621  26.6346450  53.9036885  71.1586871  26.7852014
  54.0435077  69.6669911  26.5680051  55.2007249  73.4809377  28.7169203
  55.3773878  74.4027341  28.5290187  55.9964083  73.1667796  29.1463583
  61.5651444  73.4691749  40.1918867  61.1215298  72.6828128  39.8739771
  62.2268657  73.6570899  39.5262758  56.3238565  74.9987551  34.7179545
  56.8745990  74.8704614  33.9456539  55.4850041  75.2982440  34.3674438
  63.6632682  73.7494549  38.2200268  63.6451157  74.5703430  37.7280537
  64.5852602  73.6248624  38.4450409  63.2875431  56.3698744  34.5917418
  62.9439700  57.2600386  34.5156529  63.6554393  56.1800402  33.7287003
  51.3561281  68.6932275  27.4106020  52.1936503  69.1029283  27.1939728
  51.5339549  67.7531717  27.3806214  68.2259988  69.1139710  25.0343027
  67.4489430  68.7750870  24.5898189  68.9051469  69.1192333  24.3597992
  66.4651294  68.5873691  31.6909635  65.8074969  69.2772953  31.7789763
  67.2691694  68.9770123  32.0343621  65.2756753  66.9418064  29.7413577
  65.7888635  67.5748056  30.2435286  65.9257977  66.3419260  29.3756937
  59.6311049  68.2104881  19.5777561  58.7238110  67.9794135  19.7768710
  60.1282081  67.4142500  19.7651543  62.5379127  76.9202388  22.4974248
  61.8640826  77.2234085  23.1059205  62.9244949  77.7231469  22.1479705
  66.0418549  71.9224066  27.8692719  65.5880877  71.0814975  27.9257910
  65.4112516  72.5585464  28.2067499  64.9851469  62.8516052  29.0993387
  64.2474226  62.3393438  29.4303629  65.2378243  62.4116433  28.2876663
  64.4851489  73.7600562  28.8042537  64.7774463  74.3205619  28.0854903
  64.9950109  74.0529123  29.5595696  60.5075370  69.8526220  21.4389630
  60.0694800  69.1362079  20.9795268  61.2485811  70.0802334  20.8774722
  59.4485114  74.5380913  29.8935990  59.4061293  74.7641760  28.9644523
  60.3647813  74.3044288  30.0421792  62.8950748  65.0064981  36.7916620
  63.2500135  65.2336454  37.6511085  63.5422879  65.3383358  36.1693875
  68.6248485  68.1283417  27.4965949  68.4866383  68.3185013  26.5687138
  68.2684703  68.8902800  27.9534000  68.6517864  70.1959944  32.5077220
  69.0854371  70.1035233  33.3560274  69.3649445  70.1717444  31.8697236
  57.5650915  71.4143942  29.6897953  58.3591513  70.9194262  29.4880528
  56.8542607  70.8861805  29.3265659  62.3845759  73.7962038  34.0410321
  62.4382781  74.3652974  34.8088037  61.5160541  73.9663923  33.6764358
  69.5133414  70.2383644  35.0410106  69.7069304  71.1429455  35.2869381
  69.4134032  69.7791063  35.8748691  60.1422191  71.9872964  33.3695790
  60.0033276  71.6191749  34.2421728  59.3536787  72.5020604  33.1979748
  60.7370343  77.0882061  24.7121327  60.9122098  76.6170104  25.5266950
  60.0503131  77.7147827  24.9402588  61.6927406  71.3654567  30.7584628
  61.3577238  71.3255337  31.6542278  61.1931351  70.6999283  30.2855038
  64.6286597  68.7110601  21.0321688  64.0115768  67.9857429  20.9354740
  64.1603086  69.4719962  20.6888762  66.2840729  73.4209510  38.6927468
  66.2253275  72.7368730  38.0258051  66.6860248  74.1628500  38.2408094
  55.3031428  80.2371424  31.4861187  55.5428026  80.8689948  32.1640206
  54.4600624  79.8859464  31.7726546  56.4185143  62.9296026  20.1542992
  55.5414610  62.8084826  19.7905239  56.8942896  62.1382104  19.9021881
  59.8159290  76.0450546  33.8902691  59.7429461  76.8505517  34.4021996
  59.3736683  76.2442512  33.0650712  59.6049069  75.2822316  27.4005513
  58.8216591  75.8243996  27.4943737  60.3041815  75.7996296  27.7999754
  70.7675477  66.7957311  31.6858009  70.7565353  67.6782026  31.3151943
  69.8992856  66.4428862  31.4912546  62.2757973  75.9437380  36.0460850
  62.9885946  76.5784845  35.9736751  61.7848002  76.0401246  35.2300851
  63.9975500  69.8488633  27.6178141  63.0631779  69.9690095  27.4482846
  64.1752169  68.9461099  27.3538151  67.3848052  65.6905952  28.1528175
  67.8508504  66.5233944  28.0788478  67.8355552  65.2250934  28.8573434
  65.4524283  72.0349773  25.1514327  65.7284127  71.9206368  26.0608202
  64.5828781  71.6367258  25.1126501  65.3564714  58.0586539  32.1919077
  64.4427794  58.2890766  32.3601284  65.7857816  58.1424983  33.0433109
  65.1271173  66.2476431  34.6918971  64.4742623  66.4952338  34.0371424
  65.5051553  65.4340569  34.3581448  62.0878347  76.2836124  28.7947141
  62.2700741  75.4657780  29.2574893  62.9111333  76.5003816  28.3572031
  62.4220512  75.2104309  26.0562190  62.9508279  74.6996764  25.4432352
  62.6848732  74.8946839  26.9207723  52.9237605  73.2268178  33.7997523
  53.5091042  72.4811866  33.9325427  52.7262443  73.5372135  34.6834187
  55.7776260  76.2619426  28.8159966  55.1086635  76.7465554  28.3324006
  55.6389130  76.5088646  29.7303344  59.9181529  78.2963169  35.4142624
  60.4699837  78.4594791  36.1791709  60.2587722  78.8867607  34.7422649
  63.0549916  76.2445145  32.4006306  62.9301055  75.4434885  31.8917252
  63.7129007  76.7391338  31.9120276  65.1184824  74.0454165  34.0285856
  64.1715160  73.9259516  33.9564183  65.4667597  73.1576663  34.1112118
  62.1231258  73.8406881  30.2290208  61.9756220  72.9123589  30.4097778
  62.9484751  73.8626972  29.7447284  65.7265380  74.6635440  31.3155081
  66.6511927  74.4578301  31.1779532  65.5580683  74.4151841  32.2244423
  65.5160696  75.1821107  26.6717173  65.6897573  74.6167530  25.9191025
  66.0089587  75.9822002  26.4896663  71.3700087  67.9457530  28.2907472
  71.8131233  67.1964856  27.8926596  70.4926597  67.9367667  27.9081204
  66.5035868  74.4987872  23.7714071  67.1986773  75.1194565  23.9901386
  66.8459018  73.6483223  24.0466449  68.4027291  71.9487577  25.3001402
  68.9278615  72.2874850  24.5750722  68.3149644  71.0134593  25.1164536
  60.0647340  75.8621651  37.4291278  60.3734466  75.6170798  38.3013978
  60.8622822  76.0668289  36.9410148  60.0867952  78.0159561  29.6596655
  59.6472942  77.5235939  30.3529512  60.8376069  77.4732528  29.4188730
  52.5660291  74.2071101  29.6621283  53.3918311  73.9074873  29.2819926
  52.2154343  73.4378724  30.1111072  57.5341824  73.5597570  31.7318956
  56.9121834  72.8968275  31.4321184  58.2046691  73.5858702  31.0492604
  50.7668896  72.1257428  30.6210216  49.9300804  71.6979602  30.4394218
  50.7392542  72.3189871  31.5581008  68.0921197  72.5820481  40.6052600
  67.3016741  72.5644620  40.0657099  67.8554552  73.1208775  41.3601636
  68.2119072  69.4312947  37.9185328  68.2617077  69.2662955  38.8600851
  68.1032996  68.5640206  37.5283209  57.0955331  72.1101493  25.2077417
  57.2443452  72.7936957  24.5544090  57.9021775  72.0906583  25.7226873
  65.5022835  65.4143875  39.2344635  66.4032698  65.2750340  38.9428633
  65.5770809  65.5798330  40.1742812  69.7137269  71.8509889  38.1627350
  69.4222078  72.2139869  38.9990811  69.1009401  71.1376897  37.9840682
  70.9132952  69.4162769  30.6829920  71.7479843  69.8552573  30.8467480
  71.0492080  68.9401422  29.8638166  67.9624458  66.9742504  36.6307408
  68.4378579  67.1670150  35.8226259  67.0390023  67.0301689  36.3850791
  54.8507964  68.1366671  26.2138486  54.6054006  67.2329001  26.4118696
  55.0203879  68.1383821  25.2717964  62.5404674  59.0090347  35.5963242
  63.0586618  59.7451374  35.2709730  62.1859807  59.3154340  36.4310001
  54.1203612  63.8695028  23.7124647  53.4272857  63.9439383  23.0564683
  53.8755364  63.1055372  24.2346164  60.5950737  74.6049624  22.6789164
  60.0224704  75.2239811  22.2259636  61.1683530  75.1548985  23.2129086
  66.6626127  63.8508264  34.8635713  67.6143549  63.9506361  34.8847937
  66.4929577  63.0586532  35.3733798  64.6840506  60.9363847  35.0495114
  64.0890438  61.2168860  34.3541603  64.3990203  61.4257748  35.8211855
  63.8147996  74.8886774  23.8097747  64.7478670  74.8232335  24.0130622
  63.7271209  75.7243040  23.3512279  66.4436013  74.2052644  20.7701694
  66.3649645  73.8712508  21.6637452  67.2645680  74.6974412  20.7693167
  69.1414204  67.0714383  33.9778013  69.1090524  66.1330384  34.1637697
  69.7514828  67.1498420  33.2443838  60.9797535  65.9410436  20.0205217
  61.9256640  65.8116644  20.0893635  60.6011780  65.2025098  20.4974645
  69.2908693  63.8625427  34.0236296  68.7747741  63.0783883  33.8366225
  70.1748641  63.5344143  34.1882816  66.9519420  57.6066442  29.9832109
  66.7544241  57.2981530  30.8675441  67.5619125  58.3328081  30.1130039
  74.9590754  68.1330390  33.1184050  75.6894143  67.8715678  33.6791753
  74.3497700  67.3959112  33.1586118  73.0406051  66.2738253  33.7158501
  72.3139215  66.1394218  33.1074992  72.6253338  66.5815081  34.5215219
  59.1640452  63.8660413  19.9560102  58.2571908  63.5693525  20.0322816
  59.4416433  63.5690231  19.0894388  57.9339237  60.7247348  20.0972081
  58.7958401  61.0502246  20.3567899  58.1189581  59.9378844  19.5845147
  66.0871873  59.5975874  27.2407304  65.5070542  60.2560678  26.8585357
  65.8207806  58.7753219  26.8294722  64.5375440  58.9980932  29.4428625
  65.0375218  59.1097467  28.6342944  65.1811048  58.6941985  30.0829433
  51.8643395  68.7387941  30.2518285  51.8414083  68.8375629  29.3000168
  52.1744032  69.5853092  30.5735451  64.8696751  61.7575965  26.2963653
  63.9822606  62.0425615  26.0783847  65.2850741  61.5969728  25.4490930
  68.2211288  61.7822486  30.0117992  68.9971678  62.2718938  30.2842609
  67.4959422  62.2080540  30.4689861  70.6583846  62.4950105  31.0691933
  71.2528337  62.2545841  30.3585241  70.7310430  61.7757235  31.6965469
  52.8781002  76.3383716  31.3835097  52.7435470  75.5784117  30.8173095
  52.4613064  77.0624616  30.9163886  64.0139965  71.5220639  20.3911673
  64.7175815  71.7270642  21.0069328  63.2902614  72.0897401  20.6560756
  64.8437775  67.2730501  26.5113943  64.7872977  67.7299052  25.6721575
  65.3966118  66.5121185  26.3336786  68.6542581  63.0620233  27.3364062
  68.3979515  62.6616868  28.1672270  68.0295449  63.7764026  27.2114201
  72.9654919  65.8016306  29.8435354  72.4054477  65.8709495  30.6166916
  72.3598422  65.6257290  29.1234850  56.0350128  77.2353033  31.5953540
  55.9182512  78.1798465  31.4932230  55.2142574  76.9326594  31.9839339
  65.9226662  71.9603169  22.4410133  66.7572266  71.5284367  22.2587607
  65.7611005  71.7885182  23.3687027  65.5772554  68.4635282  23.8066472
  65.5221358  68.2979553  22.8654916  64.9518610  69.1711315  23.9628662
  57.0604642  77.8881295  34.8109468  57.9631889  77.9204905  35.1275963
  56.8342012  76.9581746  34.8255804  58.8158244  76.6412281  31.4719547
  57.8653875  76.6414143  31.3583919  59.1190730  75.8945016  30.9555582
  74.5510937  82.4772820  32.5365309  75.1889347  82.3579567  31.8328649
  74.4331780  83.4253664  32.5953262  71.3600644  82.4300248  32.4726834
  71.0219155  82.3141313  31.5847369  72.2290412  82.0291413  32.4527840
  67.2187459  84.2835724  28.4623725  66.6552325  84.1925661  27.6940013
  67.1039854  83.4635629  28.9426218  71.8420427  83.5835100  38.4313040
  71.8309067  83.1887898  37.5593543  72.0041066  82.8501172  39.0246811
  64.7651891  85.7786916  31.3007946  65.5573183  85.4377740  30.8854245
  65.0048541  85.8881891  32.2210099  66.7242645  85.0395829  24.1725324
  67.4973521  84.4924816  24.0338200  67.0768044  85.9040078  24.3839786
  68.5627688  86.3672211  37.3792224  68.2717554  87.2717842  37.2638890
  69.1984672  86.4088739  38.0936293  69.4883895  83.7449060  33.9693583
  70.0847467  83.5205082  33.2550546  69.5458866  83.0033805  34.5719031
  74.1052206  80.2024274  29.6118517  74.8915295  79.7843697  29.2608934
  74.3690910  81.1070366  29.7800166  79.5060633  80.1399507  30.5151496
  80.2385805  79.5698724  30.7489325  78.7499989  79.7521107  30.9558002
  68.7805212  83.1016601  24.0068149  68.6641470  82.4261505  24.6749233
  68.8907472  82.6148975  23.1900302  71.1236753  82.5626748  27.7114838
  70.7594960  82.0357369  28.4227760  71.9803869  82.1725217  27.5381324
  77.0286053  73.8521081  34.9746105  76.6969378  74.7216492  34.7507320
  76.4331667  73.5357365  35.6540135  70.7642240  77.5916648  22.7076187
  70.9316642  78.4596884  23.0746658  70.5739409  77.7543930  21.7837476
  66.9730054  82.5047424  30.4078722  66.0480551  82.3723638  30.6156413
  67.2214468  83.2841643  30.9048664  76.9214717  78.5716167  32.0539455
  76.0131594  78.5031575  31.7598216  76.8702312  79.0488112  32.8821280
  70.7431461  80.0474305  23.6922854  70.6231086  80.4931356  24.5308334
  70.0484049  80.3959623  23.1336392  64.3338865  82.1480697  31.2422511
  64.4631247  82.4015176  32.1561923  63.6536317  82.7408405  30.9227166
  70.9955582  79.9905813  39.9974352  70.2188917  80.5499733  39.9877217
  71.6346146  80.4762596  40.5189222  78.7876363  76.7732605  33.8317329
  78.1450743  77.0665139  33.1857123  78.2831292  76.6585526  34.6370525
  69.2501955  82.7991266  39.5592319  69.9916639  83.3376310  39.2827143
  68.5438940  83.4257555  39.7163871  74.7257294  84.9420406  38.1564480
  75.1340650  84.5002817  37.4119113  74.0034556  84.3673034  38.4098673
  71.0788364  79.8793013  35.5298037  71.9249560  80.3032427  35.6732686
  71.0187002  79.2226638  36.2236600  74.2287810  77.5397382  37.1879211
  73.9848742  78.2939442  36.6513487  74.5047740  77.9182729  38.0226458
  73.7852502  76.6953815  32.7693049  72.9236981  76.9935068  33.0609786
  73.8114936  76.9124213  31.8374081  70.6014071  85.2396005  29.1766854
  71.0652416  85.5183708  28.3871477  70.3370869  84.3379450  28.9939945
  67.4938152  84.7867487  32.1146618  68.0639509  85.2154755  31.4764102
  68.0846264  84.5050071  32.8130803  69.5382957  81.3619158  25.9856420
  70.2407000  81.8140201  26.4530346  69.2063585  80.7202976  26.6136313
  67.9863319  79.9530914  40.3607629  67.3561979  80.6347195  40.5943026
  67.8799406  79.8413996  39.4160767  63.2808291  79.6202710  31.2873553
  62.4907345  79.8760239  30.8113664  63.7719538  80.4351048  31.3925594
  65.2323036  79.9847289  28.2457030  64.4354200  80.0965984  28.7640525
  65.0048629  80.3233942  27.3797920  71.0628704  86.5091993  36.1939544
  71.1273136  86.9712400  37.0297716  70.3539628  85.8789358  36.3221854
  61.5645994  79.8733201  33.7188544  61.8154032  80.7580211  33.9846120
  62.1005542  79.6937802  32.9463636  67.2644061  74.2551680  42.7232880
  66.8711007  73.7017879  43.3980524  68.0810202  74.5662258  43.1139397
  64.2306119  85.6935538  26.6346450  64.7430640  86.4878788  26.7852014
  64.8828832  84.9961829  26.5680051  66.0401004  88.8101294  28.7169203
  66.2167632  89.7319259  28.5290187  66.8357837  88.4959714  29.1463583
  70.1812022  75.6709559  40.3153137  70.9221736  76.2716712  40.2357599
  70.4129945  74.9287197  39.7571179  65.3253360  80.8565926  38.5931366
  65.2106875  79.9551184  38.8938465  64.4697878  81.1029623  38.2416183
  70.9599490  86.5930596  39.0623776  71.4927827  85.8318884  38.8323084
  70.4313571  86.3004248  39.8047931  74.1269185  71.6990662  34.5917418
  73.7833455  72.5892304  34.5156529  74.4948148  71.5092320  33.7287003
  62.1955036  84.0224192  27.4106020  63.0330258  84.4321201  27.1939728
  62.3733303  83.0823635  27.3806214  71.6766579  76.5348974  28.1575092
  70.8208175  76.1455824  27.9780730  72.0893531  76.6140935  27.2974877
  73.2065726  74.0695317  32.5566651  72.7030521  74.0325452  31.7434457
  73.4996332  74.9788060  32.6163308  69.4508611  74.1534047  31.5632833
  70.3161608  73.9576856  31.2038723  69.5186120  73.9244399  32.4902190
  73.8805771  79.5626365  24.9249634  73.5755907  79.8772514  25.7759778
  74.8336213  79.6407785  24.9676967  72.3252203  85.7216589  26.5742588
  71.7973564  84.9869348  26.2615826  71.8239706  86.4991265  26.3282557
  67.0570931  76.3836255  28.9349200  67.6314682  76.1611436  28.2022393
  67.6441913  76.4524949  29.6877801  76.1150508  82.2709982  29.7413577
  76.6282389  82.9039974  30.2435286  76.7651732  81.6711177  29.3756937
  67.3840518  78.4140716  22.9545085  66.5477830  78.7515402  23.2754360
  67.2445287  78.2789696  22.0172222  69.3593598  73.2577504  27.6624269
  68.7058011  72.9426521  27.0380884  69.3174072  72.6353244  28.3884092
  72.5931339  79.7459437  31.9871917  71.6753900  79.9674384  31.8293605
  73.0091482  79.8205748  31.1283624  73.3766386  81.1450853  27.1174597
  74.1238205  81.6572250  26.8081719  73.6457976  80.8234906  27.9778991
  75.8245224  78.1807969  29.0993387  75.0867980  77.6685355  29.4303629
  76.0771997  77.7408351  28.2876663  75.9256851  70.9584221  29.6935156
  76.2315728  70.0981585  29.4061071  76.6509456  71.5501841  29.4934150
  62.2181207  81.3614908  28.0816754  62.0205607  80.7684269  27.3567820
  61.6627871  81.0567118  28.7992693  70.1977931  81.2538014  30.2011347
  70.2526540  80.3011851  30.1253824  69.3869133  81.4097453  30.6852645
  68.1370290  79.8715074  27.9601726  67.3238156  80.1709245  28.3666918
  68.6329285  79.4770763  28.6776208  73.7344502  80.3356899  36.7916620
  74.0893890  80.5628372  37.6511085  74.3816633  80.6675275  36.1693875
  67.6284365  77.4433430  33.5762961  68.2683745  77.3022189  32.8785924
  66.7961896  77.1567943  33.2001563  68.4044669  86.7435860  29.6897953
  69.1985268  86.2486180  29.4880528  67.6936362  86.2153723  29.3265659
  64.7127433  80.8878942  25.7657706  63.7825021  80.8263397  25.9827668
  64.8084905  80.3654894  24.9694347  64.6312982  77.4133755  28.3535948
  64.8919799  78.3279088  28.2445108  65.4530154  76.9458197  28.5032560
  66.1037907  78.8271512  35.5234772  66.7760960  78.6188874  34.8747421
  65.2767694  78.6293598  35.0840004  72.0063479  75.4533453  37.5400433
  71.3591394  76.1523402  37.4464909  72.7764494  75.8869597  37.9076681
  72.1827613  83.2914218  35.5997253  73.1119673  83.4425377  35.4266220
  71.7618643  83.3798238  34.7445899  70.9815945  87.3164882  33.3695790
  70.8427031  86.9483666  34.2421728  70.1930541  87.8312521  33.1979748
  66.5065404  82.1014115  36.2837209  66.3685202  81.3694354  36.8848748
  67.4170328  82.0123015  36.0021397  69.1347705  81.8134074  35.7720889
  69.8447323  81.1727266  35.7307507  69.0917013  82.0646969  36.6947070
  67.8476639  78.7999292  37.5916528  67.3113996  78.3490030  38.2438125
  67.2593347  78.9345201  36.8486993  67.2578898  78.2587943  20.1542992
  66.3808364  78.1376744  19.7905239  67.7336651  77.4674022  19.9021881
  58.7781038  83.0465103  30.2484499  59.4652078  82.7326833  29.6605514
  58.6229167  83.9506468  29.9751751  63.5815760  77.9355300  34.6769523
  63.4973949  77.3280969  33.9419933  62.7598467  78.4264318  34.6779019
  73.7539474  76.4208863  30.0439718  74.2508174  75.6678825  29.7240788
  72.9826456  76.4573180  29.4782927  70.3374443  78.5626246  29.7711403
  69.9672230  78.0097286  30.4592308  70.8333535  77.9584380  29.2186403
  78.2241806  81.0197870  28.1528175  78.6902258  81.8525861  28.0788478
  78.6749307  80.5542851  28.8573434  76.1958469  73.3878457  32.1919077
  75.2821549  73.6182683  32.3601284  76.6251570  73.4716901  33.0433109
  75.9664927  81.5768349  34.6918971  75.3136378  81.8244256  34.0371424
  76.3445307  80.7632487  34.3581448  72.0152500  82.3188160  41.1785008
  71.3393137  82.2182289  41.8487383  72.8380134  82.1627373  41.6421005
  63.7631359  88.5560096  33.7997523  64.3484796  87.8103784  33.9325427
  63.5656198  88.8664053  34.6834187  58.3549014  81.1265696  32.5201966
  58.3933114  80.5929287  33.3139084  57.8489307  80.6000902  31.9012943
  65.7339776  75.9730237  36.0164509  65.7981103  76.8345068  35.6041906
  65.6706897  75.3604239  35.2836867  65.2092049  78.0453369  39.6637543
  65.8364088  77.6630447  40.2775067  64.3519968  77.8267571  40.0293235
  61.9857592  79.8529799  25.5955898  62.2811033  78.9440477  25.5422951
  61.0845627  79.8317538  25.2736900  65.5151839  77.9285795  31.5783446
  64.7938424  78.5421763  31.4390920  66.3045094  78.4643560  31.5000092
  68.3178152  75.2640222  37.8524098  68.8412554  75.5102518  38.6150407
  68.0990486  76.0960256  37.4327235  63.7145433  77.5343896  25.7195223
  63.3858139  76.6541275  25.5370329  64.0684804  77.4791565  26.6071612
  66.8287256  77.8216866  26.0870701  67.1683329  78.3502787  25.3649309
  67.2759377  78.1597272  26.8629267  69.5230697  76.2053917  35.5373769
  69.1827518  75.4061730  35.9394448  68.8169704  76.5055628  34.9650602
  70.1747169  73.2903229  33.9901092  70.9973238  72.8163707  33.8679982
  70.4185233  74.0693713  34.4899778  68.8155404  76.3191488  24.2863993
  69.5363766  76.6972740  23.7827710  68.1920708  77.0380364  24.3898971
  72.9586526  77.0236637  25.2222326  73.1750141  77.9061274  24.9211154
  72.4780594  76.6322850  24.4927968  67.6985748  79.9822350  31.7993070
  67.5530329  80.2962653  32.6917352  67.2210951  80.6007250  31.2463969
  69.5582131  76.9724898  31.8473960  69.5443699  76.0765991  31.5106258
  70.2754559  76.9795562  32.4812246  71.4108261  77.4062238  33.8927087
  71.1526039  78.3279309  33.8911418  70.8793302  77.0092673  34.5827551
  62.1731410  82.5227694  34.7380731  61.6284878  83.2987502  34.8701006
  63.0510760  82.8698499  34.5799853  68.9619027  75.8539278  27.1161530
  69.0834938  74.9255924  27.3152417  68.6721069  75.8677964  26.2039845
  71.8310217  73.5394188  30.2528250  71.8531914  73.6033522  29.2980229
  72.2478276  72.6998697  30.4468756  62.9597432  81.6497590  37.6310888
  62.2179168  81.7980226  38.2175519  62.6390176  81.9105856  36.7677638
  63.4054046  89.5363019  29.6621283  64.2312065  89.2366791  29.2819926
  63.0548098  88.7670642  30.1111072  68.3735579  88.8889487  31.7318956
  67.7515588  88.2260192  31.4321184  69.0440446  88.9150619  31.0492604
  61.6062651  87.4549346  30.6210216  60.7694559  87.0271520  30.4394218
  61.5786296  87.6481789  31.5581008  68.4460106  77.3671275  41.3251463
  68.4948262  78.2433398  40.9429232  68.9882620  76.8248668  40.7523106
  76.3416589  80.7435793  39.2344635  77.2426452  80.6042258  38.9428633
  76.4164564  80.9090248  40.1742812  70.6759395  78.1202648  38.0797821
  69.8062704  78.4136214  37.8080410  70.9118875  78.7043093  38.8005085
  65.6901719  83.4658588  26.2138486  65.4447761  82.5620918  26.4118696
  65.8597633  83.4675739  25.2717964  73.3798428  74.3382265  35.5963242
  73.8980372  75.0743292  35.2709730  73.0253561  74.6446258  36.4310001
  64.9597366  79.1986946  23.7124647  64.2666611  79.2731301  23.0564683
  64.7149118  78.4347290  24.2346164  73.6311023  70.7582547  31.1164138
  73.9112776  70.0905736  31.7424565  74.4161630  70.9511643  30.6038802
  77.5019881  79.1800181  34.8635713  78.4537304  79.2798279  34.8847937
  77.3323331  78.3878450  35.3733798  75.5234260  76.2655764  35.0495114
  74.9284193  76.5460777  34.3541603  75.2383957  76.7549665  35.8211855
  80.1302447  79.1917344  34.0236296  79.6141496  78.4075801  33.8366225
  81.0142396  78.8636061  34.1882816  77.7913174  72.9358360  29.9832109
  77.5937995  72.6273448  30.8675441  78.4012880  73.6619999  30.1130039
  71.7029982  85.3220100  41.4805874  72.6232992  85.4998699  41.6745920
  71.6679565  84.3776145  41.3285573  60.9212147  80.5158694  30.4059149
  60.6014932  79.6624002  30.1133523  60.3745575  80.7307272  31.1617116
  64.6992055  83.2321135  34.1228655  64.9178065  84.1638243  34.1416689
  65.1117829  82.8729109  34.9083459  71.6196273  73.7389220  26.1104343
  70.8097001  73.3936305  26.4859590  72.3080689  73.4296764  26.6991955
  73.5486821  72.8167267  27.7328640  74.1017859  73.2362720  28.3918663
  73.7856907  71.8903015  27.7751596  69.5719920  78.8054340  43.5131404
  69.4716647  79.7548697  43.4443495  69.3541462  78.4772579  42.6407474
  68.7732991  76.0539266  20.0972081  69.6352155  76.3794164  20.3567899
  68.9583336  75.2670761  19.5845147  60.7900407  84.1361605  32.3752270
  60.0963879  83.7215558  31.8622225  61.5373398  84.1782142  31.7785689
  76.9265628  74.9267792  27.2407304  76.3464297  75.5852596  26.8585357
  76.6601561  74.1045137  26.8294722  75.3769194  74.3272850  29.4428625
  75.8768973  74.4389384  28.6342944  76.0204802  74.0233903  30.0829433
  69.4351190  82.2351479  42.3296466  68.9518272  83.0351839  42.5360355
  69.5212129  82.2459424  41.3763910  62.7037150  84.0679859  30.2518285
  62.6807838  84.1667546  29.3000168  63.0137786  84.9145010  30.5735451
  65.3624528  86.1256014  34.3664899  66.3167781  86.0939956  34.2994831
  65.1637051  85.6646638  35.1815125  65.9523910  84.6957130  36.9335697
  66.7716799  85.1901209  36.9570534  66.2260717  83.7789098  36.9053265
  75.7090506  77.0867882  26.2963653  74.8216361  77.3717533  26.0783847
  76.1244495  76.9261646  25.4490930  79.0605042  77.1114403  30.0117992
  79.8365432  77.6010856  30.2842609  78.3353176  77.5372458  30.4689861
  81.4977601  77.8242023  31.0691933  82.0922091  77.5837759  30.3585241
  81.5704184  77.1049153  31.6965469  63.7174756  91.6675634  31.3835097
  63.5829224  90.9076034  30.8173095  63.3006819  92.3916533  30.9163886
  75.6831530  82.6022418  26.5113943  75.6266731  83.0590970  25.6721575
  76.2359872  81.8413103  26.3336786  79.4936336  78.3912150  27.3364062
  79.2373270  77.9908786  28.1672270  78.8689204  79.1055944  27.2114201
  61.2058824  79.0295264  37.6327894  61.8517688  78.5194218  38.1215119
  60.9975975  79.7663946  38.2071319  69.7262434  73.2935309  23.3851790
  69.7141104  74.2377148  23.5420061  70.6185856  73.1105454  23.0911252
  73.5414554  69.8878085  27.6397727  72.7746950  69.3336572  27.7854410
  73.9525259  69.9599954  28.5011879  65.5456315  76.1762881  41.7302908
  66.4087777  75.8199686  41.9406233  64.9721726  75.8376776  42.4178313
  28.4845410  -0.7270449  25.1558346  28.4734051  -1.1217650  24.2838850
  28.6466049  -1.4604376  25.7492118  25.2052671   2.0566663  24.1037530
  24.9142537   2.9612294  23.9884197  25.8409655   2.0983191  24.8181600
  30.1642556   1.7428079  21.0987324  29.8643279   2.6453118  20.9903131
  29.8193616   1.4760262  21.9508477  27.6380566  -4.3199735  26.7219659
  26.8613900  -3.7605815  26.7122523  28.2771129  -3.8342953  27.2434529
  25.8926938  -1.5114282  26.2837626  26.6341622  -0.9729238  26.0072449
  25.1863924  -0.8847993  26.4409177  31.3682278   0.6314858  24.8809787
  31.7765634   0.1897269  24.1364419  30.6459539   0.0567486  25.1343980
  32.8251256  -0.2269554  22.5901783  33.0368151   0.4162206  21.9136164
  32.7781004  -1.0607238  22.1223713  33.9397084   2.6502401  20.7624141
  34.7614528   2.2482589  20.4806822  33.9359487   2.5470635  21.7140256
  27.7053687   2.1986445  22.9184851  27.7698120   2.6606852  23.7543023
  26.9964611   1.5683809  23.0467161  29.0470181   4.4878119  26.9164173
  28.6034035   3.7014497  26.5985078  29.7087395   4.6757269  26.2508064
  31.1451419   4.7680918  24.9445575  31.1269895   5.5889800  24.4525844
  32.0671339   4.6434994  25.1695716  27.6024474   2.2825048  25.7869083
  28.1352810   1.5213336  25.5568391  27.0738555   1.9898700  26.5293238
  36.1336602   1.2146313  19.2322527  36.5673109   1.1221602  20.0805581
  36.8468183   1.1903814  18.5942543  29.8664497   4.8148407  20.7655627
  29.9201519   5.3839344  21.5333343  28.9979278   4.9850292  20.4009665
  36.9952152   1.2570014  21.7655412  37.1888042   2.1615824  22.0114687
  36.8952770   0.7977433  22.5993997  32.0567260   1.4076757  27.3396293
  31.9052767   1.1787308  26.4226377  32.0471940   2.3647358  27.3527638
  33.7659467   4.4395879  25.4172775  33.7072013   3.7555099  24.7503358
  34.1678985   5.1814869  24.9653401  33.7676874   2.4035463  23.6486754
  32.8803653   2.0661385  23.7713153  34.3375425   1.6718494  23.8855520
  27.2978028   7.0636916  20.6147998  27.2248199   7.8691887  21.1267302
  26.8555421   7.2628881  19.7896019  29.7576711   6.9623750  22.7706156
  30.4704683   7.5971214  22.6982058  29.2666740   7.0587616  21.9546158
  24.8088625   4.7118193  23.5911727  25.5098084   5.3454676  23.7441121
  24.3383740   5.0532925  22.8307366  28.6577484  -1.9917388  27.9030315
  27.9818121  -2.0923259  28.5732690  29.4805118  -2.1478175  28.3666312
  27.4000267   9.3149539  22.1387931  27.9518575   9.4781160  22.9037016
  27.7406460   9.9053977  21.4667955  32.2511141   4.1410796  27.9936585
  32.7951045   4.7540755  27.4991540  31.6697986   4.6990375  28.5103598
  30.5368654   7.2631515  19.1251613  30.4119793   6.4621254  18.6162558
  31.1947745   7.7577708  18.6365583  32.6003562   5.0640535  20.7531163
  31.6533898   4.9445886  20.6809490  32.9486335   4.1763033  20.8357424
  33.2084117   5.6821810  18.0400388  34.1330665   5.4764671  17.9024839
  33.0399421   5.4338211  18.9489729  27.5466078   6.8808021  24.1536585
  27.8553204   6.6357167  25.0259284  28.3441560   7.0854659  23.6655455
  35.5739935   3.6006851  27.3297906  34.7835479   3.5830989  26.7902406
  35.3373290   4.1395144  28.0846943  35.6937810   0.4499317  24.6430635
  35.7435815   0.2849324  25.5846158  35.5851734  -0.4173424  24.2528516
  32.9841573  -3.5669755  25.9589941  33.8851435  -3.7063290  25.6673939
  33.0589547  -3.4015300  26.8988119  37.1956007   2.8696258  24.8872656
  36.9040815   3.2326239  25.7236117  36.5828138   2.1563267  24.7085988
  35.4443195  -2.0071127  23.3552714  35.9197317  -1.8143481  22.5471566
  34.5208761  -1.9511941  23.1096098  42.4409492  -0.8483240  19.8429356
  43.1712880  -1.1097952  20.4037060  41.8316437  -1.5854518  19.8831424
  40.5224789  -2.7075378  20.4403808  39.7957953  -2.8419413  19.8320299
  40.1072076  -2.3998549  21.2460526  28.3454965   1.0114552  28.2051181
  29.2657975   1.1893151  28.3991227  28.3104549   0.0670597  28.0530880
  26.0776173  -2.0754069  29.0541772  25.5943255  -1.2753709  29.2605661
  26.1637112  -2.0646124  28.1009216  30.3737199   1.7870563  29.8565341
  31.2428359   1.9611216  29.4951976  29.8943951   2.6064980  29.7341071
  24.5423380   8.9067664  21.5354775  25.4450626   8.9391275  21.8521270
  24.3160750   7.9768115  21.5501111  42.0329675  13.4959189  19.2610616
  42.6708085  13.3765937  18.5573956  41.9150518  14.4440033  19.3198568
  38.8419381  13.4486617  19.1972141  38.5037893  13.3327682  18.3092676
  39.7109150  13.0477782  19.1773147  34.7006197  15.3022094  15.1869032
  34.1371062  15.2112031  14.4185319  34.5858592  14.4821998  15.6671524
  39.3239164  14.6021469  25.1558346  39.3127805  14.2074267  24.2838850
  39.4859804  13.8687542  25.7492118  32.2470629  16.7973285  18.0253252
  33.0391921  16.4564110  17.6099551  32.4867279  16.9068260  18.9455405
  40.2805756  18.9693061  10.4983497  39.6293736  19.5547142  10.1117510
  41.0750119  19.4999256  10.5578534  36.0446426  17.3858581  24.1037530
  35.7536292  18.2904212  23.9884197  36.6803410  17.4275109  24.8181600
  36.9702632  14.7635429  20.6938890  37.5666205  14.5391452  19.9795853
  37.0277604  14.0220175  21.2964338  41.5870944  11.2210643  16.3363824
  42.3734033  10.8030066  15.9854241  41.8509648  12.1256735  16.5045472
  41.7581021  16.6583493  11.0352481  41.1226854  16.7318120  11.7473386
  41.4278427  17.2477092  10.3571560  46.9879371  11.1585876  17.2396803
  47.7204543  10.5885093  17.4734632  46.2318727  10.7707477  17.6803308
  38.6055491  13.5813118  14.4360145  38.2413698  13.0543739  15.1473067
  39.4622606  13.1911587  14.2626630  44.5104791   4.8707450  21.6991411
  44.1788116   5.7402861  21.4752626  43.9150405   4.5543734  22.3785442
  41.0036311  17.0719996  21.0987324  40.7037034  17.9745035  20.9903131
  40.6587370  16.8052180  21.9508477  34.4548792  13.5233793  17.1324028
  33.5299289  13.3910007  17.3401720  34.7033205  14.3028012  17.6293971
  44.4033454   9.5902537  18.7784761  43.4950332   9.5217945  18.4843522
  44.3521050  10.0674482  19.6066587  31.8157603  13.1667067  17.9667817
  31.9449984  13.4201546  18.8807229  31.1355055  13.7594775  17.6472472
  35.9857090  23.8364317  14.0658292  35.9081120  24.7872142  14.1446772
  35.3818734  23.4910189  14.7233218  38.4774320  11.0092182  26.7219659
  37.7007654  11.5686102  26.7122523  39.1164883  11.4948965  27.2434529
  46.2695101   7.7918975  20.5562635  45.6269481   8.0851508  19.9102430
  45.7650029   7.6771895  21.3615832  43.9235265  11.5382148  11.2448494
  44.8353121  11.7709535  11.0696192  43.4144912  12.1219192  10.6823573
  36.7320693  13.8177636  26.2837626  37.4735377  14.3562680  26.0072449
  36.0257678  14.4443924  26.4409177  42.2076032  15.9606776  24.8809787
  42.6159388  15.5189187  24.1364419  41.4853294  15.3859404  25.1343980
  38.5607102  10.8979383  22.2543344  39.4068297  11.3218796  22.3977993
  38.5005740  10.2413007  22.9481907  42.5304847  16.5207967  18.6362076
  41.9013709  16.6853681  17.9338144  42.1430509  16.9349576  19.4073040
  46.4094079  17.4562404  15.9906440  45.7245117  17.8361306  15.4403473
  46.4937928  18.0657731  16.7238387  41.7106548   8.5583751  23.9124518
  41.4667479   9.3125812  23.3758793  41.9866478   8.9369099  24.7471765
  43.6645010  15.1022364  22.5901783  43.8761906  15.7454123  21.9136164
  43.6174759  14.2684680  22.1223713  41.2671239   7.7140184  19.4938355
  40.4055718   8.0121438  19.7855093  41.2933674   7.9310583  18.5619388
  38.0832809  16.2582375  15.9012161  38.5471154  16.5370078  15.1116783
  37.8189607  15.3565819  15.7185252  34.9756890  15.8053856  18.8391924
  35.5458247  16.2341125  18.2009409  35.5665002  15.5236441  19.5376110
  37.0201695  12.3805527  12.7101726  37.7225738  12.8326571  13.1775653
  36.6882323  11.7389346  13.3381619  35.4682056  10.9717284  27.0852936
  34.8380717  11.6533565  27.3188332  35.3618144  10.8600365  26.1406074
  30.7627029  10.6389080  18.0118860  29.9726083  10.8946608  17.5358970
  31.2538276  11.4537418  18.1170900  44.7790838  17.9794319  20.7624141
  45.6008282  17.5774506  20.4806822  44.7753241  17.8762553  21.7140256
  38.5447442  17.5278362  22.9184851  38.6091874  17.9898769  23.7543023
  37.8358366  16.8975727  23.0467161  29.0464732  10.8919570  20.4433850
  29.2972770  11.7766580  20.7091426  29.5824280  10.7124172  19.6708942
  52.8696831  14.3233067  17.1109112  52.1160540  13.7540465  16.9553116
  53.0044373  14.2895732  18.0579747  38.2595459  19.1946470  12.7863831
  38.1241134  20.0398005  13.2148679  38.8005272  19.3965747  12.0229765
  34.7462799   5.2738050  29.4478187  34.3529745   4.7204248  30.1225831
  35.5628939   5.5848628  29.8384704  31.7124857  16.7121908  13.3591756
  32.2249377  17.5065158  13.5097321  32.3647570  16.0148198  13.2925358
  33.5219741  19.8287664  15.4414510  33.6986370  20.7505629  15.2535494
  34.3176575  19.5146083  15.8708889  37.6630760   6.6895929  27.0398443
  38.4040473   7.2903082  26.9602906  37.8948683   5.9473566  26.4816486
  32.8072098  11.8752296  25.3176673  32.6925613  10.9737553  25.6183772
  31.9516616  12.1215993  24.9661489  39.8863936  19.8170036  26.9164173
  39.4427790  19.0306415  26.5985078  40.5481149  20.0049187  26.2508064
  34.6451057  21.3465838  21.4424852  35.1958482  21.2182901  20.6701846
  33.8062533  21.6460727  21.0919745  41.9845174  20.0972836  24.9445575
  41.9663649  20.9181717  24.4525844  42.9065094  19.9726911  25.1695716
  38.4418228  17.6116966  25.7869083  38.9746565  16.8505254  25.5568391
  37.9132309  17.3190617  26.5293238  41.6087923   2.7177032  21.3162725
  41.2652192   3.6078673  21.2401835  41.9766886   2.5278689  20.4532310
  29.6773774  15.0410562  14.1351327  30.5148996  15.4507570  13.9185035
  29.8552041  14.1010004  14.1051521  39.1585317   7.5535343  14.8820398
  38.3026913   7.1642194  14.7026037  39.5712268   7.6327304  14.0220184
  40.6884463   5.0881687  19.2811958  40.1849259   5.0511822  18.4679763
  40.9815070   5.9974429  19.3408615  36.9327349   5.1720416  18.2878140
  37.7980346   4.9763225  17.9284029  37.0004858   4.9430768  19.2147497
  46.5472480  15.4617997  11.7588333  45.7701923  15.1229157  11.3143495
  47.2263961  15.4670621  11.0843298  41.3624509  10.5812735  11.6494941
  41.0574644  10.8958884  12.5005084  42.3154951  10.6594155  11.6922274
  39.8070941  16.7402958  13.2987895  39.2792302  16.0055718  12.9861133
  39.3058443  17.5177634  13.0527863  44.7863787  14.9351979  18.4154941
  44.1287461  15.6251240  18.5035070  45.5904186  15.3248411  18.7588928
  43.5969246  13.2896351  16.4658883  44.1101127  13.9226343  16.9680593
  44.2470469  12.6897547  16.1002243  40.8591620  23.2680676   9.2219554
  40.1853319  23.5712372   9.8304512  41.2457442  24.0709756   8.8725011
  40.0750076  10.7645807  18.7117224  39.1572638  10.9860754  18.5538912
  40.4910220  10.8392117  17.8528931  40.8585124  12.1637223  13.8419904
  41.6056943  12.6758620  13.5327026  41.1276714  11.8421275  14.7024297
  39.1311774  14.6595763  10.8246858  38.2222994  14.3754796  10.9219328
  39.1606858  15.0794842   9.9650165  44.3631042  18.2702353  14.5938026
  43.9093369  17.4293263  14.6503216  43.7325008  18.9063751  14.9312806
  43.3063961   9.1994339  15.8238693  42.5686718   8.6871725  16.1548936
  43.5590735   8.7594720  15.0121970  42.8063981  20.1078849  15.5287844
  43.0986955  20.6683907  14.8100210  43.3162602  20.4007410  16.2841003
  43.4075589   1.9770591  16.4180463  43.7134465   1.1167954  16.1306378
  44.1328193   2.5688211  16.2179456  37.6796668  12.2724384  16.9256654
  37.7345278  11.3198220  16.8499130  36.8687870  12.4283823  17.4097952
  35.6189028  10.8901444  14.6847032  34.8056894  11.1895614  15.0912225
  36.1148022  10.4957132  15.4021515  37.7697606  20.8859201  16.6181297
  37.7273785  21.1120047  15.6889829  38.6860305  20.6522575  16.7667098
  41.2163240  11.3543268  23.5161926  41.5712628  11.5814741  24.3756392
  41.8635371  11.6861645  22.8939182  46.9460977  14.4761704  14.2211255
  46.8078876  14.6663300  13.2932445  46.5897196  15.2381087  14.6779306
  35.1103103   8.4619799  20.3008267  35.7502482   8.3208558  19.6031231
  34.2780634   8.1754313  19.9246869  46.9730357  16.5438231  19.2322527
  47.4066863  16.4513520  20.0805581  47.6861937  16.5195731  18.5942543
  35.8863407  17.7622230  16.4143260  36.6804005  17.2672550  16.2125835
  35.1755099  17.2340093  16.0510965  40.7058251  20.1440325  20.7655627
  40.7595274  20.7131261  21.5333343  39.8373033  20.3142210  20.4009665
  33.5856645   9.8457881  22.2480079  34.2579698   9.6375243  21.5992728
  32.7586431   9.6479967  21.8085311  47.8345906  16.5861932  21.7655412
  48.0281796  17.4907742  22.0114687  47.7346524  16.1269351  22.5993997
  39.4882217   6.4719822  24.2645740  38.8410132   7.1709772  24.1710216
  40.2583232   6.9055966  24.6321988  42.8961015  16.7368674  27.3396293
  42.7446521  16.5079226  26.4226377  42.8865694  17.6939276  27.3527638
  39.6646351  14.3100587  22.3242559  40.5938411  14.4611747  22.1511527
  39.2437381  14.3984608  21.4691206  38.4634683  18.3351252  20.0941097
  38.3245769  17.9670036  20.9667035  37.6749279  18.8498891  19.9225055
  39.0582835  23.4360348  11.4366633  39.2334591  22.9648391  12.2512256
  38.3715623  24.0626114  11.6647894  40.0139898  17.7132854  17.4829935
  39.6789731  17.6733624  18.3787585  39.5143844  17.0477570  17.0100345
  33.9884142  13.1200484  23.0082516  33.8503940  12.3880723  23.6094055
  34.8989066  13.0309384  22.7266704  36.6166443  12.8320444  22.4966196
  37.3266061  12.1913636  22.4552814  36.5735751  13.0833338  23.4192376
  44.6053221  19.7687797  25.4172775  44.5465768  19.0847017  24.7503358
  45.0072740  20.5106787  24.9653401  35.3295377   9.8185661  24.3161835
  34.7932734   9.3676400  24.9683431  34.7412085   9.9531570  23.5732299
  33.6243920  26.5849711  18.2106494  33.8640518  27.2168235  18.8885512
  32.7813117  26.2337751  18.4971853  44.6070629  17.7327381  23.6486754
  43.7197407  17.3953303  23.7713153  45.1769180  17.0010412  23.8855520
  26.2599776  14.0651473  16.9729806  26.9470816  13.7513203  16.3850821
  26.1047904  14.9692837  16.6997057  31.0634498   8.9541669  21.4014830
  30.9792687   8.3467339  20.6665239  30.2417204   9.4450687  21.4024326
  38.1371782  22.3928833  20.6147998  38.0641954  23.1983805  21.1267302
  37.6949175  22.5920799  19.7896019  37.9261562  21.6300603  14.1250819
  37.1429084  22.1722283  14.2189044  38.6254307  22.1474583  14.5245060
  41.2358212   7.4395233  16.7685025  41.7326911   6.6865195  16.4486095
  40.4645193   7.4759549  16.2028234  49.0887969  13.1435598  18.4103316
  49.0777845  14.0260314  18.0397249  48.2205349  12.7907149  18.2157853
  40.5970466  22.2915667  22.7706156  41.3098438  22.9263132  22.6982058
  40.1060494  22.3879533  21.9546158  42.3187992  16.1966920  14.3423448
  41.3844271  16.3168382  14.1728152  42.4964661  15.2939387  14.0783458
  37.8193181   9.5812616  16.4956709  37.4490968   9.0283656  17.1837615
  38.3152273   8.9770749  15.9431709  45.7060544  12.0384239  14.8773482
  46.1720996  12.8712231  14.8033785  46.1568044  11.5729221  15.5818741
  35.6482379  20.0410111  23.5911727  36.3491839  20.6746594  23.7441121
  35.1777494  20.3824842  22.8307366  43.7736775  18.3828060  11.8759634
  44.0496619  18.2684655  12.7853508  42.9041274  17.9845545  11.8371807
  43.6777207   4.4064826  18.9164383  42.7640286   4.6369053  19.0846590
  44.1070308   4.4903270  19.7678416  43.4483665  12.5954718  21.4164277
  42.7955115  12.8430626  20.7616730  43.8264045  11.7818856  21.0826755
  40.4090839  22.6314411  15.5192448  40.5913233  21.8136067  15.9820200
  41.2323825  22.8482104  15.0817338  40.7433004  21.5582596  12.7807496
  41.2720771  21.0475051  12.1677658  41.0061224  21.2425127  13.6453029
  39.4971238  13.3374529  27.9030315  38.8211875  13.2368659  28.5732690
  40.3198872  13.1813743  28.3666312  31.2450097  19.5746466  20.5242830
  31.8303534  18.8290154  20.6570734  31.0474936  19.8850422  21.4079494
  34.0988752  22.6097713  15.5405272  33.4299128  23.0943841  15.0569312
  33.9601622  22.8566934  16.4548651  25.8367752  12.1452066  19.2447273
  25.8751851  11.6115657  20.0384391  25.3308045  11.6187271  18.6258250
  38.2394021  24.6441457  22.1387931  38.7912329  24.8073078  22.9037016
  38.5800214  25.2345894  21.4667955  33.2158514   6.9916606  22.7409815
  33.2799841   7.8531437  22.3287213  33.1525634   6.3790608  22.0082174
  32.6910787   9.0639739  26.3882850  33.3182826   8.6816816  27.0020374
  31.8338706   8.8453941  26.7538542  43.0904895  19.4702714  27.9936585
  43.6344799  20.0832672  27.4991540  42.5091740  20.0282293  28.5103598
  41.3762408  22.5923432  19.1251613  41.2513548  21.7913172  18.6162558
  42.0341499  23.0869626  18.6365583  32.9970576   8.9472165  18.3028753
  32.2757162   9.5608132  18.1636226  33.7863832   9.4829930  18.2245399
  43.4397317  20.3932452  20.7531163  42.4927652  20.2737803  20.6809490
  43.7880090  19.5054950  20.8357424  35.7996890   6.2826591  24.5769405
  36.3231292   6.5288888  25.3395714  35.5809223   7.1146626  24.1572542
  40.4443750  20.1885168  16.9535515  40.2968712  19.2601876  17.1343085
  41.2697243  20.2105259  16.4692590  44.0477872  21.0113727  18.0400388
  44.9724419  20.8056589  17.9024839  43.8793175  20.7630128  18.9489729
  37.0049435   7.2240286  22.2619075  36.6646255   6.4248099  22.6639755
  36.2988441   7.5241997  21.6895908  37.6565907   4.3089599  20.7146398
  38.4791976   3.8350077  20.5925289  37.9003970   5.0880082  21.2145085
  35.1804486  11.0008719  18.5238377  35.0349066  11.3149022  19.4162658
  34.7029689  11.6193620  17.9709275  37.0400869   7.9911267  18.5719266
  37.0262437   7.0952361  18.2351564  37.7573297   7.9981931  19.2057552
  38.8926999   8.4248608  20.6172394  38.6344777   9.3465678  20.6156724
  38.3612040   8.0279042  21.3072858  43.8373188  21.5299395  13.3962479
  44.0110066  20.9645817  12.6436332  44.3302079  22.3300290  13.2141969
  29.6550148  13.5414064  21.4626038  29.1103616  14.3173872  21.5946312
  30.5329498  13.8884868  21.3045159  39.3128955   4.5580558  16.9773556
  39.3350652   4.6219891  16.0225536  39.7297014   3.7185067  17.1714063
  49.6912579  14.2935818  15.0152779  50.1343725  13.5443143  14.6171902
  48.8139089  14.2845954  14.6326511  44.8248360  20.8466159  10.4959377
  45.5199265  21.4672852  10.7146692  45.1671511  19.9961510  10.7711755
  30.4416170  12.6683960  24.3556195  29.6997906  12.8166595  24.9420825
  30.1208914  12.9292226  23.4922944  46.7239784  18.2965865  12.0246708
  47.2491108  18.6353137  11.2996028  46.6362136  17.3612880  11.8409843
  38.3859832  22.2099938  24.1536585  38.6946959  21.9649085  25.0259284
  39.1835314  22.4146577  23.6655455  38.4080444  24.3637848  16.3841961
  37.9685435  23.8714227  17.0774818  39.1588561  23.8210816  16.1434037
  30.8872783  20.5549389  16.3866590  31.7130803  20.2553161  16.0065233
  30.5366835  19.7857011  16.8356378  35.8554317  19.9075857  18.4564263
  35.2334326  19.2446562  18.1566491  36.5259183  19.9336989  17.7737911
  29.0881388  18.4735715  17.3455523  28.2513297  18.0457890  17.1639524
  29.0605034  18.6668159  18.2826314  35.9278844   8.3857645  28.0496769
  35.9766999   9.2619768  27.6674539  36.4701358   7.8435038  27.4768412
  46.4133690  18.9298768  27.3297906  45.6229233  18.9122907  26.7902406
  46.1767044  19.4687062  28.0846943  46.5331565  15.7791235  24.6430635
  46.5829570  15.6141242  25.5846158  46.4245488  14.9118494  24.2528516
  35.4167823  18.4579780  11.9322724  35.5655944  19.1415245  11.2789396
  36.2234267  18.4384870  12.4472179  43.8235327  11.7622163  25.9589941
  44.7245190  11.6228627  25.6673939  43.8983302  11.9276617  26.8988119
  38.1578132   9.1389017  24.8043128  37.2881442   9.4322583  24.5325716
  38.3937613   9.7229462  25.5250391  48.0349762  18.1988176  24.8872656
  47.7434570  18.5618157  25.7236117  47.4221893  17.4855184  24.7085988
  49.2345444  15.7641056  17.4075227  50.0692335  16.2030860  17.5712787
  49.3704573  15.2879709  16.5883472  46.2836950  13.3220791  23.3552714
  46.7591071  13.5148437  22.5471566  45.3602515  13.3779977  23.1096098
  40.8617166   5.3568634  22.3208548  41.3799110   6.0929661  21.9955037
  40.5072299   5.6632628  23.1555307  41.1129760   1.7768917  17.8409445
  41.3931514   1.1092106  18.4669871  41.8980367   1.9698012  17.3284109
  38.9163229  20.9527911   9.4034471  38.3437196  21.5718098   8.9504943
  39.4896023  21.5027272   9.9374393  44.9838619  10.1986551  21.5881020
  45.9356042  10.2984649  21.6093244  44.8142069   9.4064819  22.0979104
  43.0052998   7.2842134  21.7740421  42.4102930   7.5647147  21.0786909
  42.7202695   7.7736035  22.5457162  42.1360489  21.2365061  10.5343053
  43.0691162  21.1710623  10.7375929  42.0483702  22.0721328  10.0757586
  44.7648505  20.5530931   7.4947001  44.6862137  20.2190795   8.3882759
  45.5858172  21.0452699   7.4938473  47.4626697  13.4192671  20.7023320
  47.4303017  12.4808671  20.8883003  48.0727320  13.4976707  19.9689144
  47.6121185  10.2103714  20.7481603  47.0960234   9.4262171  20.5611532
  48.4961134   9.8822431  20.9128122  45.2731912   3.9544730  16.7077415
  45.0756733   3.6459818  17.5920747  45.8831618   4.6806368  16.8375345
  53.2803246  14.4808677  19.8429356  54.0106635  14.2193966  20.4037060
  52.6710192  13.7437399  19.8831424  51.3618544  12.6216540  20.4403808
  50.6351707  12.4872505  19.8320299  50.9465830  12.9293369  21.2460526
  39.1848720  16.3406470  28.2051181  40.1051729  16.5185069  28.3991227
  39.1498303  15.3962515  28.0530880  28.4030885  11.5345063  17.1304455
  28.0833669  10.6810372  16.8378829  27.8564313  11.7493641  17.8862423
  32.1810793  14.2507504  20.8473962  32.3996802  15.1824612  20.8661996
  32.5936566  13.8915479  21.6328766  37.0538658   9.8240710  30.2376711
  36.9535385  10.7735067  30.1688802  36.8360200   9.4958949  29.3652781
  28.2719145  15.1547975  19.0997577  27.5782616  14.7401928  18.5867531
  29.0192136  15.1968511  18.5030996  44.4084366   5.9454162  13.9652611
  43.8283035   6.6038966  13.5830663  44.1420298   5.1231506  13.5540029
  42.8587932   5.3459219  16.1673931  43.3587710   5.4575754  15.3588250
  43.5023540   5.0420272  16.8074740  36.9169928  13.2537849  29.0541772
  36.4337010  14.0538209  29.2605661  37.0030867  13.2645794  28.1009216
  30.1855888  15.0866229  16.9763592  30.1626576  15.1853916  16.0245475
  30.4956524  15.9331379  17.2980758  32.8443265  17.1442384  21.0910206
  33.7986519  17.1126326  21.0240138  32.6455789  16.6833007  21.9060432
  33.4342648  15.7143500  23.6581004  34.2535536  16.2087578  23.6815841
  33.7079455  14.7975468  23.6298571  43.1909244   8.1054252  13.0208959
  42.3035099   8.3903903  12.8029154  43.6063233   7.9448015  12.1736236
  46.5423780   8.1300773  16.7363299  47.3184170   8.6197225  17.0087915
  45.8171914   8.5558827  17.1935168  48.9796338   8.8428392  17.7937239
  49.5740829   8.6024128  17.0830547  49.0522922   8.1235523  18.4210775
  31.1993494  22.6862003  18.1080404  31.0647962  21.9262404  17.5418402
  30.7825556  23.4102903  17.6409193  42.3352457  17.8698927   7.1156979
  43.0388307  18.0748929   7.7314635  41.6115106  18.4375689   7.3806063
  43.1650267  13.6208788  13.2359249  43.1085469  14.0777339  12.3966882
  43.7178610  12.8599472  13.0582092  46.9755073   9.4098520  14.0609369
  46.7192008   9.0095155  14.8917577  46.3507941  10.1242314  13.9359508
  51.2867411  12.1494593  16.5680660  50.7266969  12.2187782  17.3412222
  50.6810915  11.9735578  15.8480157  34.3562620  23.5831320  18.3198847
  34.2395004  24.5276753  18.2177537  33.5355066  23.2804882  18.7084646
  44.2439155  18.3081456   9.1655439  45.0784759  17.8762654   8.9832914
  44.0823498  18.1363470  10.0932334  43.8985047  14.8113569  10.5311779
  43.8433851  14.6457841   9.5900223  43.2731102  15.5189602  10.6873968
  28.6877562  10.0481634  24.3573201  29.3336425   9.5380587  24.8460426
  28.4794713  10.7850315  24.9316626  41.2130954  17.1162481  29.8565341
  42.0822114  17.2903133  29.4951976  40.7337705  17.9356898  29.7341071
  35.3817134  24.2359582  21.5354775  36.2844381  24.2683192  21.8521270
  35.1554504  23.3060033  21.5501111  37.1370736  22.9890569  18.1964854
  36.1866367  22.9892430  18.0829226  37.4403222  22.2423303  17.6800888
  33.0275053   7.1949251  28.4548215  33.8906514   6.8386055  28.6651540
  32.4540463   6.8563145  29.1423619  52.8723430  28.8251107  19.2610616
  53.5101840  28.7057854  18.5573956  52.7544273  29.7731951  19.3198568
  49.6813136  28.7778535  19.1972141  49.3431647  28.6619600  18.3092676
  50.5502904  28.3769700  19.1773147  45.5399952  30.6314011  15.1869032
  44.9764817  30.5403948  14.4185319  45.4252347  29.8113916  15.6671524
  50.1632919  29.9313387  25.1558346  50.1521560  29.5366185  24.2838850
  50.3253558  29.1979459  25.7492118  43.0864384  32.1265203  18.0253252
  43.8785676  31.7856028  17.6099551  43.3261034  32.2360178  18.9455405
  51.1199510  34.2984979  10.4983497  50.4687490  34.8839060  10.1117510
  51.9143873  34.8291174  10.5578534  45.0455138  31.3874116  10.8970631
  45.8186014  30.8403103  10.7583507  45.3980536  32.2518366  11.1085092
  47.8096387  30.0927347  20.6938890  48.4059959  29.8683369  19.9795853
  47.8671358  29.3512093  21.2964338  47.3821415  27.5466782   8.5289081
  47.6346936  27.0248304   7.7672544  46.4445974  27.3832928   8.6315764
  52.4264698  26.5502561  16.3363824  53.2127787  26.1321984  15.9854241
  52.6903402  27.4548653  16.5045472  52.5974776  31.9875411  11.0352481
  51.9620608  32.0610038  11.7473386  52.2672182  32.5769010  10.3571560
  57.8273125  26.4877794  17.2396803  58.5598297  25.9177011  17.4734632
  57.0712481  26.0999394  17.6803308  47.1017704  29.4494888  10.7313456
  46.9853962  28.7739792  11.3994540  47.2119964  28.9627262   9.9145609
  49.4449245  28.9105035  14.4360145  49.0807452  28.3835656  15.1473067
  50.3016361  28.5203505  14.2626630  55.3498546  20.1999368  21.6991411
  55.0181870  21.0694779  21.4752626  54.7544159  19.8835652  22.3785442
  49.0854732  23.9394935   9.4321494  49.2529134  24.8075172   9.7991965
  48.8951901  24.1022217   8.5082783  51.8430065  32.4011914  21.0987324
  51.5430788  33.3036953  20.9903131  51.4981125  32.1344097  21.9508477
  45.2942547  28.8525711  17.1324028  44.3693043  28.7201925  17.3401720
  45.5426960  29.6319930  17.6293971  55.2427209  24.9194454  18.7784761
  54.3344086  24.8509863  18.4843522  55.1914805  25.3966399  19.6066587
  49.0643953  26.3952593  10.4168160  48.9443578  26.8409643  11.2553641
  48.3696541  26.7437910   9.8581699  42.6551358  28.4958984  17.9667817
  42.7843739  28.7493463  18.8807229  41.9748809  29.0886692  17.6472472
  46.8250845  39.1656234  14.0658292  46.7474875  40.1164060  14.1446772
  46.2212489  38.8202107  14.7233218  49.3168075  26.3384100  26.7219659
  48.5401409  26.8978020  26.7122523  49.9558638  26.8240883  27.2434529
  57.1088855  23.1210893  20.5562635  56.4663236  23.4143426  19.9102430
  56.6043784  23.0063813  21.3615832  54.7629019  26.8674066  11.2448494
  55.6746875  27.1001453  11.0696192  54.2538666  27.4511110  10.6823573
  53.0469787  31.2898694  24.8809787  53.4553143  30.8481104  24.1364419
  52.3247048  30.7151321  25.1343980  49.4000857  26.2271300  22.2543344
  50.2462052  26.6510714  22.3977993  49.3399494  25.5704925  22.9481907
  53.3698601  31.8499884  18.6362076  52.7407464  32.0145598  17.9338144
  52.9824263  32.2641494  19.4073040  57.2487833  32.7854322  15.9906440
  56.5638871  33.1653224  15.4403473  57.3331683  33.3949649  16.7238387
  52.5500302  23.8875669  23.9124518  52.3061234  24.6417729  23.3758793
  52.8260233  24.2661016  24.7471765  54.5038765  30.4314281  22.5901783
  54.7155660  31.0746041  21.9136164  54.4568513  29.5976598  22.1223713
  52.1064994  23.0432102  19.4938355  51.2449473  23.3413355  19.7855093
  52.1327428  23.2602501  18.5619388  48.9226563  31.5874292  15.9012161
  49.3864909  31.8661995  15.1116783  48.6583361  30.6857737  15.7185252
  45.8150644  31.1345774  18.8391924  46.3852001  31.5633042  18.2009409
  46.4058756  30.8528359  19.5376110  47.8595449  27.7097445  12.7101726
  48.5619493  28.1618488  13.1775653  47.5276078  27.0681264  13.3381619
  46.3075811  26.3009201  27.0852936  45.6774471  26.9825482  27.3188332
  46.2011899  26.1892283  26.1406074  41.6020783  25.9680997  18.0118860
  40.8119837  26.2238526  17.5358970  42.0932031  26.7829335  18.1170900
  55.6184593  33.3086237  20.7624141  56.4402037  32.9066424  20.4806822
  55.6146996  33.2054471  21.7140256  43.5535529  26.3325577  14.9702336
  42.7566692  26.4444271  15.4885832  43.3261121  26.6712229  14.1043227
  49.3841196  32.8570280  22.9184851  49.4485629  33.3190687  23.7543023
  48.6752120  32.2267645  23.0467161  39.8858486  26.2211488  20.4433850
  40.1366525  27.1058498  20.7091426  40.4218035  26.0416089  19.6708942
  63.7090586  29.6524985  17.1109112  62.9554294  29.0832383  16.9553116
  63.8438127  29.6187650  18.0579747  49.0989214  34.5238387  12.7863831
  48.9634889  35.3689923  13.2148679  49.6399026  34.7257665  12.0229765
  45.5856554  20.6029967  29.4478187  45.1923499  20.0496166  30.1225831
  46.4022694  20.9140546  29.8384704  42.5518611  32.0413825  13.3591756
  43.0643132  32.8357076  13.5097321  43.2041324  31.3440116  13.2925358
  44.3613496  35.1579582  15.4414510  44.5380124  36.0797546  15.2535494
  45.1570330  34.8438001  15.8708889  48.5024515  22.0187846  27.0398443
  49.2434228  22.6194999  26.9602906  48.7342437  21.2765484  26.4816486
  43.6465853  27.2044214  25.3176673  43.5319368  26.3029471  25.6183772
  42.7910370  27.4507910  24.9661489  50.7257690  35.1461954  26.9164173
  50.2821544  34.3598332  26.5985078  51.3874904  35.3341104  26.2508064
  45.4844811  36.6757755  21.4424852  46.0352237  36.5474819  20.6701846
  44.6456287  36.9752645  21.0919745  52.8238928  35.4264754  24.9445575
  52.8057404  36.2473635  24.4525844  53.7458848  35.3018829  25.1695716
  49.2811983  32.9408883  25.7869083  49.8140319  32.1797171  25.5568391
  48.7526064  32.6482535  26.5293238  52.4481677  18.0468949  21.3162725
  52.1045947  18.9370591  21.2401835  52.8160640  17.8570607  20.4532310
  40.5167528  30.3702480  14.1351327  41.3542750  30.7799488  13.9185035
  40.6945796  29.4301922  14.1051521  52.4131960  28.0377560   9.8235160
  51.8978584  28.8082165  10.0623547  52.1409269  27.3642697  10.4468221
  49.9979071  22.8827261  14.8820398  49.1420668  22.4934112  14.7026037
  50.4106023  22.9619222  14.0220184  51.5278218  20.4173604  19.2811958
  51.0243013  20.3803740  18.4679763  51.8208825  21.3266347  19.3408615
  47.7721104  20.5012334  18.2878140  48.6374101  20.3055143  17.9284029
  47.8398613  20.2722686  19.2147497  57.3866234  30.7909915  11.7588333
  56.6095677  30.4521075  11.3143495  58.0657715  30.7962538  11.0843298
  52.2018263  25.9104652  11.6494941  51.8968399  26.2250802  12.5005084
  53.1548705  25.9886072  11.6922274  50.6464695  32.0694876  13.2987895
  50.1186057  31.3347635  12.9861133  50.1452198  32.8469552  13.0527863
  55.6257541  30.2643896  18.4154941  54.9681216  30.9543158  18.5035070
  56.4297940  30.6540328  18.7588928  45.3783423  22.7314542  15.6594507
  45.9527175  22.5089724  14.9267700  45.9654405  22.8003237  16.4123108
  54.4363000  28.6188269  16.4658883  54.9494882  29.2518261  16.9680593
  55.0864224  28.0189464  16.1002243  45.7053010  24.7619003   9.6790392
  44.8690322  25.0993690   9.9999667  45.5657780  24.6267983   8.7417529
  47.6806091  19.6055791  14.3869576  47.0270503  19.2904808  13.7626191
  47.6386565  18.9831531  15.1129399  48.7917295  29.8875086   6.3022868
  47.8844357  29.6564340   6.5014017  49.2888327  29.0912705   6.4896850
  51.6985374  38.5972593   9.2219554  51.0247073  38.9004290   9.8304512
  52.0851196  39.4001674   8.8725011  50.9143831  26.0937725  18.7117224
  49.9966392  26.3152672  18.5538912  51.3303975  26.1684035  17.8528931
  51.6978879  27.4929140  13.8419904  52.4450698  28.0050537  13.5327026
  51.9670468  27.1713193  14.7024297  49.9705529  29.9887681  10.8246858
  49.0616748  29.7046714  10.9219328  50.0000613  30.4086759   9.9650165
  55.2024796  33.5994270  14.5938026  54.7487123  32.7585180  14.6503216
  54.5718763  34.2355669  14.9312806  54.1457716  24.5286256  15.8238693
  53.4080473  24.0163643  16.1548936  54.3984489  24.0886638  15.0121970
  53.6457735  35.4370767  15.5287844  53.9380710  35.9975824  14.8100210
  54.1556356  35.7299328  16.2841003  54.2469343  17.3062508  16.4180463
  54.5528220  16.4459872  16.1306378  54.9721948  17.8980129  16.2179456
  40.5393699  27.7093195  14.8062060  40.3418099  27.1162556  14.0813127
  39.9840363  27.4045405  15.5237999  48.5190423  27.6016302  16.9256654
  48.5739033  26.6490138  16.8499130  47.7081625  27.7575741  17.4097952
  49.6681617  31.5296425   8.1634937  49.2301047  30.8132284   7.7040574
  50.4092057  31.7572539   7.6020028  46.4582783  26.2193361  14.6847032
  45.6450648  26.5187532  15.0912225  46.9541777  25.8249050  15.4021515
  48.6091361  36.2151118  16.6181297  48.5667539  36.4411965  15.6889829
  49.5254060  35.9814493  16.7667098  52.0556994  26.6835186  23.5161926
  52.4106382  26.9106659  24.3756392  52.7029126  27.0153563  22.8939182
  57.7854731  29.8053622  14.2211255  57.6472630  29.9955218  13.2932445
  57.4290950  30.5673004  14.6779306  45.9496858  23.7911717  20.3008267
  46.5896237  23.6500476  19.6031231  45.1174388  23.5046230  19.9246869
  57.8124111  31.8730149  19.2322527  58.2460618  31.7805438  20.0805581
  58.5255692  31.8487649  18.5942543  46.7257161  33.0914147  16.4143260
  47.5197760  32.5964467  16.2125835  46.0148854  32.5632010  16.0510965
  51.5452006  35.4732243  20.7655627  51.5989028  36.0423179  21.5333343
  50.6766787  35.6434128  20.4009665  43.0339925  27.2357229  12.4903013
  42.1037513  27.1741684  12.7072975  43.1297397  26.7133182  11.6939654
  42.9525474  23.7612042  15.0781254  43.2132291  24.6757375  14.9690415
  43.7742646  23.2936484  15.2277867  44.4250399  25.1749799  22.2480079
  45.0973453  24.9667161  21.5992728  43.5980186  24.9771885  21.8085311
  58.6739661  31.9153849  21.7655412  58.8675551  32.8199660  22.0114687
  58.5740279  31.4561268  22.5993997  50.3275971  21.8011740  24.2645740
  49.6803886  22.5001690  24.1710216  51.0976987  22.2347884  24.6321988
  53.7354769  32.0660592  27.3396293  53.5840276  31.8371144  26.4226377
  53.7259449  33.0231193  27.3527638  50.5040106  29.6392505  22.3242559
  51.4332166  29.7903664  22.1511527  50.0831136  29.7276526  21.4691206
  49.3028437  33.6643169  20.0941097  49.1639523  33.2961954  20.9667035
  48.5143034  34.1790809  19.9225055  49.8976589  38.7652266  11.4366633
  50.0728345  38.2940309  12.2512256  49.2109377  39.3918032  11.6647894
  50.8533653  33.0424772  17.4829935  50.5183485  33.0025542  18.3787585
  50.3537598  32.3769488  17.0100345  44.8277897  28.4492402  23.0082516
  44.6897694  27.7172641  23.6094055  45.7382820  28.3601302  22.7266704
  53.7892844  30.3880806   7.7566994  53.1722015  29.6627634   7.6600047
  53.3209333  31.1490167   7.4134069  47.4560197  28.1612361  22.4966196
  48.1659816  27.5205553  22.4552814  47.4129505  28.4125256  23.4192376
  55.4446976  35.0979715  25.4172775  55.3859522  34.4138935  24.7503358
  55.8466494  35.8398705  24.9653401  46.1689131  25.1477579  24.3161835
  45.6326488  24.6968318  24.9683431  45.5805840  25.2823488  23.5732299
  44.4637675  41.9141628  18.2106494  44.7034273  42.5460153  18.8885512
  43.6206871  41.5629668  18.4971853  45.5791390  24.6066231   6.8788299
  44.7020856  24.4855031   6.5150545  46.0549143  23.8152309   6.6267187
  55.4464383  33.0619299  23.6486754  54.5591162  32.7245220  23.7713153
  56.0162934  32.3302330  23.8855520  37.0993530  29.3943390  16.9729806
  37.7864570  29.0805120  16.3850821  36.9441659  30.2984755  16.6997057
  41.9028252  24.2833587  21.4014830  41.8186441  23.6759256  20.6665239
  41.0810959  24.7742605  21.4024326  48.9765537  37.7220751  20.6147998
  48.9035708  38.5275722  21.1267302  48.5342930  37.9212717  19.7896019
  48.7655316  36.9592521  14.1250819  47.9822838  37.5014201  14.2189044
  49.4648061  37.4766501  14.5245060  52.0751966  22.7687150  16.7685025
  52.5720666  22.0157113  16.4486095  51.3038948  22.8051467  16.2028234
  59.9281724  28.4727516  18.4103316  59.9171600  29.3552231  18.0397249
  59.0599103  28.1199067  18.2157853  51.4364220  37.6207585  22.7706156
  52.1492192  38.2555050  22.6982058  50.9454249  37.7171451  21.9546158
  53.1581747  31.5258838  14.3423448  52.2238026  31.6460300  14.1728152
  53.3358415  30.6231304  14.0783458  48.6586935  24.9104533  16.4956709
  48.2884723  24.3575574  17.1837615  49.1546027  24.3062667  15.9431709
  56.5454298  27.3676157  14.8773482  57.0114751  28.2004148  14.8033785
  56.9961799  26.9021138  15.5818741  46.4876134  35.3702028  23.5911727
  47.1885593  36.0038511  23.7441121  46.0171249  35.7116760  22.8307366
  54.6130529  33.7119978  11.8759634  54.8890373  33.5976573  12.7853508
  53.7435028  33.3137463  11.8371807  54.5170961  19.7356744  18.9164383
  53.6034041  19.9660971  19.0846590  54.9464063  19.8195188  19.7678416
  54.2877420  27.9246636  21.4164277  53.6348870  28.1722543  20.7616730
  54.6657799  27.1110774  21.0826755  51.2484593  37.9606329  15.5192448
  51.4306988  37.1427985  15.9820200  52.0717579  38.1774021  15.0817338
  51.5826759  36.8874514  12.7807496  52.1114525  36.3766969  12.1677658
  51.8454979  36.5717044  13.6453029  50.3364993  28.6666447  27.9030315
  49.6605630  28.5660576  28.5732690  51.1592626  28.5105661  28.3666312
  42.0843852  34.9038383  20.5242830  42.6697288  34.1582071  20.6570734
  41.8868690  35.2142340  21.4079494  44.9382507  37.9389631  15.5405272
  44.2692882  38.4235758  15.0569312  44.7995377  38.1858851  16.4548651
  36.6761506  27.4743984  19.2447273  36.7145606  26.9407574  20.0384391
  36.1701799  26.9479189  18.6258250  49.0787775  39.9733374  22.1387931
  49.6306084  40.1364996  22.9037016  49.4193969  40.5637812  21.4667955
  44.0552269  22.3208524  22.7409815  44.1193595  23.1823355  22.3287213
  43.9919389  21.7082526  22.0082174  43.5304541  24.3931657  26.3882850
  44.1576580  24.0108734  27.0020374  42.6732460  24.1745859  26.7538542
  53.9298650  34.7994632  27.9936585  54.4738554  35.4124590  27.4991540
  53.3485495  35.3574210  28.5103598  40.3070084  26.2008086  12.3201204
  40.6023525  25.2918764  12.2668258  39.4058120  26.1795825  11.9982207
  52.2156163  37.9215350  19.1251613  52.0907302  37.1205090  18.6162558
  52.8735254  38.4161543  18.6365583  43.8364331  24.2764082  18.3028753
  43.1150917  24.8900050  18.1636226  44.6257587  24.8121847  18.2245399
  54.2791071  35.7224370  20.7531163  53.3321407  35.6029721  20.6809490
  54.6273844  34.8346868  20.8357424  46.6390645  21.6118509  24.5769405
  47.1625046  21.8580805  25.3395714  46.4202978  22.4438544  24.1572542
  42.0357926  23.8822183  12.4440529  41.7070632  23.0019562  12.2615635
  42.3897296  23.8269852  13.3316919  51.2837504  35.5177086  16.9535515
  51.1362467  34.5893794  17.1343085  52.1090998  35.5397177  16.4692590
  45.1499749  24.1695153  12.8116007  45.4895821  24.6981074  12.0894616
  45.5971869  24.5075559  13.5874574  54.8871626  36.3405645  18.0400388
  55.8118174  36.1348506  17.9024839  54.7186930  36.0922046  18.9489729
  47.8443190  22.5532204  22.2619075  47.5040010  21.7540017  22.6639755
  47.1382196  22.8533915  21.6895908  48.4959661  19.6381516  20.7146398
  49.3185731  19.1641995  20.5925289  48.7397725  20.4172000  21.2145085
  47.1367896  22.6669775  11.0109300  47.8576258  23.0451028  10.5073017
  46.5133200  23.3858652  11.1144278  51.2799019  23.3714924  11.9467632
  51.4962633  24.2539562  11.6456460  50.7993086  22.9801137  11.2173274
  46.0198240  26.3300637  18.5238377  45.8742821  26.6440940  19.4162658
  45.5423444  26.9485537  17.9709275  47.8794623  23.3203185  18.5719266
  47.8656192  22.4244278  18.2351564  48.5967051  23.3273849  19.2057552
  49.7320754  23.7540525  20.6172394  49.4738532  24.6757596  20.6156724
  49.2005794  23.3570960  21.3072858  54.6766942  36.8591312  13.3962479
  54.8503820  36.2937735  12.6436332  55.1695834  37.6592207  13.2141969
  40.4943902  28.8705981  21.4626038  39.9497370  29.6465789  21.5946312
  41.3723252  29.2176786  21.3045159  47.2831519  22.2017565  13.8406837
  47.4047430  21.2734211  14.0397724  46.9933561  22.2156251  12.9285152
  50.1522709  19.8872476  16.9773556  50.1744406  19.9511809  16.0225536
  50.5690768  19.0476984  17.1714063  60.5306334  29.6227735  15.0152779
  60.9737480  28.8735060  14.6171902  59.6532844  29.6137872  14.6326511
  55.6642115  36.1758077  10.4959377  56.3593020  36.7964769  10.7146692
  56.0065265  35.3253428  10.7711755  57.5633538  33.6257782  12.0246708
  58.0884862  33.9645055  11.2996028  57.4755891  32.6904798  11.8409843
  49.2253587  37.5391856  24.1536585  49.5340713  37.2941003  25.0259284
  50.0229069  37.7438494  23.6655455  49.2474199  39.6929766  16.3841961
  48.8079189  39.2006144  17.0774818  49.9982316  39.1502733  16.1434037
  41.7266538  35.8841306  16.3866590  42.5524558  35.5845078  16.0065233
  41.3760590  35.1148929  16.8356378  46.6948071  35.2367775  18.4564263
  46.0728080  34.5738480  18.1566491  47.3652938  35.2628907  17.7737911
  39.9275143  33.8027633  17.3455523  39.0907051  33.3749807  17.1639524
  39.8998788  33.9960076  18.2826314  46.7672598  23.7149563  28.0496769
  46.8160754  24.5911685  27.6674539  47.3095113  23.1726956  27.4768412
  57.2527444  34.2590686  27.3297906  56.4622988  34.2414825  26.7902406
  57.0160799  34.7978980  28.0846943  57.3725319  31.1083152  24.6430635
  57.4223324  30.9433160  25.5846158  57.2639243  30.2410411  24.2528516
  46.2561578  33.7871698  11.9322724  46.4049698  34.4707162  11.2789396
  47.0628021  33.7676788  12.4472179  54.6629082  27.0914080  25.9589941
  55.5638944  26.9520545  25.6673939  54.7377056  27.2568535  26.8988119
  48.9971887  24.4680935  24.8043128  48.1275196  24.7614501  24.5325716
  49.2331367  25.0521380  25.5250391  58.8743516  33.5280094  24.8872656
  58.5828324  33.8910074  25.7236117  58.2615647  32.8147102  24.7085988
  60.0739198  31.0932974  17.4075227  60.9086090  31.5322778  17.5712787
  60.2098327  30.6171627  16.5883472  57.1230704  28.6512708  23.3552714
  57.5984826  28.8440355  22.5471566  56.1996270  28.7071894  23.1096098
  44.0114211  29.8136876  12.9383793  43.7660253  28.9099206  13.1364003
  44.1810125  29.8154026  11.9963271  51.7010921  20.6860552  22.3208548
  52.2192865  21.4221579  21.9955037  51.3466054  20.9924545  23.1555307
  43.2809858  25.5465233  10.4369954  42.5879103  25.6209588   9.7809990
  43.0361610  24.7825577  10.9591471  51.9523515  17.1060835  17.8409445
  52.2325269  16.4384024  18.4669871  52.7374122  17.2989930  17.3284109
  49.7556983  36.2819828   9.4034471  49.1830951  36.9010016   8.9504943
  50.3289777  36.8319190   9.9374393  55.8232373  25.5278469  21.5881020
  56.7749796  25.6276566  21.6093244  55.6535824  24.7356737  22.0979104
  53.8446753  22.6134052  21.7740421  53.2496685  22.8939064  21.0786909
  53.5596449  23.1027953  22.5457162  52.9754243  36.5656979  10.5343053
  53.9084916  36.5002540  10.7375929  52.8877456  37.4013245  10.0757586
  55.6042260  35.8822849   7.4947001  55.5255891  35.5482713   8.3882759
  56.4251927  36.3744617   7.4938473  58.3020451  28.7484588  20.7023320
  58.2696771  27.8100589  20.8883003  58.9121075  28.8268625  19.9689144
  50.1403782  27.6180641   6.7450524  51.0862887  27.4886849   6.8138942
  49.7618027  26.8795303   7.2219952  58.4514940  25.5395632  20.7481603
  57.9353988  24.7554088  20.5611532  59.3354888  25.2114348  20.9128122
  56.1125666  19.2836647  16.7077415  55.9150488  18.9751735  17.5920747
  56.7225372  20.0098286  16.8375345  64.1197001  29.8100595  19.8429356
  64.8500389  29.5485883  20.4037060  63.5103946  29.0729317  19.8831424
  62.2012298  27.9508458  20.4403808  61.4745462  27.8164423  19.8320299
  61.7859585  28.2585286  21.2460526  50.0242474  31.6698387  28.2051181
  50.9445484  31.8476986  28.3991227  49.9892058  30.7254433  28.0530880
  48.3246699  25.5430618   6.6805409  47.4178154  25.2463730   6.7568122
  48.6022680  25.2460436   5.8139695  39.2424639  26.8636981  17.1304455
  38.9227424  26.0102289  16.8378829  38.6958068  27.0785559  17.8862423
  43.0204547  29.5799422  20.8473962  43.2390557  30.5116530  20.8661996
  43.4330321  29.2207396  21.6328766  49.9408765  20.0867507  12.8349650
  49.1309493  19.7414592  13.2104896  50.6293182  19.7775051  13.4237262
  51.8699313  19.1645554  14.4573947  52.4230352  19.5841008  15.1163970
  52.1069399  18.2381302  14.4996903  47.8932412  25.1532628  30.2376711
  47.7929139  26.1026985  30.1688802  47.6753954  24.8250867  29.3652781
  47.0945484  22.4017553   6.8217388  47.9564648  22.7272451   7.0813205
  47.2795828  21.6149049   6.3090454  39.1112899  30.4839892  19.0997577
  38.4176371  30.0693845  18.5867531  39.8585890  30.5260429  18.5030996
  55.2478120  21.2746079  13.9652611  54.6676789  21.9330883  13.5830663
  54.9814053  20.4523424  13.5540029  53.6981687  20.6751137  16.1673931
  54.1981465  20.7867671  15.3588250  54.3417294  20.3712190  16.8074740
  47.7563682  28.5829767  29.0541772  47.2730764  29.3830127  29.2605661
  47.8424621  28.5937711  28.1009216  41.0249642  30.4158146  16.9763592
  41.0020330  30.5145834  16.0245475  41.3350278  31.2623297  17.2980758
  43.6837020  32.4734301  21.0910206  44.6380273  32.4418244  21.0240138
  43.4849543  32.0124925  21.9060432  54.0302998  23.4346170  13.0208959
  53.1428853  23.7195820  12.8029154  54.4456987  23.2739933  12.1736236
  57.3817534  23.4592691  16.7363299  58.1577924  23.9489143  17.0087915
  56.6565669  23.8850745  17.1935168  59.8190093  24.1720310  17.7937239
  60.4134584  23.9316046  17.0830547  59.8916677  23.4527440  18.4210775
  42.0387249  38.0153921  18.1080404  41.9041717  37.2554322  17.5418402
  41.6219311  38.7394821  17.6409193  53.1746212  33.1990844   7.1156979
  53.8782062  33.4040847   7.7314635  52.4508860  33.7667606   7.3806063
  54.0044022  28.9500706  13.2359249  53.9479223  29.4069257  12.3966882
  54.5572364  28.1891390  13.0582092  57.8148828  24.7390437  14.0609369
  57.5585762  24.3387073  14.8917577  57.1901696  25.4534231  13.9359508
  62.1261166  27.4786511  16.5680660  61.5660724  27.5479700  17.3412222
  61.5204669  27.3027495  15.8480157  45.1956375  38.9123238  18.3198847
  45.0788759  39.8568670  18.2177537  44.3748821  38.6096799  18.7084646
  55.0832909  33.6373374   9.1655439  55.9178513  33.2054572   8.9832914
  54.9217252  33.4655387  10.0932334  54.7378801  30.1405487  10.5311779
  54.6827605  29.9749758   9.5900223  54.1124857  30.8481520  10.6873968
  52.0524708  32.4454399  29.8565341  52.9215868  32.6195051  29.4951976
  51.5731460  33.2648816  29.7341071  48.0474927  19.6413596  10.1097097
  48.0353597  20.5855436  10.2665368  48.9398349  19.4583741   9.8156558
  46.2210889  39.5651500  21.5354775  47.1238135  39.5975110  21.8521270
  45.9948259  38.6351951  21.5501111  47.9764491  38.3182486  18.1964854
  47.0260122  38.3184348  18.0829226  48.2796977  37.5715221  17.6800888
  51.8627046  16.2356372  14.3643034  51.0959442  15.6814859  14.5099716
  52.2737751  16.3078241  15.2257185  43.8668807  22.5241168  28.4548215
  44.7300269  22.1677973  28.6651540  43.2934218  22.1855063  29.1423619
  63.7117184  44.1543025  19.2610616  64.3495594  44.0349772  18.5573956
  63.5938027  45.1023869  19.3198568  60.5206890  44.1070453  19.1972141
  60.1825402  43.9911517  18.3092676  61.3896659  43.7061618  19.1773147
  56.3793706  45.9605929  15.1869032  55.8158571  45.8695866  14.4185319
  56.2646101  45.1405834  15.6671524  53.9258138  47.4557121  18.0253252
  54.7179430  47.1147945  17.6099551  54.1654788  47.5652096  18.9455405
  61.9593265  49.6276897  10.4983497  61.3081245  50.2130977  10.1117510
  62.7537628  50.1583092  10.5578534  55.8848892  46.7166034  10.8970631
  56.6579768  46.1695021  10.7583507  56.2374291  47.5810283  11.1085092
  58.6490141  45.4219265  20.6938890  59.2453714  45.1975287  19.9795853
  58.7065113  44.6804010  21.2964338  58.2215170  42.8758700   8.5289081
  58.4740691  42.3540221   7.7672544  57.2839729  42.7124846   8.6315764
  63.2658453  41.8794478  16.3363824  64.0521542  41.4613902  15.9854241
  63.5297157  42.7840571  16.5045472  63.4368530  47.3167329  11.0352481
  62.8014363  47.3901955  11.7473386  63.1065936  47.9060928  10.3571560
  68.6666880  41.8169712  17.2396803  69.3992052  41.2468928  17.4734632
  67.9106235  41.4291312  17.6803308  57.9411459  44.7786806  10.7313456
  57.8247717  44.1031709  11.3994540  58.0513718  44.2919180   9.9145609
  60.2843000  44.2396953  14.4360145  59.9201207  43.7127574  15.1473067
  61.1410115  43.8495422  14.2626630  66.1892300  35.5291286  21.6991411
  65.8575625  36.3986697  21.4752626  65.5937914  35.2127570  22.3785442
  59.9248486  39.2686853   9.4321494  60.0922889  40.1367089   9.7991965
  59.7345656  39.4314135   8.5082783  62.6823820  47.7303832  21.0987324
  62.3824543  48.6328871  20.9903131  62.3374879  47.4636015  21.9508477
  56.1336301  44.1817629  17.1324028  55.2086798  44.0493843  17.3401720
  56.3820714  44.9611848  17.6293971  66.0820963  40.2486372  18.7784761
  65.1737841  40.1801780  18.4843522  66.0308559  40.7258317  19.6066587
  59.9037707  41.7244510  10.4168160  59.7837333  42.1701561  11.2553641
  59.2090296  42.0729828   9.8581699  53.4945112  43.8250902  17.9667817
  53.6237493  44.0785381  18.8807229  52.8142563  44.4178610  17.6472472
  57.6644599  54.4948152  14.0658292  57.5868629  55.4455977  14.1446772
  57.0606243  54.1494025  14.7233218  67.9482610  38.4502810  20.5562635
  67.3056990  38.7435344  19.9102430  67.4437538  38.3355731  21.3615832
  65.6022774  42.1965984  11.2448494  66.5140630  42.4293370  11.0696192
  65.0932421  42.7803028  10.6823573  63.8863541  46.6190611  24.8809787
  64.2946897  46.1773022  24.1364419  63.1640803  46.0443239  25.1343980
  64.2092356  47.1791802  18.6362076  63.5801218  47.3437516  17.9338144
  63.8218018  47.5933412  19.4073040  68.0881588  48.1146240  15.9906440
  67.4032626  48.4945141  15.4403473  68.1725437  48.7241566  16.7238387
  65.3432519  45.7606199  22.5901783  65.5549415  46.4037959  21.9136164
  65.2962268  44.9268515  22.1223713  62.9458748  38.3724020  19.4938355
  62.0843227  38.6705273  19.7855093  62.9721183  38.5894418  18.5619388
  59.7620318  46.9166210  15.9012161  60.2258663  47.1953913  15.1116783
  59.4977116  46.0149655  15.7185252  56.6544399  46.4637692  18.8391924
  57.2245756  46.8924960  18.2009409  57.2452511  46.1820276  19.5376110
  58.6989204  43.0389362  12.7101726  59.4013247  43.4910406  13.1775653
  58.3669832  42.3973181  13.3381619  52.4414538  41.2972915  18.0118860
  51.6513592  41.5530444  17.5358970  52.9325785  42.1121253  18.1170900
  66.4578347  48.6378154  20.7624141  67.2795791  48.2358342  20.4806822
  66.4540750  48.5346388  21.7140256  54.3929283  41.6617494  14.9702336
  53.5960446  41.7736189  15.4885832  54.1654875  42.0004147  14.1043227
  60.2234951  48.1862198  22.9184851  60.2879383  48.6482605  23.7543023
  59.5145875  47.5559563  23.0467161  50.7252241  41.5503406  20.4433850
  50.9760279  42.4350415  20.7091426  51.2611789  41.3708007  19.6708942
  74.5484340  44.9816903  17.1109112  73.7948049  44.4124301  16.9553116
  74.6831882  44.9479567  18.0579747  59.9382968  49.8530305  12.7863831
  59.8028643  50.6981841  13.2148679  60.4792781  50.0549583  12.0229765
  53.3912366  47.3705743  13.3591756  53.9036886  48.1648993  13.5097321
  54.0435079  46.6732034  13.2925358  55.2007250  50.4871499  15.4414510
  55.3773879  51.4089464  15.2535494  55.9964084  50.1729919  15.8708889
  63.6632683  50.7556672  24.9445575  63.6451158  51.5765553  24.4525844
  64.5852603  50.6310747  25.1695716  63.2875432  33.3760867  21.3162725
  62.9439701  34.2662509  21.2401835  63.6554395  33.1862525  20.4532310
  51.3561283  45.6994397  14.1351327  52.1936505  46.1091406  13.9185035
  51.5339550  44.7593840  14.1051521  63.2525715  43.3669478   9.8235160
  62.7372338  44.1374083  10.0623547  62.9803023  42.6934614  10.4468221
  60.8372826  38.2119179  14.8820398  59.9814422  37.8226029  14.7026037
  61.2499777  38.2911140  14.0220184  62.3671972  35.7465522  19.2811958
  61.8636768  35.7095657  18.4679763  62.6602579  36.6558265  19.3408615
  58.6114858  35.8304252  18.2878140  59.4767855  35.6347061  17.9284029
  58.6792367  35.6014604  19.2147497  68.2259989  46.1201833  11.7588333
  67.4489432  45.7812992  11.3143495  68.9051470  46.1254456  11.0843298
  63.0412018  41.2396570  11.6494941  62.7362153  41.5542719  12.5005084
  63.9942460  41.3177990  11.6922274  61.4858450  47.3986793  13.2987895
  60.9579811  46.6639553  12.9861133  60.9845952  48.1761470  13.0527863
  66.4651296  45.5935814  18.4154941  65.8074970  46.2835075  18.5035070
  67.2691695  45.9832246  18.7588928  56.2177177  38.0606460  15.6594507
  56.7920929  37.8381641  14.9267700  56.8048160  38.1295154  16.4123108
  65.2756755  43.9480187  16.4658883  65.7888636  44.5810178  16.9680593
  65.9257978  43.3481382  16.1002243  56.5446764  40.0910921   9.6790392
  55.7084077  40.4285607   9.9999667  56.4051534  39.9559901   8.7417529
  58.5199845  34.9347709  14.3869576  57.8664257  34.6196726  13.7626191
  58.4780319  34.3123449  15.1129399  59.6311050  45.2167004   6.3022868
  58.7238112  44.9856257   6.5014017  60.1282082  44.4204623   6.4896850
  62.5379129  53.9264511   9.2219554  61.8640828  54.2296208   9.8304512
  62.9244951  54.7293591   8.8725011  61.7537585  41.4229642  18.7117224
  60.8360147  41.6444589  18.5538912  62.1697729  41.4975953  17.8528931
  62.5372633  42.8221058  13.8419904  63.2844452  43.3342455  13.5327026
  62.8064223  42.5005111  14.7024297  60.8099283  45.3179599  10.8246858
  59.9010503  45.0338631  10.9219328  60.8394367  45.7378677   9.9650165
  66.0418551  48.9286188  14.5938026  65.5880878  48.0877098  14.6503216
  65.4112517  49.5647586  14.9312806  64.9851470  39.8578174  15.8238693
  64.2474227  39.3455560  16.1548936  65.2378244  39.4178556  15.0121970
  64.4851490  50.7662685  15.5287844  64.7774464  51.3267742  14.8100210
  64.9950111  51.0591246  16.2841003  65.0863098  32.6354426  16.4180463
  65.3921974  31.7751790  16.1306378  65.8115702  33.2272046  16.2179456
  51.3787454  43.0385113  14.8062060  51.1811854  42.4454473  14.0813127
  50.8234118  42.7337323  15.5237999  59.3584177  42.9308219  16.9256654
  59.4132787  41.9782056  16.8499130  58.5475379  43.0867658  17.4097952
  60.5075371  46.8588342   8.1634937  60.0694801  46.1424201   7.7040574
  61.2485812  47.0864457   7.6020028  57.2976537  41.5485279  14.6847032
  56.4844403  41.8479450  15.0912225  57.7935531  41.1540968  15.4021515
  59.4485115  51.5443036  16.6181297  59.4061294  51.7703882  15.6889829
  60.3647814  51.3106410  16.7667098  68.6248486  45.1345539  14.2211255
  68.4866384  45.3247135  13.2932445  68.2684705  45.8964922  14.6779306
  56.7890612  39.1203634  20.3008267  57.4289991  38.9792394  19.6031231
  55.9568143  38.8338148  19.9246869  68.6517865  47.2022066  19.2322527
  69.0854372  47.1097355  20.0805581  69.3649446  47.1779567  18.5942543
  57.5650916  48.4206065  16.4143260  58.3591514  47.9256385  16.2125835
  56.8542608  47.8923928  16.0510965  62.3845760  50.8024160  20.7655627
  62.4382783  51.3715097  21.5333343  61.5160542  50.9726045  20.4009665
  53.8733679  42.5649147  12.4903013  52.9431267  42.5033602  12.7072975
  53.9691151  42.0425099  11.6939654  53.7919228  39.0903959  15.0781254
  54.0526046  40.0049293  14.9690415  54.6136401  38.6228402  15.2277867
  55.2644154  40.5041717  22.2480079  55.9367207  40.2959079  21.5992728
  54.4373940  40.3063803  21.8085311  69.5133415  47.2445767  21.7655412
  69.7069305  48.1491577  22.0114687  69.4134033  46.7853186  22.5993997
  61.1669726  37.1303658  24.2645740  60.5197641  37.8293607  24.1710216
  61.9370741  37.5639801  24.6321988  60.1422192  48.9935087  20.0941097
  60.0033278  48.6253871  20.9667035  59.3536788  49.5082726  19.9225055
  60.7370344  54.0944183  11.4366633  60.9122100  53.6232227  12.2512256
  60.0503132  54.7209950  11.6647894  61.6927407  48.3716690  17.4829935
  61.3577240  48.3317460  18.3787585  61.1931353  47.7061405  17.0100345
  64.6286599  45.7172724   7.7566994  64.0115769  44.9919552   7.6600047
  64.1603087  46.4782084   7.4134069  66.2840730  50.4271632  25.4172775
  66.2253277  49.7430852  24.7503358  66.6860249  51.1690622  24.9653401
  56.4185145  39.9358148   6.8788299  55.5414611  39.8146949   6.5150545
  56.8942898  39.1444227   6.6267187  66.2858138  48.3911216  23.6486754
  65.3984916  48.0537138  23.7713153  66.8556689  47.6594247  23.8855520
  47.9387285  44.7235308  16.9729806  48.6258325  44.4097038  16.3850821
  47.7835413  45.6276673  16.6997057  52.7422007  39.6125505  21.4014830
  52.6580196  39.0051174  20.6665239  51.9204713  40.1034523  21.4024326
  59.8159291  53.0512669  20.6147998  59.7429463  53.8567640  21.1267302
  59.3736684  53.2504634  19.7896019  59.6049071  52.2884439  14.1250819
  58.8216593  52.8306119  14.2189044  60.3041816  52.8058418  14.5245060
  62.9145721  38.0979068  16.7685025  63.4114420  37.3449030  16.4486095
  62.1432702  38.1343385  16.2028234  70.7675478  43.8019434  18.4103316
  70.7565354  44.6844149  18.0397249  69.8992858  43.4490984  18.2157853
  62.2757975  52.9499503  22.7706156  62.9885947  53.5846967  22.6982058
  61.7848003  53.0463369  21.9546158  63.9975501  46.8550755  14.3423448
  63.0631780  46.9752218  14.1728152  64.1752170  45.9523222  14.0783458
  59.4980690  40.2396451  16.4956709  59.1278477  39.6867491  17.1837615
  59.9939782  39.6354585  15.9431709  67.3848053  42.6968075  14.8773482
  67.8508505  43.5296066  14.8033785  67.8355553  42.2313056  15.5818741
  65.4524284  49.0411896  11.8759634  65.7284128  48.9268490  12.7853508
  64.5828783  48.6429381  11.8371807  65.3564716  35.0648662  18.9164383
  64.4427795  35.2952888  19.0846590  65.7857817  35.1487106  19.7678416
  65.1271174  43.2538554  21.4164277  64.4742624  43.5014461  20.7616730
  65.5051554  42.4402692  21.0826755  62.0878348  53.2898247  15.5192448
  62.2700742  52.4719903  15.9820200  62.9111334  53.5065939  15.0817338
  62.4220513  52.2166432  12.7807496  62.9508280  51.7058886  12.1677658
  62.6848733  51.9008962  13.6453029  55.7776261  53.2681548  15.5405272
  55.1086637  53.7527676  15.0569312  55.6389131  53.5150769  16.4548651
  47.5155261  42.8035901  19.2447273  47.5539360  42.2699492  20.0384391
  47.0095554  42.2771107  18.6258250  59.9181530  55.3025292  22.1387931
  60.4699838  55.4656914  22.9037016  60.2587723  55.8929730  21.4667955
  54.8946023  37.6500442  22.7409815  54.9587350  38.5115273  22.3287213
  54.8313143  37.0374443  22.0082174  51.1463838  41.5300003  12.3201204
  51.4417280  40.6210682  12.2668258  50.2451874  41.5087743  11.9982207
  63.0549917  53.2507268  19.1251613  62.9301057  52.4497007  18.6162558
  63.7129008  53.7453461  18.6365583  54.6758085  39.6056000  18.3028753
  53.9544671  40.2191968  18.1636226  55.4651341  40.1413765  18.2245399
  65.1184826  51.0516288  20.7531163  64.1715161  50.9321639  20.6809490
  65.4667599  50.1638786  20.8357424  57.4784399  36.9410427  24.5769405
  58.0018801  37.1872723  25.3395714  57.2596732  37.7730461  24.1572542
  52.8751680  39.2114101  12.4440529  52.5464386  38.3311480  12.2615635
  53.2291051  39.1561770  13.3316919  62.1231259  50.8469004  16.9535515
  61.9756221  49.9185711  17.1343085  62.9484752  50.8689095  16.4692590
  55.9893503  39.4987071  12.8116007  56.3289576  40.0272992  12.0894616
  56.4365624  39.8367477  13.5874574  65.7265381  51.6697563  18.0400388
  66.6511928  51.4640424  17.9024839  65.5580684  51.4213964  18.9489729
  58.6836944  37.8824122  22.2619075  58.3433764  37.0831935  22.6639755
  57.9775950  38.1825832  21.6895908  59.3353416  34.9673434  20.7146398
  60.1579485  34.4933912  20.5925289  59.5791479  35.7463918  21.2145085
  57.9761650  37.9961693  11.0109300  58.6970013  38.3742945  10.5073017
  57.3526954  38.7150569  11.1144278  62.1192773  38.7006841  11.9467632
  62.3356388  39.5831479  11.6456460  61.6386840  38.3093055  11.2173274
  56.8591995  41.6592555  18.5238377  56.7136575  41.9732858  19.4162658
  56.3817198  42.2777455  17.9709275  58.7188378  38.6495103  18.5719266
  58.7049946  37.7536196  18.2351564  59.4360806  38.6565766  19.2057552
  60.5714508  39.0832443  20.6172394  60.3132286  40.0049514  20.6156724
  60.0399549  38.6862877  21.3072858  65.5160697  52.1883230  13.3962479
  65.6897575  51.6229653  12.6436332  66.0089588  52.9884125  13.2141969
  51.3337657  44.1997899  21.4626038  50.7891125  44.9757707  21.5946312
  52.2117007  44.5468704  21.3045159  58.1225273  37.5309483  13.8406837
  58.2441185  36.6026129  14.0397724  57.8327316  37.5448169  12.9285152
  60.9916464  35.2164393  16.9773556  61.0138161  35.2803727  16.0225536
  61.4084523  34.3768902  17.1714063  71.3700088  44.9519653  15.0152779
  71.8131234  44.2026978  14.6171902  70.4926598  44.9429789  14.6326511
  66.5035869  51.5049994  10.4959377  67.1986774  52.1256687  10.7146692
  66.8459020  50.6545346  10.7711755  52.1203679  43.3267795  24.3556195
  51.3785415  43.4750431  24.9420825  51.7996423  43.5876061  23.4922944
  68.4027293  48.9549700  12.0246708  68.9278617  49.2936973  11.2996028
  68.3149645  48.0196715  11.8409843  60.0867953  55.0221683  16.3841961
  59.6472944  54.5298062  17.0774818  60.8376070  54.4794651  16.1434037
  52.5660292  51.2133224  16.3866590  53.3918312  50.9136996  16.0065233
  52.2154344  50.4440847  16.8356378  57.5341825  50.5659692  18.4564263
  56.9121835  49.9030397  18.1566491  58.2046692  50.5920824  17.7737911
  50.7668897  49.1319551  17.3455523  49.9300806  48.7041725  17.1639524
  50.7392543  49.3251994  18.2826314  68.2119074  46.4375070  24.6430635
  68.2617079  46.2725077  25.5846158  68.1032997  45.5702329  24.2528516
  57.0955332  49.1163616  11.9322724  57.2443453  49.7999080  11.2789396
  57.9021776  49.0968706  12.4472179  69.7137271  48.8572011  24.8872656
  69.4222079  49.2201992  25.7236117  69.1009402  48.1439020  24.7085988
  70.9132953  46.4224891  17.4075227  71.7479844  46.8614695  17.5712787
  71.0492082  45.9463544  16.5883472  67.9624459  43.9804626  23.3552714
  68.4378580  44.1732272  22.5471566  67.0390024  44.0363812  23.1096098
  54.8507965  45.1428793  12.9383793  54.6054007  44.2391123  13.1364003
  55.0203880  45.1445944  11.9963271  62.5404675  36.0152470  22.3208548
  63.0586619  36.7513497  21.9955037  62.1859808  36.3216463  23.1555307
  54.1203613  40.8757151  10.4369954  53.4272858  40.9501506   9.7809990
  53.8755365  40.1117495  10.9591471  62.7917269  32.4352752  17.8409445
  63.0719023  31.7675941  18.4669871  63.5767876  32.6281848  17.3284109
  60.5950738  51.6111746   9.4034471  60.0224705  52.2301933   8.9504943
  61.1683532  52.1611108   9.9374393  66.6626128  40.8570386  21.5881020
  67.6143551  40.9568484  21.6093244  66.4929578  40.0648655  22.0979104
  64.6840507  37.9425969  21.7740421  64.0890439  38.2230982  21.0786909
  64.3990204  38.4319870  22.5457162  63.8147998  51.8948896  10.5343053
  64.7478671  51.8294458  10.7375929  63.7271211  52.7305163  10.0757586
  66.4436014  51.2114767   7.4947001  66.3649646  50.8774630   8.3882759
  67.2645681  51.7036534   7.4938473  69.1414206  44.0776506  20.7023320
  69.1090526  43.1392507  20.8883003  69.7514829  44.1560543  19.9689144
  60.9797536  42.9472559   6.7450524  61.9256641  42.8178767   6.8138942
  60.6011781  42.2087221   7.2219952  69.2908694  40.8687549  20.7481603
  68.7747743  40.0846006  20.5611532  70.1748643  40.5406266  20.9128122
  66.9519421  34.6128565  16.7077415  66.7544242  34.3043653  17.5920747
  67.5619127  35.3390204  16.8375345  74.9590755  45.1392513  19.8429356
  75.6894144  44.8777801  20.4037060  74.3497701  44.4021235  19.8831424
  73.0406053  43.2800375  20.4403808  72.3139216  43.1456340  19.8320299
  72.6253339  43.5877204  21.2460526  59.1640454  40.8722535   6.6805409
  58.2571909  40.5755648   6.7568122  59.4416435  40.5752353   5.8139695
  50.0818394  42.1928899  17.1304455  49.7621178  41.3394207  16.8378829
  49.5351822  42.4077477  17.8862423  53.8598302  44.9091340  20.8473962
  54.0784311  45.8408447  20.8661996  54.2724075  44.5499314  21.6328766
  60.7802519  35.4159425  12.8349650  59.9703248  35.0706510  13.2104896
  61.4686936  35.1066969  13.4237262  62.7093068  34.4937472  14.4573947
  63.2624106  34.9132925  15.1163970  62.9463154  33.5673220  14.4996903
  57.9339238  37.7309470   6.8217388  58.7958402  38.0564369   7.0813205
  58.1189582  36.9440966   6.3090454  49.9506654  45.8131810  19.0997577
  49.2570125  45.3985763  18.5867531  50.6979645  45.8552347  18.5030996
  66.0871875  36.6037997  13.9652611  65.5070544  37.2622801  13.5830663
  65.8207807  35.7815342  13.5540029  64.5375441  36.0043055  16.1673931
  65.0375219  36.1159589  15.3588250  65.1811049  35.7004107  16.8074740
  51.8643396  45.7450064  16.9763592  51.8414085  45.8437751  16.0245475
  52.1744033  46.5915215  17.2980758  54.5230774  47.8026219  21.0910206
  55.4774028  47.7710161  21.0240138  54.3243298  47.3416843  21.9060432
  64.8696753  38.7638087  13.0208959  63.9822608  39.0487738  12.8029154
  65.2850742  38.6031851  12.1736236  68.2211289  38.7884608  16.7363299
  68.9971679  39.2781061  17.0087915  67.4959423  39.2142662  17.1935168
  70.6583847  39.5012228  17.7937239  71.2528338  39.2607963  17.0830547
  70.7310431  38.7819358  18.4210775  64.0139966  48.5282762   7.1156979
  64.7175816  48.7332764   7.7314635  63.2902615  49.0959524   7.3806063
  64.8437776  44.2792623  13.2359249  64.7872978  44.7361175  12.3966882
  65.3966119  43.5183308  13.0582092  68.6542582  40.0682355  14.0609369
  68.3979517  39.6678991  14.8917577  68.0295450  40.7826149  13.9359508
  72.9654920  42.8078428  16.5680660  72.4054478  42.8771618  17.3412222
  72.3598424  42.6319413  15.8480157  65.9226664  48.9665291   9.1655439
  66.7572267  48.5346490   8.9832914  65.7611006  48.7947305  10.0932334
  65.5772556  45.4697404  10.5311779  65.5221360  45.3041676   9.5900223
  64.9518611  46.1773437  10.6873968  50.3665071  40.7065469  24.3573201
  51.0123934  40.1964423  24.8460426  50.1582222  41.4434151  24.9316626
  58.8868681  34.9705513  10.1097097  58.8747351  35.9147353  10.2665368
  59.7792103  34.7875659   9.8156558  58.8158245  53.6474404  18.1964854
  57.8653876  53.6476266  18.0829226  59.1190731  52.9007138  17.6800888
  62.7020801  31.5648290  14.3643034  61.9353196  31.0106777  14.5099716
  63.1131506  31.6370159  15.2257185  54.7062562  37.8533086  28.4548215
  55.5694023  37.4969891  28.6651540  54.1327972  37.5146981  29.1423619
  74.5510939  59.4834942  19.2610616  75.1889349  59.3641690  18.5573956
  74.4331782  60.4315786  19.3198568  71.3600645  59.4362370  19.1972141
  71.0219156  59.3203435  18.3092676  72.2290413  59.0353535  19.1773147
  67.2187461  61.2897847  15.1869032  66.6552326  61.1987784  14.4185319
  67.1039856  60.4697751  15.6671524  71.8420428  60.5897222  25.1558346
  71.8309069  60.1950020  24.2838850  72.0041067  59.8563295  25.7492118
  64.7651893  62.7849038  18.0253252  65.5573184  62.4439863  17.6099551
  65.0048543  62.8944013  18.9455405  66.7242646  62.0457952  10.8970631
  67.4973523  61.4986939  10.7583507  67.0768045  62.9102201  11.1085092
  68.5627689  63.3734334  24.1037530  68.2717555  64.2779965  23.9884197
  69.1984673  63.4150862  24.8181600  69.4883896  60.7511182  20.6938890
  70.0847468  60.5267205  19.9795853  69.5458867  60.0095928  21.2964338
  74.1052207  57.2086396  16.3363824  74.8915296  56.7905819  15.9854241
  74.3690911  58.1132488  16.5045472  79.5060634  57.1461629  17.2396803
  80.2385806  56.5760846  17.4734632  78.7499990  56.7583230  17.6803308
  68.7805213  60.1078724  10.7313456  68.6641471  59.4323627  11.3994540
  68.8907473  59.6211098   9.9145609  71.1236754  59.5688871  14.4360145
  70.7594961  59.0419492  15.1473067  71.9803870  59.1787340  14.2626630
  77.0286055  50.8583203  21.6991411  76.6969379  51.7278614  21.4752626
  76.4331668  50.5419487  22.3785442  70.7642241  54.5978771   9.4321494
  70.9316643  55.4659007   9.7991965  70.5739410  54.7606052   8.5082783
  73.5217574  63.0595749  21.0987324  73.2218297  63.9620788  20.9903131
  73.1768634  62.7927933  21.9508477  66.9730056  59.5109546  17.1324028
  66.0480552  59.3785760  17.3401720  67.2214469  60.2903766  17.6293971
  76.9214718  55.5778290  18.7784761  76.0131595  55.5093698  18.4843522
  76.8702314  56.0550235  19.6066587  70.7431462  57.0536428  10.4168160
  70.6231087  57.4993479  11.2553641  70.0484050  57.4021746   9.8581699
  64.3338867  59.1542820  17.9667817  64.4631248  59.4077299  18.8807229
  63.6536318  59.7470528  17.6472472  70.9955584  56.9967935  26.7219659
  70.2188918  57.5561855  26.7122523  71.6346147  57.4824718  27.2434529
  78.7876364  53.7794728  20.5562635  78.1450745  54.0727261  19.9102430
  78.2831293  53.6647648  21.3615832  69.2501956  59.8053389  26.2837626
  69.9916640  60.3438433  26.0072449  68.5438941  60.4319677  26.4409177
  74.7257296  61.9482529  24.8809787  75.1340652  61.5064940  24.1364419
  74.0034557  61.3735157  25.1343980  71.0788366  56.8855136  22.2543344
  71.9249561  57.3094549  22.3977993  71.0187003  56.2288760  22.9481907
  75.0486110  62.5083720  18.6362076  74.4194973  62.6729434  17.9338144
  74.6611772  62.9225329  19.4073040  74.2287811  54.5459504  23.9124518
  73.9848743  55.3001565  23.3758793  74.5047742  54.9244852  24.7471765
  76.1826274  61.0898117  22.5901783  76.3943169  61.7329876  21.9136164
  76.1356022  60.2560433  22.1223713  73.7852503  53.7015937  19.4938355
  72.9236982  53.9997191  19.7855093  73.8114937  53.9186336  18.5619388
  70.6014072  62.2458128  15.9012161  71.0652418  62.5245831  15.1116783
  70.3370870  61.3441572  15.7185252  67.4938153  61.7929609  18.8391924
  68.0639510  62.2216878  18.2009409  68.0846265  61.5112194  19.5376110
  69.5382958  58.3681280  12.7101726  70.2407002  58.8202324  13.1775653
  69.2063587  57.7265099  13.3381619  67.9863320  56.9593037  27.0852936
  67.3561980  57.6409318  27.3188332  67.8799408  56.8476118  26.1406074
  63.2808292  56.6264833  18.0118860  62.4907346  56.8822361  17.5358970
  63.7719540  57.4413171  18.1170900  77.2972102  63.9670072  20.7624141
  78.1189545  63.5650259  20.4806822  77.2934505  63.8638306  21.7140256
  65.2323038  56.9909412  14.9702336  64.4354201  57.1028106  15.4885832
  65.0048630  57.3296064  14.1043227  71.0628705  63.5154115  22.9184851
  71.1273138  63.9774522  23.7543023  70.3539629  62.8851480  23.0467161
  61.5645995  56.8795323  20.4433850  61.8154034  57.7642333  20.7091426
  62.1005544  56.6999925  19.6708942  85.3878095  60.3108820  17.1109112
  84.6341803  59.7416219  16.9553116  85.5225636  60.2771485  18.0579747
  64.2306120  62.6997661  13.3591756  64.7430641  63.4940911  13.5097321
  64.8828833  62.0023951  13.2925358  66.0401005  65.8163417  15.4414510
  66.2167633  66.7381382  15.2535494  66.8357838  65.5021836  15.8708889
  70.1812023  52.6771682  27.0398443  70.9221737  53.2778835  26.9602906
  70.4129946  51.9349319  26.4816486  65.3253362  57.8628049  25.3176673
  65.2106877  56.9613306  25.6183772  64.4697879  58.1091746  24.9661489
  72.4045199  65.8045789  26.9164173  71.9609053  65.0182168  26.5985078
  73.0662413  65.9924940  26.2508064  67.1632320  67.3341591  21.4424852
  67.7139746  67.2058654  20.6701846  66.3243796  67.6336480  21.0919745
  74.5026437  66.0848589  24.9445575  74.4844913  66.9057470  24.4525844
  75.4246357  65.9602664  25.1695716  70.9599491  63.5992719  25.7869083
  71.4927828  62.8381007  25.5568391  70.4313573  63.3066370  26.5293238
  74.1269186  48.7052785  21.3162725  73.7833456  49.5954426  21.2401835
  74.4948149  48.5154442  20.4532310  62.1955037  61.0286315  14.1351327
  63.0330259  61.4383323  13.9185035  62.3733305  60.0885757  14.1051521
  71.6766580  53.5411097  14.8820398  70.8208177  53.1517947  14.7026037
  72.0893532  53.6203057  14.0220184  73.2065727  51.0757440  19.2811958
  72.7030522  51.0387575  18.4679763  73.4996334  51.9850183  19.3408615
  69.4508613  51.1596170  18.2878140  70.3161609  50.9638978  17.9284029
  69.5186122  50.9306521  19.2147497  73.8805772  56.5688488  11.6494941
  73.5755908  56.8834637  12.5005084  74.8336214  56.6469908  11.6922274
  72.3252204  62.7278711  13.2987895  71.7973566  61.9931471  12.9861133
  71.8239707  63.5053387  13.0527863  77.3045050  60.9227732  18.4154941
  76.6468725  61.6126993  18.5035070  78.1085449  61.3124164  18.7588928
  67.0570932  53.3898377  15.6594507  67.6314684  53.1673559  14.9267700
  67.6441914  53.4587072  16.4123108  76.1150509  59.2772104  16.4658883
  76.6282391  59.9102096  16.9680593  76.7651733  58.6773300  16.1002243
  67.3840519  55.4202838   9.6790392  66.5477831  55.7577525   9.9999667
  67.2445289  55.2851818   8.7417529  69.3593600  50.2639626  14.3869576
  68.7058012  49.9488644  13.7626191  69.3174074  49.6415367  15.1129399
  72.5931340  56.7521560  18.7117224  71.6753901  56.9736507  18.5538912
  73.0091483  56.8267870  17.8528931  73.3766388  58.1512976  13.8419904
  74.1238207  58.6634373  13.5327026  73.6457977  57.8297028  14.7024297
  75.8245225  55.1870092  15.8238693  75.0867982  54.6747478  16.1548936
  76.0771998  54.7470473  15.0121970  75.9256852  47.9646344  16.4180463
  76.2315729  47.1043707  16.1306378  76.6509457  48.5563964  16.2179456
  62.2181208  58.3677030  14.8062060  62.0205608  57.7746391  14.0813127
  61.6627872  58.0629241  15.5237999  70.1977932  58.2600137  16.9256654
  70.2526542  57.3073973  16.8499130  69.3869134  58.4159576  17.4097952
  68.1370292  56.8777197  14.6847032  67.3238157  57.1771367  15.0912225
  68.6329286  56.4832885  15.4021515  70.2878870  66.8734954  16.6181297
  70.2455048  67.0995800  15.6889829  71.2041569  66.6398328  16.7667098
  73.7344503  57.3419021  23.5161926  74.0893891  57.5690494  24.3756392
  74.3816635  57.6737398  22.8939182  67.6284367  54.4495552  20.3008267
  68.2683746  54.3084311  19.6031231  66.7961897  54.1630066  19.9246869
  79.4911620  62.5313984  19.2322527  79.9248127  62.4389273  20.0805581
  80.2043201  62.5071484  18.5942543  68.4044670  63.7497983  16.4143260
  69.1985269  63.2548303  16.2125835  67.6936363  63.2215846  16.0510965
  73.2239515  66.1316078  20.7655627  73.2776537  66.7007014  21.5333343
  72.3554296  66.3017963  20.4009665  64.7127434  57.8941064  12.4903013
  63.7825022  57.8325520  12.7072975  64.8084906  57.3717017  11.6939654
  64.6312983  54.4195877  15.0781254  64.8919800  55.3341210  14.9690415
  65.4530155  53.9520320  15.2277867  66.1037908  55.8333634  22.2480079
  66.7760962  55.6250996  21.5992728  65.2767695  55.6355720  21.8085311
  80.3527170  62.5737685  21.7655412  80.5463060  63.4783495  22.0114687
  80.2527788  62.1145104  22.5993997  72.0063480  52.4595575  24.2645740
  71.3591395  53.1585525  24.1710216  72.7764496  52.8931719  24.6321988
  75.4142278  62.7244427  27.3396293  75.2627785  62.4954979  26.4226377
  75.4046958  63.6815029  27.3527638  72.1827615  60.2976340  22.3242559
  73.1119675  60.4487500  22.1511527  71.7618645  60.3860361  21.4691206
  70.9815946  64.3227005  20.0941097  70.8427032  63.9545789  20.9667035
  70.1930543  64.8374644  19.9225055  72.5321162  63.7008607  17.4829935
  72.1970994  63.6609377  18.3787585  72.0325107  63.0353323  17.0100345
  66.5065406  59.1076237  23.0082516  66.3685203  58.3756476  23.6094055
  67.4170329  59.0185137  22.7266704  69.1347706  58.8196197  22.4966196
  69.8447325  58.1789389  22.4552814  69.0917014  59.0709091  23.4192376
  67.8476640  55.8061414  24.3161835  67.3113997  55.3552153  24.9683431
  67.2593349  55.9407323  23.5732299  66.1425184  72.5725464  18.2106494
  66.3821782  73.2043988  18.8885512  65.2994380  72.2213504  18.4971853
  67.2578899  55.2650066   6.8788299  66.3808365  55.1438867   6.5150545
  67.7336652  54.4736144   6.6267187  77.1251892  63.7203134  23.6486754
  76.2378671  63.3829056  23.7713153  77.6950443  62.9886165  23.8855520
  58.7781039  60.0527226  16.9729806  59.4652079  59.7388956  16.3850821
  58.6229168  60.9568590  16.6997057  63.5815761  54.9417422  21.4014830
  63.4973950  54.3343092  20.6665239  62.7598468  55.4326441  21.4024326
  70.6553046  68.3804586  20.6147998  70.5823217  69.1859558  21.1267302
  70.2130439  68.5796552  19.7896019  73.7539475  53.4270986  16.7685025
  74.2508175  52.6740948  16.4486095  72.9826457  53.4635302  16.2028234
  81.6069233  59.1311351  18.4103316  81.5959109  60.0136067  18.0397249
  80.7386612  58.7782902  18.2157853  73.1151729  68.2791420  22.7706156
  73.8279701  68.9138885  22.6982058  72.6241758  68.3755286  21.9546158
  74.8369256  62.1842673  14.3423448  73.9025535  62.3044135  14.1728152
  75.0145924  61.2815140  14.0783458  70.3374444  55.5688369  16.4956709
  69.9672232  55.0159409  17.1837615  70.8333536  54.9646502  15.9431709
  78.2241807  58.0259992  14.8773482  78.6902260  58.8587984  14.8033785
  78.6749308  57.5604974  15.5818741  68.1663643  66.0285864  23.5911727
  68.8673102  66.6622347  23.7441121  67.6958758  66.3700595  22.8307366
  76.1958470  50.3940579  18.9164383  75.2821550  50.6244806  19.0846590
  76.6251572  50.4779023  19.7678416  75.9664929  58.5830471  21.4164277
  75.3136379  58.8306379  20.7616730  76.3445308  57.7694609  21.0826755
  72.0152502  59.3250282  27.9030315  71.3393139  59.2244412  28.5732690
  72.8380135  59.1689496  28.3666312  63.7631361  65.5622219  20.5242830
  64.3484797  64.8165907  20.6570734  63.5656199  65.8726175  21.4079494
  66.6170016  68.5973466  15.5405272  65.9480391  69.0819594  15.0569312
  66.4782886  68.8442687  16.4548651  58.3549015  58.1327819  19.2447273
  58.3933115  57.5991410  20.0384391  57.8489308  57.6063024  18.6258250
  70.7575284  70.6317210  22.1387931  71.3093592  70.7948831  22.9037016
  71.0981478  71.2221648  21.4667955  65.7339778  52.9792359  22.7409815
  65.7981104  53.8407190  22.3287213  65.6706898  52.3666361  22.0082174
  65.2092050  55.0515492  26.3882850  65.8364089  54.6692569  27.0020374
  64.3519969  54.8329694  26.7538542  75.6086159  65.4578467  27.9936585
  76.1526063  66.0708425  27.4991540  75.0273004  66.0158046  28.5103598
  61.9857593  56.8591921  12.3201204  62.2811034  55.9502600  12.2668258
  61.0845629  56.8379661  11.9982207  73.8943672  68.5799185  19.1251613
  73.7694811  67.7788925  18.6162558  74.5522763  69.0745379  18.6365583
  65.5151840  54.9347918  18.3028753  64.7938426  55.5483885  18.1636226
  66.3045096  55.4705683  18.2245399  75.9578580  66.3808205  20.7531163
  75.0108916  66.2613556  20.6809490  76.3061353  65.4930703  20.8357424
  68.3178153  52.2702344  24.5769405  68.8412555  52.5164641  25.3395714
  68.0990487  53.1022379  24.1572542  63.7145435  54.5406019  12.4440529
  63.3858141  53.6603398  12.2615635  64.0684805  54.4853687  13.3316919
  72.9625013  66.1760922  16.9535515  72.8149976  65.2477629  17.1343085
  73.7878507  66.1981012  16.4692590  66.8287258  54.8278989  12.8116007
  67.1683330  55.3564910  12.0894616  67.2759378  55.1659395  13.5874574
  76.5659135  66.9989480  18.0400388  77.4905683  66.7932342  17.9024839
  76.3974439  66.7505881  18.9489729  69.5230699  53.2116039  22.2619075
  69.1827519  52.4123852  22.6639755  68.8169705  53.5117750  21.6895908
  70.1747170  50.2965352  20.7146398  70.9973240  49.8225830  20.5925289
  70.4185234  51.0755836  21.2145085  68.8155405  53.3253610  11.0109300
  69.5363767  53.7034863  10.5073017  68.1920709  54.0442487  11.1144278
  72.9586528  54.0298759  11.9467632  73.1750142  54.9123397  11.6456460
  72.4780595  53.6384973  11.2173274  67.6985749  56.9884472  18.5238377
  67.5530330  57.3024775  19.4162658  67.2210953  57.6069373  17.9709275
  69.5582132  53.9787020  18.5719266  69.5443701  53.0828114  18.2351564
  70.2754560  53.9857684  19.2057552  71.4108263  54.4124361  20.6172394
  71.1526041  55.3341431  20.6156724  70.8793303  54.0154795  21.3072858
  62.1731411  59.5289817  21.4626038  61.6284879  60.3049625  21.5946312
  63.0510761  59.8760621  21.3045159  68.9619028  52.8601401  13.8406837
  69.0834939  51.9318047  14.0397724  68.6721070  52.8740087  12.9285152
  71.8310218  50.5456311  16.9773556  71.8531915  50.6095644  16.0225536
  72.2478277  49.7060820  17.1714063  62.9597433  58.6559713  24.3556195
  62.2179169  58.8042348  24.9420825  62.6390177  58.9167979  23.4922944
  70.9041096  68.1975691  24.1536585  71.2128222  67.9524838  25.0259284
  71.7016578  68.4022330  23.6655455  63.4054047  66.5425142  16.3866590
  64.2312067  66.2428914  16.0065233  63.0548099  65.7732764  16.8356378
  68.3735580  65.8951610  18.4564263  67.7515589  65.2322315  18.1566491
  69.0440447  65.9212742  17.7737911  61.6062652  64.4611468  17.3455523
  60.7694560  64.0333643  17.1639524  61.5786297  64.6543912  18.2826314
  68.4460107  54.3733398  28.0496769  68.4948263  55.2495521  27.6674539
  68.9882622  53.8310791  27.4768412  78.9314953  64.9174521  27.3297906
  78.1410497  64.8998660  26.7902406  78.6948308  65.4562815  28.0846943
  79.0512828  61.7666988  24.6430635  79.1010833  61.6016995  25.5846158
  78.9426752  60.8994247  24.2528516  76.3416591  57.7497916  25.9589941
  77.2426453  57.6104381  25.6673939  76.4164565  57.9152371  26.8988119
  70.6759396  55.1264770  24.8043128  69.8062705  55.4198336  24.5325716
  70.9118876  55.7105215  25.5250391  80.5531025  64.1863929  24.8872656
  80.2615833  64.5493910  25.7236117  79.9403156  63.4730937  24.7085988
  81.7526707  61.7516809  17.4075227  82.5873599  62.1906613  17.5712787
  81.8885836  61.2755462  16.5883472  78.8018213  59.3096544  23.3552714
  79.2772335  59.5024190  22.5471566  77.8783779  59.3655730  23.1096098
  65.6901720  60.4720711  12.9383793  65.4447762  59.5683041  13.1364003
  65.8597634  60.4737861  11.9963271  73.3798430  51.3444387  22.3208548
  73.8980374  52.0805414  21.9955037  73.0253563  51.6508381  23.1555307
  64.9597367  56.2049069  10.4369954  64.2666612  56.2793424   9.7809990
  64.7149119  55.4409412  10.9591471  73.6311024  47.7644670  17.8409445
  73.9112778  47.0967859  18.4669871  74.4161631  47.9573765  17.3284109
  77.5019882  56.1862304  21.5881020  78.4537305  56.2860402  21.6093244
  77.3323333  55.3940572  22.0979104  75.5234262  53.2717887  21.7740421
  74.9284194  53.5522900  21.0786909  75.2383958  53.7611788  22.5457162
  79.9807960  59.4068424  20.7023320  79.9484280  58.4684424  20.8883003
  80.5908584  59.4852460  19.9689144  80.1302449  56.1979467  20.7481603
  79.6141497  55.4137924  20.5611532  81.0142397  55.8698184  20.9128122
  77.7913175  49.9420483  16.7077415  77.5937997  49.6335571  17.5920747
  78.4012881  50.6682121  16.8375345  85.7984510  60.4684430  19.8429356
  86.5287898  60.2069719  20.4037060  85.1891455  59.7313152  19.8831424
  83.8799807  58.6092293  20.4403808  83.1532971  58.4748258  19.8320299
  83.4647094  58.9169122  21.2460526  71.7029983  62.3282223  28.2051181
  72.6232993  62.5060822  28.3991227  71.6679566  61.3838268  28.0530880
  60.9212148  57.5220816  17.1304455  60.6014933  56.6686125  16.8378829
  60.3745577  57.7369394  17.8862423  64.6992056  60.2383257  20.8473962
  64.9178066  61.1700365  20.8661996  65.1117830  59.8791232  21.6328766
  71.6196274  50.7451343  12.8349650  70.8097002  50.3998428  13.2104896
  72.3080691  50.4358886  13.4237262  73.5486822  49.8229389  14.4573947
  74.1017861  50.2424843  15.1163970  73.7856908  48.8965138  14.4996903
  69.5719921  55.8116463  30.2376711  69.4716648  56.7610820  30.1688802
  69.3541463  55.4834702  29.3652781  68.7732993  53.0601388   6.8217388
  69.6352157  53.3856286   7.0813205  68.9583337  52.2732884   6.3090454
  60.7900408  61.1423728  19.0997577  60.0963880  60.7277681  18.5867531
  61.5373399  61.1844264  18.5030996  76.9265629  51.9329915  13.9652611
  76.3464298  52.5914719  13.5830663  76.6601562  51.1107259  13.5540029
  75.3769196  51.3334972  16.1673931  75.8768974  51.4451507  15.3588250
  76.0204803  51.0296025  16.8074740  69.4351191  59.2413602  29.0541772
  68.9518273  60.0413962  29.2605661  69.5212130  59.2521547  28.1009216
  62.7037151  61.0741982  16.9763592  62.6807839  61.1729669  16.0245475
  63.0137787  61.9207132  17.2980758  65.3624529  63.1318137  21.0910206
  66.3167782  63.1002079  21.0240138  65.1637052  62.6708760  21.9060432
  65.9523911  61.7019253  23.6581004  66.7716800  62.1963331  23.6815841
  66.2260719  60.7851221  23.6298571  75.7090507  54.0930005  13.0208959
  74.8216362  54.3779656  12.8029154  76.1244496  53.9323768  12.1736236
  79.0605043  54.1176526  16.7363299  79.8365433  54.6072978  17.0087915
  78.3353177  54.5434580  17.1935168  81.4977602  54.8304145  17.7937239
  82.0922093  54.5899881  17.0830547  81.5704186  54.1111276  18.4210775
  63.7174758  68.6737756  18.1080404  63.5829226  67.9138157  17.5418402
  63.3006820  69.3978656  17.6409193  75.6831531  59.6084541  13.2359249
  75.6266732  60.0653092  12.3966882  76.2359873  58.8475226  13.0582092
  79.4936337  55.3974273  14.0609369  79.2373271  54.9970908  14.8917577
  78.8689205  56.1118067  13.9359508  83.8048675  58.1370346  16.5680660
  83.2448233  58.2063535  17.3412222  83.1992178  57.9611331  15.8480157
  66.8743884  69.5707073  18.3198847  66.7576268  70.5152506  18.2177537
  66.0536330  69.2680635  18.7084646  73.7312217  63.1038234  29.8565341
  74.6003377  63.2778886  29.4951976  73.2518969  63.9232651  29.7341071
  69.7262436  50.2997431  10.1097097  69.7141106  51.2439271  10.2665368
  70.6185858  50.1167577   9.8156558  67.8998398  70.2235335  21.5354775
  68.8025644  70.2558945  21.8521270  67.6735768  69.2935786  21.5501111
  69.6552000  68.9766322  18.1964854  68.7047631  68.9768183  18.0829226
  69.9584486  68.2299056  17.6800888  73.5414555  46.8940208  14.3643034
  72.7746951  46.3398695  14.5099716  73.9525260  46.9662077  15.2257185
  82.6814182  75.9189140  25.1558346  82.6702823  75.5241938  24.2838850
  82.8434822  75.1855212  25.7492118  87.8679809  66.1875121  21.6991411
  87.5363134  67.0570532  21.4752626  87.2725423  65.8711405  22.3785442
  81.8349338  72.3259853  26.7219659  81.0582672  72.8853773  26.7122523
  82.4739901  72.8116636  27.2434529  80.0895711  75.1345306  26.2837626
  80.8310395  75.6730350  26.0072449  79.3832696  75.7611595  26.4409177
  85.0681566  69.8751422  23.9124518  84.8242497  70.6293482  23.3758793
  85.3441496  70.2536769  24.7471765  78.8257074  72.2884954  27.0852936
  78.1955735  72.9701235  27.3188332  78.7193162  72.1768036  26.1406074
  72.4039750  72.2087241  20.4433850  72.6547788  73.0934251  20.7091426
  72.9399298  72.0291842  19.6708942  78.1037817  66.5905720  29.4478187
  77.7104763  66.0371919  30.1225831  78.9203957  66.9016299  29.8384704
  81.0205778  68.0063599  27.0398443  81.7615491  68.6070753  26.9602906
  81.2523701  67.2641237  26.4816486  76.1647116  73.1919967  25.3176673
  76.0500631  72.2905224  25.6183772  75.3091634  73.4383663  24.9661489
  84.9662941  64.0344702  21.3162725  84.6227210  64.9246344  21.2401835
  85.3341904  63.8446360  20.4532310  78.4678121  69.7787470  20.3008267
  79.1077500  69.6376229  19.6031231  77.6355652  69.4921983  19.9246869
  76.9431663  71.1625552  22.2480079  77.6154716  70.9542914  21.5992728
  76.1161449  70.9647638  21.8085311  82.8457235  67.7887493  24.2645740
  82.1985150  68.4877443  24.1710216  83.6158250  68.2223637  24.6321988
  77.3459160  74.4368155  23.0082516  77.2078958  73.7048394  23.6094055
  78.2564083  74.3477055  22.7266704  79.9741461  74.1488114  22.4966196
  80.6841079  73.5081306  22.4552814  79.9310769  74.4001009  23.4192376
  78.6870395  71.1353332  24.3161835  78.1507752  70.6844071  24.9683431
  78.0987103  71.2699241  23.5732299  74.4209516  70.2709340  21.4014830
  74.3367705  69.6635009  20.6665239  73.5992222  70.7618358  21.4024326
  82.8546256  74.6542200  27.9030315  82.1786893  74.5536329  28.5732690
  83.6773890  74.4981414  28.3666312  69.1942770  73.4619737  19.2447273
  69.2326869  72.9283327  20.0384391  68.6883063  72.9354942  18.6258250
  76.5733532  68.3084277  22.7409815  76.6374859  69.1699108  22.3287213
  76.5100652  67.6958279  22.0082174  76.0485805  70.3807410  26.3882850
  76.6757844  69.9984487  27.0020374  75.1913724  70.1621612  26.7538542
  79.1571908  67.5994262  24.5769405  79.6806310  67.8456558  25.3395714
  78.9384241  68.4314297  24.1572542  80.3624453  68.5407957  22.2619075
  80.0221273  67.7415770  22.6639755  79.6563459  68.8409668  21.6895908
  81.0140925  65.6257269  20.7146398  81.8366994  65.1517748  20.5925289
  81.2578988  66.4047753  21.2145085  73.0125166  74.8581734  21.4626038
  72.4678634  75.6341542  21.5946312  73.8904516  75.2052539  21.3045159
  73.7991188  73.9851631  24.3556195  73.0572924  74.1334266  24.9420825
  73.4783932  74.2459896  23.4922944  79.2853862  69.7025316  28.0496769
  79.3342017  70.5787438  27.6674539  79.8276376  69.1602709  27.4768412
  87.1810345  73.0789833  25.9589941  88.0820208  72.9396298  25.6673939
  87.2558320  73.2444288  26.8988119  81.5153150  70.4556688  24.8043128
  80.6456460  70.7490254  24.5325716  81.7512631  71.0397133  25.5250391
  84.2192184  66.6736305  22.3208548  84.7374128  67.4097332  21.9955037
  83.8647317  66.9800298  23.1555307  82.5423738  77.6574140  28.2051181
  83.4626747  77.8352739  28.3991227  82.5073321  76.7130186  28.0530880
  80.4113676  71.1408381  30.2376711  80.3110403  72.0902738  30.1688802
  80.1935218  70.8126620  29.3652781  80.2744946  74.5705520  29.0541772
  79.7912028  75.3705880  29.2605661  80.3605885  74.5813464  28.1009216
  76.7917665  77.0311170  23.6581004  77.6110554  77.5255249  23.6815841
  77.0654473  76.1143138  23.6298571  72.0452580  71.3649304  24.3573201
  72.6911443  70.8548258  24.8460426  71.8369731  72.1017986  24.9316626
  76.3850071  68.5116921  28.4548215  77.2481532  68.1553726  28.6651540
  75.8115481  68.1730816  29.1423619  50.1632920   6.9375509  11.8803653
  50.1521561   6.5428308  11.0084157  50.3253560   6.2041582  12.4737424
  46.8840181   9.7212621  10.8282837  46.5930047  10.6258252  10.7129503
  47.5197166   9.7629149  11.5426906  51.8430066   9.4074037   7.8232631
  51.5430790  10.3099075   7.7148438  51.4981126   9.1406220   8.6753783
  49.3168076   3.3446222  13.4464965  48.5401410   3.9040143  13.4367830
  49.9558639   3.8303005  13.9679835  47.5714448   6.1531676  13.0082932
  48.3129133   6.6916720  12.7317756  46.8651434   6.7797965  13.1654484
  53.0469788   8.2960816  11.6055094  53.4553144   7.8543227  10.8609726
  52.3247049   7.7213444  11.8589287  54.5038766   7.4376404   9.3147090
  54.7155661   8.0808164   8.6381471  54.4568514   6.6038720   8.8469020
  55.6184594  10.3148359   7.4869447  56.4402038   9.9128546   7.2052129
  55.6146997  10.2116593   8.4385563  49.3841197   9.8632403   9.6430158
  49.4485630  10.3252810  10.4788330  48.6752121   9.2329767   9.7712468
  50.7257692  12.1524076  13.6409480  50.2821546  11.3660455  13.3230385
  51.3874905  12.3403227  12.9753371  52.8238930  12.4326876  11.6690881
  52.8057405  13.2535757  11.1771151  53.7458850  12.3080952  11.8941023
  49.2811984   9.9471006  12.5114390  49.8140321   9.1859294  12.2813698
  48.7526065   9.6544658  13.2538544  57.8124112   8.8792271   5.9567834
  58.2460619   8.7867560   6.8050888  58.5255693   8.8549772   5.3187850
  51.5452007  12.4794365   7.4900934  51.5989029  13.0485302   8.2578650
  50.6766789  12.6496250   7.1254971  58.6739662   8.9215972   8.4900719
  58.8675552   9.8261782   8.7359994  58.5740280   8.4623391   9.3239304
  53.7354770   9.0722715  14.0641600  53.5840277   8.8433266  13.1471683
  53.7259450  10.0293316  14.0772945  55.4446977  12.1041837  12.1418081
  55.3859523  11.4201057  11.4748664  55.8466496  12.8460827  11.6898707
  55.4464384  10.0681421  10.3732061  54.5591163   9.7307343  10.4958460
  56.0162935   9.3364452  10.6100826  48.9765538  14.7282873   7.3393304
  48.9035709  15.5337845   7.8512609  48.5342931  14.9274839   6.5141326
  51.4364221  14.6269708   9.4951463  52.1492194  15.2617172   9.4227364
  50.9454250  14.7233573   8.6791465  46.4876135  12.3764151  10.3157034
  47.1885594  13.0100634  10.4686428  46.0171250  12.7178883   9.5552673
  50.3364994   5.6728569  14.6275621  49.6605631   5.5722699  15.2977996
  51.1592628   5.5167783  15.0911618  49.0787777  16.9795497   8.8633237
  49.6306085  17.1427118   9.6282322  49.4193970  17.5699935   8.1913262
  53.9298651  11.8056754  14.7181892  54.4738555  12.4186713  14.2236846
  53.3485496  12.3636333  15.2348905  52.2156164  14.9277472   5.8496919
  52.0907303  14.1267212   5.3407865  52.8735255  15.4223666   5.3610889
  54.2791072  12.7286493   7.4776469  53.3321408  12.6091844   7.4054796
  54.6273846  11.8408991   7.5602731  54.8871628  13.3467767   4.7645694
  55.8118175  13.1410629   4.6270146  54.7186931  13.0984169   5.6735036
  49.2253588  14.5453979  10.8781892  49.5340715  14.3003125  11.7504591
  50.0229070  14.7500617  10.3900762  57.2527445  11.2652809  14.0543213
  56.4622989  11.2476947  13.5147712  57.0160800  11.8041102  14.8092249
  57.3725320   8.1145275  11.3675941  57.4223325   7.9495282  12.3091464
  57.2639244   7.2472534  10.9773822  54.6629083   4.0976203  12.6835248
  55.5638946   3.9582668  12.3919246  54.7377057   4.2630658  13.6233426
  58.8743517  10.5342216  11.6117963  58.5828326  10.8972197  12.4481424
  58.2615649   9.8209225  11.4331295  57.1230706   5.6574831  10.0798021
  57.5984827   5.8502477   9.2716872  56.1996271   5.7134017   9.8341405
  50.0242476   8.6760510  14.9296487  50.9445485   8.8539109  15.1236534
  49.9892059   7.7316555  14.7776186  47.8932414   2.1594750  16.9622017
  47.7929140   3.1089107  16.8934108  47.6753956   1.8312989  16.0898087
  47.7563684   5.5891889  15.7787079  47.2730765   6.3892249  15.9850968
  47.8424623   5.5999834  14.8254523  52.0524710   9.4516521  16.5810648
  52.9215869   9.6257174  16.2197283  51.5731461  10.2710938  16.4586377
  46.2210890  16.5713622   8.2600082  47.1238137  16.6037233   8.5766577
  45.9948260  15.6414073   8.2746417  63.7117185  21.1605147   5.9855923
  64.3495595  21.0411895   5.2819263  63.5938028  22.1085991   6.0443875
  60.5206892  21.1132575   5.9217447  60.1825403  20.9973640   5.0337982
  61.3896660  20.7123740   5.9018454  56.3793707  22.9668052   1.9114338
  55.8158573  22.8757989   1.1430626  56.2646102  22.1467956   2.3916831
  61.0026675  22.2667427  11.8803653  60.9915315  21.8720225  11.0084157
  61.1647314  21.5333500  12.4737424  53.9258139  24.4619243   4.7498559
  54.7179431  24.1210068   4.3344858  54.1654789  24.5714218   5.6700712
  57.7233936  25.0504539  10.8282837  57.4323802  25.9550170  10.7129503
  58.3590920  25.0921066  11.5426906  58.6490143  22.4281387   7.4184197
  59.2453715  22.2037410   6.7041159  58.7065114  21.6866133   8.0209644
  60.2843001  21.2459076   1.1605452  59.9201208  20.7189697   1.8718373
  61.1410117  20.8557545   0.9871937  62.6823821  24.7365954   7.8232631
  62.3824544  25.6390993   7.7148438  62.3374880  24.4698138   8.6753783
  56.1336302  21.1879751   3.8569335  55.2086799  21.0555965   4.0647027
  56.3820716  21.9673970   4.3539277  53.4945113  20.8313025   4.6913124
  53.6237495  21.0847504   5.6052536  52.8142565  21.4240733   4.3717779
  57.6644601  31.5010275   0.7903598  57.5868630  32.4518100   0.8692079
  57.0606244  31.1556147   1.4478525  60.1561830  18.6738140  13.4464965
  59.3795165  19.2332060  13.4367830  60.7952394  19.1594923  13.9679835
  58.4108203  21.4823593  13.0082932  59.1522887  22.0208637  12.7317756
  57.7045188  22.1089882  13.1654484  63.8863542  23.6252734  11.6055094
  64.2946898  23.1835144  10.8609726  63.1640804  23.0505361  11.8589287
  60.2394612  18.5625341   8.9788651  61.0855808  18.9864754   9.1223300
  60.1793250  17.9058965   9.6727214  64.2092357  24.1853925   5.3607383
  63.5801220  24.3499639   4.6583450  63.8218019  24.5995534   6.1318347
  63.3894058  16.2229709  10.6369824  63.1454990  16.9771770  10.1004100
  63.6653988  16.6015057  11.4717071  65.3432521  22.7668321   9.3147090
  65.5549416  23.4100081   8.6381471  65.2962269  21.9330638   8.8469020
  62.9458750  15.3786142   6.2183662  62.0843229  15.6767396   6.5100400
  62.9721184  15.5956541   5.2864695  59.7620319  23.9228333   2.6257468
  60.2258664  24.2016036   1.8362090  59.4977117  23.0211777   2.4430558
  56.6544400  23.4699814   5.5637231  57.2245757  23.8987083   4.9254715
  57.2452512  23.1882399   6.2621417  58.6989205  20.0451485  -0.5652967
  59.4013248  20.4972529  -0.0979041  58.3669834  19.4035304   0.0626926
  57.1469567  18.6363242  13.8098242  56.5168227  19.3179523  14.0433639
  57.0405654  18.5246323  12.8651380  52.4414539  18.3035038   4.7364166
  51.6513593  18.5592566   4.2604277  52.9325786  19.1183376   4.8416207
  66.4578349  25.6440277   7.4869447  67.2795792  25.2420464   7.2052129
  66.4540751  25.5408511   8.4385563  60.2234952  25.1924320   9.6430158
  60.2879384  25.6544727  10.4788330  59.5145876  24.5621685   9.7712468
  50.7252242  18.5565528   7.1679157  50.9760280  19.4412538   7.4336733
  51.2611790  18.3770130   6.3954249  59.9382970  26.8592428  -0.4890862
  59.8028644  27.7043963  -0.0606014  60.4792782  27.0611705  -1.2524928
  56.4250309  12.9384008  16.1723493  56.0317255  12.3850206  16.8471137
  57.2416450  13.2494586  16.5630011  53.3912367  24.3767866   0.0837063
  53.9036888  25.1711116   0.2342628  54.0435080  23.6794156   0.0170665
  55.2007252  27.4933622   2.1659816  55.3773880  28.4151587   1.9780800
  55.9964085  27.1792041   2.5954196  59.3418270  14.3541887  13.7643750
  60.0827984  14.9549040  13.6848212  59.5736193  13.6119524  13.2061792
  54.4859608  19.5398254  12.0421979  54.3713123  18.6383511  12.3429078
  53.6304126  19.7861951  11.6906796  61.5651446  27.4815994  13.6409480
  61.1215300  26.6952373  13.3230385  62.2268660  27.6695145  12.9753371
  56.3238567  29.0111796   8.1670159  56.8745992  28.8828859   7.3947153
  55.4850043  29.3106685   7.8165051  63.6632684  27.7618794  11.6690881
  63.6451159  28.5827675  11.1771151  64.5852604  27.6372869  11.8941023
  60.1205738  25.2762924  12.5114390  60.6534075  24.5151212  12.2813698
  59.5919819  24.9836575  13.2538544  51.3561284  22.7056520   0.8596634
  52.1936506  23.1153528   0.6430341  51.5339552  21.7655962   0.8296827
  62.3671974  12.7527645   6.0057265  61.8636769  12.7157780   5.1925070
  62.6602580  13.6620387   6.0653921  58.6114859  12.8366374   5.0123446
  59.4767856  12.6409183   4.6529336  58.6792368  12.6076726   5.9392803
  61.4858451  24.4048916   0.0233202  60.9579813  23.6701676  -0.2893561
  60.9845954  25.1823592  -0.2226830  66.4651297  22.5997937   5.1400248
  65.8074971  23.2897198   5.2280377  67.2691696  22.9894368   5.4834234
  62.5379130  30.9326634  -4.0535139  61.8640829  31.2358330  -3.4450181
  62.9244952  31.7355714  -4.4029682  61.7537587  18.4291765   5.4362530
  60.8360148  18.6506712   5.2784218  62.1697730  18.5038075   4.5774238
  66.0418552  25.9348311   1.3183332  65.5880879  25.0939221   1.3748523
  65.4112519  26.5709709   1.6558113  64.4851491  27.7724807   2.2533151
  64.7774466  28.3329864   1.5345516  64.9950112  28.0653368   3.0086310
  59.3584179  19.9370342   3.6501960  59.4132788  18.9844178   3.5744437
  58.5475381  20.0929781   4.1343259  57.2976539  18.5547402   1.4092339
  56.4844404  18.8541572   1.8157531  57.7935533  18.1603090   2.1266821
  59.4485116  28.5505158   3.3426604  59.4061295  28.7766005   2.4135136
  60.3647815  28.3168533   3.4912405  62.8950750  19.0189226  10.2407233
  63.2500138  19.2460699  11.1001699  63.5422881  19.3507603   9.6184488
  56.7890613  16.1265757   7.0253574  57.4289993  15.9854516   6.3276537
  55.9568144  15.8400270   6.6492176  68.6517867  24.2084189   5.9567834
  69.0854373  24.1159478   6.8050888  69.3649447  24.1841689   5.3187850
  57.5650917  25.4268187   3.1388566  58.3591516  24.9318508   2.9371141
  56.8542610  24.8986051   2.7756272  62.3845762  27.8086283   7.4900934
  62.4382784  28.3777219   8.2578650  61.5160543  27.9788168   7.1254971
  55.2644155  17.5103839   8.9725385  55.9367208  17.3021201   8.3238034
  54.4373942  17.3125925   8.5330618  69.5133416  24.2507890   8.4900719
  69.7069306  25.1553700   8.7359994  69.4134034  23.7915309   9.3239304
  61.1669727  14.1365780  10.9891046  60.5197642  14.8355730  10.8955523
  61.9370742  14.5701924  11.3567294  64.5748525  24.4014632  14.0641600
  64.4234031  24.1725184  13.1471683  64.5653204  25.3585234  14.0772945
  61.3433861  21.9746545   9.0487866  62.2725921  22.1257705   8.8756833
  60.9224891  22.0630566   8.1936512  60.1422193  25.9997209   6.8186404
  60.0033279  25.6315994   7.6912342  59.3536789  26.5144849   6.6470361
  60.7370345  31.1006306  -1.8388060  60.9122101  30.6294349  -1.0242437
  60.0503133  31.7272072  -1.6106799  61.6927408  25.3778812   4.2075241
  61.3577241  25.3379582   5.1032891  61.1931354  24.7123528   3.7345652
  55.6671652  20.7846442   9.7327823  55.5291450  20.0526681  10.3339362
  56.5776576  20.6955342   9.4512010  58.2953953  20.4966402   9.2211502
  59.0053571  19.8559594   9.1798121  58.2523261  20.7479296  10.1437683
  66.2840732  27.4333755  12.1418081  66.2253278  26.7492975  11.4748664
  66.6860250  28.1752745  11.6898707  57.0082887  17.4831619  11.0407142
  56.4720244  17.0322358  11.6928738  56.4199595  17.6177528  10.2977606
  55.3031430  34.2495669   4.9351800  55.5428029  34.8814193   5.6130819
  54.4600627  33.8983709   5.2217160  66.2858139  25.3973339  10.3732061
  65.3984918  25.0599261  10.4958460  66.8556690  24.6656370  10.6100826
  47.9387286  21.7297431   3.6975112  48.6258326  21.4159161   3.1096128
  47.7835415  22.6338795   3.4242364  52.7422008  16.6187627   8.1260136
  52.6580197  16.0113297   7.3910546  51.9204715  17.1096645   8.1269632
  59.8159292  30.0574791   7.3393304  59.7429464  30.8629763   7.8512609
  59.3736685  30.2566757   6.5141326  59.6049072  29.2946561   0.8496126
  58.8216594  29.8368241   0.9434350  60.3041817  29.8120541   1.2490367
  62.2757976  29.9561625   9.4951463  62.9885948  30.5909090   9.4227364
  61.7848004  30.0525491   8.6791465  59.4980691  17.2458574   3.2202016
  59.1278478  16.6929614   3.9082921  59.9939783  16.6416707   2.6677016
  57.3269889  27.7056069  10.3157034  58.0279349  28.3392552  10.4686428
  56.8565004  28.0470800   9.5552673  65.1271175  20.2600676   8.1409584
  64.4742626  20.5076584   7.4862037  65.5051555  19.4464814   7.8072061
  62.0878349  30.2960369   2.2437754  62.2700744  29.4782025   2.7065507
  62.9111335  30.5128062   1.8062644  62.4220515  29.2228554  -0.4947197
  62.9508281  28.7121009  -1.1077035  62.6848734  28.9071085   0.3698336
  61.1758748  21.0020487  14.6275621  60.4999385  20.9014616  15.2977996
  61.9986382  20.8459701  15.0911618  52.9237607  27.2392424   7.2488136
  53.5091044  26.4936112   7.3816041  52.7262446  27.5496380   8.1324800
  55.7776263  30.2743671   2.2650579  55.1086638  30.7589799   1.7814619
  55.6389132  30.5212892   3.1793957  47.5155262  19.8098024   5.9692580
  47.5539362  19.2761615   6.7629698  47.0095555  19.2833229   5.3503557
  59.9181531  32.3087415   8.8633237  60.4699839  32.4719036   9.6282322
  60.2587725  32.8991852   8.1913262  54.8946024  14.6562564   9.4655122
  54.9587351  15.5177395   9.0532520  54.8313145  14.0436566   8.7327480
  54.3698297  16.7285697  13.1128156  54.9970336  16.3462774  13.7265680
  53.5126216  16.5099899  13.4783849  64.7692406  27.1348672  14.7181892
  65.3132310  27.7478630  14.2236846  64.1879250  27.6928251  15.2348905
  63.0549918  30.2569390   5.8496919  62.9301058  29.4559130   5.3407865
  63.7129010  30.7515583   5.3610889  54.6758087  16.6118123   5.0274060
  53.9544672  17.2254090   4.8881533  55.4651342  17.1475887   4.9490706
  65.1184827  28.0578410   7.4776469  64.1715162  27.9383761   7.4054796
  65.4667600  27.1700908   7.5602731  57.4784400  13.9472549  11.3014711
  58.0018802  14.1934846  12.0641021  57.2596734  14.7792584  10.8817849
  62.1231260  27.8531126   3.6780822  61.9756223  26.9247834   3.8588392
  62.9484754  27.8751217   3.1937897  65.7265382  28.6759685   4.7645694
  66.6511929  28.4702547   4.6270146  65.5580685  28.4276086   5.6735036
  58.6836945  14.8886244   8.9864382  58.3433766  14.0894057   9.3885062
  57.9775952  15.1887955   8.4141215  59.3353417  11.9735557   7.4391705
  60.1579486  11.4996035   7.3170595  59.5791481  12.7526040   7.9390391
  56.8591996  18.6654677   5.2483683  56.7136577  18.9794980   6.1407965
  56.3817200  19.2839578   4.6954582  58.7188379  15.6557225   5.2964573
  58.7049948  14.7598319   4.9596871  59.4360807  15.6627889   5.9302859
  60.5714509  16.0894565   7.3417700  60.3132287  17.0111636   7.3402031
  60.0399550  15.6925000   8.0318165  65.5160698  29.1945353   0.1207786
  65.6897576  28.6291775  -0.6318362  66.0089589  29.9946248  -0.0612724
  51.3337658  21.2060022   8.1871345  50.7891126  21.9819830   8.3191619
  52.2117008  21.5530826   8.0290466  52.1203680  20.3329918  11.0801502
  51.3785416  20.4812553  11.6666132  51.7996424  20.5938184  10.2168251
  60.0647343  29.8745896  10.8781892  60.3734469  29.6295043  11.7504591
  60.8622825  30.0792535  10.3900762  60.0867955  32.0283806   3.1087268
  59.6472945  31.5360185   3.8020125  60.8376072  31.4856773   2.8679343
  52.5660294  28.2195347   3.1111896  53.3918313  27.9199119   2.7310540
  52.2154346  27.4502969   3.5601685  57.5341827  27.5721815   5.1809570
  56.9121836  26.9092520   4.8811798  58.2046694  27.5982947   4.4983218
  50.7668899  26.1381673   4.0700830  49.9300807  25.7103848   3.8884831
  50.7392544  26.3314116   5.0071621  57.6066354  16.0503603  14.7742076
  57.6554510  16.9265726  14.3919845  58.1488868  15.5080996  14.2013719
  68.0921200  26.5944726  14.0543213  67.3016744  26.5768865  13.5147712
  67.8554554  27.1333020  14.8092249  68.2119075  23.4437193  11.3675941
  68.2617080  23.2787200  12.3091464  68.1032998  22.5764452  10.9773822
  57.0955334  26.1225738  -1.3431970  57.2443454  26.8061203  -1.9965297
  57.9021777  26.1030828  -0.8282514  65.5022837  19.4268121  12.6835248
  66.4032700  19.2874585  12.3919246  65.5770812  19.5922575  13.6233426
  59.8365643  16.8034975  11.5288434  58.9668952  17.0968541  11.2571023
  60.0725123  17.3875420  12.2495698  69.7137272  25.8634134  11.6117963
  69.4222080  26.2264115  12.4481424  69.1009403  25.1501142  11.4331295
  67.9624460  20.9866749  10.0798021  68.4378582  21.1794395   9.2716872
  67.0390025  21.0425935   9.8341405  62.5404677  13.0214592   9.0453855
  63.0586620  13.7575619   8.7200343  62.1859809  13.3278586   9.8800614
  60.5950739  28.6173869  -3.8720222  60.0224706  29.2364056  -4.3249750
  61.1683533  29.1673230  -3.3380300  66.6626129  17.8632509   8.3126327
  67.6143552  17.9630606   8.3338551  66.4929579  17.0710777   8.8224411
  64.6840508  14.9488092   8.4985727  64.0890441  15.2293105   7.8032216
  64.3990205  15.4381993   9.2702469  69.1414207  21.0838628   7.4268626
  69.1090527  20.1454629   7.6128310  69.7514830  21.1622665   6.6934451
  60.8636230  24.0052428  14.9296487  61.7839240  24.1831027  15.1236534
  60.8285813  23.0608473  14.7776186  50.0818395  19.1991021   3.8549762
  49.7621180  18.3456329   3.5624136  49.5351823  19.4139599   4.6107729
  53.8598303  21.9153462   7.5719268  54.0784313  22.8470570   7.5907302
  54.2724077  21.5561437   8.3574072  58.7326168  17.4886668  16.9622017
  58.6322895  18.4381025  16.8934108  58.5147710  17.1604907  16.0898087
  49.9506655  22.8193933   5.8242883  49.2570127  22.4047886   5.3112838
  50.6979646  22.8614469   5.2276302  58.5957438  20.9183807  15.7787079
  58.1124520  21.7184167  15.9850968  58.6818377  20.9291752  14.8254523
  51.8643398  22.7512187   3.7008898  51.8414086  22.8499874   2.7490781
  52.1744034  23.5977337   4.0226064  54.5230776  24.8088342   7.8155513
  55.4774029  24.7772284   7.7485444  54.3243299  24.3478965   8.6305739
  55.1130158  23.3789458  10.3826310  55.9323047  23.8733536  10.4061148
  55.3866965  22.4621426  10.3543878  52.8781004  30.3507961   4.8325711
  52.7435472  29.5908362   4.2663709  52.4613067  31.0748861   4.3654499
  56.0350130  31.2477278   5.0444153  55.9182514  32.1922711   4.9422843
  55.2142577  30.9450840   5.4329952  50.3665072  17.7127591  11.0818507
  51.0123936  17.2026545  11.5705733  50.1582223  18.4496273  11.6561933
  62.8918464  24.7808439  16.5810648  63.7609624  24.9549091  16.2197283
  62.4125216  25.6002856  16.4586377  57.0604644  31.9005540   8.2600082
  57.9631891  31.9329150   8.5766577  56.8342014  30.9705991   8.2746417
  58.8158246  30.6536527   4.9210160  57.8653877  30.6538388   4.8074533
  59.1190733  29.9069261   4.4046195  54.7062563  14.8595209  15.1793522
  55.5694025  14.5032013  15.3896846  54.1327974  14.5209103  15.8668926
  74.5510940  36.4897065   5.9855923  75.1889350  36.3703812   5.2819263
  74.4331783  37.4377909   6.0443875  71.3600646  36.4424493   5.9217447
  71.0219158  36.3265558   5.0337982  72.2290414  36.0415658   5.9018454
  67.2187462  38.2959969   1.9114338  66.6552327  38.2049906   1.1430626
  67.1039857  37.4759874   2.3916831  71.8420429  37.5959345  11.8803653
  71.8309070  37.2012143  11.0084157  72.0041069  36.8625417  12.4737424
  64.7651894  39.7911161   4.7498559  65.5573186  39.4501986   4.3344858
  65.0048544  39.9006136   5.6700712  66.7242648  39.0520074  -2.3784062
  67.4973524  38.5049061  -2.5171187  67.0768047  39.9164324  -2.1669601
  68.5627690  40.3796457  10.8282837  68.2717556  41.2842087  10.7129503
  69.1984675  40.4212984  11.5426906  69.4883897  37.7573305   7.4184197
  70.0847469  37.5329327   6.7041159  69.5458869  37.0158051   8.0209644
  71.1236755  36.5750993   1.1605452  70.7594962  36.0481614   1.8718373
  71.9803871  36.1849462   0.9871937  73.5217575  40.0657872   7.8232631
  73.2218299  40.9682911   7.7148438  73.1768635  39.7990055   8.6753783
  66.9730057  36.5171669   3.8569335  66.0480553  36.3847883   4.0647027
  67.2214470  37.2965888   4.3539277  64.3338868  36.1604942   4.6913124
  64.4631249  36.4139421   5.6052536  63.6536319  36.7532650   4.3717779
  70.9955585  34.0030058  13.4464965  70.2188919  34.5623978  13.4367830
  71.6346148  34.4886841  13.9679835  69.2501957  36.8115511  13.0082932
  69.9916642  37.3500555  12.7317756  68.5438943  37.4381800  13.1654484
  74.7257297  38.9544652  11.6055094  75.1340653  38.5127062  10.8609726
  74.0034558  38.3797279  11.8589287  71.0788367  33.8917258   8.9788651
  71.9249562  34.3156672   9.1223300  71.0187005  33.2350883   9.6727214
  75.0486112  39.5145842   5.3607383  74.4194974  39.6791556   4.6583450
  74.6611774  39.9287452   6.1318347  74.2287812  31.5521627  10.6369824
  73.9848744  32.3063687  10.1004100  74.5047743  31.9306974  11.4717071
  76.1826275  38.0960239   9.3147090  76.3943170  38.7391999   8.6381471
  76.1356023  37.2622556   8.8469020  73.7852504  30.7078060   6.2183662
  72.9236983  31.0059313   6.5100400  73.8114939  30.9248459   5.2864695
  70.6014073  39.2520250   2.6257468  71.0652419  39.5307953   1.8362090
  70.3370872  38.3503695   2.4430558  67.4938155  38.7991732   5.5637231
  68.0639512  39.2279000   4.9254715  68.0846266  38.5174317   6.2621417
  69.5382960  35.3743403  -0.5652967  70.2407003  35.8264446  -0.0979041
  69.2063588  34.7327222   0.0626926  67.9863321  33.9655159  13.8098242
  67.3561982  34.6471440  14.0433639  67.8799409  33.8538241  12.8651380
  63.2808293  33.6326955   4.7364166  62.4907347  33.8884484   4.2604277
  63.7719541  34.4475293   4.8416207  77.2972103  40.9732195   7.4869447
  78.1189547  40.5712382   7.2052129  77.2934506  40.8700429   8.4385563
  65.2323039  33.9971535   1.6947643  64.4354202  34.1090229   2.2131139
  65.0048631  34.3358187   0.8288534  71.0628706  40.5216238   9.6430158
  71.1273139  40.9836645  10.4788330  70.3539630  39.8913603   9.7712468
  61.5645996  33.8857446   7.1679157  61.8154035  34.7704456   7.4336733
  62.1005545  33.7062047   6.3954249  67.2644064  28.2675925  16.1723493
  66.8711009  27.7142124  16.8471137  68.0810204  28.5786504  16.5630011
  64.2306122  39.7059783   0.0837063  64.7430642  40.5003034   0.2342628
  64.8828834  39.0086074   0.0170665  66.0401006  42.8225540   2.1659816
  66.2167635  43.7443504   1.9780800  66.8357840  42.5083959   2.5954196
  70.1812025  29.6833804  13.7643750  70.9221738  30.2840957  13.6848212
  70.4129948  28.9411442  13.2061792  65.3253363  34.8690172  12.0421979
  65.2106878  33.9675429  12.3429078  64.4697881  35.1153868  11.6906796
  72.4045201  42.8107912  13.6409480  71.9609055  42.0244290  13.3230385
  73.0662414  42.9987062  12.9753371  67.1632322  44.3403713   8.1670159
  67.7139747  44.2120777   7.3947153  66.3243798  44.6398602   7.8165051
  74.5026439  43.0910712  11.6690881  74.4844914  43.9119593  11.1771151
  75.4246359  42.9664787  11.8941023  70.9599493  40.6054841  12.5114390
  71.4927830  39.8443129  12.2813698  70.4313574  40.3128493  13.2538544
  62.1955038  38.0348438   0.8596634  63.0330260  38.4445446   0.6430341
  62.3733306  37.0947880   0.8296827  73.2065728  28.0819562   6.0057265
  72.7030524  28.0449698   5.1925070  73.4996335  28.9912305   6.0653921
  69.4508614  28.1658292   5.0123446  70.3161611  27.9701101   4.6529336
  69.5186123  27.9368644   5.9392803  72.3252205  39.7340834   0.0233202
  71.7973567  38.9993593  -0.2893561  71.8239708  40.5115510  -0.2226830
  77.3045051  37.9289854   5.1400248  76.6468726  38.6189116   5.2280377
  78.1085451  38.3186286   5.4834234  67.0570933  30.3960500   2.3839813
  67.6314685  30.1735682   1.6513006  67.6441915  30.4649195   3.1368415
  72.5931341  33.7583682   5.4362530  71.6753902  33.9798629   5.2784218
  73.0091485  33.8329993   4.5774238  62.2181209  35.3739153   1.5307367
  62.0205609  34.7808514   0.8058434  61.6627873  35.0691363   2.2483306
  70.1977933  35.2662259   3.6501960  70.2526543  34.3136096   3.5744437
  69.3869135  35.4221699   4.1343259  68.1370293  33.8839319   1.4092339
  67.3238159  34.1833490   1.8157531  68.6329287  33.4895008   2.1266821
  70.2878871  43.8797076   3.3426604  70.2455050  44.1057922   2.4135136
  71.2041570  43.6460451   3.4912405  73.7344505  34.3481144  10.2407233
  74.0893892  34.5752617  11.1001699  74.3816636  34.6799520   9.6184488
  67.6284368  31.4557675   7.0253574  68.2683747  31.3146434   6.3276537
  66.7961898  31.1692188   6.6492176  79.4911621  39.5376107   5.9567834
  79.9248128  39.4451396   6.8050888  80.2043202  39.5133607   5.3187850
  68.4044672  40.7560105   3.1388566  69.1985270  40.2610425   2.9371141
  67.6936364  40.2277968   2.7756272  73.2239516  43.1378201   7.4900934
  73.2776538  43.7069137   8.2578650  72.3554298  43.3080086   7.1254971
  64.7127435  34.9003187  -0.7851681  63.7825023  34.8387642  -0.5681719
  64.8084907  34.3779140  -1.5815040  64.6312984  31.4258000   1.8026561
  64.8919801  32.3403333   1.6935721  65.4530157  30.9582442   1.9523174
  66.1037910  32.8395757   8.9725385  66.7760963  32.6313119   8.3238034
  65.2767696  32.6417843   8.5330618  80.3527171  39.5799807   8.4900719
  80.5463061  40.4845618   8.7359994  80.2527789  39.1207226   9.3239304
  72.0063482  29.4657698  10.9891046  71.3591397  30.1647647  10.8955523
  72.7764497  29.8993842  11.3567294  75.4142279  39.7306550  14.0641600
  75.2627786  39.5017102  13.1471683  75.4046959  40.6877151  14.0772945
  72.1827616  37.3038463   9.0487866  73.1119676  37.4549622   8.8756833
  71.7618646  37.3922484   8.1936512  70.9815948  41.3289127   6.8186404
  70.8427033  40.9607912   7.6912342  70.1930544  41.8436767   6.6470361
  72.5321163  40.7070730   4.2075241  72.1970995  40.6671500   5.1032891
  72.0325108  40.0415446   3.7345652  66.5065407  36.1138360   9.7327823
  66.3685205  35.3818599  10.3339362  67.4170330  36.0247260   9.4512010
  69.1347707  35.8258319   9.2211502  69.8447326  35.1851511   9.1798121
  69.0917016  36.0771214  10.1437683  77.1234486  42.7625673  12.1418081
  77.0647032  42.0784893  11.4748664  77.5254005  43.5044663  11.6898707
  67.8476641  32.8123537  11.0407142  67.3113998  32.3614276  11.6928738
  67.2593350  32.9469446  10.2977606  66.1425185  49.5787586   4.9351800
  66.3821783  50.2106111   5.6130819  65.2994381  49.2275626   5.2217160
  77.1251893  40.7265256  10.3732061  76.2378672  40.3891178  10.4958460
  77.6950444  39.9948288  10.6100826  58.7781041  37.0589348   3.6975112
  59.4652080  36.7451078   3.1096128  58.6229169  37.9630713   3.4242364
  63.5815763  31.9479545   8.1260136  63.4973951  31.3405214   7.3910546
  62.7598469  32.4388563   8.1269632  70.6553047  45.3866709   7.3393304
  70.5823218  46.1921680   7.8512609  70.2130440  45.5858675   6.5141326
  73.1151730  45.2853543   9.4951463  73.8279703  45.9201008   9.4227364
  72.6241759  45.3817409   8.6791465  70.3374445  32.5750491   3.2202016
  69.9672233  32.0221532   3.9082921  70.8333538  31.9708625   2.6677016
  68.1663644  43.0347986  10.3157034  68.8673103  43.6684469  10.4686428
  67.6958759  43.3762718   9.5552673  75.9664930  35.5892594   8.1409584
  75.3136380  35.8368501   7.4862037  76.3445310  34.7756732   7.8072061
  72.0152503  36.3312405  14.6275621  71.3393140  36.2306534  15.2977996
  72.8380137  36.1751619  15.0911618  63.7631362  42.5684341   7.2488136
  64.3484799  41.8228029   7.3816041  63.5656200  42.8788298   8.1324800
  66.6170017  45.6035589   2.2650579  65.9480392  46.0881716   1.7814619
  66.4782887  45.8504809   3.1793957  58.3549017  35.1389942   5.9692580
  58.3933116  34.6053532   6.7629698  57.8489309  34.6125147   5.3503557
  70.7575286  47.6379332   8.8633237  71.3093594  47.8010954   9.6282322
  71.0981479  48.2283770   8.1913262  65.7339779  29.9854482   9.4655122
  65.7981105  30.8469313   9.0532520  65.6706899  29.3728484   8.7327480
  65.2092051  32.0577615  13.1128156  65.8364090  31.6754692  13.7265680
  64.3519970  31.8391817  13.4783849  75.6086160  42.4640590  14.7181892
  76.1526064  43.0770548  14.2236846  75.0273005  43.0220168  15.2348905
  61.9857594  33.8654044  -0.9553489  62.2811035  32.9564722  -1.0086435
  61.0845630  33.8441783  -1.2772487  73.8943673  45.5861308   5.8496919
  73.7694812  44.7851048   5.3407865  74.5522764  46.0807501   5.3610889
  65.5151841  31.9410040   5.0274060  64.7938427  32.5546008   4.8881533
  66.3045097  32.4767805   4.9490706  75.9578581  43.3870328   7.4776469
  75.0108917  43.2675679   7.4054796  76.3061354  42.4992826   7.5602731
  68.3178155  29.2764467  11.3014711  68.8412557  29.5226763  12.0641021
  68.0990488  30.1084502  10.8817849  63.7145436  31.5468141  -0.8314164
  63.3858142  30.6665520  -1.0139058  64.0684806  31.4915810   0.0562225
  72.9625015  43.1823044   3.6780822  72.8149977  42.2539752   3.8588392
  73.7878508  43.2043135   3.1937897  66.8287259  31.8341111  -0.4638686
  67.1683331  32.3627032  -1.1860078  67.2759379  32.1721517   0.3119880
  76.5659137  44.0051603   4.7645694  77.4905684  43.7994464   4.6270146
  76.3974440  43.7568004   5.6735036  69.5230700  30.2178162   8.9864382
  69.1827520  29.4185975   9.3885062  68.8169706  30.5179873   8.4141215
  70.1747172  27.3027474   7.4391705  70.9973241  26.8287953   7.3170595
  70.4185235  28.0817958   7.9390391  67.6985750  33.9946595   5.2483683
  67.5530331  34.3086898   6.1407965  67.2210954  34.6131495   4.6954582
  69.5582133  30.9849143   5.2964573  69.5443702  30.0890236   4.9596871
  70.2754561  30.9919807   5.9302859  71.4108264  31.4186483   7.3417700
  71.1526042  32.3403554   7.3402031  70.8793304  31.0216918   8.0318165
  62.1731413  36.5351939   8.1871345  61.6284881  37.3111747   8.3191619
  63.0510762  36.8822744   8.0290466  62.9597434  35.6621836  11.0801502
  62.2179170  35.8104471  11.6666132  62.6390179  35.9230101  10.2168251
  70.9041097  45.2037814  10.8781892  71.2128223  44.9586961  11.7504591
  71.7016579  45.4084452  10.3900762  63.4054048  43.5487264   3.1111896
  64.2312068  43.2491036   2.7310540  63.0548100  42.7794887   3.5601685
  68.3735581  42.9013733   5.1809570  67.7515591  42.2384438   4.8811798
  69.0440448  42.9274864   4.4983218  61.6062653  41.4673591   4.0700830
  60.7694561  41.0395765   3.8884831  61.5786299  41.6606034   5.0071621
  68.4460109  31.3795521  14.7742076  68.4948264  32.2557643  14.3919845
  68.9882623  30.8372914  14.2013719  78.9314954  41.9236644  14.0543213
  78.1410498  41.9060783  13.5147712  78.6948309  42.4624938  14.8092249
  79.0512829  38.7729110  11.3675941  79.1010834  38.6079118  12.3091464
  78.9426753  37.9056369  10.9773822  76.3416592  34.7560038  12.6835248
  77.2426455  34.6166503  12.3919246  76.4164566  34.9214493  13.6233426
  70.6759397  32.1326893  11.5288434  69.8062707  32.4260459  11.2571023
  70.9118878  32.7167338  12.2495698  80.5531026  41.1926052  11.6117963
  80.2615835  41.5556032  12.4481424  79.9403158  40.4793060  11.4331295
  78.8018215  36.3158666  10.0798021  79.2772336  36.5086313   9.2716872
  77.8783780  36.3717852   9.8341405  65.6901721  37.4782834  -0.3370901
  65.4447763  36.5745164  -0.1390691  65.8597636  37.4799984  -1.2791423
  73.3798431  28.3506510   9.0453855  73.8980375  29.0867537   8.7200343
  73.0253564  28.6570503   9.8800614  64.9597369  33.2111191  -2.8384739
  64.2666614  33.2855546  -3.4944703  64.7149121  32.4471535  -2.3163222
  77.5019884  33.1924426   8.3126327  78.4537306  33.2922524   8.3338551
  77.3323334  32.4002695   8.8224411  75.5234263  30.2780010   8.4985727
  74.9284195  30.5585022   7.8032216  75.2383960  30.7673911   9.2702469
  79.9807961  36.4130546   7.4268626  79.9484281  35.4746547   7.6128310
  80.5908585  36.4914583   6.6934451  71.7029985  39.3344345  14.9296487
  72.6232994  39.5122944  15.1236534  71.6679568  38.3900391  14.7776186
  60.9212150  34.5282939   3.8549762  60.6014934  33.6748247   3.5624136
  60.3745578  34.7431517   4.6107729  64.6992057  37.2445380   7.5719268
  64.9178067  38.1762488   7.5907302  65.1117831  36.8853354   8.3574072
  69.5719923  32.8178586  16.9622017  69.4716649  33.7672943  16.8934108
  69.3541465  32.4896825  16.0898087  60.7900410  38.1485850   5.8242883
  60.0963881  37.7339803   5.3112838  61.5373401  38.1906387   5.2276302
  69.4351193  36.2475725  15.7787079  68.9518274  37.0476085  15.9850968
  69.5212132  36.2583669  14.8254523  62.7037152  38.0804104   3.7008898
  62.6807840  38.1791791   2.7490781  63.0137789  38.9269255   4.0226064
  65.3624530  40.1380259   7.8155513  66.3167784  40.1064202   7.7485444
  65.1637054  39.6770883   8.6305739  65.9523912  38.7081375  10.3826310
  66.7716801  39.2025454  10.4061148  66.2260720  37.7913343  10.3543878
  63.7174759  45.6799879   4.8325711  63.5829227  44.9200280   4.2663709
  63.3006821  46.4040779   4.3654499  66.8743885  46.5769196   5.0444153
  66.7576269  47.5214628   4.9422843  66.0536331  46.2742757   5.4329952
  61.2058826  33.0419509  11.0818507  61.8517690  32.5318463  11.5705733
  60.9975978  33.7788191  11.6561933  73.7312219  40.1100357  16.5810648
  74.6003378  40.2841009  16.2197283  73.2518970  40.9294773  16.4586377
  67.8998399  47.2297458   8.2600082  68.8025646  47.2621068   8.5766577
  67.6735769  46.2997909   8.2746417  69.6552001  45.9828444   4.9210160
  68.7047632  45.9830306   4.8074533  69.9584487  45.2361179   4.4046195
  65.5456317  30.1887126  15.1793522  66.4087779  29.8323931  15.3896846
  64.9721728  29.8501021  15.8668926  82.6814184  52.9251262  11.8803653
  82.6702824  52.5304061  11.0084157  82.8434823  52.1917335  12.4737424
  81.8349339  49.3321975  13.4464965  81.0582674  49.8915896  13.4367830
  82.4739903  49.8178758  13.9679835  80.0895712  52.1407429  13.0082932
  80.8310396  52.6792473  12.7317756  79.3832697  52.7673718  13.1654484
  85.0681567  46.8813544  10.6369824  84.8242499  47.6355605  10.1004100
  85.3441497  47.2598892  11.4717071  78.8257076  49.2947077  13.8098242
  78.1955736  49.9763358  14.0433639  78.7193163  49.1830159  12.8651380
  72.4039751  49.2149364   7.1679157  72.6547789  50.0996373   7.4336733
  72.9399299  49.0353965   6.3954249  78.1037818  43.5967843  16.1723493
  77.7104764  43.0434041  16.8471137  78.9203959  43.9078421  16.5630011
  81.0205779  45.0125722  13.7643750  81.7615493  45.6132875  13.6848212
  81.2523702  44.2703360  13.2061792  76.1647117  50.1982089  12.0421979
  76.0500632  49.2967346  12.3429078  75.3091635  50.4445786  11.6906796
  78.4678122  46.7849592   7.0253574  79.1077502  46.6438352   6.3276537
  77.6355653  46.4984106   6.6492176  76.9431664  48.1687675   8.9725385
  77.6154717  47.9605037   8.3238034  76.1161451  47.9709761   8.5330618
  82.8457236  44.7949616  10.9891046  82.1985151  45.4939565  10.8955523
  83.6158251  45.2285759  11.3567294  77.3459161  51.4430278   9.7327823
  77.2078959  50.7110516  10.3339362  78.2564085  51.3539178   9.4512010
  79.9741462  51.1550237   9.2211502  80.6841080  50.5143429   9.1798121
  79.9310770  51.4063132  10.1437683  78.6870396  48.1415455  11.0407142
  78.1507753  47.6906193  11.6928738  78.0987104  48.2761364  10.2977606
  74.4209517  47.2771462   8.1260136  74.3367706  46.6697132   7.3910546
  73.5992224  47.7680481   8.1269632  82.8546257  51.6604323  14.6275621
  82.1786894  51.5598452  15.2977996  83.6773891  51.5043536  15.0911618
  69.1942771  50.4681859   5.9692580  69.2326871  49.9345450   6.7629698
  68.6883064  49.9417065   5.3503557  76.5733533  45.3146400   9.4655122
  76.6374860  46.1761231   9.0532520  76.5100654  44.7020401   8.7327480
  76.0485806  47.3869532  13.1128156  76.6757845  47.0046610  13.7265680
  75.1913725  47.1683734  13.4783849  79.1571909  44.6056384  11.3014711
  79.6806311  44.8518681  12.0641021  78.9384243  45.4376419  10.8817849
  80.3624454  45.5470080   8.9864382  80.0221275  44.7477893   9.3885062
  79.6563461  45.8471790   8.4141215  81.0140926  42.6319392   7.4391705
  81.8366995  42.1579870   7.3170595  81.2578990  43.4109876   7.9390391
  73.0125167  51.8643857   8.1871345  72.4678635  52.6403665   8.3191619
  73.8904517  52.2114662   8.0290466  73.7991189  50.9913753  11.0801502
  73.0572925  51.1396389  11.6666132  73.4783933  51.2522019  10.2168251
  79.2853863  46.7087438  14.7742076  79.3342019  47.5849561  14.3919845
  79.8276377  46.1664831  14.2013719  87.1810346  50.0851956  12.6835248
  88.0820209  49.9458421  12.3919246  87.2558321  50.2506411  13.6233426
  81.5153152  47.4618811  11.5288434  80.6456461  47.7552377  11.2571023
  81.7512632  48.0459256  12.2495698  84.2192185  43.6798428   9.0453855
  84.7374129  44.4159455   8.7200343  83.8647318  43.9862421   9.8800614
  82.5423739  54.6636263  14.9296487  83.4626749  54.8414862  15.1236534
  82.5073322  53.7192308  14.7776186  80.4113677  48.1470503  16.9622017
  80.3110404  49.0964860  16.8934108  80.1935219  47.8188742  16.0898087
  80.2744947  51.5767642  15.7787079  79.7912029  52.3768002  15.9850968
  80.3605886  51.5875587  14.8254523  76.7917667  54.0373293  10.3826310
  77.6110556  54.5317372  10.4061148  77.0654474  53.1205261  10.3543878
  72.0452581  48.3711427  11.0818507  72.6911445  47.8610381  11.5705733
  71.8369732  49.1080108  11.6561933  84.5705973  55.4392274  16.5810648
  85.4397133  55.6132927  16.2197283  84.0912725  56.2586691  16.4586377
  76.3850072  45.5179044  15.1793522  77.2481534  45.1615849  15.3896846
  75.8115483  45.1792939  15.8668926   3.6304349  64.8107591  57.0660880
   4.3629521  64.2406808  57.2998709   2.8743705  64.4229191  57.5067385
   1.1529769  58.5229165  61.5255488   0.8213094  59.3924576  61.3016703
   0.5575383  58.2065449  62.2049519   2.9120079  61.4440690  60.3826712
   2.2694459  61.7373223  59.7366507   2.4075008  61.3293610  61.1879909
   3.0519057  71.1084119  55.8170517   2.3670095  71.4883020  55.2667550
   3.1362906  71.7179446  56.5502464   1.4215817  71.6316033  60.5888218
   2.2433260  71.2296221  60.3070899   1.4178219  71.5284268  61.5404333
   9.5121810  67.9754782  56.9373189   8.7585518  67.4062180  56.7817193
   9.6469351  67.9417446  57.8843824   3.1897458  69.1139712  51.5852410
   2.4126901  68.7750871  51.1407573   3.8688939  69.1192335  50.9107375
   1.4288765  68.5873693  58.2419018   0.7712439  69.2772955  58.3299147
   2.2329164  68.9770125  58.5853005   3.5885955  68.1283418  54.0475332
   3.4503854  68.3185014  53.1196522   3.2322174  68.8902801  54.5043384
   3.6155335  70.1959945  59.0586604   4.0491841  70.1035235  59.9069658
   4.3286915  70.1717446  58.4206620   4.4770884  70.2383646  61.5919489
   4.6706774  71.1429457  61.8378764   4.3771503  69.7791065  62.4258074
   5.7312947  66.7957313  58.2367393   5.7202824  67.6782028  57.8661326
   4.8630327  66.4428864  58.0421930   2.3485522  65.6905954  54.7037559
   2.8145974  66.5233945  54.6297862   2.7993023  65.2250935  55.4082818
   0.6902850  74.6635442  57.8664465   1.6149398  74.4578303  57.7288916
   0.5218153  74.4151843  58.7753806   6.3337557  67.9457532  54.8416856
   6.7768703  67.1964857  54.4435979   5.4564068  67.9367669  54.4590588
   1.4673339  74.4987874  50.3223455   2.1624243  75.1194566  50.5410769
   1.8096489  73.6483225  50.5975832   3.3664762  71.9487579  51.8510785
   3.8916086  72.2874852  51.1260105   3.2787114  71.0134594  51.6673920
   3.1756543  69.4312949  64.4694712   3.2254548  69.2662957  65.4110235
   3.0670466  68.5640208  64.0792593   4.6774740  71.8509891  64.7136733
   4.3859548  72.2139871  65.5500194   4.0646871  71.1376899  64.5350065
   5.8770422  69.4162770  57.2339304   6.7117314  69.8552575  57.3976864
   6.0129551  68.9401424  56.4147549   2.9261928  66.9742505  63.1816791
   3.4016050  67.1670152  62.3735643   2.0027493  67.0301691  62.9360175
   1.6263597  63.8508265  61.4145097   2.5781020  63.9506363  61.4357321
   1.4567047  63.0586534  61.9243181   1.4073484  74.2052646  47.3211078
   1.3287115  73.8712509  48.2146836   2.2283150  74.6974414  47.3202550
   4.1051675  67.0714385  60.5287397   4.0727995  66.1330386  60.7147080
   4.7152298  67.1498422  59.7953221   4.2546163  63.8625428  60.5745680
   3.7385212  63.0783885  60.3875609   5.1386112  63.5344145  60.7392199
   1.9156890  57.6066444  56.5341492   1.7181711  57.2981532  57.4184824
   2.5256596  58.3328083  56.6639422   9.9228225  68.1330392  59.6693433
  10.6531613  67.8715680  60.2301137   9.3135170  67.3959114  59.7095501
   8.0043522  66.2738254  60.2667885   7.2776685  66.1394219  59.6584376
   7.5890809  66.5815083  61.0724603   3.1848758  61.7822487  56.5627376
   3.9609148  62.2718940  56.8351992   2.4596892  62.2080542  57.0199245
   5.6221317  62.4950107  57.6201316   6.2165808  62.2545843  56.9094624
   5.6947900  61.7757237  58.2474852   3.6180052  63.0620234  53.8873446
   3.3616986  62.6616870  54.7181654   2.9932920  63.7764028  53.7623585
   7.9292389  65.8016308  56.3944737   7.3691947  65.8709497  57.1676299
   7.3235893  65.6257292  55.6744234   0.8864133  71.9603170  48.9919516
   1.7209737  71.5284369  48.8096991   0.7248476  71.7885184  49.9196411
  14.4698104  80.1399509  57.0660880  15.2023275  79.5698725  57.2998709
  13.7137459  79.7521109  57.5067385  11.9923524  73.8521083  61.5255488
  11.6606849  74.7216494  61.3016703  11.3969137  73.5357367  62.2049519
  11.8852187  78.5716169  58.6048838  10.9769065  78.5031577  58.3107599
  11.8339783  79.0488114  59.4330664  13.7513834  76.7732607  60.3826712
  13.1088214  77.0665140  59.7366507  13.2468762  76.6585528  61.1879909
   9.1925280  77.5397383  63.7388595   8.9486212  78.2939444  63.2022870
   9.4685211  77.9182731  64.5735842   8.7489972  76.6953816  59.3202432
   7.8874451  76.9935070  59.6119170   8.7752407  76.9124215  58.3883465
   9.0906656  71.6990664  61.1426802   8.7470925  72.5892305  61.0665912
   9.4585618  71.5092321  60.2796387   6.6404049  76.5348976  54.7084475
   5.7845646  76.1455826  54.5290114   7.0531001  76.6140937  53.8484261
   8.1703196  74.0695319  59.1076035   7.6667992  74.0325454  58.2943840
   8.4633803  74.9788062  59.1672692   4.4146082  74.1534049  58.1142217
   5.2799079  73.9576857  57.7548106   4.4823591  73.9244400  59.0411574
   4.3231069  73.2577506  54.2133653   3.6695481  72.9426523  53.5890268
   4.2811543  72.6353246  54.9393476  10.7882694  78.1807971  55.6502770
  10.0505451  77.6685357  55.9813013  11.0409468  77.7408353  54.8386047
  10.8894321  70.9584223  56.2444540  11.1953198  70.0981586  55.9570455
  11.6146926  71.5501843  56.0443533   6.9700950  75.4533454  64.0909817
   6.3228865  76.1523404  63.9974293   7.7401965  75.8869598  64.4586065
   8.7176945  76.4208865  56.5949102   9.2145644  75.6678827  56.2750172
   7.9463926  76.4573182  56.0292311  11.1595939  73.3878458  58.7428460
  10.2459019  73.6182685  58.9110667  11.5889041  73.4716902  59.5942493
   4.4868168  76.2053919  62.0883152   4.1464988  75.4061732  62.4903832
   3.7807174  76.5055629  61.5159985   5.1384640  73.2903231  60.5410475
   5.9610709  72.8163709  60.4189366   5.3822703  74.0693715  61.0409162
   7.9223997  77.0236638  51.7731709   8.1387611  77.9061276  51.4720537
   7.4418064  76.6322852  51.0437351   3.9256497  75.8539280  53.6670914
   4.0472408  74.9255926  53.8661801   3.6358540  75.8677966  52.7549229
   6.7947688  73.5394190  56.8037633   6.8169384  73.6033523  55.8489613
   7.2115747  72.6998699  56.9978140   8.3435899  74.3382267  62.1472625
   8.8617843  75.0743293  61.8219114   7.9891032  74.6446260  62.9819384
   8.5948493  70.7582549  57.6673522   8.8750247  70.0905738  58.2933948
   9.3799100  70.9511645  57.1548186  12.4657352  79.1800183  61.4145097
  13.4174774  79.2798281  61.4357321  12.2960802  78.3878452  61.9243181
  10.4871731  76.2655766  61.6004498   9.8921663  76.5460779  60.9050986
  10.2021428  76.7549667  62.3721239  15.0939918  79.1917346  60.5745680
  14.5778966  78.4075803  60.3875609  15.9779866  78.8636063  60.7392199
  12.7550645  72.9358362  56.5341492  12.5575466  72.6273450  57.4184824
  13.3650350  73.6620001  56.6639422   6.5833743  73.7389222  52.6613727
   5.7734471  73.3936307  53.0368973   7.2718160  73.4296766  53.2501339
   8.5124291  72.8167269  54.2838024   9.0655330  73.2362722  54.9428047
   8.7494378  71.8903017  54.3260980   3.7370462  76.0539267  46.6481465
   4.5989626  76.3794166  46.9077282   3.9220806  75.2670763  46.1354531
  11.8903098  74.9267794  53.7916688  11.3101768  75.5852598  53.4094740
  11.6239031  74.1045138  53.3804106  10.3406665  74.3272851  55.9938008
  10.8406443  74.4389386  55.1852327  10.9842273  74.0233904  56.6338817
  10.6727976  77.0867884  52.8473036   9.7853831  77.3717535  52.6293231
  11.0881966  76.9261648  52.0000313  14.0242513  77.1114405  56.5627376
  14.8002903  77.6010858  56.8351992  13.2990647  77.5372459  57.0199245
  16.4615071  77.8242024  57.6201316  17.0559562  77.5837760  56.9094624
  16.5341655  77.1049155  58.2474852  14.4573806  78.3912152  53.8873446
  14.2010740  77.9908788  54.7181654  13.8326674  79.1055946  53.7623585
  18.7686144  81.1308225  56.3944737  18.2085702  81.2001415  57.1676299
  18.1629647  80.9549210  55.6744234   4.6899905  73.2935310  49.9361174
   4.6778575  74.2377150  50.0929445   5.5823327  73.1105456  49.6420635
   8.5052024  69.8878087  54.1907111   7.7384420  69.3336574  54.3363793
   8.9162729  69.9599956  55.0521262   3.6304350  41.8169713  43.7906186
   4.3629522  41.2468930  44.0244016   2.8743706  41.4291314  44.2312692
   1.1529771  35.5291288  48.2500795   0.8213095  36.3986699  48.0262010
   0.5575384  35.2127572  48.9294825   2.9120080  38.4502812  47.1072019
   2.2694461  38.7435345  46.4611813   2.4075009  38.3355732  47.9125215
   3.0519058  48.1146242  42.5415823   2.3670096  48.4945143  41.9912857
   3.1362908  48.7241568  43.2747771   1.4215818  48.6378156  47.3133524
   2.2433262  48.2358343  47.0316206   1.4178221  48.5346390  48.2649640
   9.5121811  44.9816905  43.6618496   8.7585519  44.4124303  43.5062500
   9.6469352  44.9479569  44.6089130   3.1897459  46.1201834  38.3097717
   2.4126902  45.7812994  37.8652879   3.8688940  46.1254458  37.6352682
   1.4288766  45.5935816  44.9664325   0.7712441  46.2835077  45.0544454
   2.2329165  45.9832248  45.3098311   3.5885956  45.1345541  40.7720639
   3.4503855  45.3247137  39.8441828   3.2322175  45.8964924  41.2288690
   3.6155336  47.2022068  45.7831911   4.0491843  47.1097357  46.6314965
   4.3286917  47.1779569  45.1451927   4.4770886  47.2445769  48.3164796
   4.6706776  48.1491579  48.5624071   4.3771504  46.7853188  49.1503381
   1.2478201  50.4271634  51.9682158   1.1890747  49.7430854  51.3012741
   1.6497719  51.1690624  51.5162784   5.7312949  43.8019435  44.9612700
   5.7202825  44.6844151  44.5906633   4.8630328  43.4490986  44.7667237
   2.3485523  42.6968076  41.4282866   2.8145976  43.5296068  41.3543168
   2.7993024  42.2313058  42.1328124   0.6902851  51.6697564  44.5909771
   1.6149399  51.4640426  44.4534223   0.5218155  51.4213966  45.4999113
   6.3337559  44.9519655  41.5662163   6.7768705  44.2026980  41.1681286
   5.4564069  44.9429791  41.1835895   1.4673340  51.5049996  37.0468761
   2.1624245  52.1256689  37.2656076   1.8096490  50.6545347  37.3221139
   3.3664763  48.9549702  38.5756092   3.8916087  49.2936974  37.8505412
   3.2787116  48.0196717  38.3919227   3.0558669  49.5882605  53.8807290
   2.2654213  49.5706744  53.3411789   2.8192024  50.1270899  54.6356326
   3.1756544  46.4375072  51.1940018   3.2254549  46.2725079  52.1355541
   3.0670468  45.5702331  50.8037899   4.6774741  48.8572013  51.4382040
   4.3859549  49.2201994  52.2745501   4.0646872  48.1439022  51.2595372
   5.8770423  46.4224893  43.9584610   6.7117315  46.8614697  44.1222171
   6.0129552  45.9463546  43.1392856   2.9261929  43.9804628  49.9062098
   3.4016051  44.1732274  49.0980949   2.0027495  44.0363814  49.6605482
   1.6263598  40.8570388  48.1390404   2.5781021  40.9568486  48.1602628
   1.4567049  40.0648657  48.6488488   1.4073485  51.2114768  34.0456385
   1.3287116  50.8774632  34.9392142   2.2283152  51.7036536  34.0447857
   4.1051676  44.0776508  47.2532703   4.0727996  43.1392508  47.4392387
   4.7152300  44.1560544  46.5198528   4.2546165  40.8687551  47.2990986
   3.7385213  40.0846008  47.1120915   5.1386113  40.5406268  47.4637506
   1.9156892  34.6128567  43.2586799   1.7181713  34.3043655  44.1430131
   2.5256597  35.3390206  43.3884729   9.9228226  45.1392515  46.3938740
  10.6531614  44.8777803  46.9546443   9.3135171  44.4021236  46.4340808
   8.0043523  43.2800377  46.9913191   7.2776687  43.1456342  46.3829683
   7.5890810  43.5877206  47.7969909   3.1848759  38.7884610  43.2872682
   3.9609149  39.2781063  43.5597299   2.4596894  39.2142664  43.7444552
   5.6221318  39.5012229  44.3446623   6.2165809  39.2607965  43.6339931
   5.6947902  38.7819360  44.9720159   3.6180053  40.0682357  40.6118753
   3.3616987  39.6678993  41.4426960   2.9932921  40.7826151  40.4868892
   7.9292391  42.8078430  43.1190044   7.3691949  42.8771619  43.8921606
   7.3235894  42.6319415  42.3989540   0.8864134  48.9665293  35.7164823
   1.7209738  48.5346491  35.5342298   0.7248477  48.7947307  36.6441717
   9.5148409  59.4834944  45.8120000  10.1526819  59.3641691  45.1083340
   9.3969252  60.4315788  45.8707952   6.3238115  59.4362372  45.7481524
   5.9856627  59.3203437  44.8602059   7.1927884  59.0353537  45.7282531
   2.1824931  61.2897849  41.7378415   1.6189796  61.1987786  40.9694703
   2.0677326  60.4697753  42.2180908   6.8057898  60.5897224  51.7067730
   6.7946539  60.1950022  50.8348234   6.9678538  59.8563297  52.3001501
   7.7624490  64.9568816  37.0492880   7.1112470  65.5422897  36.6626894
   8.5568853  65.4875011  37.1087918   1.6880117  62.0457953  37.4480015
   2.4610993  61.4986941  37.3092890   2.0405516  62.9102203  37.6594476
   3.5265160  63.3734336  50.6546914   3.2355026  64.2779967  50.5393580
   4.1622144  63.4150863  51.3690983   4.4521366  60.7511184  47.2448274
   5.0484939  60.5267207  46.5305236   4.5096338  60.0095930  47.8473721
   4.0246395  58.2050620  35.0798464   4.2771916  57.6832141  34.3181928
   3.0870954  58.0416765  35.1825148   9.0689678  57.2086398  42.8873208
   9.8552767  56.7905821  42.5363625   9.3328382  58.1132490  43.0554856
   9.2399755  62.6459248  37.5861865   8.6045588  62.7193875  38.2982769
   8.9097161  63.2352847  36.9080944  14.4698105  57.1461631  43.7906186
  15.2023277  56.5760848  44.0244016  13.7137461  56.7583232  44.2312692
   3.7442684  60.1078726  37.2822839   3.6278942  59.4323629  37.9503924
   3.8544944  59.6211099  36.4654993   6.0874225  59.5688873  40.9869529
   5.7232432  59.0419494  41.6982450   6.9441340  59.1787342  40.8136014
  11.9923525  50.8583205  48.2500795  11.6606850  51.7278616  48.0262010
  11.3969139  50.5419489  48.9294825   5.7279712  54.5978772  35.9830877
   5.8954114  55.4659009  36.3501348   5.5376881  54.7606054  35.0592166
   8.4855045  63.0595751  47.6496708   8.1855768  63.9620790  47.5412515
   8.1406104  62.7927934  48.5017860   1.9367526  59.5109548  43.6833412
   1.0118023  59.3785762  43.8911104   2.1851939  60.2903767  44.1803354
  11.8852188  55.5778291  45.3294145  10.9769066  55.5093700  45.0352906
  11.8339784  56.0550236  46.1575970   5.7068932  57.0536430  36.9677544
   5.5868558  57.4993481  37.8063024   5.0121521  57.4021747  36.4091082
   3.4675825  69.8240072  40.6167675   3.3899854  70.7747897  40.6956156
   2.8637468  69.4785944  41.2742602   5.9593054  56.9967937  53.2729042
   5.1826388  57.5561857  53.2631907   6.5983617  57.4824720  53.7943912
  13.7513835  53.7794730  47.1072019  13.1088215  54.0727263  46.4611813
  13.2468763  53.6647650  47.9125215  11.4053999  57.5257903  37.7957878
  12.3171855  57.7585290  37.6205576  10.8963646  58.1094947  37.2332957
   4.2139427  59.8053390  52.8347009   4.9554111  60.3438434  52.5581833
   3.5076412  60.4319679  52.9918561   9.6894766  61.9482531  51.4319171
  10.0978122  61.5064941  50.6873803   8.9672028  61.3735158  51.6853364
   6.0425836  56.8855138  48.8052728   6.8887031  57.3094551  48.9487377
   5.9824474  56.2288762  49.4991291  10.0123581  62.5083721  45.1871460
   9.3832443  62.6729436  44.4847527   9.6249243  62.9225331  45.9582424
  13.8912813  63.4438159  42.5415823  13.2063851  63.8237061  41.9912857
  13.9756662  64.0533486  43.2747771   9.1925282  54.5459506  50.4633901
   8.9486213  55.3001566  49.9268177   9.4685212  54.9244854  51.2981148
  11.1463744  61.0898118  49.1411167  11.3580640  61.7329878  48.4645548
  11.0993493  60.2560435  48.6733097   8.7489973  53.7015939  46.0447739
   7.8874452  53.9997193  46.3364477   8.7752408  53.9186338  45.1128772
   5.5651543  62.2458130  42.4521545   6.0289888  62.5245833  41.6626167
   5.3008341  61.3441574  42.2694635   2.4575624  61.7929611  45.3901308
   3.0276981  62.2216879  44.7518792   3.0483736  61.5112196  46.0885494
   4.5020429  58.3681282  39.2611110   5.2044472  58.8202326  39.7285036
   4.1701057  57.7265101  39.8891003   2.9500790  56.9593039  53.6362319
   2.3199451  57.6409319  53.8697716   2.8436878  56.8476120  52.6915457
  12.2609572  63.9670074  47.3133524  13.0827016  63.5650261  47.0316206
  12.2571975  63.8638308  48.2649640   6.0266176  63.5154117  49.4694235
   6.0910608  63.9774524  50.3052407   5.3177100  62.8851482  49.5976545
  20.3515565  60.3108822  43.6618496  19.5979274  59.7416220  43.5062500
  20.4863107  60.2771487  44.6089130   5.7414193  65.1822225  39.3373215
   5.6059868  66.0273760  39.7658063   6.2824006  65.3841502  38.5739149
   2.2281533  51.2613804  55.9987570   1.8348479  50.7080003  56.6735214
   3.0447673  51.5724383  56.3894088   1.0038476  65.8163419  41.9923893
   1.1805104  66.7381384  41.8044877   1.7995309  65.5021838  42.4218273
   5.1449494  52.6771683  53.5907827   5.8859207  53.2778837  53.5112289
   5.3767417  51.9349321  53.0325869   7.3682670  65.8045791  53.4673557
   6.9246524  65.0182170  53.1494462   8.0299883  65.9924942  52.8017448
   2.1269791  67.3341593  47.9934236   2.6777216  67.2058656  47.2211230
   1.2881267  67.6336482  47.6429128   9.4663908  66.0848591  51.4954958
   9.4482383  66.9057472  51.0035228  10.3883828  65.9602666  51.7205100
   5.9236962  63.5992720  52.3378467   6.4565299  62.8381009  52.1077775
   5.3951043  63.3066372  53.0802621   9.0906657  48.7052786  47.8672108
   8.7470926  49.5954428  47.7911219   9.4585620  48.5154444  47.0041693
   9.0556940  58.6961398  36.3744544   8.5403563  59.4666002  36.6132931
   8.7834248  58.0226534  36.9977605   6.6404051  53.5411098  41.4329782
   5.7845647  53.1517949  41.2535421   7.0531003  53.6203059  40.5729567
   8.1703197  51.0757442  45.8321342   7.6667993  51.0387577  45.0189147
   8.4633804  51.9850184  45.8917998   4.4146083  51.1596171  44.8387523
   5.2799080  50.9638980  44.4793413   4.4823592  50.9306523  45.7656880
  14.0291214  61.4493752  38.3097717  13.2520657  61.1104912  37.8652879
  14.7082695  61.4546375  37.6352682   8.8443243  56.5688490  38.2004325
   8.5393378  56.8834639  39.0514468   9.7973685  56.6469910  38.2431658
   7.2889675  62.7278713  39.8497279   6.7611036  61.9931473  39.5370516
   6.7877177  63.5053389  39.6037247  12.2682521  60.9227733  44.9664325
  11.6106195  61.6126995  45.0544454  13.0722920  61.3124165  45.3098311
   2.0208402  53.3898379  42.2103890   2.5952154  53.1673561  41.4777083
   2.6079385  53.4587074  42.9632492  11.0787980  59.2772106  43.0168267
  11.5919861  59.9102098  43.5189977  11.7289203  58.6773302  42.6511627
   2.3477989  55.4202840  36.2299776   1.5115302  55.7577527  36.5509050
   2.2082759  55.2851820  35.2926912   4.3231070  50.2639628  40.9378960
   3.6695482  49.9488645  40.3135574   4.2811544  49.6415369  41.6638783
   5.4342275  60.5458923  32.8532252   4.5269337  60.3148177  33.0523401
   5.9313307  59.7496542  33.0406233   8.3410354  69.2556430  35.7728938
   7.6672053  69.5588127  36.3813896   8.7276176  70.0585511  35.4234395
   7.5568810  56.7521562  45.2626607   6.6391372  56.9736509  45.1048295
   7.9728954  56.8267872  44.4038315   8.3403858  58.1512977  40.3929288
   9.0875677  58.6634375  40.0836410   8.6095448  57.8297030  41.2533681
   6.6130508  60.6471518  37.3756242   5.7041728  60.3630551  37.4728712
   6.6425592  61.0670597  36.5159549  11.8449776  64.2578108  41.1447409
  11.3912103  63.4169017  41.2012600  11.2143742  64.8939506  41.4822190
  10.7882695  55.1870094  42.3748077  10.0505452  54.6747480  42.7058319
  11.0409469  54.7470475  41.5631354  10.2882715  66.0954604  42.0797228
  10.5805689  66.6559661  41.3609593  10.7981336  66.3883165  42.8350387
  10.8894323  47.9646346  42.9689846  11.1953199  47.1043709  42.6815761
  11.6146927  48.5563966  42.7688840   5.1615402  58.2600139  43.4766037
   5.2164012  57.3073975  43.4008514   4.3506604  58.4159578  43.9607336
   6.3106596  62.1880262  34.7144320   5.8726026  61.4716121  34.2549958
   7.0517037  62.4156377  34.1529412   3.1007762  56.8777198  41.2356416
   2.2875628  57.1771369  41.6421608   3.5966756  56.4832887  41.9530898
   5.2516340  66.8734955  43.1690681   5.2092519  67.0995802  42.2399213
   6.1679039  66.6398330  43.3176482   8.6981974  57.3419023  50.0671310
   9.0531362  57.5690496  50.9265776   9.3454105  57.6737400  49.4448565
  14.4279711  60.4637459  40.7720639  14.2897610  60.6539055  39.8441828
  14.0715930  61.2256842  41.2288690   2.5921837  54.4495554  46.8517651
   3.2321216  54.3084313  46.1540614   1.7599368  54.1630067  46.4756253
  14.4549091  62.5313986  45.7831911  14.8885597  62.4389275  46.6314965
  15.1680671  62.5071486  45.1451927   3.3682141  63.7497984  42.9652643
   4.1622739  63.2548304  42.7635218   2.6573833  63.2215847  42.6020349
   8.1876985  66.1316080  47.3165011   8.2414008  66.7007016  48.0842727
   7.3191767  66.3017965  46.9519048  15.3164640  62.5737686  48.3164796
  15.5100530  63.4783497  48.5624071  15.2165258  62.1145106  49.1503381
   6.9700951  52.4595577  50.8155123   6.3228866  53.1585527  50.7219600
   7.7401966  52.8931721  51.1831371  10.3779749  62.7244429  53.8905677
  10.2265255  62.4954981  52.9735760  10.3684428  63.6815031  53.9037022
   7.1465085  60.2976342  48.8751943   8.0757145  60.4487502  48.7020910
   6.7256115  60.3860363  48.0200589   5.9453417  64.3227006  46.6450481
   5.8064503  63.9545791  47.5176419   5.1568013  64.8374646  46.4734438
   6.5401569  69.4236103  37.9876017   6.7153325  68.9524146  38.8021640
   5.8534357  70.0501869  38.2157278   7.4958632  63.7008609  44.0339318
   7.1608465  63.6609379  44.9296968   6.9962578  63.0353325  43.5609729
   1.4702876  59.1076239  49.5591900   1.3322674  58.3756478  50.1603439
   2.3807800  59.0185139  49.2776087  10.4317824  61.0464643  34.3076378
   9.8146994  60.3211472  34.2109431   9.9634312  61.8074004  33.9643452
   4.0985177  58.8196198  49.0475579   4.8084795  58.1789391  49.0062198
   4.0554485  59.0709093  49.9701760  12.0871955  65.7563552  51.9682158
  12.0284502  65.0722772  51.3012741  12.4891474  66.4982542  51.5162784
   2.8114111  55.8061416  50.8671219   2.2751468  55.3552155  51.5192815
   2.2230819  55.9407325  50.1241683   2.2216370  55.2650068  33.4297682
   1.3445836  55.1438868  33.0659929   2.6974123  54.4736146  33.1776571
  12.0889363  63.7203136  50.1996138  11.2016141  63.3829057  50.3222537
  12.6587914  62.9886167  50.4364903   5.6190516  68.3804588  47.1657381
   5.5460688  69.1859560  47.6776686   5.1767909  68.5796554  46.3405403
   5.4080296  67.6176358  40.6760203   4.6247818  68.1598038  40.7698427
   6.1073041  68.1350338  41.0754444   8.7176946  53.4270988  43.3194408
   9.2145645  52.6740950  42.9995478   7.9463927  53.4635304  42.7537618
  16.5706703  59.1311353  44.9612700  16.5596579  60.0136068  44.5906633
  15.7024083  58.7782904  44.7667237   8.0789200  68.2791422  49.3215540
   8.7917172  68.9138887  49.2491441   7.5879228  68.3755288  48.5055542
   9.8006727  62.1842675  40.8932832   8.8663005  62.3044137  40.7237536
   9.9783395  61.2815141  40.6292841   5.3011915  55.5688370  43.0466093
   4.9309702  55.0159411  43.7346998   5.7971007  54.9646504  42.4941093
  13.1879278  58.0259994  41.4282866  13.6539730  58.8587986  41.3543168
  13.6386778  57.5604976  42.1328124   3.1301113  66.0285866  50.1421111
   3.8310573  66.6622348  50.2950505   2.6596228  66.3700597  49.3816750
  11.2555509  64.3703815  38.4269018  11.5315353  64.2560410  39.3362892
  10.3860008  63.9721300  38.3881191  11.1595941  50.3940581  45.4673767
  10.2459020  50.6244808  45.6355974  11.5889042  50.4779025  46.3187799
  10.9302399  58.5830473  47.9673661  10.2773849  58.8306380  47.3126114
  11.3082779  57.7694611  47.6336138   7.8909573  68.6190166  42.0701831
   8.0731968  67.8011822  42.5329584   8.7142559  68.8357858  41.6326721
   8.2251738  67.5458351  39.3316880   8.7539505  67.0350806  38.7187042
   8.4879958  67.2300881  40.1962413   6.9789972  59.3250284  54.4539698
   6.3030609  59.2244413  55.1242073   7.8017606  59.1689498  54.9175695
   1.5807486  68.5973468  42.0914656   0.9117862  69.0819596  41.6078696
   1.4420356  68.8442688  43.0058034   5.7212755  70.6317211  48.6897314
   6.2731063  70.7948833  49.4546399   6.0618948  71.2221649  48.0177339
   0.6977248  52.9792361  49.2919199   0.7618575  53.8407192  48.8796597
   0.6344368  52.3666363  48.5591557  10.5723629  65.4578469  54.5445969
  11.1163533  66.0708427  54.0500923   9.9910474  66.0158047  55.0612982
   8.8581142  68.5799187  45.6760996   8.7332282  67.7788927  45.1671942
   9.5160233  69.0745380  45.1874966  10.9216051  66.3808207  47.3040546
   9.9746386  66.2613558  47.2318873  11.2698824  65.4930705  47.3866808
   3.2815624  52.2702346  51.1278788   3.8050026  52.5164643  51.8905098
   3.0627957  53.1022381  50.7081926   7.9262484  66.1760923  43.5044899
   7.7787446  65.2477631  43.6852469   8.7515977  66.1981014  43.0201974
   1.7924728  54.8278990  39.3625391   2.1320801  55.3564912  38.6403999
   2.2396849  55.1659396  40.1383957  11.5296606  66.9989482  44.5909771
  12.4543153  66.7932343  44.4534223  11.3611909  66.7505883  45.4999113
   4.4868169  53.2116041  48.8128459   4.1464989  52.4123854  49.2149139
   3.7807175  53.5117752  48.2405292   5.1384641  50.2965354  47.2655782
   5.9610710  49.8225832  47.1434672   5.3822704  51.0755837  47.7654468
   3.7792875  53.3253612  37.5618684   4.5001238  53.7034865  37.0582400
   3.1558180  54.0442489  37.6653662   7.9223998  54.0298761  38.4977016
   8.1387613  54.9123399  38.1965844   7.4418065  53.6384974  37.7682658
   2.6623220  56.9884474  45.0747760   2.5167800  57.3024777  45.9672042
   2.1848423  57.6069374  44.5218659   4.5219603  53.9787022  45.1228650
   4.5081171  53.0828115  44.7860948   5.2392031  53.9857686  45.7566936
   6.3745733  54.4124362  47.1681777   6.1163511  55.3341433  47.1666108
   5.8430774  54.0154797  47.8582242  11.3191922  67.5175149  39.9471863
  11.4928800  66.9521572  39.1945715  11.8120813  68.3176044  39.7651353
   3.9256498  52.8601402  40.3916220   4.0472410  51.9318049  40.5907108
   3.6358541  52.8740088  39.4794536   6.7947689  50.5456313  43.5282940
   6.8169386  50.6095646  42.5734920   7.2115748  49.7060822  43.7223446
  17.1731313  60.2811572  41.5662163  17.6162459  59.5318898  41.1681286
  16.2957823  60.2721709  41.1835895  12.3067095  66.8341914  37.0468761
  13.0017999  67.4548607  37.2656076  12.6490245  65.9837265  37.3221139
  14.2058518  64.2841619  38.5756092  14.7309842  64.6228892  37.8505412
  14.1180870  63.3488635  38.3919227   5.8678566  68.1975693  50.7045969
   6.1765693  67.9524840  51.5768668   6.6654048  68.4022332  50.2164839
   5.8899178  70.3513603  42.9351345   5.4504169  69.8589981  43.6284202
   6.6407295  69.8086570  42.6943420   3.3373051  65.8951612  45.0073647
   2.7153060  65.2322317  44.7075875   4.0077917  65.9212744  44.3247295
   3.4097578  54.3733400  54.6006153   3.4585733  55.2495523  54.2183922
   3.9520092  53.8310793  54.0277796  13.8952424  64.9174523  53.8807290
  13.1047967  64.8998662  53.3411789  13.6585778  65.4562817  54.6356326
  14.0150299  61.7666989  51.1940018  14.0648304  61.6016997  52.1355541
  13.9064222  60.8994248  50.8037899   2.8986557  64.4455535  38.4832107
   3.0474678  65.1291000  37.8298780   3.7053001  64.4260625  38.9981563
  11.3054061  57.7497917  52.5099325  12.2063924  57.6104382  52.2183323
  11.3802036  57.9152372  53.4497503   5.6396866  55.1264772  51.3552511
   4.7700176  55.4198338  51.0835100   5.8756347  55.7105217  52.0759775
  15.5168496  64.1863931  51.4382040  15.2253304  64.5493911  52.2745501
  14.9040627  63.4730939  51.2595372  16.7164178  61.7516811  43.9584610
  17.5511069  62.1906615  44.1222171  16.8523307  61.2755464  43.1392856
  13.7655684  59.3096546  49.9062098  14.2409805  59.5024192  49.0980949
  12.8421249  59.3655731  49.6605482   8.3435900  51.3444389  48.8717932
   8.8617844  52.0805416  48.5464420   7.9891033  51.6508382  49.7064691
   8.5948494  47.7644672  44.3918828   8.8750248  47.0967861  45.0179255
   9.3799101  47.9573767  43.8793492   6.3981963  66.9403666  35.9543855
   5.8255930  67.5593853  35.5014327   6.9714757  67.4903027  36.4883777
  12.4657353  56.1862306  48.1390404  13.4174776  56.2860403  48.1602628
  12.2960803  55.3940574  48.6488488  10.4871732  53.2717889  48.3249804
   9.8921664  53.5522902  47.6296293  10.2021429  53.7611790  49.0966546
   9.6179223  67.2240816  37.0852437  10.5509896  67.1586377  37.2885313
   9.5302436  68.0597083  36.6266970  12.2467239  66.5406686  34.0456385
  12.1680871  66.2066550  34.9392142  13.0676906  67.0328454  34.0447857
  14.9445431  59.4068425  47.2532703  14.9121751  58.4684426  47.4392387
  15.5546054  59.4852462  46.5198528   6.7828761  58.2764478  33.2959907
   7.7287866  58.1470686  33.3648325   6.4043006  57.5379140  33.7729335
  15.0939919  56.1979469  47.2990986  14.5778968  55.4137925  47.1120915
  15.9779868  55.8698185  47.4637506  12.7550646  49.9420484  43.2586799
  12.5575467  49.6335573  44.1430131  13.3650352  50.6682123  43.3884729
  20.7621980  60.4684432  46.3938740  21.4925369  60.2069720  46.9546443
  20.1528926  59.7313154  46.4340808  18.8437278  58.6092295  46.9913191
  18.1170441  58.4748260  46.3829683  18.4284564  58.9169123  47.7969909
   6.6667454  62.3282224  54.7560564   7.5870463  62.5060823  54.9500611
   6.6317037  61.3838270  54.6040263   4.9671679  56.2014455  33.2314792
   4.0603134  55.9047567  33.3077506   5.2447660  55.9044273  32.3649079
   6.5833744  50.7451344  39.3859034   5.7734473  50.3998429  39.7614280
   7.2718161  50.4358888  39.9746645   8.5124293  49.8229391  41.0083330
   9.0655331  50.2424845  41.6673353   8.7494379  48.8965139  41.0506286
   4.5357392  55.8116465  56.7886094   4.4354119  56.7610822  56.7198185
   4.3178934  55.4834704  55.9162164   3.7370463  53.0601390  33.3726772
   4.5989627  53.3856288  33.6322589   3.9220807  52.2732886  32.8599837
  11.8903100  51.9329916  40.5161995  11.3101769  52.5914720  40.1340047
  11.6239032  51.1107261  40.1049412  10.3406666  51.3334974  42.7183315
  10.8406444  51.4451509  41.9097634  10.9842274  51.0296027  43.3584123
   4.3988662  59.2413604  55.6051156   3.9155744  60.0413964  55.8115045
   4.4849601  59.2521549  54.6518600   0.9161382  61.7019254  50.2090387
   1.7354271  62.1963333  50.2325225   1.1898189  60.7851223  50.1807955
  10.6727978  54.0930007  39.5718343   9.7853833  54.3779657  39.3538538
  11.0881967  53.9323770  38.7245620  14.0242514  54.1176528  43.2872682
  14.8002904  54.6072980  43.5597299  13.2990648  54.5434582  43.7444552
  16.4615072  54.8304147  44.3446623  17.0559563  54.5899883  43.6339931
  16.5341656  54.1111278  44.9720159   9.8171191  63.8574681  33.6666363
  10.5207041  64.0624684  34.2824018   9.0933840  64.4251443  33.9315446
  10.6469001  59.6084543  39.7868633  10.5904203  60.0653094  38.9476265
  11.1997344  58.8475227  39.6091476  14.4573807  55.3974275  40.6118753
  14.2010742  54.9970910  41.4426960  13.8326675  56.1118069  40.4868892
  18.7686145  58.1370348  43.1190044  18.2085703  58.2063537  43.8921606
  18.1629649  57.9611332  42.3989540   1.8381354  69.5707075  44.8708230
   1.7213738  70.5152507  44.7686921   1.0173800  69.2680636  45.2594029
  11.7257889  64.2957211  35.7164823  12.5603493  63.8638409  35.5342298
  11.5642232  64.1239224  36.6441717  11.3803781  60.7989324  37.0821162
  11.3252585  60.6333595  36.1409606  10.7549836  61.5065357  37.2383352
   8.6949688  63.1038236  56.4074725   9.5640848  63.2778888  56.0461360
   8.2156439  63.9232653  56.2850454   4.6899906  50.2997433  36.6606481
   4.6778576  51.2439273  36.8174752   5.5823328  50.1167578  36.3665942
   2.8635868  70.2235337  48.0864159   3.7663115  70.2558947  48.4030654
   2.6373238  69.2935788  48.1010494   4.6189470  68.9766323  44.7474237
   3.6685101  68.9768185  44.6338610   4.9221956  68.2299058  44.2310272
   8.5052026  46.8940210  40.9152417   7.7384422  46.3398696  41.0609100
   8.9162731  46.9662078  41.7766569  20.3542164  74.8126862  45.8120000
  20.9920574  74.6933609  45.1083340  20.2363007  75.7607706  45.8707952
  17.1631870  74.7654290  45.7481524  16.8250381  74.6495355  44.8602059
  18.0321638  74.3645455  45.7282531  13.0218686  76.6189766  41.7378415
  12.4583551  76.5279703  40.9694703  12.9071081  75.7989671  42.2180908
  17.6451653  75.9189142  51.7067730  17.6340294  75.5241940  50.8348234
  17.8072292  75.1855214  52.3001501  10.5683118  78.1140958  44.5762636
  11.3604410  77.7731783  44.1608935  10.8079768  78.2235933  45.4964789
  18.6018244  80.2860734  37.0492880  17.9506224  80.8714814  36.6626894
  19.3962607  80.8166929  37.1087918  12.5273872  77.3749871  37.4480015
  13.3004748  76.8278858  37.3092890  12.8799270  78.2394120  37.6594476
  14.3658914  78.7026253  50.6546914  14.0748780  79.6071884  50.5393580
  15.0015898  78.7442781  51.3690983  15.2915121  76.0803102  47.2448274
  15.8878693  75.8559124  46.5305236  15.3490092  75.3387847  47.8473721
  14.8640149  73.5342537  35.0798464  15.1165670  73.0124059  34.3181928
  13.9264708  73.3708683  35.1825148  19.9083432  72.5378316  42.8873208
  20.6946521  72.1197739  42.5363625  20.1722137  73.4424408  43.0554856
  20.0793510  77.9751166  37.5861865  19.4439343  78.0485792  38.2982769
  19.7490916  78.5644765  36.9080944  25.3091859  72.4753549  43.7906186
  26.0417031  71.9052766  44.0244016  24.5531215  72.0875149  44.2312692
  14.5836438  75.4370643  37.2822839  14.4672696  74.7615547  37.9503924
  14.6938698  74.9503017  36.4654993  16.9267979  74.8980790  40.9869529
  16.5626186  74.3711411  41.6982450  17.7835095  74.5079259  40.8136014
  22.8317280  66.1875123  48.2500795  22.5000604  67.0570534  48.0262010
  22.2362893  65.8711407  48.9294825  16.5673466  69.9270690  35.9830877
  16.7347868  70.7950926  36.3501348  16.3770635  70.0897972  35.0592166
  19.3248799  78.3887669  47.6496708  19.0249522  79.2912708  47.5412515
  18.9799859  78.1219852  48.5017860  12.7761281  74.8401466  43.6833412
  11.8511777  74.7077680  43.8911104  13.0245694  75.6195685  44.1803354
  22.7245943  70.9070209  45.3294145  21.8162820  70.8385618  45.0352906
  22.6733539  71.3842154  46.1575970  16.5462687  72.3828347  36.9677544
  16.4262312  72.8285398  37.8063024  15.8515275  72.7313665  36.4091082
  10.1370092  74.4834739  44.5177201  10.2662473  74.7369218  45.4316613
   9.4567543  75.0762447  44.1981856  16.7986809  72.3259855  53.2729042
  16.0220143  72.8853775  53.2631907  17.4377372  72.8116638  53.7943912
  24.5907589  69.1086647  47.1072019  23.9481970  69.4019181  46.4611813
  24.0862518  68.9939568  47.9125215  22.2447753  72.8549821  37.7957878
  23.1565609  73.0877207  37.6205576  21.7357400  73.4386865  37.2332957
  15.0533181  75.1345308  52.8347009  15.7947865  75.6730352  52.5581833
  14.3470167  75.7611597  52.9918561  20.5288521  77.2774449  51.4319171
  20.9371877  76.8356859  50.6873803  19.8065782  76.7027076  51.6853364
  16.8819591  72.2147055  48.8052728  17.7280786  72.6386469  48.9487377
  16.8218228  71.5580680  49.4991291  20.8517335  77.8375639  45.1871460
  20.2226198  78.0021353  44.4847527  20.4642997  78.2517249  45.9582424
  24.7306567  78.7730077  42.5415823  24.0457605  79.1528978  41.9912857
  24.8150417  79.3825404  43.2747771  20.0319036  69.8751424  50.4633901
  19.7879968  70.6293484  49.9268177  20.3078967  70.2536771  51.2981148
  21.9857499  76.4190036  49.1411167  22.1974394  77.0621796  48.4645548
  21.9387247  75.5852353  48.6733097  19.5883728  69.0307857  46.0447739
  18.7268207  69.3289110  46.3364477  19.6146162  69.2478256  45.1128772
  16.4045297  77.5750047  42.4521545  16.8683643  77.8537750  41.6626167
  16.1402095  76.6733492  42.2694635  13.2969378  77.1221529  45.3901308
  13.8670735  77.5508797  44.7518792  13.8877490  76.8404113  46.0885494
  15.3414183  73.6973200  39.2611110  16.0438227  74.1494243  39.7285036
  15.0094812  73.0557018  39.8891003  13.7894545  72.2884956  53.6362319
  13.1593205  72.9701237  53.8697716  13.6830633  72.1768038  52.6915457
   9.0839517  71.9556752  44.5628243   8.2938571  72.2114281  44.0868354
   9.5750765  72.7705090  44.6680284  23.1003327  79.2961991  47.3133524
  23.9220771  78.8942179  47.0316206  23.0965730  79.1930226  48.2649640
  11.0354263  72.3201331  41.5211720  10.2385426  72.4320026  42.0395216
  10.8079855  72.6587984  40.6552611  16.8659930  78.8446035  49.4694235
  16.9304363  79.3066442  50.3052407  16.1570854  78.2143400  49.5976545
   7.3677220  72.2087243  46.9943234   7.6185259  73.0934253  47.2600810
   7.9036769  72.0291844  46.2218326  31.1909320  75.6400740  43.6618496
  30.4373028  75.0708138  43.5062500  31.3256861  75.6063404  44.6089130
  13.0675288  66.5905722  55.9987570  12.6742233  66.0371921  56.6735214
  13.8841428  66.9016301  56.3894088  10.0337345  78.0289580  39.9101140
  10.5461866  78.8232830  40.0606705  10.6860058  77.3315871  39.8434742
  15.9843249  68.0063601  53.5907827  16.7252962  68.6070754  53.5112289
  16.2161171  67.2641239  53.0325869  11.1284587  73.1919968  51.8686056
  11.0138102  72.2905226  52.1693155  10.2729104  73.4383665  51.5170873
  18.2076424  81.1337709  53.4673557  17.7640278  80.3474087  53.1494462
  18.8693638  81.3216859  52.8017448  20.3057662  81.4140509  51.4954958
  20.2876138  82.2349390  51.0035228  21.2277582  81.2894584  51.7205100
  16.7630717  78.9284638  52.3378467  17.2959053  78.1672926  52.1077775
  16.2344798  78.6358290  53.0802621  19.9300411  64.0344704  47.8672108
  19.5864681  64.9246346  47.7911219  20.2979374  63.8446362  47.0041693
   7.9986262  76.3578235  40.6860711   8.8361484  76.7675243  40.4694418
   8.1764530  75.4177677  40.6560905  19.8950694  74.0253315  36.3744544
  19.3797318  74.7957920  36.6132931  19.6228003  73.3518451  36.9977605
  17.4797805  68.8703016  41.4329782  16.6239402  68.4809866  41.2535421
  17.8924757  68.9494977  40.5729567  19.0096952  66.4049359  45.8321342
  18.5061747  66.3679494  45.0189147  19.3027559  67.3142102  45.8917998
  15.2539838  66.4888089  44.8387523  16.1192835  66.2930898  44.4793413
  15.3217347  66.2598441  45.7656880  24.8684968  76.7785670  38.3097717
  24.0914411  76.4396829  37.8652879  25.5476449  76.7838293  37.6352682
  19.6836997  71.8980407  38.2004325  19.3787133  72.2126556  39.0514468
  20.6367439  71.9761827  38.2431658  18.1283429  78.0570631  39.8497279
  17.6004791  77.3223390  39.5370516  17.6270932  78.8345307  39.6037247
  23.1076275  76.2519651  44.9664325  22.4499950  76.9418912  45.0544454
  23.9116674  76.6416083  45.3098311  12.8602157  68.7190297  42.2103890
  13.4345909  68.4965478  41.4777083  13.4473139  68.7878991  42.9632492
  21.9181734  74.6064024  43.0168267  22.4313616  75.2394016  43.5189977
  22.5682958  74.0065219  42.6511627  13.1871744  70.7494758  36.2299776
  12.3509056  71.0869444  36.5509050  13.0476514  70.6143738  35.2926912
  15.1624825  65.5931546  40.9378960  14.5089237  65.2780563  40.3135574
  15.1205299  64.9707286  41.6638783  16.2736029  75.8750841  32.8532252
  15.3663091  75.6440094  33.0523401  16.7707061  75.0788460  33.0406233
  18.3962565  72.0813479  45.2626607  17.4785126  72.3028426  45.1048295
  18.8122709  72.1559790  44.4038315  19.1797613  73.4804895  40.3929288
  19.9269432  73.9926292  40.0836410  19.4489202  73.1588948  41.2533681
  17.4524263  75.9763436  37.3756242  16.5435482  75.6922469  37.4728712
  17.4819347  76.3962514  36.5159549  22.6843530  79.5870025  41.1447409
  22.2305857  78.7460935  41.2012600  22.0537497  80.2231424  41.4822190
  21.6276450  70.5162011  42.3748077  20.8899207  70.0039397  42.7058319
  21.8803223  70.0762393  41.5631354  21.1276469  81.4246522  42.0797228
  21.4199444  81.9851579  41.3609593  21.6375090  81.7175083  42.8350387
  21.7288077  63.2938263  42.9689846  22.0346954  62.4335627  42.6815761
  22.4540682  63.8855883  42.7688840   8.0212433  73.6968950  41.3571444
   7.8236833  73.1038311  40.6322511   7.4659097  73.3921160  42.0747383
  16.0009157  73.5892056  43.4766037  16.0557767  72.6365893  43.4008514
  15.1900359  73.7451495  43.9607336  17.1500351  77.5172179  34.7144320
  16.7119781  76.8008038  34.2549958  17.8910791  77.7448294  34.1529412
  13.9401517  72.2069116  41.2356416  13.1269382  72.5063287  41.6421608
  14.4360511  71.8124805  41.9530898  19.5375728  72.6710941  50.0671310
  19.8925116  72.8982414  50.9265776  20.1847860  73.0029317  49.4448565
  25.2673465  75.7929376  40.7720639  25.1291364  75.9830972  39.8441828
  24.9109684  76.5548759  41.2288690  13.4315592  69.7787472  46.8517651
  14.0714971  69.6376231  46.1540614  12.5993122  69.4921985  46.4756253
  25.2942845  77.8605903  45.7831911  25.7279352  77.7681193  46.6314965
  26.0074426  77.8363404  45.1451927  14.2075895  79.0789902  42.9652643
  15.0016494  78.5840222  42.7635218  13.4967588  78.5507765  42.6020349
  10.5158659  73.2232984  39.0412396   9.5856247  73.1617439  39.2582358
  10.6116131  72.7008937  38.2449037  10.4344208  69.7487797  41.6290638
  10.6951025  70.6633130  41.5199798  11.2561380  69.2812239  41.7787251
  11.9069133  71.1625554  48.7989462  12.5792187  70.9542916  48.1502111
  11.0798920  70.9647640  48.3594695  26.1558395  77.9029604  48.3164796
  26.3494285  78.8075415  48.5624071  26.0559013  77.4437023  49.1503381
  17.8094705  67.7887495  50.8155123  17.1622620  68.4877444  50.7219600
  18.5795721  68.2223639  51.1831371  21.2173503  78.0536347  53.8905677
  21.0659010  77.8246899  52.9735760  21.2078183  79.0106948  53.9037022
  17.9858840  75.6268260  48.8751943  18.9150900  75.7779419  48.7020910
  17.5649870  75.7152280  48.0200589  16.7847171  79.6518924  46.6450481
  16.6458257  79.2837708  47.5176419  15.9961768  80.1666563  46.4734438
  18.3352387  79.0300527  44.0339318  18.0002219  78.9901297  44.9296968
  17.8356332  78.3645243  43.5609729  12.3096631  74.4368157  49.5591900
  12.1716428  73.7048396  50.1603439  13.2201554  74.3477057  49.2776087
  21.2711578  76.3756561  34.3076378  20.6540749  75.6503389  34.2109431
  20.8028067  77.1365921  33.9643452  14.9378931  74.1488116  49.0475579
  15.6478550  73.5081308  49.0062198  14.8948239  74.4001011  49.9701760
  22.9265710  81.0855469  51.9682158  22.8678256  80.4014690  51.3012741
  23.3285228  81.8274459  51.5162784  13.6507865  71.1353334  50.8671219
  13.1145222  70.6844072  51.5192815  13.0624574  71.2699243  50.1241683
  13.0610124  70.5941985  33.4297682  12.1839590  70.4730786  33.0659929
  13.5367877  69.8028064  33.1776571  22.9283117  79.0495053  50.1996138
  22.0409896  78.7120975  50.3222537  23.4981668  78.3178085  50.4364903
   4.5812264  75.3819145  43.5239189   5.2683304  75.0680875  42.9360205
   4.4260393  76.2860510  43.2506441   9.3846986  70.2709342  47.9524213
   9.3005175  69.6635011  47.2174623   8.5629693  70.7618360  47.9533709
  19.5570700  68.7562905  43.3194408  20.0539400  68.0032868  42.9995478
  18.7857682  68.7927222  42.7537618  27.4100458  74.4603271  44.9612700
  27.3990334  75.3427986  44.5906633  26.5417837  74.1074822  44.7667237
  20.6400481  77.5134592  40.8932832  19.7056760  77.6336055  40.7237536
  20.8177149  76.6107059  40.6292841  16.1405669  70.8980288  43.0466093
  15.7703457  70.3451329  43.7346998  16.6364762  70.2938422  42.4941093
  24.0273032  73.3551912  41.4282866  24.4933485  74.1879903  41.3543168
  24.4780533  72.8896893  42.1328124  22.0949263  79.6995733  38.4269018
  22.3709107  79.5852328  39.3362892  21.2253762  79.3013218  38.3881191
  21.9989695  65.7232499  45.4673767  21.0852775  65.9536726  45.6355974
  22.4282797  65.8070943  46.3187799  21.7696154  73.9122391  47.9673661
  21.1167604  74.1598298  47.3126114  22.1476533  73.0986529  47.6336138
  17.8183727  74.6542202  54.4539698  17.1424364  74.5536331  55.1242073
  18.6411360  74.4981415  54.9175695   4.1580240  73.4619738  45.7956657
   4.1964340  72.9283329  46.5893775   3.6520533  72.9354944  45.1767634
  11.5371003  68.3084279  49.2919199  11.6012329  69.1699110  48.8796597
  11.4738123  67.6958281  48.5591557  11.0123275  70.3807411  52.9392233
  11.6395314  69.9984489  53.5529757  10.1551194  70.1621613  53.3047926
  21.4117384  80.7870387  54.5445969  21.9557288  81.4000345  54.0500923
  20.8304229  81.3449965  55.0612982   7.7888818  72.1883841  38.8710588
   8.0842259  71.2794519  38.8177642   6.8876854  72.1671580  38.5491590
  11.3183065  70.2639837  44.8538137  10.5969651  70.8775805  44.7145610
  12.1076321  70.7997602  44.7754783  21.7609805  81.7100125  47.3040546
  20.8140141  81.5905476  47.2318873  22.1092578  80.8222623  47.3866808
  14.1209379  67.5994264  51.1278788  14.6443780  67.8456560  51.8905098
  13.9021712  68.4314298  50.7081926   9.5176660  69.8697938  38.9949913
   9.1889366  68.9895317  38.8125019   9.8716030  69.8145607  39.8826302
  18.7656238  81.5052841  43.5044899  18.6181201  80.5769548  43.6852469
  19.5909732  81.5272932  43.0201974  12.6318483  70.1570908  39.3625391
  12.9714555  70.6856829  38.6403999  13.0790603  70.4951314  40.1383957
  22.3690360  82.3281400  44.5909771  23.2936908  82.1224261  44.4534223
  22.2005664  82.0797801  45.4999113  15.3261924  68.5407959  48.8128459
  14.9858744  67.7415772  49.2149139  14.6200930  68.8409670  48.2405292
  15.9778395  65.6257271  47.2655782  16.8004465  65.1517749  47.1434672
  16.2216459  66.4047755  47.7654468  14.6186630  68.6545530  37.5618684
  15.3394992  69.0326782  37.0582400  13.9951934  69.3734406  37.6653662
  18.7617753  69.3590679  38.4977016  18.9781367  70.2415316  38.1965844
  18.2811820  68.9676892  37.7682658  13.5016974  72.3176392  45.0747760
  13.3561555  72.6316695  45.9672042  13.0242178  72.9361292  44.5218659
  15.3613357  69.3078940  45.1228650  15.3474926  68.4120033  44.7860948
  16.0785785  69.3149604  45.7566936  17.2139488  69.7416280  47.1681777
  16.9557266  70.6633351  47.1666108  16.6824528  69.3446715  47.8582242
   7.9762636  74.8581736  48.0135422   7.4316104  75.6341544  48.1455696
   8.8541986  75.2052541  47.8554543  14.7650253  68.1893320  40.3916220
  14.8866164  67.2609966  40.5907108  14.4752295  68.2032006  39.4794536
  17.6341443  65.8748231  43.5282940  17.6563140  65.9387564  42.5734920
  18.0509502  65.0352739  43.7223446  28.0125068  75.6103490  41.5662163
  28.4556214  74.8610815  41.1681286  27.1351578  75.6013626  41.1835895
  23.1460849  82.1633832  37.0468761  23.8411754  82.7840524  37.2656076
  23.4883999  81.3129183  37.3221139   8.7628658  73.9851633  50.9065579
   8.0210394  74.1334268  51.4930209   8.4421402  74.2459898  50.0432328
  25.0452272  79.6133537  38.5756092  25.5703596  79.9520810  37.8505412
  24.9574625  78.6780552  38.3919227  14.2491333  69.7025317  54.6006153
  14.2979488  70.5787440  54.2183922  14.7913847  69.1602711  54.0277796
  24.7346178  80.2466441  53.8807290  23.9441722  80.2290580  53.3411789
  24.4979533  80.7854734  54.6356326  24.8544053  77.0958907  51.1940018
  24.9042058  76.9308915  52.1355541  24.7457977  76.2286166  50.8037899
  22.1447816  73.0789835  52.5099325  23.0457678  72.9396300  52.2183323
  22.2195790  73.2444290  53.4497503  16.4790621  70.4556690  51.3552511
  15.6093930  70.7490256  51.0835100  16.7150101  71.0397135  52.0759775
  26.3562250  79.5155849  51.4382040  26.0647058  79.8785829  52.2745501
  25.7434381  78.8022857  51.2595372  27.5557932  77.0808728  43.9584610
  28.3904824  77.5198532  44.1222171  27.6917061  76.6047382  43.1392856
  24.6049438  74.6388463  49.9062098  25.0803560  74.8316110  49.0980949
  23.6815004  74.6947649  49.6605482  11.4932945  75.8012630  39.4893176
  11.2478987  74.8974960  39.6873386  11.6628859  75.8029781  38.5472654
  19.1829655  66.6736307  48.8717932  19.7011599  67.4097334  48.5464420
  18.8284788  66.9800300  49.7064691  10.7628592  71.5340988  36.9879338
  10.0697837  71.6085343  36.3319374  10.5180344  70.7701332  37.5100855
  19.4342249  63.0936589  44.3918828  19.7144003  62.4259778  45.0179255
  20.2192856  63.2865685  43.8793492  23.3051107  71.5154223  48.1390404
  24.2568530  71.6152321  48.1602628  23.1354558  70.7232492  48.6488488
  21.3265487  68.6009807  48.3249804  20.7315419  68.8814819  47.6296293
  21.0415183  69.0903707  49.0966546  23.0860994  81.8698604  34.0456385
  23.0074625  81.5358467  34.9392142  23.9070661  82.3620372  34.0447857
  25.7839185  74.7360343  47.2532703  25.7515505  73.7976344  47.4392387
  26.3939809  74.8144380  46.5198528  17.6222516  73.6056396  33.2959907
  18.5681621  73.4762604  33.3648325  17.2436761  72.8671058  33.7729335
  25.9333674  71.5271386  47.2990986  25.4172722  70.7429843  47.1120915
  26.8173622  71.1990103  47.4637506  23.5944400  65.2712402  43.2586799
  23.3969222  64.9627490  44.1430131  24.2044106  65.9974041  43.3884729
  31.6015735  75.7976350  46.3938740  32.3319123  75.5361638  46.9546443
  30.9922680  75.0605072  46.4340808  29.6831032  73.9384212  46.9913191
  28.9564196  73.8040177  46.3829683  29.2678319  74.2461041  47.7969909
  17.5061208  77.6574142  54.7560564  18.4264218  77.8352741  54.9500611
  17.4710792  76.7130187  54.6040263  15.8065433  71.5306372  33.2314792
  14.8996888  71.2339485  33.3077506  16.0841414  71.2336190  32.3649079
   6.7243373  72.8512736  43.6813839   6.4046158  71.9978044  43.3888213
   6.1776802  73.0661314  44.4371806  10.5023281  75.5675177  47.3983345
  10.7209291  76.4992285  47.4171379  10.9149055  75.2083151  48.1838149
  17.4227499  66.0743262  39.3859034  16.6128227  65.7290347  39.7614280
  18.1111916  65.7650806  39.9746645  19.3518047  65.1521309  41.0083330
  19.9049086  65.5716762  41.6673353  19.5888133  64.2257057  41.0506286
  15.3751146  71.1408383  56.7886094  15.2747873  72.0902740  56.7198185
  15.1572688  70.8126621  55.9162164  14.5764218  68.3893308  33.3726772
  15.4383382  68.7148206  33.6322589  14.7614562  67.6024804  32.8599837
   6.5931633  76.4715647  45.6506960   5.8995105  76.0569600  45.1376915
   7.3404624  76.5136184  45.0540379  22.7296854  67.2621834  40.5161995
  22.1495523  67.9206638  40.1340047  22.4632787  66.4399179  40.1049412
  21.1800421  66.6626892  42.7183315  21.6800199  66.7743426  41.9097634
  21.8236028  66.3587945  43.3584123  15.2382416  74.5705521  55.6051156
  14.7549498  75.3705881  55.8115045  15.3243355  74.5813466  54.6518600
   8.5068376  76.4033901  43.5272975   8.4839064  76.5021588  42.5754858
   8.8169013  77.2499052  43.8490141  11.1655754  78.4610056  47.6419590
  12.1199007  78.4293998  47.5749521  10.9668277  78.0000680  48.4569816
  11.7555136  77.0311172  50.2090387  12.5748025  77.5255251  50.2325225
  12.0291944  76.1143140  50.1807955  21.5121732  69.4221924  39.5718343
  20.6247587  69.7071575  39.3538538  21.9275721  69.2615688  38.7245620
  24.8636268  69.4468445  43.2872682  25.6396658  69.9364898  43.5597299
  24.1384403  69.8726500  43.7444552  27.3008827  70.1596065  44.3446623
  27.8953318  69.9191801  43.6339931  27.3735411  69.4403195  44.9720159
  20.6564946  79.1866599  33.6666363  21.3600796  79.3916602  34.2824018
  19.9327594  79.7543361  33.9315446  21.4862756  74.9376460  39.7868633
  21.4297957  75.3945012  38.9476265  22.0391098  74.1767145  39.6091476
  25.2967562  70.7266192  40.6118753  25.0404496  70.3262828  41.4426960
  24.6720430  71.4409986  40.4868892  29.6079900  73.4662265  43.1190044
  29.0479458  73.5355455  43.8921606  29.0023403  73.2903250  42.3989540
  22.5651643  79.6249128  35.7164823  23.3997247  79.1930327  35.5342298
  22.4035986  79.4531142  36.6441717  22.2197535  76.1281242  37.0821162
  22.1646339  75.9625513  36.1409606  21.5943591  76.8357275  37.2383352
   7.0090050  71.3649306  50.9082584   7.6548914  70.8548260  51.3969810
   6.8007201  72.1017988  51.4826010  19.5343442  78.4330153  56.4074725
  20.4034602  78.6070806  56.0461360  19.0550194  79.2524570  56.2850454
  15.5293661  65.6289351  36.6606481  15.5172331  66.5731191  36.8174752
  16.4217083  65.4459496  36.3665942  19.3445780  62.2232127  40.9152417
  18.5778176  61.6690614  41.0609100  19.7556485  62.2953996  41.7766569
  11.3487541  68.5116923  55.0057599  12.2119003  68.1553728  55.2160923
  10.7752952  68.1730818  55.6933003  36.1485614  87.8045466  43.7906186
  36.8810786  87.2344683  44.0244016  35.3924970  87.4167067  44.2312692
  33.6711034  81.5167041  48.2500795  33.3394359  82.3862452  48.0262010
  33.0756648  81.2003325  48.9294825  33.5639697  86.2362127  45.3294145
  32.6556575  86.1677535  45.0352906  33.5127293  86.7134072  46.1575970
  35.4301344  84.4378565  47.1072019  34.7875724  84.7311098  46.4611813
  34.9256272  84.3231485  47.9125215  30.8712791  85.2043341  50.4633901
  30.6273722  85.9585402  49.9268177  31.1472721  85.5828689  51.2981148
  30.4277482  84.3599774  46.0447739  29.5661961  84.6581028  46.3364477
  30.4539917  84.5770173  45.1128772  23.9069042  81.9197640  55.9987570
  23.5135988  81.3663838  56.6735214  24.7235182  82.2308218  56.3894088
  26.8237003  83.3355519  53.5907827  27.5646716  83.9362672  53.5112289
  27.0554926  82.5933157  53.0325869  30.7694166  79.3636622  47.8672108
  30.4258435  80.2538263  47.7911219  31.1373129  79.1738279  47.0041693
  28.3191560  84.1994934  41.4329782  27.4633156  83.8101784  41.2535421
  28.7318511  84.2786894  40.5729567  29.8490706  81.7341277  45.8321342
  29.3455502  81.6971412  45.0189147  30.1421313  82.6434020  45.8917998
  26.0933592  81.8180007  44.8387523  26.9586589  81.6222815  44.4793413
  26.1611101  81.5890358  45.7656880  26.0018579  80.9223463  40.9378960
  25.3482991  80.6072481  40.3135574  25.9599053  80.2999204  41.6638783
  32.4670204  85.8453929  42.3748077  31.7292961  85.3331315  42.7058319
  32.7196978  85.4054311  41.5631354  32.5681832  78.6230181  42.9689846
  32.8740708  77.7627544  42.6815761  33.2934436  79.2147801  42.7688840
  28.6488460  83.1179412  50.8155123  28.0016375  83.8169362  50.7219600
  29.4189475  83.5515556  51.1831371  30.3964455  84.0854823  43.3194408
  30.8933154  83.3324785  42.9995478  29.6251436  84.1219140  42.7537618
  32.8383450  81.0524416  45.4673767  31.9246529  81.2828643  45.6355974
  33.2676551  81.1362860  46.3187799  24.9603133  82.9286181  51.1278788
  25.4837535  83.1748478  51.8905098  24.7415466  83.7606216  50.7081926
  26.1655678  83.8699876  48.8128459  25.8252498  83.0707690  49.2149139
  25.4594684  84.1701587  48.2405292  26.8172150  80.9549189  47.2655782
  27.6398219  80.4809667  47.1434672  27.0610213  81.7339673  47.7654468
  29.6011507  84.6882596  38.4977016  29.8175122  85.5707234  38.1965844
  29.1205574  84.2968810  37.7682658  25.6044007  83.5185238  40.3916220
  25.7259919  82.5901884  40.5907108  25.3146050  83.5323924  39.4794536
  28.4735198  81.2040148  43.5282940  28.4956895  81.2679481  42.5734920
  28.8903257  80.3644657  43.7223446  30.0223409  82.0028224  48.8717932
  30.5405353  82.7389251  48.5464420  29.6678542  82.3092218  49.7064691
  30.2736003  78.4228507  44.3918828  30.5537757  77.7551696  45.0179255
  31.0586610  78.6157603  43.8793492  34.1444862  86.8446141  48.1390404
  35.0962285  86.9444239  48.1602628  33.9748312  86.0524410  48.6488488
  32.1659241  83.9301724  48.3249804  31.5709173  84.2106737  47.6296293
  31.8808938  84.4195625  49.0966546  36.7727428  86.8563304  47.2990986
  36.2566477  86.0721761  47.1120915  37.6567377  86.5282021  47.4637506
  34.4338155  80.6004320  43.2586799  34.2362976  80.2919408  44.1430131
  35.0437861  81.3265959  43.3884729  28.2621253  81.4035180  39.3859034
  27.4521982  81.0582265  39.7614280  28.9505670  81.0942724  39.9746645
  30.1911802  80.4813227  41.0083330  30.7442840  80.9008680  41.6673353
  30.4281888  79.5548975  41.0506286  25.4157972  83.7185225  33.3726772
  26.2777136  84.0440124  33.6322589  25.6008316  82.9316721  32.8599837
  33.5690609  82.5913752  40.5161995  32.9889278  83.2498556  40.1340047
  33.3026541  81.7691096  40.1049412  32.0194175  81.9918809  42.7183315
  32.5193953  82.1035344  41.9097634  32.6629783  81.6879862  43.3584123
  32.3515487  84.7513842  39.5718343  31.4641342  85.0363493  39.3538538
  32.7669476  84.5907605  38.7245620  35.7030023  84.7760363  43.2872682
  36.4790413  85.2656816  43.5597299  34.9778157  85.2018417  43.7444552
  38.1402581  85.4887982  44.3446623  38.7347072  85.2483718  43.6339931
  38.2129165  84.7695113  44.9720159  36.1361316  86.0558110  40.6118753
  35.8798251  85.6554746  41.4426960  35.5114184  86.7701904  40.4868892
  40.4473654  88.7954183  43.1190044  39.8873212  88.8647372  43.8921606
  39.8417158  88.6195168  42.3989540  26.3687415  80.9581268  36.6606481
  26.3566085  81.9023108  36.8174752  27.2610837  80.7751414  36.3665942
  30.1839535  77.5524045  40.9152417  29.4171930  76.9982532  41.0609100
  30.5950240  77.6245914  41.7766569   3.6304352  18.8231836  30.5151493
   4.3629524  18.2531053  30.7489322   2.8743707  18.4353436  30.9557998
   2.9120082  15.4564935  33.8317325   2.2694462  15.7497468  33.1857120
   2.4075010  15.3417855  34.6370522   3.0519060  25.1208364  29.2661130
   2.3670098  25.5007266  28.7158163   3.1362909  25.7303691  29.9993078
   1.4215819  25.6440279  34.0378831   2.2433263  25.2420466  33.7561512
   1.4178222  25.5408513  34.9894947   9.5121812  21.9879027  30.3863802
   8.7585521  21.4186425  30.2307807   9.6469353  21.9541692  31.3334437
   3.1897461  23.1263957  25.0343024   2.4126903  22.7875117  24.5898186
   3.8688942  23.1316580  24.3597989   1.4288768  22.5997938  31.6909632
   0.7712442  23.2897200  31.7789760   2.2329167  22.9894370  32.0343618
   3.5885958  22.1407664  27.4965946   3.4503856  22.3309260  26.5687135
   3.2322177  22.9027047  27.9533997   3.6155337  24.2084191  32.5077217
   4.0491844  24.1159480  33.3560271   4.3286918  24.1841691  31.8697233
   4.4770887  24.2507891  35.0410103   4.6706777  25.1553702  35.2869377
   4.3771505  23.7915310  35.8748688   1.2478202  27.4333757  38.6927465
   1.1890748  26.7492977  38.0258048   1.6497721  28.1752747  38.2408091
   5.7312950  20.8081558  31.6858006   5.7202826  21.6906273  31.3151939
   4.8630329  20.4553109  31.4912543   2.3485525  19.7030199  28.1528172
   2.8145977  20.5358191  28.0788475   2.7993025  19.2375180  28.8573431
   0.6902853  28.6759687  31.3155078   1.6149400  28.4702548  31.1779529
   0.5218156  28.4276088  32.2244420   6.3337560  21.9581777  28.2907469
   6.7768706  21.2089103  27.8926593   5.4564070  21.9491914  27.9081201
   1.4673341  28.5112119  23.7714068   2.1624246  29.1318811  23.9901382
   1.8096491  27.6607470  24.0466446   3.3664764  25.9611824  25.3001399
   3.8916088  26.2999097  24.5750719   3.2787117  25.0258840  25.1164533
   3.0558670  26.5944728  40.6052597   2.2654214  26.5768867  40.0657096
   2.8192025  27.1333022  41.3601633   3.1756546  23.4437194  37.9185325
   3.2254550  23.2787202  38.8600848   3.0670469  22.5764453  37.5283206
   4.6774742  25.8634136  38.1627347   4.3859551  26.2264116  38.9990808
   4.0646874  25.1501144  37.9840679   5.8770425  23.4287016  30.6829917
   6.7117316  23.8676820  30.8467477   6.0129553  22.9525669  29.8638163
   2.9261931  20.9866750  36.6307405   3.4016052  21.1794397  35.8226256
   2.0027496  21.0425936  36.3850788   1.6263600  17.8632511  34.8635710
   2.5781022  17.9630608  34.8847934   1.4567050  17.0710779  35.3733795
   1.4073486  28.2176891  20.7701691   1.3287118  27.8836755  21.6637449
   2.2283153  28.7098659  20.7693164   4.1051677  21.0838630  33.9778010
   4.0727997  20.1454631  34.1637694   4.7152301  21.1622667  33.2443835
   4.2546166  17.8749674  34.0236293   3.7385214  17.0908130  33.8366222
   5.1386114  17.5468390  34.1882812   9.9228227  22.1454637  33.1184047
  10.6531616  21.8839925  33.6791750   9.3135173  21.4083359  33.1586115
   8.0043524  20.2862500  33.7158498   7.2776688  20.1518465  33.1074989
   7.5890811  20.5939328  34.5215216   3.1848761  15.7946733  30.0117989
   3.9609151  16.2843185  30.2842606   2.4596895  16.2204787  30.4689858
   5.6221319  16.5074352  31.0691929   6.2165810  16.2670088  30.3585238
   5.6947903  15.7881482  31.6965466   3.6180054  17.0744479  27.3364059
   3.3616988  16.6741115  28.1672267   2.9932922  17.7888273  27.2114198
   7.9292392  19.8140553  29.8435351   7.3691950  19.8833742  30.6166913
   7.3235895  19.6381537  29.1234847   0.8864135  25.9727416  22.4410130
   1.7209739  25.5408614  22.2587604   0.7248478  25.8009429  23.3687024
   9.5148410  36.4897067  32.5365306  10.1526820  36.3703814  31.8328646
   9.3969253  37.4377911  32.5953258   6.3238117  36.4424495  32.4726831
   5.9856628  36.3265559  31.5847366   7.1927885  36.0415660  32.4527837
   2.1824932  38.2959971  28.4623722   1.6189798  38.2049908  27.6940010
   2.0677327  37.4759876  28.9426214   6.8057900  37.5959347  38.4313037
   6.7946540  37.2012145  37.5593540   6.9678539  36.8625419  39.0246808
   7.7624491  41.9630939  23.7738187   7.1112471  42.5485019  23.3872201
   8.5568854  42.4937134  23.8333224   1.6880118  39.0520076  24.1725321
   2.4610994  38.5049063  24.0338197   2.0405517  39.9164325  24.3839783
   3.5265161  40.3796458  37.3792221   3.2355027  41.2842089  37.2638887
   4.1622145  40.4212986  38.0936290   4.4521368  37.7573307  33.9693580
   5.0484940  37.5329329  33.2550543   4.5096339  37.0158052  34.5719028
   4.0246396  35.2112742  21.8043771   4.2771917  34.6894263  21.0427234
   3.0870955  35.0478888  21.9070455   9.0689679  34.2148521  29.6118514
   9.8552768  33.7967944  29.2608931   9.3328383  35.1194613  29.7800163
   9.2399756  39.6521371  24.3107171   8.6045589  39.7255997  25.0228076
   8.9097163  40.2414970  23.6326250  14.4698106  34.1523754  30.5151493
  15.2023278  33.5822971  30.7489322  13.7137462  33.7645354  30.9557998
   3.7442685  37.1140848  24.0068146   3.6278943  36.4385751  24.6749230
   3.8544945  36.6273222  23.1900299   6.0874226  36.5750995  27.7114835
   5.7232433  36.0481616  28.4227757   6.9441342  36.1849464  27.5381321
  11.9923526  27.8645328  34.9746101  11.6606851  28.7340739  34.7507316
  11.3969140  27.5481612  35.6540132   5.7279713  31.6040895  22.7076184
   5.8954115  32.4721131  23.0746655   5.5376882  31.7668177  21.7837473
   8.4855046  40.0657874  34.3742014   8.1855769  40.9682913  34.2657821
   8.1406105  39.7990057  35.2263167   1.9367527  36.5171671  30.4078719
   1.0118024  36.3847885  30.6156410   2.1851941  37.2965890  30.9048661
  11.8852190  32.5840414  32.0539452  10.9769067  32.5155822  31.7598213
  11.8339786  33.0612359  32.8821277   5.7068934  34.0598552  23.6922851
   5.5868559  34.5055603  24.5308331   5.0121522  34.4083870  23.1336389
   3.4675826  46.8302194  27.3412982   3.3899855  47.7810019  27.4201462
   2.8637469  46.4848067  27.9987908   5.9593056  34.0030060  39.9974349
   5.1826390  34.5623980  39.9877213   6.5983619  34.4886843  40.5189219
  13.7513836  30.7856852  33.8317325  13.1088216  31.0789386  33.1857120
  13.2468765  30.6709773  34.6370522  11.4054000  34.5320026  24.5203185
  12.3171856  34.7647412  24.3450882  10.8963647  35.1157070  23.9578263
   4.2139428  36.8115513  39.5592316   4.9554112  37.3500557  39.2827139
   3.5076413  37.4381802  39.7163868   9.6894767  38.9544653  38.1564477
  10.0978124  38.5127064  37.4119110   8.9672029  38.3797281  38.4098670
   6.0425838  33.8917260  35.5298034   6.8887033  34.3156674  35.6732683
   5.9824475  33.2350885  36.2236597  10.0123582  39.5145844  31.9116766
   9.3832445  39.6791558  31.2092834   9.6249244  39.9287454  32.6827730
  13.8912814  40.4500282  29.2661130  13.2063852  40.8299183  28.7158163
  13.9756663  41.0595609  29.9993078   9.1925283  31.5521629  37.1879208
   8.9486215  32.3063689  36.6513484   9.4685213  31.9306976  38.0226455
  11.1463746  38.0960241  35.8656473  11.3580641  38.7392001  35.1890855
  11.0993494  37.2622557  35.3978404   8.7489975  30.7078062  32.7693046
   7.8874454  31.0059315  33.0609783   8.7752409  30.9248460  31.8374078
   5.5651544  39.2520252  29.1766851   6.0289890  39.5307955  28.3871474
   5.3008342  38.3503697  28.9939942   2.4575625  38.7991734  32.1146615
   3.0276982  39.2279002  31.4764099   3.0483737  38.5174318  32.8130800
   4.5020430  35.3743405  25.9856416   5.2044473  35.8264448  26.4530343
   4.1701059  34.7327223  26.6136310   2.9500792  33.9655161  40.3607626
   2.3199452  34.6471442  40.5943023   2.8436879  33.8538243  39.4160764
  12.2609574  40.9732196  34.0378831  13.0827017  40.5712384  33.7561512
  12.2571976  40.8700431  34.9894947   6.0266177  40.5216240  36.1939541
   6.0910610  40.9836647  37.0297713   5.3177101  39.8913605  36.3221851
  20.3515567  37.3170945  30.3863802  19.5979275  36.7478343  30.2307807
  20.4863108  37.2833609  31.3334437   5.7414195  42.1884347  26.0618522
   5.6059869  43.0335883  26.4903369   6.2824007  42.3903625  25.2984455
   2.2281534  28.2675927  42.7232877   1.8348480  27.7142126  43.3980521
   3.0447675  28.5786505  43.1139394   1.0038477  42.8225541  28.7169200
   1.1805105  43.7443506  28.5290184   1.7995310  42.5083961  29.1463580
   5.1449495  29.6833806  40.3153133   5.8859209  30.2840959  40.2357596
   5.3767418  28.9411444  39.7571176   7.3682671  42.8107914  40.1918864
   6.9246525  42.0244292  39.8739768   8.0299885  42.9987064  39.5262755
   2.1269792  44.3403715  34.7179542   2.6777217  44.2120779  33.9456536
   1.2881268  44.6398604  34.3674435   9.4663909  43.0910714  38.2200265
   9.4482384  43.9119595  37.7280534  10.3883829  42.9664789  38.4450406
   5.9236963  40.6054843  39.0623773   6.4565300  39.8443131  38.8323081
   5.3951044  40.3128495  39.8047928   9.0906658  25.7114909  34.5917415
   8.7470928  26.6016551  34.5156526   9.4585621  25.5216567  33.7287000
   9.0556941  35.7023520  23.0989850   8.5403564  36.4728125  23.3378238
   8.7834249  35.0288656  23.7222912   6.6404052  30.5473221  28.1575089
   5.7845648  30.1580071  27.9780727   7.0531004  30.6265182  27.2974874
   8.1703199  28.0819564  32.5566648   7.6667994  28.0449699  31.7434454
   8.4633805  28.9912307  32.6163305   4.4146085  28.1658294  31.5632830
   5.2799081  27.9701103  31.2038720   4.4823593  27.9368646  32.4902187
  14.0291215  38.4555875  25.0343024  13.2520658  38.1167034  24.5898186
  14.7082696  38.4608498  24.3597989   8.8443244  33.5750612  24.9249631
   8.5393380  33.8896761  25.7759775   9.7973686  33.6532032  24.9676964
   7.2889676  39.7340836  26.5742585   6.7611038  38.9993595  26.2615823
   6.7877179  40.5115512  26.3282554  12.2682522  37.9289856  31.6909632
  11.6106196  38.6189117  31.7789760  13.0722921  38.3186288  32.0343618
   2.0208404  30.3960502  28.9349197   2.5952155  30.1735683  28.2022390
   2.6079386  30.4649196  29.6877798  11.0787981  36.2834229  29.7413573
  11.5919863  36.9164221  30.2435283  11.7289205  35.6835424  29.3756933
   2.3477991  32.4264963  22.9545082   1.5115303  32.7639649  23.2754357
   2.2082760  32.2913943  22.0172219   4.3231071  27.2701751  27.6624266
   3.6695484  26.9550768  27.0380881   4.2811545  26.6477491  28.3884089
   5.4342276  37.5521046  19.5777558   4.5269338  37.3210299  19.7768707
   5.9313308  36.7558665  19.7651540   8.3410355  46.2618553  22.4974245
   7.6672054  46.5650250  23.1059202   8.7276177  47.0647633  22.1479702
   7.5568812  33.7583684  31.9871914   6.6391373  33.9798631  31.8293602
   7.9728955  33.8329995  31.1283621   8.3403859  35.1575100  27.1174594
   9.0875678  35.6696497  26.8081716   8.6095449  34.8359153  27.9778988
   6.6130510  37.6533641  24.1001549   5.7041729  37.3692673  24.1974018
   6.6425593  38.0732719  23.2404855  11.8449777  41.2640230  27.8692716
  11.3912104  40.4231140  27.9257907  11.2143744  41.9001629  28.2067496
  10.7882697  32.1932216  29.0993384  10.0505453  31.6809602  29.4303626
  11.0409470  31.7532598  28.2876660  10.2882716  43.1016727  28.8042534
  10.5805691  43.6621784  28.0854900  10.7981337  43.3945288  29.5595693
  10.8894324  24.9708468  29.6935153  11.1953201  24.1105832  29.4061068
  11.6146929  25.5626088  29.4934147   5.1615404  35.2662261  30.2011344
   5.2164013  34.3136098  30.1253820   4.3506606  35.4221700  30.6852642
   6.3106597  39.1942384  21.4389627   5.8726027  38.4778243  20.9795264
   7.0517038  39.4218499  20.8774718   3.1007764  33.8839321  27.9601723
   2.2875629  34.1833492  28.3666915   3.5966758  33.4895010  28.6776205
   5.2516341  43.8797078  29.8935987   5.2092520  44.1057924  28.9644519
   6.1679040  43.6460453  30.0421789   8.6981975  34.3481145  36.7916617
   9.0531363  34.5752619  37.6511082   9.3454106  34.6799522  36.1693872
  14.4279712  37.4699581  27.4965946  14.2897611  37.6601177  26.5687135
  14.0715931  38.2318964  27.9533997   2.5921838  31.4557677  33.5762958
   3.2321218  31.3146436  32.8785921   1.7599369  31.1692190  33.2001560
  14.4549092  39.5376108  32.5077217  14.8885598  39.4451397  33.3560271
  15.1680672  39.5133609  31.8697233   3.3682142  40.7560107  29.6897950
   4.1622741  40.2610427  29.4880525   2.6573835  40.2277970  29.3265656
   8.1876987  43.1378202  34.0410318   8.2414009  43.7069139  34.8088034
   7.3191768  43.3080088  33.6764355  15.3164641  39.5799809  35.0410103
  15.5100531  40.4845620  35.2869377  15.2165260  39.1207228  35.8748688
   6.9700952  29.4657700  37.5400430   6.3228867  30.1647649  37.4464906
   7.7401967  29.8993844  37.9076678  10.3779750  39.7306552  40.6150983
  10.2265256  39.5017103  39.6981067  10.3684429  40.6877153  40.6282328
   7.1465086  37.3038465  35.5997250   8.0757146  37.4549624  35.4266217
   6.7256116  37.3922485  34.7445896   5.9453418  41.3289129  33.3695787
   5.8064504  40.9607913  34.2421725   5.1568014  41.8436768  33.1979745
   6.5401570  46.4298225  24.7121324   6.7153326  45.9586269  25.5266946
   5.8534358  47.0563992  24.9402584   7.4958633  40.7070732  30.7584625
   7.1608466  40.6671502  31.6542275   6.9962579  40.0415448  30.2855035
   1.4702877  36.1138362  36.2837206   1.3322675  35.3818600  36.8848745
   2.3807801  36.0247262  36.0021394  10.4317825  38.0526766  21.0321685
   9.8146996  37.3273594  20.9354737   9.9634313  38.8136126  20.6888759
   4.0985178  35.8258321  35.7720886   4.8084797  35.1851513  35.7307504
   4.0554486  36.0771216  36.6947067  12.0871957  42.7625674  38.6927465
  12.0284503  42.0784894  38.0258048  12.4891475  43.5044664  38.2408091
   2.8114112  32.8123539  37.5916525   2.2751469  32.3614277  38.2438122
   2.2230820  32.9469448  36.8486990   2.2216371  32.2712190  20.1542989
   1.3445837  32.1500991  19.7905236   2.6974124  31.4798269  19.9021878
  12.0889364  40.7265258  36.9241445  11.2016143  40.3891180  37.0467844
  12.6587915  39.9948289  37.1610210   5.6190517  45.3866711  33.8902688
   5.5460689  46.1921682  34.4021992   5.1767910  45.5858676  33.0650709
   5.4080297  44.6238481  27.4005509   4.6247819  45.1660161  27.4943734
   6.1073042  45.1412460  27.7999751   8.7176947  30.4333110  30.0439715
   9.2145647  29.6803072  29.7240785   7.9463929  30.4697427  29.4782924
  16.5706704  36.1373476  31.6858006  16.5596581  37.0198191  31.3151939
  15.7024084  35.7845026  31.4912543   8.0789201  45.2853545  36.0460847
   8.7917173  45.9201009  35.9736748   7.5879229  45.3817411  35.2300848
   9.8006728  39.1904797  27.6178138   8.8663006  39.3106260  27.4482843
   9.9783396  38.2877264  27.3538148   5.3011916  32.5750493  29.7711399
   4.9309703  32.0221533  30.4592305   5.7971008  31.9708627  29.2186399
  13.1879279  35.0322117  28.1528172  13.6539731  35.8650108  28.0788475
  13.6386780  34.5667098  28.8573431   3.1301114  43.0347988  36.8666417
   3.8310574  43.6684471  37.0195812   2.6596229  43.3762720  36.1062057
  11.2555510  41.3765938  25.1514324  11.5315354  41.2622532  26.0608198
  10.3860009  40.9783423  25.1126497  11.1595942  27.4002704  32.1919074
  10.2459022  27.6306930  32.3601281  11.5889043  27.4841148  33.0433106
  10.9302400  35.5892596  34.6918968  10.2773851  35.8368503  34.0371420
  11.3082780  34.7756734  34.3581445   7.8909574  45.6252289  28.7947138
   8.0731969  44.8073945  29.2574890   8.7142560  45.8419981  28.3572028
   8.2251740  44.5520474  26.0562187   8.7539506  44.0412928  25.4432349
   8.4879959  44.2363004  26.9207720   6.9789973  36.3312407  41.1785005
   6.3030610  36.2306536  41.8487380   7.8017607  36.1751620  41.6421002
   1.5807488  45.6035591  28.8159962   0.9117863  46.0881718  28.3324002
   1.4420357  45.8504811  29.7303341   5.7212756  47.6379334  35.4142621
   6.2731064  47.8010956  36.1791706   6.0618950  48.2283772  34.7422646
   0.6977249  29.9854484  36.0164506   0.7618576  30.8469315  35.6041903
   0.6344370  29.3728486  35.2836864  10.5723631  42.4640592  41.2691275
  11.1163535  43.0770550  40.7746230   9.9910475  43.0220170  41.7858288
   8.8581144  45.5861310  32.4006303   8.7332283  44.7851049  31.8917248
   9.5160235  46.0807503  31.9120273  10.9216052  43.3870330  34.0285853
   9.9746387  43.2675681  33.9564180  11.2698825  42.4992828  34.1112114
   3.2815625  29.2764469  37.8524095   3.8050027  29.5226765  38.6150404
   3.0627959  30.1084503  37.4327232   7.9262485  43.1823046  30.2290205
   7.7787448  42.2539753  30.4097775   8.7515979  43.2043137  29.7447281
   1.7924730  31.8341113  26.0870697   2.1320802  32.3627034  25.3649306
   2.2396850  32.1721519  26.8629264  11.5296607  44.0051605  31.3155078
  12.4543155  43.7994466  31.1779529  11.3611910  43.7568006  32.2244420
   4.4868170  30.2178164  35.5373765   4.1464991  29.4185977  35.9394445
   3.7807177  30.5179875  34.9650599   5.1384642  27.3027476  33.9901089
   5.9610711  26.8287954  33.8679979   5.3822706  28.0817960  34.4899775
   3.7792877  30.3315735  24.2863990   4.5001239  30.7096987  23.7827707
   3.1558181  31.0504611  24.3898968   7.9224000  31.0360884  25.2222323
   8.1387614  31.9185521  24.9211151   7.4418067  30.6447097  24.4927965
   2.6623221  33.9946597  31.7993067   2.5167802  34.3086900  32.6917349
   2.1848425  34.6131497  31.2463966   4.5219604  30.9849145  31.8473957
   4.5081173  30.0890238  31.5106255   5.2392032  30.9919808  32.4812243
   6.3745735  31.4186485  33.8927084   6.1163512  32.3403556  33.8911415
   5.8430775  31.0216919  34.5827548  11.3191923  44.5237272  26.6717169
  11.4928801  43.9583695  25.9191022  11.8120815  45.3238167  26.4896659
   3.9256500  29.8663525  27.1161527   4.0472411  28.9380171  27.3152414
   3.6358542  29.8802211  26.2039842   6.7947690  27.5518435  30.2528247
   6.8169387  27.6157769  29.2980226   7.2115749  26.7122944  30.4468753
  17.1731314  37.2873695  28.2907469  17.6162460  36.5381020  27.8926593
  16.2957825  37.2783831  27.9081201  12.3067096  43.8404036  23.7714068
  13.0018000  44.4610729  23.9901382  12.6490246  42.9899388  24.0466446
  14.2058519  41.2903742  25.3001399  14.7309843  41.6291015  24.5750719
  14.1180871  40.3550757  25.1164533   5.8678568  45.2037816  37.4291275
   6.1765694  44.9586962  38.3013975   6.6654050  45.4084454  36.9410145
   5.8899180  47.3575725  29.6596652   5.4504170  46.8652104  30.3529508
   6.6407297  46.8148693  29.4188727   3.3373052  42.9013734  31.7318953
   2.7153061  42.2384439  31.4321181   4.0077919  42.9274866  31.0492601
   3.4097579  31.3795522  41.3251459   3.4585735  32.2557645  40.9429229
   3.9520093  30.8372915  40.7523103  13.8952425  41.9236646  40.6052597
  13.1047969  41.9060784  40.0657096  13.6585780  42.4624939  41.3601633
  14.0150300  38.7729112  37.9185325  14.0648305  38.6079119  38.8600848
  13.9064223  37.9056371  37.5283206   2.8986559  41.4517658  25.2077414
   3.0474679  42.1353122  24.5544087   3.7053002  41.4322748  25.7226870
  11.3054062  34.7560040  39.2344632  12.2063925  34.6166505  38.9428630
  11.3802037  34.9214495  40.1742809   5.6396868  32.1326895  38.0797818
   4.7700177  32.4260461  37.8080407   5.8756348  32.7167340  38.8005082
  15.5168497  41.1926054  38.1627347  15.2253305  41.5556034  38.9990808
  14.9040628  40.4793062  37.9840679  16.7164179  38.7578933  30.6829917
  17.5511071  39.1968737  30.8467477  16.8523308  38.2817587  29.8638163
  13.7655685  36.3158668  36.6307405  14.2409807  36.5086314  35.8226256
  12.8421250  36.3717854  36.3850788   8.3435902  28.3506512  35.5963238
   8.8617845  29.0867539  35.2709727   7.9891034  28.6570505  36.4309998
   8.5948496  24.7706794  31.1164135   8.8750249  24.1029983  31.7424562
   9.3799103  24.9635890  30.6038799   6.3981964  43.9465788  22.6789161
   5.8255931  44.5655975  22.2259633   6.9714758  44.4965150  23.2129083
  12.4657354  33.1924428  34.8635710  13.4174777  33.2922526  34.8847934
  12.2960804  32.4002697  35.3733795  10.4871734  30.2780011  35.0495111
   9.8921666  30.5585024  34.3541600  10.2021430  30.7673912  35.8211852
   9.6179224  44.2302938  23.8097744  10.5509897  44.1648500  24.0130619
   9.5302437  45.0659205  23.3512276  12.2467241  43.5468809  20.7701691
  12.1680872  43.2128672  21.6637449  13.0676907  44.0390577  20.7693164
  14.9445432  36.4130548  33.9778010  14.9121752  35.4746549  34.1637694
  15.5546056  36.4914585  33.2443835   6.7828763  35.2826601  20.0205214
   7.7287867  35.1532809  20.0893632   6.4043008  34.5441263  20.4974642
  15.0939920  33.2041591  34.0236293  14.5778969  32.4200048  33.8366222
  15.9779869  32.8760308  34.1882812  12.7550647  26.9482607  29.9832106
  12.5575468  26.6397695  30.8675438  13.3650353  27.6744246  30.1130036
  20.7621982  37.4746555  33.1184047  21.4925370  37.2131843  33.6791750
  20.1528927  36.7375277  33.1586115  18.8437279  35.6154417  33.7158498
  18.1170442  35.4810382  33.1074989  18.4284566  35.9231246  34.5215216
   6.6667455  39.3344347  41.4805871   7.5870465  39.5122946  41.6745917
   6.6317038  38.3900392  41.3285570   4.9671680  33.2076577  19.9560099
   4.0603135  32.9109690  20.0322813   5.2447661  32.9106395  19.0894385
   6.5833746  27.7513467  26.1104340   5.7734474  27.4060552  26.4859586
   7.2718163  27.4421011  26.6991952   8.5124294  26.8291514  27.7328637
   9.0655332  27.2486967  28.3918660   8.7494380  25.9027262  27.7751593
   4.5357393  32.8178587  43.5131401   4.4354120  33.7672944  43.4443492
   4.3178935  32.4896826  42.6407471   3.7370464  30.0663513  20.0972078
   4.5989628  30.3918411  20.3567896   3.9220809  29.2795008  19.5845144
  11.8903101  28.9392039  27.2407301  11.3101770  29.5976843  26.8585354
  11.6239034  28.1169384  26.8294719  10.3406667  28.3397097  29.4428622
  10.8406446  28.4513631  28.6342940  10.9842275  28.0358150  30.0829430
   4.3988663  36.2475726  42.3296463   3.9155745  37.0476086  42.5360352
   4.4849602  36.2583671  41.3763907   0.9161383  38.7081377  36.9335694
   1.7354272  39.2025456  36.9570531   1.1898190  37.7913345  36.9053262
  10.6727979  31.0992129  26.2963650   9.7853834  31.3841780  26.0783844
  11.0881968  30.9385893  25.4490926  14.0242515  31.1238650  30.0117989
  14.8002905  31.6135103  30.2842606  13.2990649  31.5496705  30.4689858
  16.4615074  31.8366270  31.0691929  17.0559565  31.5962006  30.3585238
  16.5341657  31.1173400  31.6965466   9.8171192  40.8636804  20.3911670
  10.5207043  41.0686807  21.0069325   9.0933841  41.4313566  20.6560753
  10.6469003  36.6146665  26.5113940  10.5904204  37.0715217  25.6721572
  11.1997345  35.8537350  26.3336782  14.4573809  32.4036397  27.3364059
  14.2010743  32.0033033  28.1672267  13.8326677  33.1180191  27.2114198
  18.7686146  35.1432470  29.8435351  18.2085704  35.2125660  30.6166913
  18.1629650  34.9673455  29.1234847   1.8381355  46.5769198  31.5953537
   1.7213739  47.5214630  31.4932227   1.0173802  46.2742759  31.9839336
  11.7257890  41.3019333  22.4410130  12.5603494  40.8700532  22.2587604
  11.5642233  41.1301347  23.3687024  11.3803782  37.8051447  23.8066469
  11.3252586  37.6395718  22.8654913  10.7549837  38.5127479  23.9628659
   8.6949689  40.1100358  43.1320032   9.5640849  40.2841011  42.7706667
   8.2156441  40.9294775  43.0095761   4.6899908  27.3059556  23.3851787
   4.6778577  28.2501395  23.5420058   5.5823329  27.1229701  23.0911248
   2.8635869  47.2297459  34.8109465   3.7663116  47.2621070  35.1275960
   2.6373240  46.2997910  34.8255801   4.6189471  45.9828446  31.4719544
   3.6685102  45.9830308  31.3583916   4.9221958  45.2361181  30.9555579
   8.5052027  23.9002332  27.6397724   7.7384423  23.3460819  27.7854406
   8.9162732  23.9724201  28.5011876  20.3542165  51.8188984  32.5365306
  20.9920575  51.6995732  31.8328646  20.2363008  52.7669828  32.5953258
  17.1631871  51.7716412  32.4726831  16.8250383  51.6557477  31.5847366
  18.0321639  51.3707578  32.4527837  13.0218687  53.6251889  28.4623722
  12.4583552  53.5341826  27.6940010  12.9071082  52.8051793  28.9426214
  17.6451654  52.9251264  38.4313037  17.6340295  52.5304062  37.5593540
  17.8072294  52.1917337  39.0246808  10.5683119  55.1203080  31.3007942
  11.3604411  54.7793905  30.8854242  10.8079769  55.2298056  32.2210096
  18.6018246  57.2922857  23.7738187  17.9506225  57.8776937  23.3872201
  19.3962608  57.8229051  23.8333224  12.5273873  54.3811994  24.1725321
  13.3004749  53.8340981  24.0338197  12.8799272  55.2456243  24.3839783
  14.3658915  55.7088376  37.3792221  14.0748781  56.6134007  37.2638887
  15.0015900  55.7504904  38.0936290  15.2915122  53.0865225  33.9693580
  15.8878694  52.8621247  33.2550543  15.3490094  52.3449970  34.5719028
  14.8640151  50.5404660  21.8043771  15.1165671  50.0186181  21.0427234
  13.9264710  50.3770805  21.9070455  19.9083433  49.5440438  29.6118514
  20.6946523  49.1259861  29.2608931  20.1722138  50.4486530  29.7800163
  20.0793511  54.9813289  24.3107171  19.4439344  55.0547915  25.0228076
  19.7490917  55.5706887  23.6326250  25.3091861  49.4815671  30.5151493
  26.0417033  48.9114888  30.7489322  24.5531216  49.0937272  30.9557998
  14.5836439  52.4432766  24.0068146  14.4672697  51.7677669  24.6749230
  14.6938699  51.9565140  23.1900299  16.9267980  51.9042913  27.7114835
  16.5626188  51.3773534  28.4227757  17.7835096  51.5141382  27.5381321
  22.8317281  43.1937246  34.9746101  22.5000606  44.0632656  34.7507316
  22.2362894  42.8773530  35.6540132  16.5673467  46.9332813  22.7076184
  16.7347870  47.8013049  23.0746655  16.3770636  47.0960094  21.7837473
  19.3248800  55.3949791  34.3742014  19.0249524  56.2974830  34.2657821
  18.9799860  55.1281975  35.2263167  12.7761282  51.8463588  30.4078719
  11.8511778  51.7139802  30.6156410  13.0245695  52.6257808  30.9048661
  22.7245944  47.9132332  32.0539452  21.8162822  47.8447740  31.7598213
  22.6733540  48.3904277  32.8821277  16.5462688  49.3890470  23.6922851
  16.4262313  49.8347521  24.5308331  15.8515277  49.7375788  23.1336389
  10.1370093  51.4896862  31.2422508  10.2662474  51.7431341  32.1561919
   9.4567544  52.0824570  30.9227163  14.3069580  62.1594112  27.3412982
  14.2293610  63.1101937  27.4201462  13.7031224  61.8139984  27.9987908
  16.7986810  49.3321977  39.9974349  16.0220144  49.8915897  39.9877213
  17.4377373  49.8178760  40.5189219  24.5907591  46.1148770  33.8317325
  23.9481971  46.4081303  33.1857120  24.0862519  46.0001690  34.6370522
  22.2447754  49.8611943  24.5203185  23.1565610  50.0939330  24.3450882
  21.7357401  50.4448987  23.9578263  15.0533182  52.1407431  39.5592316
  15.7947867  52.6792475  39.2827139  14.3470168  52.7673719  39.7163868
  20.5288522  54.2836571  38.1564477  20.9371878  53.8418982  37.4119110
  19.8065783  53.7089199  38.4098670  16.8819592  49.2209178  35.5298034
  17.7280787  49.6448591  35.6732683  16.8218230  48.5642802  36.2236597
  20.8517337  54.8437762  31.9116766  20.2226199  55.0083476  31.2092834
  20.4642999  55.2579371  32.6827730  24.7306569  55.7792200  29.2661130
  24.0457607  56.1591101  28.7158163  24.8150418  56.3887526  29.9993078
  20.0319037  46.8813546  37.1879208  19.7879969  47.6355607  36.6513484
  20.3078968  47.2598894  38.0226455  21.9857500  53.4252159  35.8656473
  22.1974395  54.0683918  35.1890855  21.9387248  52.5914475  35.3978404
  19.5883729  46.0369979  32.7693046  18.7268208  46.3351233  33.0609783
  19.6146164  46.2540378  31.8374078  16.4045298  54.5812170  29.1766851
  16.8683644  54.8599873  28.3871474  16.1402097  53.6795614  28.9939942
  13.2969380  54.1283651  32.1146615  13.8670737  54.5570920  31.4764099
  13.8877491  53.8466236  32.8130800  15.3414185  50.7035322  25.9856416
  16.0438228  51.1556366  26.4530343  15.0094813  50.0619141  26.6136310
  13.7894546  49.2947079  40.3607626  13.1593207  49.9763360  40.5943023
  13.6830634  49.1830160  39.4160764   9.0839518  48.9618875  31.2873550
   8.2938572  49.2176403  30.8113661   9.5750766  49.7767213  31.3925591
  23.1003328  56.3024114  34.0378831  23.9220772  55.9004301  33.7561512
  23.0965731  56.1992348  34.9894947  11.0354264  49.3263454  28.2457027
  10.2385427  49.4382148  28.7640522  10.8079856  49.6650106  27.3797917
  16.8659932  55.8508157  36.1939541  16.9304364  56.3128565  37.0297713
  16.1570855  55.2205522  36.3221851   7.3677221  49.2149365  33.7188541
   7.6185260  50.0996375  33.9846117   7.9036770  49.0353967  32.9463633
  31.1909321  52.6462862  30.3863802  30.4373029  52.0770261  30.2307807
  31.3256862  52.6125527  31.3334437  16.5807949  57.5176265  26.0618522
  16.4453624  58.3627801  26.4903369  17.1217762  57.7195542  25.2984455
  13.0675289  43.5967845  42.7232877  12.6742234  43.0434043  43.3980521
  13.8841429  43.9078423  43.1139394  10.0337347  55.0351703  26.6346447
  10.5461867  55.8294953  26.7852011  10.6860059  54.3377993  26.5680048
  11.8432231  58.1517459  28.7169200  12.0198860  59.0735424  28.5290184
  12.6389065  57.8375878  29.1463580  15.9843250  45.0125724  40.3153133
  16.7252963  45.6132877  40.2357596  16.2161173  44.2703362  39.7571176
  11.1284588  50.1982091  38.5931363  11.0138103  49.2967348  38.8938462
  10.2729106  50.4445788  38.2416180  18.2076426  58.1399831  40.1918864
  17.7640280  57.3536210  39.8739768  18.8693639  58.3278982  39.5262755
  12.9663547  59.6695633  34.7179542  13.5170972  59.5412696  33.9456536
  12.1275023  59.9690522  34.3674435  20.3057664  58.4202631  38.2200265
  20.2876139  59.2411512  37.7280534  21.2277584  58.2956706  38.4450406
  16.7630718  55.9346761  39.0623773  17.2959055  55.1735049  38.8323081
  16.2344799  55.6420413  39.8047928  19.9300413  41.0406827  34.5917415
  19.5864682  41.9308468  34.5156526  20.2979375  40.8508484  33.7287000
   7.9986263  53.3640357  27.4106017   8.8361485  53.7737366  27.1939725
   8.1764531  52.4239799  27.3806211  19.8950695  51.0315438  23.0989850
  19.3797319  51.8020042  23.3378238  19.6228004  50.3580574  23.7222912
  17.4797806  45.8765139  28.1575089  16.6239403  45.4871989  27.9780727
  17.8924758  45.9557099  27.2974874  19.0096953  43.4111482  32.5566648
  18.5061749  43.3741617  31.7434454  19.3027560  44.3204225  32.6163305
  15.2539839  43.4950212  31.5632830  16.1192836  43.2993020  31.2038720
  15.3217348  43.2660563  32.4902187  24.8684970  53.7847792  25.0343024
  24.0914412  53.4458952  24.5898186  25.5476451  53.7900416  24.3597989
  19.6836999  48.9042530  24.9249631  19.3787134  49.2188679  25.7759775
  20.6367441  48.9823950  24.9676964  18.1283430  55.0632753  26.5742585
  17.6004792  54.3285513  26.2615823  17.6270933  55.8407430  26.3282554
  23.1076276  53.2581774  31.6909632  22.4499951  53.9481035  31.7789760
  23.9116676  53.6478206  32.0343618  12.8602158  45.7252419  28.9349197
  13.4345910  45.5027601  28.2022390  13.4473141  45.7941114  29.6877798
  21.9181735  51.6126146  29.7413573  22.4313617  52.2456138  30.2435283
  22.5682959  51.0127342  29.3756933  13.1871745  47.7556881  22.9545082
  12.3509057  48.0931567  23.2754357  13.0476515  47.6205860  22.0172219
  15.1624826  42.5993668  27.6624266  14.5089238  42.2842686  27.0380881
  15.1205300  41.9769409  28.3884089  16.2736031  52.8812963  19.5777558
  15.3663092  52.6502217  19.7768707  16.7707063  52.0850583  19.7651540
  19.1804110  61.5910471  22.4974245  18.5065808  61.8942167  23.1059202
  19.5669931  62.3939551  22.1479702  18.3962566  49.0875602  31.9871914
  17.4785128  49.3090549  31.8293602  18.8122710  49.1621912  31.1283621
  19.1797614  50.4867018  27.1174594  19.9269433  50.9988415  26.8081716
  19.4489203  50.1651070  27.9778988  17.4524264  52.9825558  24.1001549
  16.5435483  52.6984591  24.1974018  17.4819348  53.4024637  23.2404855
  22.6843532  56.5932148  27.8692716  22.2305859  55.7523058  27.9257907
  22.0537498  57.2293546  28.2067496  21.6276451  47.5224134  29.0993384
  20.8899208  47.0101520  29.4303626  21.8803225  47.0824515  28.2876660
  21.1276471  58.4308645  28.8042534  21.4199445  58.9913702  28.0854900
  21.6375091  58.7237206  29.5595693  21.7288078  40.3000386  29.6935153
  22.0346955  39.4397749  29.4061068  22.4540683  40.8918006  29.4934147
   8.0212434  50.7031072  28.0816751   7.8236834  50.1100433  27.3567817
   7.4659098  50.3983283  28.7992689  16.0009158  50.5954179  30.2011344
  16.0557768  49.6428015  30.1253820  15.1900360  50.7513618  30.6852642
  17.1500352  54.5234302  21.4389627  16.7119782  53.8070161  20.9795264
  17.8910793  54.7510417  20.8774718  13.9401518  49.2131239  27.9601723
  13.1269384  49.5125409  28.3666915  14.4360512  48.8186927  28.6776205
  16.0910096  59.2088996  29.8935987  16.0486275  59.4349842  28.9644519
  17.0072795  58.9752370  30.0421789  19.5375730  49.6773063  36.7916617
  19.8925117  49.9044536  37.6511082  20.1847861  50.0091440  36.1693872
  25.2673467  52.7991499  27.4965946  25.1291365  52.9893095  26.5687135
  24.9109685  53.5610882  27.9533997  13.4315593  46.7849594  33.5762958
  14.0714972  46.6438353  32.8785921  12.5993123  46.4984108  33.2001560
  25.2942846  54.8668026  32.5077217  25.7279353  54.7743315  33.3560271
  26.0074427  54.8425527  31.8697233  14.2075897  56.0852025  29.6897950
  15.0016495  55.5902345  29.4880525  13.4967589  55.5569888  29.3265656
  19.0270741  58.4670120  34.0410318  19.0807763  59.0361056  34.8088034
  18.1585523  58.6372005  33.6764355  10.5158660  50.2295106  25.7657703
   9.5856248  50.1679562  25.9827665  10.6116132  49.7071059  24.9694344
  10.4344209  46.7549919  28.3535944  10.6951027  47.6695252  28.2445105
  11.2561382  46.2874362  28.5032557  11.9069135  48.1687676  35.5234769
  12.5792188  47.9605038  34.8747418  11.0798921  47.9709762  35.0840001
  26.1558396  54.9091727  35.0410103  26.3494286  55.8137537  35.2869377
  26.0559014  54.4499146  35.8748688  17.8094707  44.7949617  37.5400430
  17.1622622  45.4939567  37.4464906  18.5795722  45.2285761  37.9076678
  21.2173505  55.0598469  40.6150983  21.0659011  54.8309021  39.6981067
  21.2078184  56.0169071  40.6282328  17.9858841  52.6330382  35.5997250
  18.9150901  52.7841542  35.4266217  17.5649871  52.7214403  34.7445896
  16.7847173  56.6581047  33.3695787  16.6458258  56.2899831  34.2421725
  15.9961769  57.1728686  33.1979745  17.3795325  61.7590143  24.7121324
  17.5547080  61.2878186  25.5266946  16.6928113  62.3855909  24.9402584
  18.3352388  56.0362649  30.7584625  18.0002220  55.9963419  31.6542275
  17.8356334  55.3707365  30.2855035  12.3096632  51.4430279  36.2837206
  12.1716430  50.7110518  36.8848745  13.2201555  51.3539179  36.0021394
  21.2711579  53.3818684  21.0321685  20.6540750  52.6565512  20.9354737
  20.8028068  54.1428044  20.6888759  14.9378932  51.1550239  35.7720886
  15.6478551  50.5143431  35.7307504  14.8948241  51.4063134  36.6947067
  22.9265711  58.0917592  38.6927465  22.8678257  57.4076812  38.0258048
  23.3285230  58.8336582  38.2408091  13.6507866  48.1415457  37.5916525
  13.1145223  47.6906195  38.2438122  13.0624575  48.2761365  36.8486990
  11.9456410  64.9079506  31.4861184  12.1853008  65.5398030  32.1640202
  11.1025606  64.5567546  31.7726543  13.0610125  47.6004108  20.1542989
  12.1839592  47.4792909  19.7905236  13.5367878  46.8090186  19.9021878
  22.9283118  56.0557176  36.9241445  22.0409897  55.7183098  37.0467844
  23.4981669  55.3240207  37.1610210   4.5812266  52.3881268  30.2484496
   5.2683305  52.0742998  29.6605511   4.4260394  53.2922632  29.9751748
   9.3846988  47.2771464  34.6769520   9.3005176  46.6697134  33.9419930
   8.5629694  47.7680483  34.6779016  16.4584272  60.7158628  33.8902688
  16.3854443  61.5213600  34.4021992  16.0161665  60.9150594  33.0650709
  16.2474051  59.9530398  27.4005509  15.4641573  60.4952078  27.4943734
  16.9466797  60.4704378  27.7999751  19.5570702  45.7625028  30.0439715
  20.0539401  45.0094990  29.7240785  18.7857683  45.7989344  29.4782924
  27.4100459  51.4665393  31.6858006  27.3990335  52.3490109  31.3151939
  26.5417838  51.1136944  31.4912543  18.9182955  60.6145462  36.0460847
  19.6310928  61.2492927  35.9736748  18.4272984  60.7109328  35.2300848
  20.6400482  54.5196715  27.6178138  19.7056761  54.6398177  27.4482843
  20.8177151  53.6169182  27.3538148  16.1405670  47.9042411  29.7711399
  15.7703458  47.3513451  30.4592305  16.6364763  47.3000544  29.2186399
  24.0273034  50.3614034  28.1528172  24.4933486  51.1942026  28.0788475
  24.4780534  49.8959016  28.8573431  13.9694869  58.3639906  36.8666417
  14.6704328  58.9976389  37.0195812  13.4989984  58.7054637  36.1062057
  22.0949265  56.7057856  25.1514324  22.3709109  56.5914450  26.0608198
  21.2253763  56.3075340  25.1126497  21.9989696  42.7294621  32.1919074
  21.0852776  42.9598848  32.3601281  22.4282798  42.8133065  33.0433106
  21.7696155  50.9184513  34.6918968  21.1167605  51.1660421  34.0371420
  22.1476535  50.1048651  34.3581445  18.7303329  60.9544206  28.7947138
  18.9125723  60.1365862  29.2574890  19.5536315  61.1711899  28.3572028
  19.0645494  59.8812392  26.0562187  19.5933261  59.3704846  25.4432349
  19.3273714  59.5654922  26.9207720  17.8183728  51.6604324  41.1785005
  17.1424365  51.5598454  41.8487380  18.6411362  51.5043538  41.6421002
   9.5662587  57.8976261  33.7997520  10.1516024  57.1519949  33.9325424
   9.3687425  58.2080218  34.6834184  12.4201242  60.9327508  28.8159962
  11.7511617  61.4173636  28.3324002  12.2814112  61.1796729  29.7303341
   4.1580242  50.4681861  32.5201963   4.1964341  49.9345452  33.3139081
   3.6520534  49.9417067  31.9012940  16.5606511  62.9671252  35.4142621
  17.1124819  63.1302873  36.1791706  16.9012704  63.5575690  34.7422646
  11.5371004  45.3146402  36.0164506  11.6012330  46.1761232  35.6041903
  11.4738124  44.7020403  35.2836864  11.0123276  47.3869534  39.6637540
  11.6395315  47.0046611  40.2775064  10.1551195  47.1683736  40.0293232
  21.4117385  57.7932509  41.2691275  21.9557289  58.4062468  40.7746230
  20.8304230  58.3512088  41.7858288   7.7888819  49.1945963  25.5955895
   8.0842260  48.2856642  25.5422948   6.8876855  49.1733703  25.2736897
  19.6974898  60.9153227  32.4006303  19.5726037  60.1142967  31.8917248
  20.3553989  61.4099421  31.9120273  11.3183066  47.2701960  31.5783443
  10.5969652  47.8837927  31.4390917  12.1076322  47.8059725  31.5000089
  21.7609806  58.7162247  34.0285853  20.8140142  58.5967599  33.9564180
  22.1092580  57.8284745  34.1112114  14.1209380  44.6056386  37.8524095
  14.6443782  44.8518683  38.6150404  13.9021713  45.4376421  37.4327232
   9.5176661  46.8760061  25.7195220   9.1889367  45.9957440  25.5370326
   9.8716032  46.8207730  26.6071609  18.7656240  58.5114964  30.2290205
  18.6181202  57.5831671  30.4097775  19.5909733  58.5335054  29.7447281
  12.6318484  47.1633031  26.0870697  12.9714556  47.6918952  25.3649306
  13.0790604  47.5013437  26.8629264  22.3690362  59.3343522  31.3155078
  23.2936909  59.1286384  31.1779529  22.2005665  59.0859923  32.2244420
  15.3261925  45.5470081  35.5373765  14.9858745  44.7477894  35.9394445
  14.6200931  45.8471792  34.9650599  15.9778397  42.6319394  33.9901089
  16.8004466  42.1579872  33.8679979  16.2216460  43.4109878  34.4899775
  14.6186631  45.6607652  24.2863990  15.3394994  46.0388905  23.7827707
  13.9951935  46.3796529  24.3898968  18.7617754  46.3652801  25.2222323
  18.9781368  47.2477439  24.9211151  18.2811821  45.9739015  24.4927965
  13.5016975  49.3238514  31.7993067  13.3561556  49.6378818  32.6917349
  13.0242179  49.9423415  31.2463966  15.3613358  46.3141062  31.8473957
  15.3474927  45.4182156  31.5106255  16.0785786  46.3211726  32.4812243
  17.2139489  46.7478403  33.8927084  16.9557267  47.6695473  33.8911415
  16.6824529  46.3508837  34.5827548  22.1585678  59.8529190  26.6717169
  22.3322555  59.2875612  25.9191022  22.6514569  60.6530085  26.4896659
   7.9762638  51.8643859  34.7380728   7.4316106  52.6403667  34.8701003
   8.8541987  52.2114663  34.5799850  14.7650254  45.1955443  27.1161527
  14.8866165  44.2672089  27.3152414  14.4752297  45.2094129  26.2039842
  17.6341445  42.8810353  30.2528247  17.6563141  42.9449686  29.2980226
  18.0509504  42.0414862  30.4468753  28.0125069  52.6165613  28.2907469
  28.4556215  51.8672938  27.8926593  27.1351579  52.6075749  27.9081201
  23.1460850  59.1695954  23.7714068  23.8411755  59.7902647  23.9901382
  23.4884000  58.3191305  24.0466446   8.7628659  50.9913755  37.6310885
   8.0210395  51.1396390  38.2175516   8.4421404  51.2522021  36.7677635
  25.0452273  56.6195660  25.3001399  25.5703597  56.9582932  24.5750719
  24.9574626  55.6842675  25.1164533  16.7072322  60.5329733  37.4291275
  17.0159449  60.2878880  38.3013975  17.5047804  60.7376372  36.9410145
  16.7292934  62.6867643  29.6596652  16.2897924  62.1944022  30.3529508
  17.4801051  62.1440611  29.4188727   9.2085273  58.8779184  29.6621280
  10.0343293  58.5782956  29.2819923   8.8579325  58.1086806  30.1111068
  14.1766806  58.2305652  31.7318953  13.5546816  57.5676357  31.4321181
  14.8471673  58.2566784  31.0492601   7.4093878  56.7965510  30.6210213
   6.5725786  56.3687685  30.4394215   7.3817524  56.9897954  31.5581005
  14.2491334  46.7087440  41.3251459  14.2979489  47.5849563  40.9429229
  14.7913848  46.1664833  40.7523103  24.7346179  57.2528563  40.6052597
  23.9441723  57.2352702  40.0657096  24.4979534  57.7916857  41.3601633
  24.8544054  54.1021030  37.9185325  24.9042059  53.9371037  38.8600848
  24.7457978  53.2348289  37.5283206  13.7380313  56.7809575  25.2077414
  13.8868434  57.4645040  24.5544087  14.5446757  56.7614665  25.7226870
  22.1447817  50.0851958  39.2344632  23.0457680  49.9458423  38.9428630
  22.2195791  50.2506413  40.1742809  16.4790622  47.4618812  38.0797818
  15.6093932  47.7552379  37.8080407  16.7150103  48.0459257  38.8005082
  26.3562251  56.5217971  38.1627347  26.0647060  56.8847952  38.9990808
  25.7434383  55.8084979  37.9840679  27.5557934  54.0870851  30.6829917
  28.3904825  54.5260655  30.8467477  27.6917062  53.6109504  29.8638163
  24.6049440  51.6450586  36.6307405  25.0803561  51.8378232  35.8226256
  23.6815005  51.7009772  36.3850788  11.4932946  52.8074753  26.2138483
  11.2478988  51.9037083  26.4118693  11.6628861  52.8091903  25.2717961
  19.1829656  43.6798429  35.5963238  19.7011600  44.4159456  35.2709727
  18.8284789  43.9862423  36.4309998  10.7628594  48.5403111  23.7124644
  10.0697839  48.6147466  23.0564680  10.5180346  47.7763454  24.2346161
  19.4342250  40.0998712  31.1164135  19.7144004  39.4321901  31.7424562
  20.2192857  40.2927808  30.6038799  17.2375719  59.2757706  22.6789161
  16.6649686  59.8947893  22.2259633  17.8108512  59.8257068  23.2129083
  23.3051109  48.5216346  34.8635710  24.2568531  48.6214444  34.8847934
  23.1354559  47.7294614  35.3733795  21.3265488  45.6071929  35.0495111
  20.7315420  45.8876942  34.3541600  21.0415185  46.0965830  35.8211852
  20.4572978  59.5594856  23.8097744  21.3903652  59.4940418  24.0130619
  20.3696191  60.3951123  23.3512276  23.0860995  58.8760726  20.7701691
  23.0074627  58.5420590  21.6637449  23.9070662  59.3682494  20.7693164
  25.7839186  51.7422466  33.9778010  25.7515506  50.8038466  34.1637694
  26.3939810  51.8206502  33.2443835  17.6222517  50.6118519  20.0205214
  18.5681622  50.4824727  20.0893632  17.2436762  49.8733180  20.4974642
  25.9333675  48.5333509  34.0236293  25.4172723  47.7491966  33.8366222
  26.8173623  48.2052226  34.1882812  23.5944402  42.2774525  29.9832106
  23.3969223  41.9689613  30.8675438  24.2044107  43.0036164  30.1130036
  31.6015736  52.8038472  33.1184047  32.3319125  52.5423761  33.6791750
  30.9922682  52.0667194  33.1586115  29.6831033  50.9446335  33.7158498
  28.9564197  50.8102300  33.1074989  29.2678320  51.2523164  34.5215216
  17.5061210  54.6636265  41.4805871  18.4264219  54.8414864  41.6745917
  17.4710793  53.7192310  41.3285570  15.8065434  48.5368495  19.9560099
  14.8996890  48.2401608  20.0322813  16.0841415  48.2398313  19.0894385
   6.7243375  49.8574858  30.4059145   6.4046159  49.0040167  30.1133519
   6.1776803  50.0723437  31.1617113  10.5023282  52.5737299  34.1228652
  10.7209292  53.5054407  34.1416686  10.9149056  52.2145274  34.9083456
  17.4227500  43.0805385  26.1104340  16.6128228  42.7352470  26.4859586
  18.1111917  42.7712928  26.6991952  19.3518048  42.1583432  27.7328637
  19.9049087  42.5778885  28.3918660  19.5888135  41.2319180  27.7751593
  15.3751148  48.1470505  43.5131401  15.2747874  49.0964862  43.4443492
  15.1572690  47.8188744  42.6407471  14.5764219  45.3955430  20.0972078
  15.4383383  45.7210329  20.3567896  14.7614563  44.6086926  19.5845144
   6.5931635  53.4777770  32.3752267   5.8995106  53.0631723  31.8622221
   7.3404626  53.5198306  31.7785686  22.7296855  44.2683957  27.2407301
  22.1495525  44.9268761  26.8585354  22.4632788  43.4461301  26.8294719
  21.1800422  43.6689014  29.4428622  21.6800200  43.7805549  28.6342940
  21.8236030  43.3650067  30.0829430  15.2382418  51.5767644  42.3296463
  14.7549499  52.3768004  42.5360352  15.3243357  51.5875589  41.3763907
   8.5068377  53.4096024  30.2518282   8.4839065  53.5083711  29.3000165
   8.8169014  54.2561174  30.5735448  11.1655755  55.4672179  34.3664896
  12.1199009  55.4356121  34.2994828  10.9668279  55.0062802  35.1815122
  11.7555137  54.0373295  36.9335694  12.5748026  54.5317373  36.9570531
  12.0291945  53.1205263  36.9053262  21.5121733  46.4284047  26.2963650
  20.6247589  46.7133698  26.0783844  21.9275723  46.2677810  25.4490926
  24.8636270  46.4530568  30.0117989  25.6396660  46.9427020  30.2842606
  24.1384404  46.8788622  30.4689858  27.3008828  47.1658187  31.0691929
  27.8953319  46.9253923  30.3585238  27.3735412  46.4465318  31.6965466
   9.5205984  61.0091798  31.3835094   9.3860452  60.2492199  30.8173092
   9.1038046  61.7332698  30.9163883  20.6564947  56.1928722  20.3911670
  21.3600797  56.3978724  21.0069325  19.9327596  56.7605484  20.6560753
  21.4862757  51.9438583  26.5113940  21.4297959  52.4007134  25.6721572
  22.0391100  51.1829268  26.3336782  25.2967563  47.7328315  27.3364059
  25.0404497  47.3324951  28.1672267  24.6720431  48.4472109  27.2114198
  29.6079901  50.4724388  29.8435351  29.0479459  50.5417577  30.6166913
  29.0023404  50.2965373  29.1234847  12.6775110  61.9061115  31.5953537
  12.5607494  62.8506548  31.4932227  11.8567556  61.6034677  31.9839336
  22.5651644  56.6311251  22.4410130  23.3997248  56.1992449  22.2587604
  22.4035987  56.4593265  23.3687024  22.2197537  53.1343364  23.8066469
  22.1646340  52.9687636  22.8654913  21.5943592  53.8419397  23.9628659
   7.0090052  48.3711429  37.6327891   7.6548915  47.8610383  38.1215116
   6.8007203  49.1080110  38.2071316  19.5343444  55.4392276  43.1320032
  20.4034603  55.6132928  42.7706667  19.0550195  56.2586693  43.0095761
  15.5293662  42.6351473  23.3851787  15.5172332  43.5793313  23.5420058
  16.4217084  42.4521619  23.0911248  13.7029624  62.5589377  34.8109465
  14.6056871  62.5912987  35.1275960  13.4766994  61.6289828  34.8255801
  15.4583226  61.3120364  31.4719544  14.5078857  61.3122225  31.3583916
  15.7615712  60.5653098  30.9555579  19.3445781  39.2294250  27.6397724
  18.5778177  38.6752737  27.7854406  19.7556486  39.3016119  28.5011876
  11.3487543  45.5179046  41.7302905  12.2119004  45.1615851  41.9406230
  10.7752953  45.1792940  42.4178310  31.1935919  67.1480902  32.5365306
  31.8314329  67.0287649  31.8328646  31.0756762  68.0961746  32.5953258
  28.0025626  67.1008330  32.4726831  27.6644137  66.9849395  31.5847366
  28.8715394  66.6999495  32.4527837  23.8612441  68.9543807  28.4623722
  23.2977307  68.8633743  27.6940010  23.7464836  68.1343711  28.9426214
  28.4845409  68.2543182  38.4313037  28.4734049  67.8595980  37.5593540
  28.6466048  67.5209254  39.0246808  21.4076873  70.4494998  31.3007942
  22.1998165  70.1085823  30.8854242  21.6473524  70.5589973  32.2210096
  29.4412000  72.6214774  23.7738187  28.7899980  73.2068855  23.3872201
  30.2356363  73.1520969  23.8333224  23.3667627  69.7103911  24.1725321
  24.1398503  69.1632898  24.0338197  23.7193026  70.5748161  24.3839783
  25.2052670  71.0380294  37.3792221  24.9142536  71.9425925  37.2638887
  25.8409654  71.0796821  38.0936290  26.1308877  68.4157142  33.9693580
  26.7272449  68.1913165  33.2550543  26.1883848  67.6741888  34.5719028
  25.7033905  65.8696578  21.8043771  25.9559426  65.3478099  21.0427234
  24.7658464  65.7062723  21.9070455  30.7477188  64.8732356  29.6118514
  31.5340277  64.4551779  29.2608931  31.0115892  65.7778448  29.7800163
  30.9187265  70.3105206  24.3107171  30.2833098  70.3839833  25.0228076
  30.5884672  70.8998805  23.6326250  25.4230194  67.7724683  24.0068146
  25.3066452  67.0969587  24.6749230  25.5332454  67.2857057  23.1900299
  27.7661735  67.2334831  27.7114835  27.4019942  66.7065452  28.4227757
  28.6228851  66.8433300  27.5381321  27.4067222  62.2624730  22.7076184
  27.5741624  63.1304967  23.0746655  27.2164391  62.4252012  21.7837473
  30.1642555  70.7241709  34.3742014  29.8643278  71.6266748  34.2657821
  29.8193614  70.4573892  35.2263167  23.6155036  67.1755506  30.4078719
  22.6905533  67.0431720  30.6156410  23.8639450  67.9549725  30.9048661
  33.5639699  63.2424249  32.0539452  32.6556576  63.1739658  31.7598213
  33.5127295  63.7196194  32.8821277  27.3856443  64.7182388  23.6922851
  27.2656068  65.1639439  24.5308331  26.6909031  65.0667705  23.1336389
  20.9763847  66.8188780  31.2422508  21.1056229  67.0723258  32.1561919
  20.2961299  67.4116488  30.9227163  25.1463335  77.4886030  27.3412982
  25.0687364  78.4393855  27.4201462  24.5424978  77.1431902  27.9987908
  27.6380564  64.6613895  39.9974349  26.8613899  65.2207815  39.9877213
  28.2771128  65.1470678  40.5189219  35.4301345  61.4440688  33.8317325
  34.7875725  61.7373221  33.1857120  34.9256274  61.3293608  34.6370522
  33.0841509  65.1903861  24.5203185  33.9959365  65.4231248  24.3450882
  32.5751156  65.7740905  23.9578263  25.8926937  67.4699348  39.5592316
  26.6341621  68.0084392  39.2827139  25.1863922  68.0965637  39.7163868
  31.3682276  69.6128489  38.1564477  31.7765632  69.1710899  37.4119110
  30.6459538  69.0381116  38.4098670  27.7213346  64.5501096  35.5298034
  28.5674542  64.9740509  35.6732683  27.6611984  63.8934720  36.2236597
  31.6911091  70.1729679  31.9116766  31.0619954  70.3375394  31.2092834
  31.3036753  70.5871289  32.6827730  35.5700323  71.1084117  29.2661130
  34.8851361  71.4883019  28.7158163  35.6544172  71.7179444  29.9993078
  30.8712792  62.2105464  37.1879208  30.6273724  62.9647524  36.6513484
  31.1472722  62.5890812  38.0226455  32.8251255  68.7544076  35.8656473
  33.0368150  69.3975836  35.1890855  32.7781003  67.9206393  35.3978404
  30.4277484  61.3661897  32.7693046  29.5661963  61.6643150  33.0609783
  30.4539918  61.5832296  31.8374078  27.2439053  69.9104087  29.1766851
  27.7077399  70.1891790  28.3871474  26.9795851  69.0087532  28.9939942
  24.1363134  69.4575569  32.1146615  24.7064491  69.8862837  31.4764099
  24.7271246  69.1758154  32.8130800  26.1807939  66.0327240  25.9856416
  26.8831982  66.4848284  26.4530343  25.8488568  65.3911059  26.6136310
  24.6288301  64.6238996  40.3607626  23.9986961  65.3055277  40.5943023
  24.5224388  64.5122078  39.4160764  19.9233273  64.2910793  31.2873550
  19.1332327  64.5468321  30.8113661  20.4144520  65.1059130  31.3925591
  33.9397083  71.6316032  34.0378831  34.7614526  71.2296219  33.7561512
  33.9359485  71.5284266  34.9894947  21.8748018  64.6555372  28.2457027
  21.0779182  64.7674066  28.7640522  21.6473611  64.9942024  27.3797917
  27.7053686  71.1800075  36.1939541  27.7698119  71.6420482  37.0297713
  26.9964610  70.5497440  36.3221851  18.2070976  64.5441283  33.7188541
  18.4579014  65.4288293  33.9846117  18.7430524  64.3645884  32.9463633
  27.4201704  72.8468182  26.0618522  27.2847378  73.6919718  26.4903369
  27.9611516  73.0487460  25.2984455  23.9069043  58.9259762  42.7232877
  23.5135989  58.3725961  43.3980521  24.7235184  59.2370341  43.1139394
  20.8731101  70.3643621  26.6346447  21.3855622  71.1586871  26.7852011
  21.5253814  69.6669911  26.5680048  22.6825986  73.4809377  28.7169200
  22.8592614  74.4027341  28.5290184  23.4782819  73.1667796  29.1463580
  26.8237004  60.3417641  40.3153133  27.5646718  60.9424795  40.2357596
  27.0554927  59.5995279  39.7571176  21.9678342  65.5274009  38.5931363
  21.8531857  64.6259266  38.8938462  21.1122860  65.7737705  38.2416180
  29.0470180  73.4691749  40.1918864  28.6034034  72.6828128  39.8739768
  29.7087394  73.6570899  39.5262755  23.8057301  74.9987551  34.7179542
  24.3564726  74.8704614  33.9456536  22.9668777  75.2982440  34.3674435
  31.1451418  73.7494549  38.2200265  31.1269893  74.5703430  37.7280534
  32.0671338  73.6248624  38.4450406  27.6024472  71.2638678  39.0623773
  28.1352809  70.5026967  38.8323081  27.0738553  70.9712330  39.8047928
  30.7694167  56.3698744  34.5917415  30.4258437  57.2600386  34.5156526
  31.1373130  56.1800402  33.7287000  18.8380018  68.6932275  27.4106017
  19.6755240  69.1029283  27.1939725  19.0158286  67.7531717  27.3806211
  30.7344450  66.3607355  23.0989850  30.2191073  67.1311960  23.3378238
  30.4621758  65.6872492  23.7222912  28.3191561  61.2057056  28.1575089
  27.4633157  60.8163907  27.9780727  28.7318513  61.2849017  27.2974874
  29.8490708  58.7403400  32.5566648  29.3455503  58.7033535  31.7434454
  30.1421314  59.6496142  32.6163305  26.0933593  58.8242129  31.5632830
  26.9586590  58.6284938  31.2038720  26.1611102  58.5952481  32.4902187
  35.7078724  69.1139710  25.0343024  34.9308167  68.7750870  24.5898186
  36.3870205  69.1192333  24.3597989  30.5230753  64.2334448  24.9249631
  30.2180889  64.5480597  25.7759775  31.4761195  64.3115867  24.9676964
  28.9677185  70.3924671  26.5742585  28.4398547  69.6577430  26.2615823
  28.4664688  71.1699347  26.3282554  33.9470031  68.5873691  31.6909632
  33.2893705  69.2772953  31.7789760  34.7510430  68.9770123  32.0343618
  23.6995913  61.0544337  28.9349197  24.2739664  60.8319519  28.2022390
  24.2866895  61.1233032  29.6877798  32.7575490  66.9418064  29.7413573
  33.2707372  67.5748056  30.2435283  33.4076714  66.3419260  29.3756933
  24.0265500  63.0848798  22.9545082  23.1902812  63.4223485  23.2754357
  23.8870269  62.9497778  22.0172219  26.0018580  57.9285586  27.6624266
  25.3482993  57.6134603  27.0380881  25.9599054  57.3061327  28.3884089
  27.1129785  68.2104881  19.5777558  26.2056847  67.9794135  19.7768707
  27.6100817  67.4142500  19.7651540  30.0197864  76.9202388  22.4974245
  29.3459563  77.2234085  23.1059202  30.4063686  77.7231469  22.1479702
  29.2356321  64.4167520  31.9871914  28.3178882  64.6382467  31.8293602
  29.6516464  64.4913830  31.1283621  30.0191368  65.8158935  27.1174594
  30.7663187  66.3280332  26.8081716  30.2882958  65.4942988  27.9778988
  28.2918019  68.3117476  24.1001549  27.3829238  68.0276509  24.1974018
  28.3213102  68.7316555  23.2404855  33.5237286  71.9224066  27.8692716
  33.0699613  71.0814975  27.9257907  32.8931253  72.5585464  28.2067496
  32.4670206  62.8516052  29.0993384  31.7292962  62.3393438  29.4303626
  32.7196979  62.4116433  28.2876660  31.9670225  73.7600562  28.8042534
  32.2593200  74.3205619  28.0854900  32.4768846  74.0529123  29.5595693
  32.5681833  55.6292304  29.6935153  32.8740710  54.7689667  29.4061068
  33.2934438  56.2209924  29.4934147  18.8606189  66.0322990  28.0816751
  18.6630589  65.4392351  27.3567817  18.3052853  65.7275200  28.7992689
  26.8402913  65.9246097  30.2011344  26.8951522  64.9719933  30.1253820
  26.0294115  66.0805536  30.6852642  27.9894106  69.8526220  21.4389627
  27.5513536  69.1362079  20.9795264  28.7304547  70.0802334  20.8774718
  24.7795273  64.5423156  27.9601723  23.9663138  64.8417327  28.3666915
  25.2754267  64.1478845  28.6776205  26.9303850  74.5380913  29.8935987
  26.8880029  74.7641760  28.9644519  27.8466549  74.3044288  30.0421789
  30.3769484  65.0064981  36.7916617  30.7318872  65.2336454  37.6511082
  31.0241615  65.3383358  36.1693872  36.1067221  68.1283417  27.4965946
  35.9685120  68.3185013  26.5687135  35.7503440  68.8902800  27.9533997
  24.2709347  62.1141512  33.5762958  24.9108727  61.9730271  32.8785921
  23.4386878  61.8276025  33.2001560  36.1336601  70.1959944  32.5077217
  36.5673107  70.1035233  33.3560271  36.8468181  70.1717444  31.8697233
  25.0469651  71.4143942  29.6897950  25.8410250  70.9194262  29.4880525
  24.3361344  70.8861805  29.3265656  29.8664496  73.7962038  34.0410318
  29.9201518  74.3652974  34.8088034  28.9979277  73.9663923  33.6764355
  21.3552415  65.5587024  25.7657703  20.4250003  65.4971480  25.9827665
  21.4509887  65.0362977  24.9694344  21.2737964  62.0841837  28.3535944
  21.5344781  62.9987170  28.2445105  22.0955136  61.6166279  28.5032557
  22.7462889  63.4979594  35.5234769  23.4185942  63.2896956  34.8747418
  21.9192676  63.3001680  35.0840001  36.9952150  70.2383644  35.0410103
  37.1888040  71.1429455  35.2869377  36.8952768  69.7791063  35.8748688
  28.6488461  60.1241535  37.5400430  28.0016376  60.8231485  37.4464906
  29.4189476  60.5577679  37.9076678  32.0567259  70.3890387  40.6150983
  31.9052765  70.1600939  39.6981067  32.0471938  71.3460989  40.6282328
  28.8252595  67.9622300  35.5997250  29.7544655  68.1133459  35.4266217
  28.4043625  68.0506321  34.7445896  27.6240927  71.9872964  33.3695787
  27.4852013  71.6191749  34.2421725  26.8355523  72.5020604  33.1979745
  28.2189079  77.0882061  24.7121324  28.3940835  76.6170104  25.5266946
  27.5321867  77.7147827  24.9402584  29.1746142  71.3654567  30.7584625
  28.8395975  71.3255337  31.6542275  28.6750088  70.6999283  30.2855035
  23.1490386  66.7722197  36.2837206  23.0110184  66.0402436  36.8848745
  24.0595310  66.6831097  36.0021394  32.1105334  68.7110601  21.0321685
  31.4934505  67.9857429  20.9354737  31.6421822  69.4719962  20.6888759
  25.7772687  66.4842156  35.7720886  26.4872305  65.8435349  35.7307504
  25.7341995  66.7355051  36.6947067  33.7659466  73.4209510  38.6927465
  33.7072012  72.7368730  38.0258048  34.1678984  74.1628500  38.2408091
  24.4901621  63.4707374  37.5916525  23.9538978  63.0198113  38.2438122
  23.9018329  63.6053283  36.8486990  22.7850164  80.2371424  31.4861184
  23.0246763  80.8689948  32.1640202  21.9419361  79.8859464  31.7726543
  23.9003880  62.9296026  20.1542989  23.0233346  62.8084826  19.7905236
  24.3761633  62.1382104  19.9021878  33.7676873  71.3849094  36.9241445
  32.8803652  71.0475015  37.0467844  34.3375424  70.6532125  37.1610210
  15.4206020  67.7173185  30.2484496  16.1077060  67.4034915  29.6605511
  15.2654149  68.6214550  29.9751748  20.2240742  62.6063382  34.6769520
  20.1398931  61.9989051  33.9419930  19.4023449  63.0972400  34.6779016
  27.2978026  76.0450546  33.8902688  27.2248198  76.8505517  34.4021992
  26.8555419  76.2442512  33.0650709  27.0867806  75.2822316  27.4005509
  26.3035328  75.8243996  27.4943734  27.7860551  75.7996296  27.7999751
  30.3964456  61.0916945  30.0439715  30.8933156  60.3386908  29.7240785
  29.6251438  61.1281262  29.4782924  29.7576710  75.9437380  36.0460847
  30.4704682  76.5784845  35.9736748  29.2666738  76.0401246  35.2300848
  31.4794237  69.8488633  27.6178138  30.5450515  69.9690095  27.4482843
  31.6570905  68.9461099  27.3538148  26.9799425  63.2334328  29.7711399
  26.6097212  62.6805369  30.4592305  27.4758517  62.6292462  29.2186399
  34.8666788  65.6905952  28.1528172  35.3327240  66.5233944  28.0788475
  35.3174289  65.2250934  28.8573431  24.8088623  73.6931823  36.8666417
  25.5098083  74.3268306  37.0195812  24.3383738  74.0346555  36.1062057
  32.9343019  72.0349773  25.1514324  33.2102863  71.9206368  26.0608198
  32.0647518  71.6367258  25.1126497  32.8383451  58.0586539  32.1919074
  31.9246531  58.2890766  32.3601281  33.2676552  58.1424983  33.0433106
  32.6089909  66.2476431  34.6918968  31.9561360  66.4952338  34.0371420
  32.9870289  65.4340569  34.3581445  29.5697083  76.2836124  28.7947138
  29.7519478  75.4657780  29.2574890  30.3930069  76.5003816  28.3572028
  29.9039249  75.2104309  26.0562187  30.4327015  74.6996764  25.4432349
  30.1667468  74.8946839  26.9207720  28.6577482  66.9896242  41.1785005
  27.9818119  66.8890371  41.8487380  29.4805116  66.8335456  41.6421002
  20.4056341  73.2268178  33.7997520  20.9909778  72.4811866  33.9325424
  20.2081180  73.5372135  34.6834184  23.2594997  76.2619426  28.8159962
  22.5905372  76.7465554  28.3324002  23.1207866  76.5088646  29.7303341
  14.9973996  65.7973779  32.5201963  15.0358096  65.2637369  33.3139081
  14.4914289  65.2708984  31.9012940  27.4000265  78.2963169  35.4142621
  27.9518573  78.4594791  36.1791706  27.7406459  78.8867607  34.7422646
  22.3764758  60.6438319  36.0164506  22.4406085  61.5053150  35.6041903
  22.3131879  60.0312321  35.2836864  21.8517031  62.7161452  39.6637540
  22.4789070  62.3338529  40.2775064  20.9944950  62.4975654  40.0293232
  32.2511140  73.1224427  41.2691275  32.7951044  73.7354385  40.7746230
  31.6697984  73.6804005  41.7858288  18.6282574  64.5237881  25.5955895
  18.9236015  63.6148559  25.5422948  17.7270610  64.5025620  25.2736897
  30.5368653  76.2445145  32.4006303  30.4119792  75.4434885  31.8917248
  31.1947744  76.7391338  31.9120273  22.1576821  62.5993877  31.5783443
  21.4363407  63.2129845  31.4390917  22.9470077  63.1351642  31.5000089
  32.6003561  74.0454165  34.0285853  31.6533896  73.9259516  33.9564180
  32.9486334  73.1576663  34.1112114  24.9603134  59.9348304  37.8524095
  25.4837536  60.1810600  38.6150404  24.7415468  60.7668339  37.4327232
  20.3570415  62.2051979  25.7195220  20.0283121  61.3249357  25.5370326
  20.7109786  62.1499647  26.6071609  29.6049994  73.8406881  30.2290205
  29.4574957  72.9123589  30.4097775  30.4303488  73.8626972  29.7447281
  23.4712238  62.4924948  26.0870697  23.8108311  63.0210870  25.3649306
  23.9184359  62.8305354  26.8629264  33.2084116  74.6635440  31.3155078
  34.1330664  74.4578301  31.1779529  33.0399419  74.4151841  32.2244420
  26.1655679  60.8761999  35.5373765  25.8252500  60.0769812  35.9394445
  25.4594686  61.1763710  34.9650599  26.8172151  57.9611311  33.9901089
  27.6398220  57.4871790  33.8679979  27.0610215  58.7401795  34.4899775
  25.4580386  60.9899570  24.2863990  26.1788748  61.3680823  23.7827707
  24.8345690  61.7088447  24.3898968  29.6011509  61.6944719  25.2222323
  29.8175123  62.5769357  24.9211151  29.1205576  61.3030932  24.4927965
  24.3410730  64.6530432  31.7993067  24.1955311  64.9670735  32.6917349
  23.8635934  65.2715332  31.2463966  26.2007113  61.6432980  31.8473957
  26.1868682  60.7474073  31.5106255  26.9179541  61.6503644  32.4812243
  28.0533243  62.0770320  33.8927084  27.7951021  62.9987391  33.8911415
  27.5218284  61.6800755  34.5827548  32.9979432  75.1821107  26.6717169
  33.1716310  74.6167530  25.9191022  33.4908323  75.9822002  26.4896659
  18.8156392  67.1935777  34.7380728  18.2709860  67.9695584  34.8701003
  19.6935742  67.5406581  34.5799850  25.6044009  60.5247360  27.1161527
  25.7259920  59.5964007  27.3152414  25.3146051  60.5386046  26.2039842
  28.4735199  58.2102271  30.2528247  28.4956896  58.2741604  29.2980226
  28.8903258  57.3706779  30.4468753  33.9854605  74.4987872  23.7714068
  34.6805509  75.1194565  23.9901382  34.3277755  73.6483223  24.0466446
  19.6022414  66.3205673  37.6310885  18.8604150  66.4688308  38.2175516
  19.2815158  66.5813938  36.7677635  35.8846028  71.9487577  25.3001399
  36.4097352  72.2874850  24.5750719  35.7968380  71.0134593  25.1164533
  27.5466077  75.8621651  37.4291275  27.8553203  75.6170798  38.3013975
  28.3441559  76.0668289  36.9410145  27.5686689  78.0159561  29.6596652
  27.1291679  77.5235939  30.3529508  28.3194806  77.4732528  29.4188727
  20.0479028  74.2071101  29.6621280  20.8737048  73.9074873  29.2819923
  19.6973080  73.4378724  30.1111068  25.0160561  73.5597570  31.7318953
  24.3940570  72.8968275  31.4321181  25.6865428  73.5858702  31.0492601
  18.2487633  72.1257428  30.6210213  17.4119541  71.6979602  30.4394215
  18.2211278  72.3189871  31.5581005  25.0885088  62.0379358  41.3251459
  25.1373244  62.9141481  40.9429229  25.6307602  61.4956751  40.7523103
  24.5774068  72.1101493  25.2077414  24.7262188  72.7936957  24.5544087
  25.3840511  72.0906583  25.7226870  27.3184377  62.7910730  38.0797818
  26.4487686  63.0844296  37.8080407  27.5543857  63.3751175  38.8005082
  37.1956006  71.8509889  38.1627347  36.9040814  72.2139869  38.9990808
  36.5828137  71.1376897  37.9840679  35.4443194  66.9742504  36.6307405
  35.9197316  67.1670150  35.8226256  34.5208759  67.0301689  36.3850788
  22.3326701  68.1366671  26.2138483  22.0872743  67.2329001  26.4118693
  22.5022615  68.1383821  25.2717961  30.0223411  59.0090347  35.5963238
  30.5405354  59.7451374  35.2709727  29.6678543  59.3154340  36.4309998
  21.6022348  63.8695028  23.7124644  20.9091593  63.9439383  23.0564680
  21.3574100  63.1055372  24.2346161  30.2736005  55.4290630  31.1164135
  30.5537758  54.7613819  31.7424562  31.0586612  55.6219725  30.6038799
  28.0769473  74.6049624  22.6789161  27.5043440  75.2239811  22.2259633
  28.6502267  75.1548985  23.2129083  34.1444863  63.8508264  34.8635710
  35.0962286  63.9506361  34.8847934  33.9748313  63.0586532  35.3733795
  32.1659243  60.9363847  35.0495111  31.5709175  61.2168860  34.3541600
  31.8808939  61.4257748  35.8211852  31.2966733  74.8886774  23.8097744
  32.2297406  74.8232335  24.0130619  31.2089946  75.7243040  23.3512276
  33.9254750  74.2052644  20.7701691  33.8468381  73.8712508  21.6637449
  34.7464416  74.6974412  20.7693164  36.6232941  67.0714383  33.9778010
  36.5909261  66.1330384  34.1637694  37.2333564  67.1498420  33.2443835
  28.4616272  65.9410436  20.0205214  29.4075376  65.8116644  20.0893632
  28.0830517  65.2025098  20.4974642  34.4338156  57.6066442  29.9832106
  34.2362977  57.2981530  30.8675438  35.0437862  58.3328081  30.1130036
  28.3454964  69.9928182  41.4805871  29.2657974  70.1706781  41.6745917
  28.3104547  69.0484228  41.3285570  26.6459189  63.8660413  19.9560099
  25.7390644  63.5693525  20.0322813  26.9235170  63.5690231  19.0894385
  17.5637129  65.1866776  30.4059145  17.2439914  64.3332084  30.1133519
  17.0170557  65.4015354  31.1617113  21.3417037  67.9029217  34.1228652
  21.5603047  68.8346325  34.1416686  21.7542811  67.5437191  34.9083456
  28.2621255  58.4097302  26.1104340  27.4521983  58.0644387  26.4859586
  28.9505672  58.1004846  26.6991952  30.1911803  57.4875349  27.7328637
  30.7442841  57.9070803  28.3918660  30.4281889  56.5611097  27.7751593
  26.2144902  63.4762423  43.5131401  26.1141629  64.4256780  43.4443492
  25.9966444  63.1480662  42.6407471  25.4157973  60.7247348  20.0972078
  26.2777137  61.0502246  20.3567896  25.6008318  59.9378844  19.5845144
  17.4325389  68.8069688  32.3752267  16.7388861  68.3923640  31.8622221
  18.1798380  68.8490224  31.7785686  33.5690610  59.5975874  27.2407301
  32.9889279  60.2560678  26.8585354  33.3026543  58.7753219  26.8294719
  32.0194176  58.9980932  29.4428622  32.5193955  59.1097467  28.6342940
  32.6629784  58.6941985  30.0829430  26.0776172  66.9059562  42.3296463
  25.5943254  67.7059922  42.5360352  26.1637111  66.9167507  41.3763907
  19.3462132  68.7387941  30.2518282  19.3232820  68.8375629  29.3000165
  19.6562768  69.5853092  30.5735448  22.0049510  70.7964096  34.3664896
  22.9592763  70.7648039  34.2994828  21.8062033  70.3354720  35.1815122
  22.5948892  69.3665212  36.9335694  23.4141781  69.8609291  36.9570531
  22.8685699  68.4497181  36.9053262  32.3515488  61.7575965  26.2963650
  31.4641343  62.0425615  26.0783844  32.7669477  61.5969728  25.4490926
  20.3599738  76.3383716  31.3835094  20.2254206  75.5784117  30.8173092
  19.9431801  77.0624616  30.9163883  31.4958701  71.5220639  20.3911670
  32.1994552  71.7270642  21.0069325  30.7721350  72.0897401  20.6560753
  32.3256512  67.2730501  26.5113940  32.2691713  67.7299052  25.6721572
  32.8784854  66.5121185  26.3336782  36.1361318  63.0620233  27.3364059
  35.8798252  62.6616868  28.1672267  35.5114186  63.7764026  27.2114198
  23.5168864  77.2353033  31.5953537  23.4001248  78.1798465  31.4932227
  22.6961311  76.9326594  31.9839336  33.4045399  71.9603169  22.4410130
  34.2391003  71.5284367  22.2587604  33.2429742  71.7885182  23.3687024
  33.0591291  68.4635282  23.8066469  33.0040095  68.2979553  22.8654913
  32.4337346  69.1711315  23.9628659  17.8483806  63.7003346  37.6327891
  18.4942670  63.1902300  38.1215116  17.6400957  64.4372028  38.2071316
  30.3737198  70.7684194  43.1320032  31.2428358  70.9424846  42.7706667
  29.8943950  71.5878611  43.0095761  26.3687416  57.9643391  23.3851787
  26.3566086  58.9085231  23.5420058  27.2610838  57.7813536  23.0911248
  24.5423378  77.8881295  34.8109465  25.4450625  77.9204905  35.1275960
  24.3160748  76.9581746  34.8255801  26.2976980  76.6412281  31.4719544
  25.3472611  76.6414143  31.3583916  26.6009467  75.8945016  30.9555579
  30.1839536  54.5586168  27.6397724  29.4171932  54.0044654  27.7854406
  30.5950241  54.6308036  28.5011876  22.1881297  60.8470963  41.7302905
  23.0512759  60.4907768  41.9406230  21.6146708  60.5084858  42.4178310
  42.0329674  82.4772820  32.5365306  42.6708084  82.3579567  31.8328646
  41.9150517  83.4253664  32.5953258  38.8419380  82.4300248  32.4726831
  38.5037892  82.3141313  31.5847366  39.7109148  82.0291413  32.4527837
  34.7006196  84.2835724  28.4623722  34.1371061  84.1925661  27.6940010
  34.5858591  83.4635629  28.9426214  39.3239163  83.5835100  38.4313037
  39.3127804  83.1887898  37.5593540  39.4859803  82.8501172  39.0246808
  32.2470628  85.7786916  31.3007942  33.0391920  85.4377740  30.8854242
  32.4867278  85.8881891  32.2210096  40.2805755  87.9506692  23.7738187
  39.6293734  88.5360772  23.3872201  41.0750117  88.4812887  23.8333224
  34.2061382  85.0395829  24.1725321  34.9792258  84.4924816  24.0338197
  34.5586781  85.9040078  24.3839783  36.0446424  86.3672211  37.3792221
  35.7536290  87.2717842  37.2638887  36.6803409  86.4088739  38.0936290
  36.9702631  83.7449060  33.9693580  37.5666203  83.5205082  33.2550543
  37.0277603  83.0033805  34.5719028  36.5427660  81.1988495  21.8043771
  36.7953180  80.6770016  21.0427234  35.6052219  81.0354641  21.9070455
  41.5870942  80.2024274  29.6118514  42.3734032  79.7843697  29.2608931
  41.8509647  81.1070366  29.7800163  41.7581020  85.6397124  24.3107171
  41.1226853  85.7131750  25.0228076  41.4278426  86.2290723  23.6326250
  46.9879370  80.1399507  30.5151493  47.7204541  79.5698724  30.7489322
  46.2318725  79.7521107  30.9557998  36.2623948  83.1016601  24.0068146
  36.1460206  82.4261505  24.6749230  36.3726208  82.6148975  23.1900299
  38.6055489  82.5626748  27.7114835  38.2413696  82.0357369  28.4227757
  39.4622605  82.1725217  27.5381321  44.5104790  73.8521081  34.9746101
  44.1788115  74.7216492  34.7507316  43.9150403  73.5357365  35.6540132
  38.2460976  77.5916648  22.7076184  38.4135379  78.4596884  23.0746655
  38.0558145  77.7543930  21.7837473  41.0036309  86.0533627  34.3742014
  40.7037033  86.9558666  34.2657821  40.6587369  85.7865810  35.2263167
  34.4548791  82.5047424  30.4078719  33.5299287  82.3723638  30.6156410
  34.7033204  83.2841643  30.9048661  44.4033453  78.5716167  32.0539452
  43.4950331  78.5031575  31.7598213  44.3521049  79.0488112  32.8821277
  38.2250197  80.0474305  23.6922851  38.1049822  80.4931356  24.5308331
  37.5302785  80.3959623  23.1336389  31.8157602  82.1480697  31.2422508
  31.9449983  82.4015176  32.1561919  31.1355053  82.7408405  30.9227163
  38.4774319  79.9905813  39.9974349  37.7007653  80.5499733  39.9877213
  39.1164882  80.4762596  40.5189219  46.2695100  76.7732605  33.8317325
  45.6269480  77.0665139  33.1857120  45.7650028  76.6585526  34.6370522
  43.9235263  80.5195779  24.5203185  44.8353119  80.7523165  24.3450882
  43.4144910  81.1032823  23.9578263  36.7320691  82.7991266  39.5592316
  37.4735376  83.3376310  39.2827139  36.0257677  83.4257555  39.7163868
  42.2076031  84.9420406  38.1564477  42.6159387  84.5002817  37.4119110
  41.4853292  84.3673034  38.4098670  38.5607101  79.8793013  35.5298034
  39.4068296  80.3032427  35.6732683  38.5005739  79.2226638  36.2236597
  42.5304846  85.5021597  31.9116766  41.9013708  85.6667311  31.2092834
  42.1430508  85.9163207  32.6827730  46.4094077  86.4376035  29.2661130
  45.7245116  86.8174936  28.7158163  46.4937927  87.0471362  29.9993078
  41.7106546  77.5397382  37.1879208  41.4667478  78.2939442  36.6513484
  41.9866477  77.9182729  38.0226455  43.6645009  84.0835994  35.8656473
  43.8761904  84.7267754  35.1890855  43.6174757  83.2498311  35.3978404
  41.2671238  76.6953815  32.7693046  40.4055717  76.9935068  33.0609783
  41.2933673  76.9124213  31.8374078  38.0832807  85.2396005  29.1766851
  38.5471153  85.5183708  28.3871474  37.8189606  84.3379450  28.9939942
  34.9756889  84.7867487  32.1146615  35.5458246  85.2154755  31.4764099
  35.5665000  84.5050071  32.8130800  37.0201694  81.3619158  25.9856416
  37.7225737  81.8140201  26.4530343  36.6882322  80.7202976  26.6136310
  35.4682055  79.9530914  40.3607626  34.8380716  80.6347195  40.5943023
  35.3618143  79.8413996  39.4160764  30.7627027  79.6202710  31.2873550
  29.9726081  79.8760239  30.8113661  31.2538275  80.4351048  31.3925591
  44.7790837  86.9607949  34.0378831  45.6008281  86.5588137  33.7561512
  44.7753240  86.8576184  34.9894947  32.7141773  79.9847289  28.2457027
  31.9172936  80.0965984  28.7640522  32.4867365  80.3233942  27.3797917
  38.5447440  86.5091993  36.1939541  38.6091873  86.9712400  37.0297713
  37.8358364  85.8789358  36.3221851  29.0464730  79.8733201  33.7188541
  29.2972769  80.7580211  33.9846117  29.5824279  79.6937802  32.9463633
  52.8696830  83.3046698  30.3863802  52.1160538  82.7354096  30.2307807
  53.0044371  83.2709362  31.3334437  31.7124856  85.6935538  26.6346447
  32.2249376  86.4878788  26.7852011  32.3647568  84.9961829  26.5680048
  32.8072097  80.8565926  38.5931363  32.6925612  79.9551184  38.8938462
  31.9516615  81.1029623  38.2416180  39.8863935  88.7983667  40.1918864
  39.4427789  88.0120045  39.8739768  40.5481148  88.9862817  39.5262755
  41.9845173  89.0786467  38.2200265  41.9663648  89.8995348  37.7280534
  42.9065093  88.9540542  38.4450406  38.4418227  86.5930596  39.0623773
  38.9746564  85.8318884  38.8323081  37.9132308  86.3004248  39.8047928
  41.6087922  71.6990662  34.5917415  41.2652191  72.5892304  34.5156526
  41.9766884  71.5092320  33.7287000  29.6773772  84.0224192  27.4106017
  30.5148994  84.4321201  27.1939725  29.8552040  83.0823635  27.3806211
  41.5738204  81.6899273  23.0989850  41.0584828  82.4603878  23.3378238
  41.3015513  81.0164409  23.7222912  39.1585315  76.5348974  28.1575089
  38.3026912  76.1455824  27.9780727  39.5712267  76.6140935  27.2974874
  40.6884462  74.0695317  32.5566648  40.1849258  74.0325452  31.7434454
  40.9815069  74.9788060  32.6163305  36.9327348  74.1534047  31.5632830
  37.7980345  73.9576856  31.2038720  37.0004857  73.9244399  32.4902187
  46.5472479  84.4431628  25.0343024  45.7701921  84.1042787  24.5898186
  47.2263960  84.4484251  24.3597989  41.3624508  79.5626365  24.9249631
  41.0574643  79.8772514  25.7759775  42.3154950  79.6407785  24.9676964
  39.8070939  85.7216589  26.5742585  39.2792301  84.9869348  26.2615823
  39.3058442  86.4991265  26.3282554  44.7863785  83.9165609  31.6909632
  44.1287460  84.6064870  31.7789760  45.5904185  84.3062041  32.0343618
  34.5389667  76.3836255  28.9349197  35.1133419  76.1611436  28.2022390
  35.1260649  76.4524949  29.6877798  43.5969244  82.2709982  29.7413573
  44.1101126  82.9039974  30.2435283  44.2470468  81.6711177  29.3756933
  34.8659254  78.4140716  22.9545082  34.0296566  78.7515402  23.2754357
  34.7264024  78.2789696  22.0172219  36.8412335  73.2577504  27.6624266
  36.1876747  72.9426521  27.0380881  36.7992809  72.6353244  28.3884089
  37.9523540  83.5396799  19.5777558  37.0450601  83.3086052  19.7768707
  38.4494572  82.7434418  19.7651540  40.0750075  79.7459437  31.9871914
  39.1572637  79.9674384  31.8293602  40.4910219  79.8205748  31.1283621
  40.8585123  81.1450853  27.1174594  41.6056942  81.6572250  26.8081716
  41.1276712  80.8234906  27.9778988  39.1311773  83.6409394  24.1001549
  38.2222992  83.3568427  24.1974018  39.1606857  84.0608472  23.2404855
  44.3631040  87.2515983  27.8692716  43.9093368  86.4106893  27.9257907
  43.7325007  87.8877382  28.2067496  43.3063960  78.1807969  29.0993384
  42.5686717  77.6685355  29.4303626  43.5590734  77.7408351  28.2876660
  42.8063980  89.0892480  28.8042534  43.0986954  89.6497537  28.0854900
  43.3162600  89.3821041  29.5595693  43.4075587  70.9584221  29.6935153
  43.7134464  70.0981585  29.4061068  44.1328192  71.5501841  29.4934147
  29.6999943  81.3614908  28.0816751  29.5024343  80.7684269  27.3567817
  29.1446607  81.0567118  28.7992689  37.6796667  81.2538014  30.2011344
  37.7345277  80.3011851  30.1253820  36.8687869  81.4097453  30.6852642
  38.8287861  85.1818137  21.4389627  38.3907291  84.4653996  20.9795264
  39.5698302  85.4094252  20.8774718  35.6189027  79.8715074  27.9601723
  34.8056893  80.1709245  28.3666915  36.1148021  79.4770763  28.6776205
  41.2163239  80.3356899  36.7916617  41.5712626  80.5628372  37.6511082
  41.8635370  80.6675275  36.1693872  46.9460976  83.4575334  27.4965946
  46.8078874  83.6476930  26.5687135  46.5897194  84.2194717  27.9533997
  35.1103102  77.4433430  33.5762958  35.7502481  77.3022189  32.8785921
  34.2780632  77.1567943  33.2001560  46.9730355  85.5251861  32.5077217
  47.4066862  85.4327150  33.3560271  47.6861936  85.5009362  31.8697233
  35.8863406  86.7435860  29.6897950  36.6804004  86.2486180  29.4880525
  35.1755098  86.2153723  29.3265656  32.1946169  80.8878942  25.7657703
  31.2643757  80.8263397  25.9827665  32.2903641  80.3654894  24.9694344
  32.1131718  77.4133755  28.3535944  32.3738536  78.3279088  28.2445105
  32.9348891  76.9458197  28.5032557  33.5856644  78.8271512  35.5234769
  34.2579697  78.6188874  34.8747418  32.7586430  78.6293598  35.0840001
  47.8345905  85.5675562  35.0410103  48.0281795  86.4721373  35.2869377
  47.7346523  85.1082981  35.8748688  39.4882216  75.4533453  37.5400430
  38.8410131  76.1523402  37.4464906  40.2583231  75.8869597  37.9076678
  42.8961013  85.7182305  40.6150983  42.7446520  85.4892856  39.6981067
  42.8865693  86.6752906  40.6282328  39.6646350  83.2914218  35.5997250
  40.5938410  83.4425377  35.4266217  39.2437380  83.3798238  34.7445896
  38.4634682  87.3164882  33.3695787  38.3245767  86.9483666  34.2421725
  37.6749278  87.8312521  33.1979745  40.0139897  86.6946485  30.7584625
  39.6789729  86.6547255  31.6542275  39.5143843  86.0291201  30.2855035
  33.9884141  82.1014115  36.2837206  33.8503939  81.3694354  36.8848745
  34.8989064  82.0123015  36.0021394  42.9499088  84.0402519  21.0321685
  42.3328259  83.3149347  20.9354737  42.4815577  84.8011879  20.6888759
  36.6166441  81.8134074  35.7720886  37.3266060  81.1727266  35.7307504
  36.5735750  82.0646969  36.6947067  44.6053220  88.7501427  38.6927465
  44.5465766  88.0660647  38.0258048  45.0072739  89.4920417  38.2408091
  35.3295375  78.7999292  37.5916525  34.7932732  78.3490030  38.2438122
  34.7412084  78.9345201  36.8486990  34.7397634  78.2587943  20.1542989
  33.8627101  78.1376744  19.7905236  35.2155387  77.4674022  19.9021878
  44.6070627  86.7141011  36.9241445  43.7197406  86.3766933  37.0467844
  45.1769178  85.9824043  37.1610210  26.2599775  83.0465103  30.2484496
  26.9470814  82.7326833  29.6605511  26.1047903  83.9506468  29.9751748
  31.0634497  77.9355300  34.6769520  30.9792685  77.3280969  33.9419930
  30.2417203  78.4264318  34.6779016  41.2358211  76.4208863  30.0439715
  41.7326910  75.6678825  29.7240785  40.4645192  76.4573180  29.4782924
  49.0887968  82.1249229  31.6858006  49.0777844  83.0073944  31.3151939
  48.2205347  81.7720779  31.4912543  42.3187991  85.1780550  27.6178138
  41.3844270  85.2982013  27.4482843  42.4964660  84.2753017  27.3538148
  37.8193179  78.5626246  29.7711399  37.4490967  78.0097286  30.4592305
  38.3152272  77.9584380  29.2186399  45.7060543  81.0197870  28.1528172
  46.1720995  81.8525861  28.0788475  46.1568043  80.5542851  28.8573431
  43.7736774  87.3641691  25.1514324  44.0496618  87.2498285  26.0608198
  42.9041272  86.9659176  25.1126497  43.6777205  73.3878457  32.1919074
  42.7640285  73.6182683  32.3601281  44.1070307  73.4716901  33.0433106
  43.4483664  81.5768349  34.6918968  42.7955114  81.8244256  34.0371420
  43.8264044  80.7632487  34.3581445  39.4971237  82.3188160  41.1785005
  38.8211874  82.2182289  41.8487380  40.3198871  82.1627373  41.6421002
  25.8367751  81.1265696  32.5201963  25.8751850  80.5929287  33.3139081
  25.3308043  80.6000902  31.9012940  33.2158513  75.9730237  36.0164506
  33.2799839  76.8345068  35.6041903  33.1525633  75.3604239  35.2836864
  32.6910785  78.0453369  39.6637540  33.3182824  77.6630447  40.2775064
  31.8338704  77.8267571  40.0293232  43.0904894  88.4516345  41.2691275
  43.6344798  89.0646303  40.7746230  42.5091739  89.0095923  41.7858288
  29.4676328  79.8529799  25.5955895  29.7629769  78.9440477  25.5422948
  28.5664364  79.8317538  25.2736897  32.9970575  77.9285795  31.5783443
  32.2757161  78.5421763  31.4390917  33.7863831  78.4643560  31.5000089
  43.4397315  89.3746083  34.0285853  42.4927651  89.2551434  33.9564180
  43.7880088  88.4868581  34.1112114  35.7996889  75.2640222  37.8524095
  36.3231291  75.5102518  38.6150404  35.5809222  76.0960256  37.4327232
  31.1964170  77.5343896  25.7195220  30.8676876  76.6541275  25.5370326
  31.5503541  77.4791565  26.6071609  40.4443749  89.1698799  30.2290205
  40.2968711  88.2415506  30.4097775  41.2697242  89.1918890  29.7447281
  34.3105993  77.8216866  26.0870697  34.6502065  78.3502787  25.3649306
  34.7578113  78.1597272  26.8629264  44.0477871  89.9927358  31.3155078
  44.9724418  89.7870219  31.1779529  43.8793174  89.7443759  32.2244420
  37.0049434  76.2053917  35.5373765  36.6646254  75.4061730  35.9394445
  36.2988440  76.5055628  34.9650599  37.6565906  73.2903229  33.9901089
  38.4791975  72.8163707  33.8679979  37.9003969  74.0693713  34.4899775
  36.2974140  76.3191488  24.2863990  37.0182503  76.6972740  23.7827707
  35.6739444  77.0380364  24.3898968  40.4405263  77.0236637  25.2222323
  40.6568877  77.9061274  24.9211151  39.9599330  76.6322850  24.4927965
  35.1804484  79.9822350  31.7993067  35.0349065  80.2962653  32.6917349
  34.7029688  80.6007250  31.2463966  37.0400867  76.9724898  31.8473957
  37.0262436  76.0765991  31.5106255  37.7573295  76.9795562  32.4812243
  38.8926998  77.4062238  33.8927084  38.6344776  78.3279309  33.8911415
  38.3612038  77.0092673  34.5827548  29.6550147  82.5227694  34.7380728
  29.1103615  83.2987502  34.8701003  30.5329496  82.8698499  34.5799850
  36.4437763  75.8539278  27.1161527  36.5653674  74.9255924  27.3152414
  36.1539806  75.8677964  26.2039842  39.3128954  73.5394188  30.2528247
  39.3350650  73.6033522  29.2980226  39.7297013  72.6998697  30.4468753
  49.6912578  83.2749448  28.2907469  50.1343724  82.5256773  27.8926593
  48.8139088  83.2659584  27.9081201  44.8248359  89.8279790  23.7714068
  45.5199264  90.4486482  23.9901382  45.1671509  88.9775141  24.0466446
  30.4416168  81.6497590  37.6310885  29.6997904  81.7980226  38.2175516
  30.1208913  81.9105856  36.7677635  46.7239782  87.2779495  25.3001399
  47.2491106  87.6166768  24.5750719  46.6362135  86.3426510  25.1164533
  35.9278843  77.3671275  41.3251459  35.9766998  78.2433398  40.9429229
  36.4701357  76.8248668  40.7523103  46.4133688  87.9112399  40.6052597
  45.6229232  87.8936538  40.0657096  46.1767043  88.4500692  41.3601633
  46.5331563  84.7604865  37.9185325  46.5829568  84.5954872  38.8600848
  46.4245487  83.8932124  37.5283206  43.8235326  80.7435793  39.2344632
  44.7245189  80.6042258  38.9428630  43.8983300  80.9090248  40.1742809
  38.1578131  78.1202648  38.0797818  37.2881441  78.4136214  37.8080407
  38.3937612  78.7043093  38.8005082  48.0349760  87.1801807  38.1627347
  47.7434569  87.5431787  38.9990808  47.4221892  86.4668815  37.9840679
  49.2345443  84.7454686  30.6829917  50.0692334  85.1844490  30.8467477
  49.3704571  84.2693340  29.8638163  46.2836949  82.3034421  36.6307405
  46.7591070  82.4962068  35.8226256  45.3602514  82.3593607  36.3850788
  33.1720455  83.4658588  26.2138483  32.9266497  82.5620918  26.4118693
  33.3416370  83.4675739  25.2717961  40.8617165  74.3382265  35.5963238
  41.3799109  75.0743292  35.2709727  40.5072298  74.6446258  36.4309998
  32.4416103  79.1986946  23.7124644  31.7485348  79.2731301  23.0564680
  32.1967855  78.4347290  24.2346161  41.1129759  70.7582547  31.1164135
  41.3931513  70.0905736  31.7424562  41.8980366  70.9511643  30.6038799
  44.9838618  79.1800181  34.8635710  45.9356040  79.2798279  34.8847934
  44.8142068  78.3878450  35.3733795  43.0052997  76.2655764  35.0495111
  42.4102929  76.5460777  34.3541600  42.7202694  76.7549665  35.8211852
  44.7648504  89.5344562  20.7701691  44.6862136  89.2004425  21.6637449
  45.5858171  90.0266330  20.7693164  47.4626695  82.4006301  33.9778010
  47.4303015  81.4622302  34.1637694  48.0727319  82.4790338  33.2443835
  39.3010026  81.2702354  20.0205214  40.2469131  81.1408562  20.0893632
  38.9224271  80.5317016  20.4974642  47.6121184  79.1917344  34.0236293
  47.0960232  78.4075801  33.8366222  48.4961132  78.8636061  34.1882812
  45.2731911  72.9358360  29.9832106  45.0756732  72.6273448  30.8675438
  45.8831616  73.6619999  30.1130036  53.2803245  83.4622308  33.1184047
  54.0106634  83.2007596  33.6791750  52.6710191  82.7251030  33.1586115
  51.3618542  81.6030170  33.7158498  50.6351706  81.4686135  33.1074989
  50.9465829  81.9106999  34.5215216  39.1848719  85.3220100  41.4805871
  40.1051728  85.4998699  41.6745917  39.1498302  84.3776145  41.3285570
  37.4852943  79.1952330  19.9560099  36.5784399  78.8985443  20.0322813
  37.7628924  78.8982148  19.0894385  28.4030884  80.5158694  30.4059145
  28.0833668  79.6624002  30.1133519  27.8564312  80.7307272  31.1617113
  32.1810791  83.2321135  34.1228652  32.3996801  84.1638243  34.1416686
  32.5936565  82.8729109  34.9083456  39.1015009  73.7389220  26.1104340
  38.2915737  73.3936305  26.4859586  39.7899426  73.4296764  26.6991952
  41.0305557  72.8167267  27.7328637  41.5836596  73.2362720  28.3918660
  41.2675644  71.8903015  27.7751593  37.0538657  78.8054340  43.5131401
  36.9535383  79.7548697  43.4443492  36.8360199  78.4772579  42.6407471
  36.2551728  76.0539266  20.0972078  37.1170892  76.3794164  20.3567896
  36.4402072  75.2670761  19.5845144  28.2719144  84.1361605  32.3752267
  27.5782615  83.7215558  31.8622221  29.0192135  84.1782142  31.7785686
  44.4084364  74.9267792  27.2407301  43.8283033  75.5852596  26.8585354
  44.1420297  74.1045137  26.8294719  42.8587931  74.3272850  29.4428622
  43.3587709  74.4389384  28.6342940  43.5023539  74.0233903  30.0829430
  36.9169927  82.2351479  42.3296463  36.4337008  83.0351839  42.5360352
  37.0030866  82.2459424  41.3763907  30.1855886  84.0679859  30.2518282
  30.1626574  84.1667546  29.3000165  30.4956523  84.9145010  30.5735448
  32.8443264  86.1256014  34.3664896  33.7986518  86.0939956  34.2994828
  32.6455788  85.6646638  35.1815122  33.4342646  84.6957130  36.9335694
  34.2535535  85.1901209  36.9570531  33.7079454  83.7789098  36.9053262
  43.1909242  77.0867882  26.2963650  42.3035097  77.3717533  26.0783844
  43.6063232  76.9261646  25.4490926  46.5423779  77.1114403  30.0117989
  47.3184169  77.6010856  30.2842606  45.8171913  77.5372458  30.4689858
  48.9796337  77.8242023  31.0691929  49.5740828  77.5837759  30.3585238
  49.0522921  77.1049153  31.6965466  42.3352456  86.8512557  20.3911670
  43.0388306  87.0562560  21.0069325  41.6115105  87.4189319  20.6560753
  43.1650266  82.6022418  26.5113940  43.1085468  83.0590970  25.6721572
  43.7178609  81.8413103  26.3336782  46.9755072  78.3912150  27.3364059
  46.7192006  77.9908786  28.1672267  46.3507940  79.1055944  27.2114198
  51.2867410  81.1308223  29.8435351  50.7266968  81.2001413  30.6166913
  50.6810913  80.9549208  29.1234847  44.2439153  87.2895086  22.4410130
  45.0784757  86.8576285  22.2587604  44.0823496  87.1177100  23.3687024
  43.8985046  83.7927200  23.8066469  43.8433849  83.6271471  22.8654913
  43.2731101  84.5003232  23.9628659  28.6877560  79.0295264  37.6327891
  29.3336424  78.5194218  38.1215116  28.4794712  79.7663946  38.2071316
  41.2130953  86.0976111  43.1320032  42.0822112  86.2716764  42.7706667
  40.7337704  86.9170528  43.0095761  37.2081171  73.2935309  23.3851787
  37.1959841  74.2377148  23.5420058  38.1004593  73.1105454  23.0911248
  33.0275051  76.1762881  41.7302905  33.8906513  75.8199686  41.9406230
  32.4540462  75.8376776  42.4178310  57.8273124  95.4691424  30.5151493
  58.5598296  94.8990641  30.7489322  57.0712480  95.0813025  30.9557998
  55.3498544  89.1812999  34.9746101  55.0181869  90.0508409  34.7507316
  54.7544158  88.8649283  35.6540132  55.2427208  93.9008085  32.0539452
  54.3344085  93.8323493  31.7598213  55.1914803  94.3780030  32.8821277
  57.1088854  92.1024523  33.8317325  56.4663234  92.3957056  33.1857120
  56.6043783  91.9877443  34.6370522  52.5500301  92.8689299  37.1879208
  52.3061233  93.6231360  36.6513484  52.8260231  93.2474647  38.0226455
  52.1064993  92.0245732  32.7693046  51.2449472  92.3226986  33.0609783
  52.1327427  92.2416131  31.8374078  45.5856552  89.5843598  42.7232877
  45.1923498  89.0309796  43.3980521  46.4022693  89.8954176  43.1139394
  48.5024513  91.0001477  40.3153133  49.2434227  91.6008630  40.2357596
  48.7342436  90.2579115  39.7571176  52.4481676  87.0282580  34.5917415
  52.1045946  87.9184221  34.5156526  52.8160639  86.8384237  33.7287000
  49.9979070  91.8640892  28.1575089  49.1420666  91.4747742  27.9780727
  50.4106022  91.9432852  27.2974874  51.5278217  89.3987235  32.5566648
  51.0243012  89.3617370  31.7434454  51.8208823  90.3079978  32.6163305
  47.7721102  89.4825965  31.5632830  48.6374099  89.2868773  31.2038720
  47.8398611  89.2536316  32.4902187  47.6806089  88.5869421  27.6624266
  47.0270502  88.2718439  27.0380881  47.6386563  87.9645162  28.3884089
  54.1457715  93.5099887  29.0993384  53.4080471  92.9977273  29.4303626
  54.3984488  93.0700268  28.2876660  54.2469342  86.2876139  29.6935153
  54.5528219  85.4273502  29.4061068  54.9721947  86.8793759  29.4934147
  50.3275970  90.7825370  37.5400430  49.6803885  91.4815320  37.4464906
  51.0976985  91.2161514  37.9076678  52.0751965  91.7500781  30.0439715
  52.5720665  90.9970743  29.7240785  51.3038947  91.7865097  29.4782924
  54.5170960  88.7170374  32.1919074  53.6034040  88.9474601  32.3601281
  54.9464061  88.8008818  33.0433106  46.6390643  90.5932139  37.8524095
  47.1625045  90.8394436  38.6150404  46.4202977  91.4252174  37.4327232
  47.8443188  91.5345834  35.5373765  47.5040009  90.7353647  35.9394445
  47.1382195  91.8347545  34.9650599  48.4959660  88.6195147  33.9901089
  49.3185729  88.1455625  33.8679979  48.7397724  89.3985631  34.4899775
  51.2799017  92.3528554  25.2222323  51.4962632  93.2353192  24.9211151
  50.7993085  91.9614768  24.4927965  47.2831518  91.1831196  27.1161527
  47.4047429  90.2547842  27.3152414  46.9933560  91.1969882  26.2039842
  50.1522708  88.8686106  30.2528247  50.1744405  88.9325439  29.2980226
  50.5690767  88.0290615  30.4468753  51.7010920  89.6674182  35.5963238
  52.2192863  90.4035209  35.2709727  51.3466052  89.9738176  36.4309998
  51.9523514  86.0874465  31.1164135  52.2325267  85.4197654  31.7424562
  52.7374121  86.2803561  30.6038799  55.8232372  94.5092099  34.8635710
  56.7749795  94.6090197  34.8847934  55.6535822  93.7170368  35.3733795
  53.8446751  91.5947682  35.0495111  53.2496684  91.8752695  34.3541600
  53.5596448  92.0841583  35.8211852  58.4514938  94.5209262  34.0236293
  57.9353987  93.7367719  33.8366222  59.3354887  94.1927979  34.1882812
  56.1125665  88.2650278  29.9832106  55.9150486  87.9565366  30.8675438
  56.7225371  88.9911917  30.1130036  49.9408764  89.0681138  26.1104340
  49.1309492  88.7228223  26.4859586  50.6293180  88.7588681  26.6991952
  51.8699312  88.1459185  27.7328637  52.4230350  88.5654638  28.3918660
  52.1069398  87.2194933  27.7751593  47.0945482  91.3831183  20.0972078
  47.9564646  91.7086082  20.3567896  47.2795827  90.5962679  19.5845144
  55.2478119  90.2559710  27.2407301  54.6676788  90.9144514  26.8585354
  54.9814052  89.4337054  26.8294719  53.6981685  89.6564767  29.4428622
  54.1981464  89.7681302  28.6342940  54.3417293  89.3525820  30.0829430
  54.0302997  92.4159800  26.2963650  53.1428852  92.7009451  26.0783844
  54.4456986  92.2553563  25.4490926  57.3817533  92.4406321  30.0117989
  58.1577923  92.9302773  30.2842606  56.6565667  92.8664375  30.4689858
  59.8190092  93.1533940  31.0691929  60.4134583  92.9129676  30.3585238
  59.8916675  92.4341071  31.6965466  57.8148827  93.7204068  27.3364059
  57.5585761  93.3200704  28.1672267  57.1901695  94.4347862  27.2114198
  48.0474925  88.6227226  23.3851787  48.0353595  89.5669066  23.5420058
  48.9398347  88.4397372  23.0911248  51.8627045  85.2170003  27.6397724
  51.0959441  84.6628490  27.7854406  52.2737750  85.2891872  28.5011876
   6.8057901  14.6021469  25.1558343   6.7946542  14.2074267  24.2838847
   6.9678540  13.8687542  25.7492115   3.5265162  17.3858581  24.1037527
   3.2355028  18.2904212  23.9884193   4.1622146  17.4275109  24.8181597
   8.4855047  17.0719996  21.0987321   8.1855770  17.9745035  20.9903128
   8.1406107  16.8052180  21.9508474   5.9593057  11.0092182  26.7219655
   5.1826391  11.5686102  26.7122520   6.5983620  11.4948965  27.2434526
   4.2139429  13.8177636  26.2837622   4.9554113  14.3562680  26.0072446
   3.5076415  14.4443924  26.4409174   9.6894769  15.9606776  24.8809784
  10.0978125  15.5189187  24.1364416   8.9672030  15.3859404  25.1343977
  11.1463747  15.1022364  22.5901780  11.3580642  15.7454123  21.9136161
  11.0993495  14.2684680  22.1223710  12.2609575  17.9794319  20.7624137
  13.0827019  17.5774506  20.4806819  12.2571978  17.8762553  21.7140253
   6.0266178  17.5278362  22.9184848   6.0910611  17.9898769  23.7543020
   5.3177102  16.8975727  23.0467158   7.3682672  19.8170036  26.9164170
   6.9246526  19.0306415  26.5985075   8.0299886  20.0049187  26.2508061
   9.4663910  20.0972836  24.9445572   9.4482386  20.9181717  24.4525841
  10.3883830  19.9726911  25.1695713   5.9236965  17.6116966  25.7869080
   6.4565301  16.8505254  25.5568388   5.3951046  17.3190617  26.5293234
  14.4549093  16.5438231  19.2322524  14.8885600  16.4513520  20.0805578
  15.1680674  16.5195731  18.5942540   8.1876988  20.1440325  20.7655624
   8.2414010  20.7131261  21.5333340   7.3191769  20.3142210  20.4009662
  15.3164643  16.5861932  21.7655409  15.5100533  17.4907742  22.0114684
  15.2165261  16.1269351  22.5993994  10.3779751  16.7368674  27.3396290
  10.2265258  16.5079226  26.4226373  10.3684431  17.6939276  27.3527635
  12.0871958  19.7687797  25.4172772  12.0284504  19.0847017  24.7503355
  12.4891476  20.5106787  24.9653398  12.0889365  17.7327381  23.6486751
  11.2016144  17.3953303  23.7713150  12.6587916  17.0010412  23.8855517
   5.6190519  22.3928833  20.6147995   5.5460690  23.1983805  21.1267299
   5.1767912  22.5920799  19.7896016   8.0789202  22.2915667  22.7706153
   8.7917174  22.9263132  22.6982055   7.5879231  22.3879533  21.9546155
   3.1301116  20.0410111  23.5911724   3.8310575  20.6746594  23.7441118
   2.6596231  20.3824842  22.8307363   6.9789975  13.3374529  27.9030311
   6.3030612  13.2368659  28.5732687   7.8017609  13.1813743  28.3666309
   5.7212758  24.6441457  22.1387927   6.2731066  24.8073078  22.9037013
   6.0618951  25.2345894  21.4667952  10.5723632  19.4702714  27.9936582
  11.1163536  20.0832672  27.4991537   9.9910477  20.0282293  28.5103595
   8.8581145  22.5923432  19.1251610   8.7332284  21.7913172  18.6162555
   9.5160236  23.0869626  18.6365580  10.9216053  20.3932452  20.7531160
   9.9746389  20.2737803  20.6809486  11.2698826  19.5054950  20.8357421
  11.5296608  21.0113727  18.0400385  12.4543156  20.8056589  17.9024836
  11.3611912  20.7630128  18.9489726   5.8678569  22.2099938  24.1536582
   6.1765695  21.9649085  25.0259281   6.6654051  22.4146577  23.6655452
  13.8952426  18.9298768  27.3297903  13.1047970  18.9122907  26.7902403
  13.6585781  19.4687062  28.0846940  14.0150301  15.7791235  24.6430632
  14.0648306  15.6141242  25.5846154  13.9064225  14.9118494  24.2528512
  11.3054064  11.7622163  25.9589938  12.2063926  11.6228627  25.6673936
  11.3802038  11.9276617  26.8988116  15.5168498  18.1988176  24.8872653
  15.2253306  18.5618157  25.7236114  14.9040629  17.4855184  24.7085985
  13.7655686  13.3220791  23.3552711  14.2409808  13.5148437  22.5471563
  12.8421252  13.3779977  23.1096095  20.7621983  14.4808677  19.8429353
  21.4925371  14.2193966  20.4037057  20.1528928  13.7437399  19.8831421
  18.8437280  12.6216540  20.4403804  18.1170444  12.4872505  19.8320296
  18.4284567  12.9293369  21.2460522   6.6667457  16.3406470  28.2051177
   7.5870466  16.5185069  28.3991224   6.6317040  15.3962515  28.0530877
   4.3988664  13.2537849  29.0541769   3.9155746  14.0538209  29.2605658
   4.4849603  13.2645794  28.1009213   8.6949690  17.1162481  29.8565338
   9.5640850  17.2903133  29.4951973   8.2156442  17.9356898  29.7341068
   2.8635871  24.2359582  21.5354772   3.7663117  24.2683192  21.8521267
   2.6373241  23.3060033  21.5501108  20.3542166  28.8251107  19.2610613
  20.9920576  28.7057854  18.5573953  20.2363009  29.7731951  19.3198565
  17.1631872  28.7778535  19.1972138  16.8250384  28.6619600  18.3092673
  18.0321641  28.3769700  19.1773144  13.0218688  30.6314011  15.1869029
  12.4583553  30.5403948  14.4185316  12.9071083  29.8113916  15.6671521
  17.6451655  29.9313387  25.1558343  17.6340296  29.5366185  24.2838847
  17.8072295  29.1979459  25.7492115  10.5683120  32.1265203  18.0253249
  11.3604412  31.7856028  17.6099548  10.8079770  32.2360178  18.9455402
  18.6018247  34.2984979  10.4983494  17.9506227  34.8839060  10.1117507
  19.3962610  34.8291174  10.5578531  14.3658917  32.7150499  24.1037527
  14.0748783  33.6196129  23.9884193  15.0015901  32.7567026  24.8181597
  15.2915123  30.0927347  20.6938887  15.8878696  29.8683369  19.9795850
  15.3490095  29.3512093  21.2964335  19.9083435  26.5502561  16.3363821
  20.6946524  26.1321984  15.9854238  20.1722139  27.4548653  16.5045469
  20.0793512  31.9875411  11.0352478  19.4439345  32.0610038  11.7473382
  19.7490918  32.5769010  10.3571557  25.3091862  26.4877794  17.2396800
  26.0417034  25.9177011  17.4734629  24.5531218  26.0999394  17.6803305
  16.9267982  28.9105035  14.4360142  16.5626189  28.3835656  15.1473063
  17.7835097  28.5203505  14.2626627  22.8317282  20.1999368  21.6991408
  22.5000607  21.0694779  21.4752623  22.2362896  19.8835652  22.3785439
  19.3248802  32.4011914  21.0987321  19.0249525  33.3036953  20.9903128
  18.9799861  32.1344097  21.9508474  12.7761283  28.8525711  17.1324025
  11.8511780  28.7201925  17.3401717  13.0245696  29.6319930  17.6293968
  22.7245945  24.9194454  18.7784758  21.8162823  24.8509863  18.4843519
  22.6733541  25.3966399  19.6066584  10.1370094  28.4958984  17.9667814
  10.2662475  28.7493463  18.8807226   9.4567546  29.0886692  17.6472469
  14.3069582  39.1656234  14.0658289  14.2293611  40.1164060  14.1446769
  13.7031225  38.8202107  14.7233215  16.7986811  26.3384100  26.7219655
  16.0220145  26.8978020  26.7122520  17.4377374  26.8240883  27.2434526
  24.5907592  23.1210893  20.5562632  23.9481972  23.4143426  19.9102427
  24.0862520  23.0063813  21.3615829  22.2447756  26.8674066  11.2448491
  23.1565612  27.1001453  11.0696189  21.7357403  27.4511110  10.6823570
  15.0533184  29.1469553  26.2837622  15.7947868  29.6854597  26.0072446
  14.3470169  29.7735842  26.4409174  20.5288523  31.2898694  24.8809784
  20.9371879  30.8481104  24.1364416  19.8065785  30.7151321  25.1343977
  16.8819593  26.2271300  22.2543341  17.7280788  26.6510714  22.3977990
  16.8218231  25.5704925  22.9481904  20.8517338  31.8499884  18.6362073
  20.2226200  32.0145598  17.9338141  20.4643000  32.2641494  19.4073037
  24.7306570  32.7854322  15.9906437  24.0457608  33.1653224  15.4403470
  24.8150419  33.3949649  16.7238384  20.0319039  23.8875669  23.9124515
  19.7879970  24.6417729  23.3758790  20.3078969  24.2661016  24.7471762
  21.9857501  30.4314281  22.5901780  22.1974397  31.0746041  21.9136161
  21.9387250  29.5976598  22.1223710  19.5883730  23.0432102  19.4938352
  18.7268209  23.3413355  19.7855090  19.6146165  23.2602501  18.5619385
  16.4045300  31.5874292  15.9012158  16.8683645  31.8661995  15.1116780
  16.1402098  30.6857737  15.7185249  13.2969381  31.1345774  18.8391921
  13.8670738  31.5633042  18.2009406  13.8877493  30.8528359  19.5376107
  15.3414186  27.7097445  12.7101723  16.0438229  28.1618488  13.1775649
  15.0094814  27.0681264  13.3381616  13.7894547  26.3009201  27.0852932
  13.1593208  26.9825482  27.3188329  13.6830635  26.1892283  26.1406071
   9.0839520  25.9680997  18.0118857   8.2938574  26.2238526  17.5358967
   9.5750767  26.7829335  18.1170897  23.1003329  33.3086237  20.7624137
  23.9220773  32.9066424  20.4806819  23.0965732  33.2054471  21.7140253
  16.8659933  32.8570280  22.9184848  16.9304365  33.3190687  23.7543020
  16.1570857  32.2267645  23.0467158   7.3677223  26.2211488  20.4433847
   7.6185261  27.1058498  20.7091423   7.9036771  26.0416089  19.6708939
  31.1909322  29.6524985  17.1109109  30.4373031  29.0832383  16.9553113
  31.3256864  29.6187650  18.0579744  16.5807950  34.5238387  12.7863828
  16.4453625  35.3689923  13.2148676  17.1217763  34.7257665  12.0229762
  13.0675290  20.6029967  29.4478183  12.6742236  20.0496166  30.1225828
  13.8841430  20.9140546  29.8384701  10.0337348  32.0413825  13.3591753
  10.5461868  32.8357076  13.5097318  10.6860061  31.3440116  13.2925355
  11.8432233  35.1579582  15.4414507  12.0198861  36.0797546  15.2535490
  12.6389066  34.8438001  15.8708886  15.9843251  22.0187846  27.0398440
  16.7252964  22.6194999  26.9602903  16.2161174  21.2765484  26.4816483
  11.1284589  27.2044214  25.3176670  11.0138104  26.3029471  25.6183769
  10.2729107  27.4507910  24.9661486  18.2076427  35.1461954  26.9164170
  17.7640281  34.3598332  26.5985075  18.8693640  35.3341104  26.2508061
  12.9663548  36.6757755  21.4424849  13.5170973  36.5474819  20.6701843
  12.1275024  36.9752645  21.0919742  20.3057665  35.4264754  24.9445572
  20.2876140  36.2473635  24.4525841  21.2277585  35.3018829  25.1695713
  16.7630719  32.9408883  25.7869080  17.2959056  32.1797171  25.5568388
  16.2344800  32.6482535  26.5293234  19.9300414  18.0468949  21.3162722
  19.5864683  18.9370591  21.2401832  20.2979377  17.8570607  20.4532307
   7.9986265  30.3702480  14.1351324   8.8361487  30.7799488  13.9185032
   8.1764532  29.4301922  14.1051518  17.4797808  22.8827261  14.8820395
  16.6239404  22.4934112  14.7026034  17.8924760  22.9619222  14.0220181
  19.0096954  20.4173604  19.2811955  18.5061750  20.3803740  18.4679760
  19.3027561  21.3266347  19.3408612  15.2539840  20.5012334  18.2878137
  16.1192837  20.3055143  17.9284026  15.3217349  20.2722686  19.2147493
  24.8684971  30.7909915  11.7588330  24.0914414  30.4521075  11.3143492
  25.5476452  30.7962538  11.0843295  19.6837000  25.9104652  11.6494938
  19.3787135  26.2250802  12.5005081  20.6367442  25.9886072  11.6922271
  18.1283432  32.0694876  13.2987892  17.6004793  31.3347635  12.9861129
  17.6270934  32.8469552  13.0527860  23.1076278  30.2643896  18.4154938
  22.4499952  30.9543158  18.5035067  23.9116677  30.6540328  18.7588925
  21.9181737  28.6188269  16.4658880  22.4313618  29.2518261  16.9680590
  22.5682960  28.0189464  16.1002240  19.1804111  38.5972593   9.2219551
  18.5065810  38.9004290   9.8304509  19.5669933  39.4001674   8.8725008
  18.3962567  26.0937725  18.7117221  17.4785129  26.3152672  18.5538909
  18.8122711  26.1684035  17.8528928  19.1797615  27.4929140  13.8419901
  19.9269434  28.0050537  13.5327023  19.4489205  27.1713193  14.7024294
  17.4524265  29.9887681  10.8246855  16.5435485  29.7046714  10.9219325
  17.4819349  30.4086759   9.9650162  22.6843533  33.5994270  14.5938023
  22.2305860  32.7585180  14.6503213  22.0537499  34.2355669  14.9312803
  21.6276452  24.5286256  15.8238690  20.8899209  24.0163643  16.1548933
  21.8803226  24.0886638  15.0121967  21.1276472  35.4370767  15.5287841
  21.4199446  35.9975824  14.8100206  21.6375093  35.7299328  16.2841000
  21.7288080  17.3062508  16.4180459  22.0346956  16.4459872  16.1306375
  22.4540684  17.8980129  16.2179453  16.0009159  27.6016302  16.9256650
  16.0557769  26.6490138  16.8499127  15.1900361  27.7575741  17.4097949
  13.9401519  26.2193361  14.6847029  13.1269385  26.5187532  15.0912221
  14.4360513  25.8249050  15.4021512  16.0910097  36.2151118  16.6181294
  16.0486276  36.4411965  15.6889826  17.0072796  35.9814493  16.7667095
  19.5375731  26.6835186  23.5161923  19.8925119  26.9106659  24.3756389
  20.1847862  27.0153563  22.8939179  25.2673468  29.8053622  14.2211252
  25.1291367  29.9955218  13.2932442  24.9109687  30.5673004  14.6779303
  13.4315594  23.7911717  20.3008264  14.0714973  23.6500476  19.6031228
  12.5993125  23.5046230  19.9246866  25.2942848  31.8730149  19.2322524
  25.7279354  31.7805438  20.0805578  26.0074428  31.8487649  18.5942540
  14.2075898  33.0914147  16.4143257  15.0016496  32.5964467  16.2125832
  13.4967590  32.5632010  16.0510962  19.0270742  35.4732243  20.7655624
  19.0807765  36.0423179  21.5333340  18.1585524  35.6434128  20.4009662
  11.9069136  25.1749799  22.2480076  12.5792189  24.9667161  21.5992725
  11.0798922  24.9771885  21.8085308  26.1558397  31.9153849  21.7655409
  26.3494287  32.8199660  22.0114684  26.0559015  31.4561268  22.5993994
  17.8094708  21.8011740  24.2645737  17.1622623  22.5001690  24.1710213
  18.5795723  22.2347884  24.6321985  21.2173506  32.0660592  27.3396290
  21.0659012  31.8371144  26.4226373  21.2078185  33.0231193  27.3527635
  17.9858842  29.6392505  22.3242556  18.9150902  29.7903664  22.1511524
  17.5649872  29.7276526  21.4691203  16.7847174  33.6643169  20.0941094
  16.6458260  33.2961954  20.9667032  15.9961770  34.1790809  19.9225052
  17.3795326  38.7652266  11.4366630  17.5547082  38.2940309  12.2512253
  16.6928114  39.3918032  11.6647891  18.3352389  33.0424772  17.4829932
  18.0002222  33.0025542  18.3787582  17.8356335  32.3769488  17.0100342
  12.3096633  28.4492402  23.0082513  12.1716431  27.7172641  23.6094052
  13.2201557  28.3601302  22.7266701  14.9378934  28.1612361  22.4966192
  15.6478552  27.5205553  22.4552811  14.8948242  28.4125256  23.4192373
  22.9265712  35.0979715  25.4172772  22.8678259  34.4138935  24.7503355
  23.3285231  35.8398705  24.9653398  13.6507868  25.1477579  24.3161832
  13.1145225  24.6968318  24.9683428  13.0624576  25.2823488  23.5732296
  11.9456411  41.9141628  18.2106491  12.1853009  42.5460153  18.8885509
  11.1025608  41.5629668  18.4971850  22.9283120  33.0619299  23.6486751
  22.0409898  32.7245220  23.7713150  23.4981671  32.3302330  23.8855517
   4.5812267  29.3943390  16.9729803   5.2683307  29.0805120  16.3850818
   4.4260395  30.2984755  16.6997054   9.3846989  24.2833587  21.4014826
   9.3005178  23.6759256  20.6665236   8.5629695  24.7742605  21.4024323
  16.4584273  37.7220751  20.6147995  16.3854445  38.5275722  21.1267299
  16.0161666  37.9212717  19.7896016  16.2474053  36.9592521  14.1250816
  15.4641575  37.5014201  14.2189041  16.9466798  37.4766501  14.5245057
  19.5570703  22.7687150  16.7685021  20.0539402  22.0157113  16.4486092
  18.7857684  22.8051467  16.2028231  27.4100460  28.4727516  18.4103313
  27.3990336  29.3552231  18.0397246  26.5417840  28.1199067  18.2157850
  18.9182957  37.6207585  22.7706153  19.6310929  38.2555050  22.6982055
  18.4272985  37.7171451  21.9546155  20.6400484  31.5258838  14.3423445
  19.7056762  31.6460300  14.1728149  20.8177152  30.6231304  14.0783455
  16.1405672  24.9104533  16.4956706  15.7703459  24.3575574  17.1837612
  16.6364764  24.3062667  15.9431706  24.0273035  27.3676157  14.8773479
  24.4933487  28.2004148  14.8033782  24.4780535  26.9021138  15.5818738
  13.9694870  35.3702028  23.5911724  14.6704330  36.0038511  23.7441118
  13.4989985  35.7116760  22.8307363  22.0949266  33.7119978  11.8759631
  22.3709110  33.5976573  12.7853505  21.2253765  33.3137463  11.8371804
  21.9989698  19.7356744  18.9164380  21.0852777  19.9660971  19.0846587
  22.4282799  19.8195188  19.7678413  21.7696156  27.9246636  21.4164274
  21.1167606  28.1722543  20.7616727  22.1476536  27.1110774  21.0826752
  18.7303330  37.9606329  15.5192445  18.9125725  37.1427985  15.9820197
  19.5536316  38.1774021  15.0817335  19.0645495  36.8874514  12.7807493
  19.5933262  36.3766969  12.1677655  19.3273715  36.5717044  13.6453026
  17.8183729  28.6666447  27.9030311  17.1424366  28.5660576  28.5732687
  18.6411363  28.5105661  28.3666309   9.5662588  34.9038383  20.5242827
  10.1516025  34.1582071  20.6570731   9.3687427  35.2142340  21.4079491
  12.4201243  37.9389631  15.5405269  11.7511619  38.4235758  15.0569309
  12.2814113  38.1858851  16.4548648   4.1580243  27.4743984  19.2447270
   4.1964342  26.9407574  20.0384388   3.6520536  26.9479189  18.6258247
  16.5606512  39.9733374  22.1387927  17.1124820  40.1364996  22.9037013
  16.9012705  40.5637812  21.4667952  11.5371005  22.3208524  22.7409812
  11.6012332  23.1823355  22.3287210  11.4738125  21.7082526  22.0082171
  11.0123278  24.3931657  26.3882846  11.6395317  24.0108734  27.0020371
  10.1551197  24.1745859  26.7538539  21.4117386  34.7994632  27.9936582
  21.9557290  35.4124590  27.4991537  20.8304231  35.3574210  28.5103595
  19.6974899  37.9215350  19.1251610  19.5726039  37.1205090  18.6162555
  20.3553990  38.4161543  18.6365580  11.3183068  24.2764082  18.3028750
  10.5969653  24.8900050  18.1636223  12.1076323  24.8121847  18.2245396
  21.7609808  35.7224370  20.7531160  20.8140143  35.6029721  20.6809486
  22.1092581  34.8346868  20.8357421  14.1209381  21.6118509  24.5769402
  14.6443783  21.8580805  25.3395711  13.9021714  22.4438544  24.1572539
  18.7656241  35.5177086  16.9535512  18.6181203  34.5893794  17.1343082
  19.5909734  35.5397177  16.4692587  22.3690363  36.3405645  18.0400385
  23.2936910  36.1348506  17.9024836  22.2005666  36.0922046  18.9489726
  15.3261926  22.5532204  22.2619072  14.9858746  21.7540017  22.6639752
  14.6200932  22.8533915  21.6895905  15.9778398  19.6381516  20.7146395
  16.8004467  19.1641995  20.5925285  16.2216461  20.4172000  21.2145081
  13.5016977  26.3300637  18.5238374  13.3561557  26.6440940  19.4162655
  13.0242180  26.9485537  17.9709272  15.3613360  23.3203185  18.5719263
  15.3474928  22.4244278  18.2351561  16.0785788  23.3273849  19.2057549
  17.2139490  23.7540525  20.6172391  16.9557268  24.6757596  20.6156721
  16.6824531  23.3570960  21.3072855  22.1585679  36.8591312  13.3962476
  22.3322557  36.2937735  12.6436329  22.6514570  37.6592207  13.2141966
   7.9762639  28.8705981  21.4626035   7.4316107  29.6465789  21.5946309
   8.8541989  29.2176786  21.3045156  17.6341446  19.8872476  16.9773553
  17.6563143  19.9511809  16.0225533  18.0509505  19.0476984  17.1714059
  28.0125070  29.6227735  15.0152776  28.4556216  28.8735060  14.6171899
  27.1351580  29.6137872  14.6326508  23.1460852  36.1758077  10.4959374
  23.8411756  36.7964769  10.7146689  23.4884002  35.3253428  10.7711752
   8.7628661  27.9975878  24.3556192   8.0210397  28.1458513  24.9420822
   8.4421405  28.2584143  23.4922941  25.0452275  33.6257782  12.0246705
  25.5703599  33.9645055  11.2996025  24.9574627  32.6904798  11.8409840
  16.7072323  37.5391856  24.1536582  17.0159450  37.2941003  25.0259281
  17.5047805  37.7438494  23.6655452  16.7292935  39.6929766  16.3841958
  16.2897926  39.2006144  17.0774815  17.4801052  39.1502733  16.1434034
   9.2085274  35.8841306  16.3866586  10.0343294  35.5845078  16.0065230
   8.8579326  35.1148929  16.8356375  14.1766808  35.2367775  18.4564260
  13.5546817  34.5738480  18.1566488  14.8471674  35.2628907  17.7737908
   7.4093879  33.8027633  17.3455520   6.5725788  33.3749807  17.1639521
   7.3817525  33.9960076  18.2826311  14.2491335  23.7149563  28.0496766
  14.2979490  24.5911685  27.6674536  14.7913849  23.1726956  27.4768409
  13.7380314  33.7871698  11.9322721  13.8868435  34.4707162  11.2789393
  14.5446758  33.7676788  12.4472176  22.1447818  27.0914080  25.9589938
  23.0457681  26.9520545  25.6673936  22.2195793  27.2568535  26.8988116
  16.4790623  24.4680935  24.8043125  15.6093933  24.7614501  24.5325713
  16.7150104  25.0521380  25.5250388  27.5557935  31.0932974  17.4075223
  28.3904826  31.5322778  17.5712784  27.6917064  30.6171627  16.5883469
  24.6049441  28.6512708  23.3552711  25.0803562  28.8440355  22.5471563
  23.6815006  28.7071894  23.1096095  19.1829657  20.6860552  22.3208545
  19.7011601  21.4221579  21.9955034  18.8284790  20.9924545  23.1555304
  19.4342251  17.1060835  17.8409442  19.7144005  16.4384024  18.4669868
  20.2192858  17.2989930  17.3284106  17.2375720  36.2819828   9.4034468
  16.6649687  36.9010016   8.9504940  17.8108514  36.8319190   9.9374390
  23.3051110  25.5278469  21.5881017  24.2568533  25.6276566  21.6093241
  23.1354560  24.7356737  22.0979101  21.3265489  22.6134052  21.7740418
  20.7315421  22.8939064  21.0786906  21.0415186  23.1027953  22.5457159
  20.4572980  36.5656979  10.5343050  21.3903653  36.5002540  10.7375926
  20.3696193  37.4013245  10.0757583  23.0860996  35.8822849   7.4946998
  23.0074628  35.5482713   8.3882756  23.9070663  36.3744617   7.4938470
  25.7839188  28.7484588  20.7023316  25.7515508  27.8100589  20.8883000
  26.3939811  28.8268625  19.9689141  25.9333676  25.5395632  20.7481600
  25.4172725  24.7554088  20.5611528  26.8173625  25.2114348  20.9128119
  23.5944403  19.2836647  16.7077412  23.3969224  18.9751735  17.5920744
  24.2044109  20.0098286  16.8375342  31.6015737  29.8100595  19.8429353
  32.3319126  29.5485883  20.4037057  30.9922683  29.0729317  19.8831421
  29.6831035  27.9508458  20.4403804  28.9564198  27.8164423  19.8320296
  29.2678321  28.2585286  21.2460522  17.5061211  31.6698387  28.2051177
  18.4264220  31.8476986  28.3991224  17.4710794  30.7254433  28.0530877
   6.7243376  26.8636981  17.1304452   6.4046160  26.0102289  16.8378826
   6.1776804  27.0785559  17.8862419  10.5023284  29.5799422  20.8473959
  10.7209293  30.5116530  20.8661992  10.9149057  29.2207396  21.6328762
  15.3751149  25.1532628  30.2376708  15.2747876  26.1026985  30.1688799
  15.1572691  24.8250867  29.3652778   6.5931636  30.4839892  19.0997574
   5.8995107  30.0693845  18.5867528   7.3404627  30.5260429  18.5030993
  22.7296857  21.2746079  13.9652608  22.1495526  21.9330883  13.5830660
  22.4632789  20.4523424  13.5540025  21.1800423  20.6751137  16.1673928
  21.6800201  20.7867671  15.3588247  21.8236031  20.3712190  16.8074737
  15.2382419  28.5829767  29.0541769  14.7549501  29.3830127  29.2605658
  15.3243358  28.5937711  28.1009213   8.5068379  30.4158146  16.9763589
   8.4839067  30.5145834  16.0245472   8.8169015  31.2623297  17.2980755
  11.1655756  32.4734301  21.0910203  12.1199010  32.4418244  21.0240135
  10.9668280  32.0124925  21.9060429  11.7555139  31.0435417  23.6581001
  12.5748028  31.5379496  23.6815838  12.0291946  30.1267385  23.6298568
  21.5121735  23.4346170  13.0208956  20.6247590  23.7195820  12.8029151
  21.9275724  23.2739933  12.1736233  24.8636271  23.4592691  16.7363295
  25.6396661  23.9489143  17.0087912  24.1384405  23.8850745  17.1935165
  27.3008829  24.1720310  17.7937236  27.8953320  23.9316046  17.0830544
  27.3735413  23.4527440  18.4210772   9.5205985  38.0153921  18.1080401
   9.3860453  37.2554322  17.5418399   9.1038047  38.7394821  17.6409190
  20.6564948  33.1990844   7.1156976  21.3600798  33.4040847   7.7314632
  19.9327597  33.7667606   7.3806060  21.4862758  28.9500706  13.2359246
  21.4297960  29.4069257  12.3966879  22.0391101  28.1891390  13.0582089
  25.2967564  24.7390437  14.0609366  25.0404499  24.3387073  14.8917574
  24.6720432  25.4534231  13.9359505  29.6079902  27.4786511  16.5680657
  29.0479460  27.5479700  17.3412219  29.0023406  27.3027495  15.8480153
  12.6775111  38.9123238  18.3198844  12.5607495  39.8568670  18.2177534
  11.8567557  38.6096799  18.7084643  22.5651646  33.6373374   9.1655436
  23.3997250  33.2054572   8.9832911  22.4035989  33.4655387  10.0932331
  22.2197538  30.1405487  10.5311776  22.1646342  29.9749758   9.5900220
  21.5943593  30.8481520  10.6873965   7.0090053  25.3773551  24.3573198
   7.6548916  24.8672505  24.8460423   6.8007204  26.1142233  24.9316623
  19.5343445  32.4454399  29.8565338  20.4034605  32.6195051  29.4951973
  19.0550196  33.2648816  29.7341068  13.7029625  39.5651500  21.5354772
  14.6056872  39.5975110  21.8521267  13.4766995  38.6351951  21.5501108
  15.4583227  38.3182486  18.1964851  14.5078858  38.3184348  18.0829223
  15.7615713  37.5715221  17.6800885  11.3487544  22.5241168  28.4548212
  12.2119005  22.1677973  28.6651537  10.7752954  22.1855063  29.1423616
  31.1935921  44.1543025  19.2610613  31.8314331  44.0349772  18.5573953
  31.0756764  45.1023869  19.3198565  28.0025627  44.1070453  19.1972138
  27.6644138  43.9911517  18.3092673  28.8715395  43.7061618  19.1773144
  23.8612443  45.9605929  15.1869029  23.2977308  45.8695866  14.4185316
  23.7464838  45.1405834  15.6671521  28.4845410  45.2605304  25.1558343
  28.4734051  44.8658103  24.2838847  28.6466049  44.5271377  25.7492115
  21.4076875  47.4557121  18.0253249  22.1998167  47.1147945  17.6099548
  21.6473525  47.5652096  18.9455402  29.4412001  49.6276897  10.4983494
  28.7899981  50.2130977  10.1117507  30.2356364  50.1583092  10.5578531
  23.3667629  46.7166034  10.8970628  24.1398505  46.1695021  10.7583504
  23.7193027  47.5810283  11.1085089  25.2052671  48.0442416  24.1037527
  24.9142537  48.9488047  23.9884193  25.8409655  48.0858944  24.8181597
  26.1308878  45.4219265  20.6938887  26.7272450  45.1975287  19.9795850
  26.1883849  44.6804010  21.2964335  25.7033906  42.8758700   8.5289078
  25.9559427  42.3540221   7.7672541  24.7658465  42.7124846   8.6315761
  30.7477189  41.8794478  16.3363821  31.5340278  41.4613902  15.9854238
  31.0115894  42.7840571  16.5045469  30.9187267  47.3167329  11.0352478
  30.2833100  47.3901955  11.7473382  30.5884673  47.9060928  10.3571557
  36.1485616  41.8169712  17.2396800  36.8810788  41.2468928  17.4734629
  35.3924972  41.4291312  17.6803305  25.4230195  44.7786806  10.7313453
  25.3066453  44.1031709  11.3994537  25.5332455  44.2919180   9.9145606
  27.7661736  44.2396953  14.4360142  27.4019943  43.7127574  15.1473063
  28.6228852  43.8495422  14.2626627  33.6711037  35.5291286  21.6991408
  33.3394361  36.3986697  21.4752623  33.0756650  35.2127570  22.3785439
  27.4067223  39.2686853   9.4321490  27.5741625  40.1367089   9.7991962
  27.2164392  39.4314135   8.5082780  30.1642556  47.7303832  21.0987321
  29.8643279  48.6328871  20.9903128  29.8193616  47.4636015  21.9508474
  23.6155038  44.1817629  17.1324025  22.6905534  44.0493843  17.3401717
  23.8639451  44.9611848  17.6293968  33.5639700  40.2486372  18.7784758
  32.6556577  40.1801780  18.4843519  33.5127296  40.7258317  19.6066584
  27.3856444  41.7244510  10.4168157  27.2656069  42.1701561  11.2553638
  26.6909032  42.0729828   9.8581695  20.9763849  43.8250902  17.9667814
  21.1056230  44.0785381  18.8807226  20.2961300  44.4178610  17.6472469
  25.1463336  54.4948152  14.0658289  25.0687366  55.4455977  14.1446769
  24.5424980  54.1494025  14.7233215  35.4301346  38.4502810  20.5562632
  34.7875727  38.7435344  19.9102427  34.9256275  38.3355731  21.3615829
  33.0841510  42.1965984  11.2448491  33.9959366  42.4293370  11.0696189
  32.5751157  42.7803028  10.6823570  25.8926938  44.4761471  26.2837622
  26.6341622  45.0146515  26.0072446  25.1863924  45.1027760  26.4409174
  31.3682278  46.6190611  24.8809784  31.7765634  46.1773022  24.1364416
  30.6459539  46.0443239  25.1343977  31.6911092  47.1791802  18.6362073
  31.0619955  47.3437516  17.9338141  31.3036754  47.5933412  19.4073037
  35.5700324  48.1146240  15.9906437  34.8851362  48.4945141  15.4403470
  35.6544174  48.7241566  16.7238384  32.8251256  45.7606199  22.5901780
  33.0368151  46.4037959  21.9136161  32.7781004  44.9268515  22.1223710
  30.4277485  38.3724020  19.4938352  29.5661964  38.6705273  19.7855090
  30.4539919  38.5894418  18.5619385  27.2439054  46.9166210  15.9012158
  27.7077400  47.1953913  15.1116780  26.9795852  46.0149655  15.7185249
  24.1363135  46.4637692  18.8391921  24.7064492  46.8924960  18.2009406
  24.7271247  46.1820276  19.5376107  26.1807940  43.0389362  12.7101723
  26.8831984  43.4910406  13.1775649  25.8488569  42.3973181  13.3381616
  24.6288302  41.6301119  27.0852932  23.9986962  42.3117400  27.3188329
  24.5224390  41.5184201  26.1406071  19.9233274  41.2972915  18.0118857
  19.1332328  41.5530444  17.5358967  20.4144522  42.1121253  18.1170897
  33.9397084  48.6378154  20.7624137  34.7614528  48.2358342  20.4806819
  33.9359487  48.5346388  21.7140253  21.8748020  41.6617494  14.9702333
  21.0779183  41.7736189  15.4885829  21.6473612  42.0004147  14.1043224
  27.7053687  48.1862198  22.9184848  27.7698120  48.6482605  23.7543020
  26.9964611  47.5559563  23.0467158  18.2070977  41.5503406  20.4433847
  18.4579016  42.4350415  20.7091423  18.7430526  41.3708007  19.6708939
  42.0303077  44.9816903  17.1109109  41.2766785  44.4124301  16.9553113
  42.1650618  44.9479567  18.0579744  27.4201705  49.8530305  12.7863828
  27.2847380  50.6981841  13.2148676  27.9611517  50.0549583  12.0229762
  20.8731102  47.3705743  13.3591753  21.3855623  48.1648993  13.5097318
  21.5253815  46.6732034  13.2925355  22.6825987  50.4871499  15.4414507
  22.8592615  51.4089464  15.2535490  23.4782821  50.1729919  15.8708886
  21.9678344  42.5336131  25.3176670  21.8531859  41.6321389  25.6183769
  21.1122861  42.7799828  24.9661486  29.0470181  50.4753872  26.9164170
  28.6034035  49.6890250  26.5985075  29.7087395  50.6633022  26.2508061
  23.8057302  52.0049673  21.4424849  24.3564728  51.8766737  20.6701843
  22.9668778  52.3044562  21.0919742  31.1451419  50.7556672  24.9445572
  31.1269895  51.5765553  24.4525841  32.0671339  50.6310747  25.1695713
  27.6024474  48.2700801  25.7869080  28.1352810  47.5089089  25.5568388
  27.0738555  47.9774453  26.5293234  18.8380019  45.6994397  14.1351324
  19.6755241  46.1091406  13.9185032  19.0158287  44.7593840  14.1051518
  30.7344451  43.3669478   9.8235157  30.2191075  44.1374083  10.0623544
  30.4621760  42.6934614  10.4468218  28.3191562  38.2119179  14.8820395
  27.4633159  37.8226029  14.7026034  28.7318514  38.2911140  14.0220181
  29.8490709  35.7465522  19.2811955  29.3455504  35.7095657  18.4679760
  30.1421316  36.6558265  19.3408612  26.0933595  35.8304252  18.2878137
  26.9586592  35.6347061  17.9284026  26.1611104  35.6014604  19.2147493
  35.7078725  46.1201833  11.7588330  34.9308168  45.7812992  11.3143492
  36.3870206  46.1254456  11.0843295  30.5230754  41.2396570  11.6494938
  30.2180890  41.5542719  12.5005081  31.4761196  41.3177990  11.6922271
  28.9677186  47.3986793  13.2987892  28.4398548  46.6639553  12.9861129
  28.4664689  48.1761470  13.0527860  33.9470032  45.5935814  18.4154938
  33.2893707  46.2835075  18.5035067  34.7510431  45.9832246  18.7588925
  23.6995914  38.0606460  15.6594504  24.2739666  37.8381641  14.9267696
  24.2866896  38.1295154  16.4123105  32.7575491  43.9480187  16.4658880
  33.2707373  44.5810178  16.9680590  33.4076715  43.3481382  16.1002240
  24.0265501  40.0910921   9.6790389  23.1902813  40.4285607   9.9999664
  23.8870271  39.9559901   8.7417526  26.0018582  34.9347709  14.3869573
  25.3482994  34.6196726  13.7626188  25.9599056  34.3123449  15.1129396
  27.1129786  45.2167004   6.3022865  26.2056848  44.9856257   6.5014014
  27.6100818  44.4204623   6.4896847  30.0197865  53.9264511   9.2219551
  29.3459564  54.2296208   9.8304509  30.4063687  54.7293591   8.8725008
  29.2356322  41.4229642  18.7117221  28.3178883  41.6444589  18.5538909
  29.6516466  41.4975953  17.8528928  30.0191370  42.8221058  13.8419901
  30.7663189  43.3342455  13.5327023  30.2882959  42.5005111  14.7024294
  28.2918020  45.3179599  10.8246855  27.3829239  45.0338631  10.9219325
  28.3213104  45.7378677   9.9650162  33.5237287  48.9286188  14.5938023
  33.0699614  48.0877098  14.6503213  32.8931254  49.5647586  14.9312803
  32.4670207  39.8578174  15.8238690  31.7292964  39.3455560  16.1548933
  32.7196980  39.4178556  15.0121967  31.9670226  50.7662685  15.5287841
  32.2593201  51.3267742  14.8100206  32.4768847  51.0591246  16.2841000
  32.5681834  32.6354426  16.4180459  32.8740711  31.7751790  16.1306375
  33.2934439  33.2272046  16.2179453  18.8606190  43.0385113  14.8062057
  18.6630590  42.4454473  14.0813124  18.3052854  42.7337323  15.5237996
  26.8402914  42.9308219  16.9256650  26.8951524  41.9782056  16.8499127
  26.0294116  43.0867658  17.4097949  27.9894108  46.8588342   8.1634934
  27.5513538  46.1424201   7.7040571  28.7304549  47.0864457   7.6020025
  24.7795274  41.5485279  14.6847029  23.9663139  41.8479450  15.0912221
  25.2754268  41.1540968  15.4021512  26.9303852  51.5443036  16.6181294
  26.8880030  51.7703882  15.6889826  27.8466551  51.3106410  16.7667095
  36.1067222  45.1345539  14.2211252  35.9685121  45.3247135  13.2932442
  35.7503441  45.8964922  14.6779303  36.1336602  47.2022066  19.2322524
  36.5673109  47.1097355  20.0805578  36.8468183  47.1779567  18.5942540
  25.0469652  48.4206065  16.4143257  25.8410251  47.9256385  16.2125832
  24.3361345  47.8923928  16.0510962  29.8664497  50.8024160  20.7655624
  29.9201519  51.3715097  21.5333340  28.9979278  50.9726045  20.4009662
  21.3552416  42.5649147  12.4903009  20.4250004  42.5033602  12.7072972
  21.4509888  42.0425099  11.6939651  21.2737965  39.0903959  15.0781251
  21.5344782  40.0049293  14.9690412  22.0955137  38.6228402  15.2277864
  22.7462890  40.5041717  22.2480076  23.4185944  40.2959079  21.5992725
  21.9192677  40.3063803  21.8085308  36.9952152  47.2445767  21.7655409
  37.1888042  48.1491577  22.0114684  36.8952770  46.7853186  22.5993994
  32.0567260  47.3952510  27.3396290  31.9052767  47.1663061  26.4226373
  32.0471940  48.3523111  27.3527635  28.8252597  44.9684422  22.3242556
  29.7544657  45.1195582  22.1511524  28.4043627  45.0568443  21.4691203
  27.6240928  48.9935087  20.0941094  27.4852014  48.6253871  20.9667032
  26.8355525  49.5082726  19.9225052  28.2189080  54.0944183  11.4366630
  28.3940836  53.6232227  12.2512253  27.5321868  54.7209950  11.6647891
  29.1746144  48.3716690  17.4829932  28.8395976  48.3317460  18.3787582
  28.6750089  47.7061405  17.0100342  23.1490388  43.7784320  23.0082513
  23.0110186  43.0464558  23.6094052  24.0595311  43.6893220  22.7266701
  32.1105335  45.7172724   7.7566991  31.4934506  44.9919552   7.6600044
  31.6421824  46.4782084   7.4134066  25.7772688  43.4904279  22.4966192
  26.4872307  42.8497471  22.4552811  25.7341996  43.7417174  23.4192373
  33.7659467  50.4271632  25.4172772  33.7072013  49.7430852  24.7503355
  34.1678985  51.1690622  24.9653398  22.7850166  57.2433546  18.2106491
  23.0246764  57.8752070  18.8885509  21.9419362  56.8921586  18.4971850
  23.9003881  39.9358148   6.8788296  23.0233347  39.8146949   6.5150542
  24.3761634  39.1444227   6.6267184  33.7676874  48.3911216  23.6486751
  32.8803653  48.0537138  23.7713150  34.3375425  47.6594247  23.8855517
  15.4206021  44.7235308  16.9729803  16.1077061  44.4097038  16.3850818
  15.2654150  45.6276673  16.6997054  20.2240743  39.6125505  21.4014826
  20.1398932  39.0051174  20.6665236  19.4023450  40.1034523  21.4024323
  27.2978028  53.0512669  20.6147995  27.2248199  53.8567640  21.1267299
  26.8555421  53.2504634  19.7896016  27.0867807  52.2884439  14.1250816
  26.3035329  52.8306119  14.2189041  27.7860552  52.8058418  14.5245057
  30.3964457  38.0979068  16.7685021  30.8933157  37.3449030  16.4486092
  29.6251439  38.1343385  16.2028231  38.2494215  43.8019434  18.4103313
  38.2384091  44.6844149  18.0397246  37.3811594  43.4490984  18.2157850
  29.7576711  52.9499503  22.7706153  30.4704683  53.5846967  22.6982055
  29.2666740  53.0463369  21.9546155  31.4794238  46.8550755  14.3423445
  30.5450517  46.9752218  14.1728149  31.6570906  45.9523222  14.0783455
  26.9799426  40.2396451  16.4956706  26.6097214  39.6867491  17.1837612
  27.4758519  39.6354585  15.9431706  34.8666789  42.6968075  14.8773479
  35.3327242  43.5296066  14.8033782  35.3174290  42.2313056  15.5818738
  24.8088625  50.6993946  23.5911724  25.5098084  51.3330429  23.7441118
  24.3383740  51.0408678  22.8307363  32.9343020  49.0411896  11.8759631
  33.2102864  48.9268490  12.7853505  32.0647519  48.6429381  11.8371804
  32.8383452  35.0648662  18.9164380  31.9246532  35.2952888  19.0846587
  33.2676554  35.1487106  19.7678413  32.6089911  43.2538554  21.4164274
  31.9561361  43.5014461  20.7616727  32.9870290  42.4402692  21.0826752
  29.5697084  53.2898247  15.5192445  29.7519479  52.4719903  15.9820197
  30.3930070  53.5065939  15.0817335  29.9039250  52.2166432  12.7807493
  30.4327016  51.7058886  12.1677655  30.1667470  51.9008962  13.6453026
  20.4056343  50.2330301  20.5242827  20.9909780  49.4873989  20.6570731
  20.2081181  50.5434258  21.4079491  23.2594998  53.2681548  15.5405269
  22.5905373  53.7527676  15.0569309  23.1207868  53.5150769  16.4548648
  14.9973997  42.8035901  19.2447270  15.0358097  42.2699492  20.0384388
  14.4914290  42.2771107  18.6258247  27.4000267  55.3025292  22.1387927
  27.9518575  55.4656914  22.9037013  27.7406460  55.8929730  21.4667952
  22.3764760  37.6500442  22.7409812  22.4406086  38.5115273  22.3287210
  22.3131880  37.0374443  22.0082171  21.8517032  39.7223574  26.3882846
  22.4789071  39.3400652  27.0020371  20.9944951  39.5037776  26.7538539
  32.2511141  50.1286550  27.9936582  32.7951045  50.7416508  27.4991537
  31.6697986  50.6866128  28.5103595  18.6282575  41.5300003  12.3201201
  18.9236016  40.6210682  12.2668255  17.7270611  41.5087743  11.9982204
  30.5368654  53.2507268  19.1251610  30.4119793  52.4497007  18.6162555
  31.1947745  53.7453461  18.6365580  22.1576822  39.6056000  18.3028750
  21.4363408  40.2191968  18.1636223  22.9470078  40.1413765  18.2245396
  32.6003562  51.0516288  20.7531160  31.6533898  50.9321639  20.6809486
  32.9486335  50.1638786  20.8357421  20.3570417  39.2114101  12.4440526
  20.0283123  38.3311480  12.2615632  20.7109787  39.1561770  13.3316916
  29.6049995  50.8469004  16.9535512  29.4574958  49.9185711  17.1343082
  30.4303489  50.8689095  16.4692587  23.4712240  39.4987071  12.8116004
  23.8108312  40.0272992  12.0894612  23.9184360  39.8367477  13.5874571
  33.2084117  51.6697563  18.0400385  34.1330665  51.4640424  17.9024836
  33.0399421  51.4213964  18.9489726  26.8172152  34.9673434  20.7146395
  27.6398222  34.4933912  20.5925285  27.0610216  35.7463918  21.2145081
  25.4580387  37.9961693  11.0109297  26.1788749  38.3742945  10.5073014
  24.8345691  38.7150569  11.1144275  29.6011510  38.7006841  11.9467629
  29.8175124  39.5831479  11.6456457  29.1205577  38.3093055  11.2173271
  24.3410731  41.6592555  18.5238374  24.1955312  41.9732858  19.4162655
  23.8635935  42.2777455  17.9709272  26.2007114  38.6495103  18.5719263
  26.1868683  37.7536196  18.2351561  26.9179542  38.6565766  19.2057549
  32.9979434  52.1883230  13.3962476  33.1716311  51.6229653  12.6436329
  33.4908325  52.9884125  13.2141966  18.8156393  44.1997899  21.4626035
  18.2709861  44.9757707  21.5946309  19.6935743  44.5468704  21.3045156
  25.6044010  37.5309483  13.8406833  25.7259921  36.6026129  14.0397721
  25.3146052  37.5448169  12.9285149  28.4735200  35.2164393  16.9773553
  28.4956897  35.2803727  16.0225533  28.8903259  34.3768902  17.1714059
  38.8518825  44.9519653  15.0152776  39.2949971  44.2026978  14.6171899
  37.9745335  44.9429789  14.6326508  33.9854606  51.5049994  10.4959374
  34.6805511  52.1256687  10.7146689  34.3277756  50.6545346  10.7711752
  19.6022415  43.3267795  24.3556192  18.8604151  43.4750431  24.9420822
  19.2815159  43.5876061  23.4922941  35.8846029  48.9549700  12.0246705
  36.4097353  49.2936973  11.2996025  35.7968382  48.0196715  11.8409840
  27.5466078  52.8683774  24.1536582  27.8553204  52.6232920  25.0259281
  28.3441560  53.0730412  23.6655452  27.5686690  55.0221683  16.3841958
  27.1291680  54.5298062  17.0774815  28.3194807  54.4794651  16.1434034
  20.0479029  51.2133224  16.3866586  20.8737049  50.9136996  16.0065230
  19.6973081  50.4440847  16.8356375  25.0160562  50.5659692  18.4564260
  24.3940571  49.9030397  18.1566488  25.6865429  50.5920824  17.7737908
  18.2487634  49.1319551  17.3455520  17.4119542  48.7041725  17.1639521
  18.2211279  49.3251994  18.2826311  35.5739935  49.5882604  27.3297903
  34.7835479  49.5706742  26.7902403  35.3373290  50.1270897  28.0846940
  35.6937810  46.4375070  24.6430632  35.7435815  46.2725077  25.5846154
  35.5851734  45.5702329  24.2528512  24.5774069  49.1163616  11.9322721
  24.7262189  49.7999080  11.2789393  25.3840512  49.0968706  12.4472176
  32.9841573  42.4205998  25.9589938  33.8851435  42.2812463  25.6673936
  33.0589547  42.5860453  26.8988116  37.1956007  48.8572011  24.8872653
  36.9040815  49.2201992  25.7236114  36.5828138  48.1439020  24.7085985
  38.3951689  46.4224891  17.4075223  39.2298581  46.8614695  17.5712784
  38.5310818  45.9463544  16.5883469  35.4443195  43.9804626  23.3552711
  35.9197317  44.1732272  22.5471563  34.5208761  44.0363812  23.1096095
  22.3326702  45.1428793  12.9383789  22.0872744  44.2391123  13.1364000
  22.5022616  45.1445944  11.9963267  21.6022349  40.8757151  10.4369951
  20.9091594  40.9501506   9.7809987  21.3574101  40.1117495  10.9591468
  30.2736006  32.4352752  17.8409442  30.5537760  31.7675941  18.4669868
  31.0586613  32.6281848  17.3284106  28.0769474  51.6111746   9.4034468
  27.5043442  52.2301933   8.9504940  28.6502268  52.1611108   9.9374390
  34.1444864  40.8570386  21.5881017  35.0962287  40.9568484  21.6093241
  33.9748315  40.0648655  22.0979101  32.1659244  37.9425969  21.7740418
  31.5709176  38.2230982  21.0786906  31.8808940  38.4319870  22.5457159
  31.2966734  51.8948896  10.5343050  32.2297407  51.8294458  10.7375926
  31.2089947  52.7305163  10.0757583  33.9254751  51.2114767   7.4946998
  33.8468382  50.8774630   8.3882756  34.7464418  51.7036534   7.4938470
  36.6232942  44.0776506  20.7023316  36.5909262  43.1392507  20.8883000
  37.2333566  44.1560543  19.9689141  28.4616273  42.9472559   6.7450520
  29.4075378  42.8178767   6.8138939  28.0830518  42.2087221   7.2219949
  36.7727431  40.8687549  20.7481600  36.2566479  40.0846006  20.5611528
  37.6567379  40.5406266  20.9128119  34.4338157  34.6128565  16.7077412
  34.2362979  34.3043653  17.5920744  35.0437863  35.3390204  16.8375342
  42.4409492  45.1392513  19.8429353  43.1712880  44.8777801  20.4037057
  41.8316437  44.4021235  19.8831421  40.5224789  43.2800375  20.4403804
  39.7957953  43.1456340  19.8320296  40.1072076  43.5877204  21.2460522
  28.3454965  46.9990305  28.2051177  29.2657975  47.1768904  28.3991224
  28.3104549  46.0546350  28.0530877  26.6459190  40.8722535   6.6805406
  25.7390645  40.5755648   6.7568119  26.9235171  40.5752353   5.8139692
  17.5637130  42.1928899  17.1304452  17.2439915  41.3394207  16.8378826
  17.0170559  42.4077477  17.8862419  21.3417038  44.9091340  20.8473959
  21.5603048  45.8408447  20.8661992  21.7542812  44.5499314  21.6328762
  28.2621256  35.4159425  12.8349647  27.4521984  35.0706510  13.2104893
  28.9505673  35.1066969  13.4237259  30.1911804  34.4937472  14.4573944
  30.7442843  34.9132925  15.1163967  30.4281890  33.5673220  14.4996900
  26.2144903  40.4824545  30.2376708  26.1141630  41.4318902  30.1688799
  25.9966445  40.1542784  29.3652778  25.4157975  37.7309470   6.8217385
  26.2777139  38.0564369   7.0813202  25.6008319  36.9440966   6.3090451
  17.4325390  45.8131810  19.0997574  16.7388862  45.3985763  18.5867528
  18.1798381  45.8552347  18.5030993  33.5690611  36.6037997  13.9652608
  32.9889280  37.2622801  13.5830660  33.3026544  35.7815342  13.5540025
  32.0194178  36.0043055  16.1673928  32.5193956  36.1159589  15.3588247
  32.6629785  35.7004107  16.8074737  26.0776173  43.9121684  29.0541769
  25.5943255  44.7122044  29.2605658  26.1637112  43.9229629  28.1009213
  19.3462133  45.7450064  16.9763589  19.3232821  45.8437751  16.0245472
  19.6562770  46.5915215  17.2980755  22.0049511  47.8026219  21.0910203
  22.9592764  47.7710161  21.0240135  21.8062034  47.3416843  21.9060429
  22.5948893  46.3727335  23.6581001  23.4141782  46.8671414  23.6815838
  22.8685701  45.4559303  23.6298568  32.3515489  38.7638087  13.0208956
  31.4641344  39.0487738  12.8029151  32.7669478  38.6031851  12.1736233
  35.7030025  38.7884608  16.7363295  36.4790415  39.2781061  17.0087912
  34.9778160  39.2142662  17.1935165  38.1402584  39.5012228  17.7937236
  38.7347075  39.2607963  17.0830544  38.2129168  38.7819358  18.4210772
  20.3599740  53.3445838  18.1080401  20.2254208  52.5846239  17.5418399
  19.9431802  54.0686738  17.6409190  31.4958703  48.5282762   7.1156976
  32.1994553  48.7332764   7.7314632  30.7721351  49.0959524   7.3806060
  32.3256513  44.2792623  13.2359246  32.2691714  44.7361175  12.3966879
  32.8784855  43.5183308  13.0582089  36.1361319  40.0682355  14.0609366
  35.8798253  39.6678991  14.8917574  35.5114187  40.7826149  13.9359505
  40.4473657  42.8078428  16.5680657  39.8873215  42.8771618  17.3412219
  39.8417160  42.6319413  15.8480153  23.5168866  54.2415155  18.3198844
  23.4001250  55.1860588  18.2177534  22.6961312  53.9388717  18.7084643
  33.4045400  48.9665291   9.1655436  34.2391004  48.5346490   8.9832911
  33.2429743  48.7947305  10.0932331  33.0591292  45.4697404  10.5311776
  33.0040096  45.3041676   9.5900220  32.4337348  46.1773437  10.6873965
  17.8483807  40.7065469  24.3573198  18.4942671  40.1964423  24.8460423
  17.6400958  41.4434151  24.9316623  30.3737199  47.7746316  29.8565338
  31.2428359  47.9486969  29.4951973  29.8943951  48.5940733  29.7341068
  26.3687418  34.9705513  10.1097094  26.3566088  35.9147353  10.2665365
  27.2610840  34.7875659   9.8156555  24.5423380  54.8943417  21.5354772
  25.4450626  54.9267028  21.8521267  24.3160750  53.9643868  21.5501108
  26.2976982  53.6474404  18.1964851  25.3472613  53.6476266  18.0829223
  26.6009468  52.9007138  17.6800885  30.1839537  31.5648290  14.3643031
  29.4171933  31.0106777  14.5099713  30.5950242  31.6370159  15.2257182
  22.1881298  37.8533086  28.4548212  23.0512760  37.4969891  28.6651537
  21.6146709  37.5146981  29.1423616  42.0329675  59.4834942  19.2610613
  42.6708085  59.3641690  18.5573953  41.9150518  60.4315786  19.3198565
  38.8419381  59.4362370  19.1972138  38.5037893  59.3203435  18.3092673
  39.7109150  59.0353535  19.1773144  34.7006197  61.2897847  15.1869029
  34.1371062  61.1987784  14.4185316  34.5858592  60.4697751  15.6671521
  32.2470629  62.7849038  18.0253249  33.0391921  62.4439863  17.6099548
  32.4867279  62.8944013  18.9455402  40.2805756  64.9568815  10.4983494
  39.6293736  65.5422895  10.1117507  41.0750119  65.4875009  10.5578531
  34.2061383  62.0457952  10.8970628  34.9792259  61.4986939  10.7583504
  34.5586782  62.9102201  11.1085089  36.0446426  63.3734334  24.1037527
  35.7536292  64.2779965  23.9884193  36.6803410  63.4150862  24.8181597
  36.9702632  60.7511182  20.6938887  37.5666205  60.5267205  19.9795850
  37.0277604  60.0095928  21.2964335  36.5427661  58.2050618   8.5289078
  36.7953182  57.6832139   7.7672541  35.6052220  58.0416763   8.6315761
  41.5870944  57.2086396  16.3363821  42.3734033  56.7905819  15.9854238
  41.8509648  58.1132488  16.5045469  41.7581021  62.6459246  11.0352478
  41.1226854  62.7193873  11.7473382  41.4278427  63.2352845  10.3571557
  46.9879371  57.1461629  17.2396800  47.7204543  56.5760846  17.4734629
  46.2318727  56.7583230  17.6803305  36.2623950  60.1078724  10.7313453
  36.1460208  59.4323627  11.3994537  36.3726209  59.6211098   9.9145606
  38.6055491  59.5688871  14.4360142  38.2413698  59.0419492  15.1473063
  39.4622606  59.1787340  14.2626627  44.5104791  50.8583203  21.6991408
  44.1788116  51.7278614  21.4752623  43.9150405  50.5419487  22.3785439
  38.2460978  54.5978771   9.4321490  38.4135380  55.4659007   9.7991962
  38.0558147  54.7606052   8.5082780  41.0036311  63.0595749  21.0987321
  40.7037034  63.9620788  20.9903128  40.6587370  62.7927933  21.9508474
  34.4548792  59.5109546  17.1324025  33.5299289  59.3785760  17.3401717
  34.7033205  60.2903766  17.6293968  44.4033454  55.5778290  18.7784758
  43.4950332  55.5093698  18.4843519  44.3521050  56.0550235  19.6066584
  38.2250198  57.0536428  10.4168157  38.1049824  57.4993479  11.2553638
  37.5302787  57.4021746   9.8581695  31.8157603  59.1542820  17.9667814
  31.9449984  59.4077299  18.8807226  31.1355055  59.7470528  17.6472469
  35.9857090  69.8240070  14.0658289  35.9081120  70.7747895  14.1446769
  35.3818734  69.4785942  14.7233215  43.9235265  57.5257901  11.2448491
  44.8353121  57.7585288  11.0696189  43.4144912  58.1094945  10.6823570
  36.7320693  59.8053389  26.2837622  37.4735377  60.3438433  26.0072446
  36.0257678  60.4319677  26.4409174  42.5304847  62.5083720  18.6362073
  41.9013709  62.6729434  17.9338141  42.1430509  62.9225329  19.4073037
  46.4094079  63.4438158  15.9906437  45.7245117  63.8237059  15.4403470
  46.4937928  64.0533484  16.7238384  41.2671239  53.7015937  19.4938352
  40.4055718  53.9997191  19.7855090  41.2933674  53.9186336  18.5619385
  38.0832809  62.2458128  15.9012158  38.5471154  62.5245831  15.1116780
  37.8189607  61.3441572  15.7185249  34.9756890  61.7929609  18.8391921
  35.5458247  62.2216878  18.2009406  35.5665002  61.5112194  19.5376107
  37.0201695  58.3681280  12.7101723  37.7225738  58.8202324  13.1775649
  36.6882323  57.7265099  13.3381616  35.4682056  56.9593037  27.0852932
  34.8380717  57.6409318  27.3188329  35.3618144  56.8476118  26.1406071
  30.7627029  56.6264833  18.0118857  29.9726083  56.8822361  17.5358967
  31.2538276  57.4413171  18.1170897  44.7790838  63.9670072  20.7624137
  45.6008282  63.5650259  20.4806819  44.7753241  63.8638306  21.7140253
  32.7141774  56.9909412  14.9702333  31.9172937  57.1028106  15.4885829
  32.4867366  57.3296064  14.1043224  38.5447442  63.5154115  22.9184848
  38.6091874  63.9774522  23.7543020  37.8358366  62.8851480  23.0467158
  29.0464732  56.8795323  20.4433847  29.2972770  57.7642333  20.7091423
  29.5824280  56.6999925  19.6708939  52.8696831  60.3108820  17.1109109
  52.1160540  59.7416219  16.9553113  53.0044373  60.2771485  18.0579744
  38.2595459  65.1822223  12.7863828  38.1241134  66.0273758  13.2148676
  38.8005272  65.3841500  12.0229762  34.7462799  51.2613803  29.4478183
  34.3529745  50.7080001  30.1225828  35.5628939  51.5724381  29.8384701
  31.7124857  62.6997661  13.3591753  32.2249377  63.4940911  13.5097318
  32.3647570  62.0023951  13.2925355  33.5219741  65.8163417  15.4414507
  33.6986370  66.7381382  15.2535490  34.3176575  65.5021836  15.8708886
  37.6630760  52.6771682  27.0398440  38.4040473  53.2778835  26.9602903
  37.8948683  51.9349319  26.4816483  32.8072098  57.8628049  25.3176670
  32.6925613  56.9613306  25.6183769  31.9516616  58.1091746  24.9661486
  34.6451057  67.3341591  21.4424849  35.1958482  67.2058654  20.6701843
  33.8062533  67.6336480  21.0919742  38.4418228  63.5992719  25.7869080
  38.9746565  62.8381007  25.5568388  37.9132309  63.3066370  26.5293234
  41.6087923  48.7052785  21.3162722  41.2652192  49.5954426  21.2401832
  41.9766886  48.5154442  20.4532307  29.6773774  61.0286315  14.1351324
  30.5148996  61.4383323  13.9185032  29.8552041  60.0885757  14.1051518
  41.5738206  58.6961396   9.8235157  41.0584829  59.4666000  10.0623544
  41.3015514  58.0226532  10.4468218  39.1585317  53.5411097  14.8820395
  38.3026913  53.1517947  14.7026034  39.5712268  53.6203057  14.0220181
  40.6884463  51.0757440  19.2811955  40.1849259  51.0387575  18.4679760
  40.9815070  51.9850183  19.3408612  36.9327349  51.1596170  18.2878137
  37.7980346  50.9638978  17.9284026  37.0004858  50.9306521  19.2147493
  46.5472480  61.4493750  11.7588330  45.7701923  61.1104910  11.3143492
  47.2263961  61.4546374  11.0843295  41.3624509  56.5688488  11.6494938
  41.0574644  56.8834637  12.5005081  42.3154951  56.6469908  11.6922271
  39.8070941  62.7278711  13.2987892  39.2792302  61.9931471  12.9861129
  39.3058443  63.5053387  13.0527860  44.7863787  60.9227732  18.4154938
  44.1287461  61.6126993  18.5035067  45.5904186  61.3124164  18.7588925
  34.5389668  53.3898377  15.6594504  35.1133420  53.1673559  14.9267696
  35.1260651  53.4587072  16.4123105  43.5969246  59.2772104  16.4658880
  44.1101127  59.9102096  16.9680590  44.2470469  58.6773300  16.1002240
  34.8659255  55.4202838   9.6790389  34.0296568  55.7577525   9.9999664
  34.7264025  55.2851818   8.7417526  36.8412336  50.2639626  14.3869573
  36.1876748  49.9488644  13.7626188  36.7992810  49.6415367  15.1129396
  37.9523541  60.5458921   6.3022865  37.0450603  60.3148175   6.5014014
  38.4494573  59.7496541   6.4896847  40.8591620  69.2556429   9.2219551
  40.1853319  69.5588125   9.8304509  41.2457442  70.0585509   8.8725008
  40.0750076  56.7521560  18.7117221  39.1572638  56.9736507  18.5538909
  40.4910220  56.8267870  17.8528928  40.8585124  58.1512976  13.8419901
  41.6056943  58.6634373  13.5327023  41.1276714  57.8297028  14.7024294
  39.1311774  60.6471516  10.8246855  38.2222994  60.3630549  10.9219325
  39.1606858  61.0670595   9.9650162  44.3631042  64.2578106  14.5938023
  43.9093369  63.4169016  14.6503213  43.7325008  64.8939504  14.9312803
  43.3063961  55.1870092  15.8238690  42.5686718  54.6747478  16.1548933
  43.5590735  54.7470473  15.0121967  42.8063981  66.0954602  15.5287841
  43.0986955  66.6559660  14.8100206  43.3162602  66.3883163  16.2841000
  43.4075589  47.9646344  16.4180459  43.7134465  47.1043707  16.1306375
  44.1328193  48.5563964  16.2179453  29.6999945  58.3677030  14.8062057
  29.5024345  57.7746391  14.0813124  29.1446609  58.0629241  15.5237996
  37.6796668  58.2600137  16.9256650  37.7345278  57.3073973  16.8499127
  36.8687870  58.4159576  17.4097949  38.8287862  62.1880260   8.1634934
  38.3907292  61.4716119   7.7040571  39.5698303  62.4156375   7.6020025
  35.6189028  56.8777197  14.6847029  34.8056894  57.1771367  15.0912221
  36.1148022  56.4832885  15.4021512  37.7697606  66.8734954  16.6181294
  37.7273785  67.0995800  15.6889826  38.6860305  66.6398328  16.7667095
  46.9460977  60.4637457  14.2211252  46.8078876  60.6539053  13.2932442
  46.5897196  61.2256840  14.6779303  35.1103103  54.4495552  20.3008264
  35.7502482  54.3084311  19.6031228  34.2780634  54.1630066  19.9246866
  35.8863407  63.7497983  16.4143257  36.6804005  63.2548303  16.2125832
  35.1755099  63.2215846  16.0510962  40.7058251  66.1316078  20.7655624
  40.7595274  66.7007014  21.5333340  39.8373033  66.3017963  20.4009662
  32.1946170  57.8941064  12.4903009  31.2643759  57.8325520  12.7072972
  32.2903642  57.3717017  11.6939651  32.1131719  54.4195877  15.0781251
  32.3738537  55.3341210  14.9690412  32.9348892  53.9520320  15.2277864
  33.5856645  55.8333634  22.2480076  34.2579698  55.6250996  21.5992725
  32.7586431  55.6355720  21.8085308  39.4882217  52.4595575  24.2645737
  38.8410132  53.1585525  24.1710213  40.2583232  52.8931719  24.6321985
  38.4634683  64.3227005  20.0941094  38.3245769  63.9545789  20.9667032
  37.6749279  64.8374644  19.9225052  39.0582835  69.4236101  11.4366630
  39.2334591  68.9524144  12.2512253  38.3715623  70.0501867  11.6647891
  40.0139898  63.7008607  17.4829932  39.6789731  63.6609377  18.3787582
  39.5143844  63.0353323  17.0100342  33.9884142  59.1076237  23.0082513
  33.8503940  58.3756476  23.6094052  34.8989066  59.0185137  22.7266701
  42.9499090  61.0464642   7.7566991  42.3328260  60.3211470   7.6600044
  42.4815578  61.8074002   7.4134066  36.6166443  58.8196197  22.4966192
  37.3266061  58.1789389  22.4552811  36.5735751  59.0709091  23.4192373
  35.3295377  55.8061414  24.3161832  34.7932734  55.3552153  24.9683428
  34.7412085  55.9407323  23.5732296  33.6243920  72.5725464  18.2106491
  33.8640518  73.2043988  18.8885509  32.7813117  72.2213504  18.4971850
  34.7397636  55.2650066   6.8788296  33.8627102  55.1438867   6.5150542
  35.2155389  54.4736144   6.6267184  26.2599776  60.0527226  16.9729803
  26.9470816  59.7388956  16.3850818  26.1047904  60.9568590  16.6997054
  31.0634498  54.9417422  21.4014826  30.9792687  54.3343092  20.6665236
  30.2417204  55.4326441  21.4024323  38.1371782  68.3804586  20.6147995
  38.0641954  69.1859558  21.1267299  37.6949175  68.5796552  19.7896016
  37.9261562  67.6176356  14.1250816  37.1429084  68.1598036  14.2189041
  38.6254307  68.1350336  14.5245057  41.2358212  53.4270986  16.7685021
  41.7326911  52.6740948  16.4486092  40.4645193  53.4635302  16.2028231
  40.5970466  68.2791420  22.7706153  41.3098438  68.9138885  22.6982055
  40.1060494  68.3755286  21.9546155  42.3187992  62.1842673  14.3423445
  41.3844271  62.3044135  14.1728149  42.4964661  61.2815140  14.0783455
  37.8193181  55.5688369  16.4956706  37.4490968  55.0159409  17.1837612
  38.3152273  54.9646502  15.9431706  45.7060544  58.0259992  14.8773479
  46.1720996  58.8587984  14.8033782  46.1568044  57.5604974  15.5818738
  35.6482379  66.0285864  23.5911724  36.3491839  66.6622347  23.7441118
  35.1777494  66.3700595  22.8307363  43.7736775  64.3703814  11.8759631
  44.0496619  64.2560408  12.7853505  42.9041274  63.9721298  11.8371804
  43.6777207  50.3940579  18.9164380  42.7640286  50.6244806  19.0846587
  44.1070308  50.4779023  19.7678413  40.4090839  68.6190164  15.5192445
  40.5913233  67.8011820  15.9820197  41.2323825  68.8357857  15.0817335
  40.7433004  67.5458349  12.7807493  41.2720771  67.0350804  12.1677655
  41.0061224  67.2300880  13.6453026  31.2450097  65.5622219  20.5242827
  31.8303534  64.8165907  20.6570731  31.0474936  65.8726175  21.4079491
  34.0988752  68.5973466  15.5405269  33.4299128  69.0819594  15.0569309
  33.9601622  68.8442687  16.4548648  25.8367752  58.1327819  19.2447270
  25.8751851  57.5991410  20.0384388  25.3308045  57.6063024  18.6258247
  38.2394021  70.6317210  22.1387927  38.7912329  70.7948831  22.9037013
  38.5800214  71.2221648  21.4667952  33.2158514  52.9792359  22.7409812
  33.2799841  53.8407190  22.3287210  33.1525634  52.3666361  22.0082171
  32.6910787  55.0515492  26.3882846  33.3182826  54.6692569  27.0020371
  31.8338706  54.8329694  26.7538539  29.4676329  56.8591921  12.3201201
  29.7629771  55.9502600  12.2668255  28.5664365  56.8379661  11.9982204
  41.3762408  68.5799185  19.1251610  41.2513548  67.7788925  18.6162555
  42.0341499  69.0745379  18.6365580  32.9970576  54.9347918  18.3028750
  32.2757162  55.5483885  18.1636223  33.7863832  55.4705683  18.2245396
  43.4397317  66.3808205  20.7531160  42.4927652  66.2613556  20.6809486
  43.7880090  65.4930703  20.8357421  35.7996890  52.2702344  24.5769402
  36.3231292  52.5164641  25.3395711  35.5809223  53.1022379  24.1572539
  31.1964171  54.5406019  12.4440526  30.8676877  53.6603398  12.2615632
  31.5503542  54.4853687  13.3316916  40.4443750  66.1760922  16.9535512
  40.2968712  65.2477629  17.1343082  41.2697243  66.1981012  16.4692587
  34.3105994  54.8278989  12.8116004  34.6502067  55.3564910  12.0894612
  34.7578115  55.1659395  13.5874571  44.0477872  66.9989480  18.0400385
  44.9724419  66.7932342  17.9024836  43.8793175  66.7505881  18.9489726
  37.0049435  53.2116039  22.2619072  36.6646255  52.4123852  22.6639752
  36.2988441  53.5117750  21.6895905  37.6565907  50.2965352  20.7146395
  38.4791976  49.8225830  20.5925285  37.9003970  51.0755836  21.2145081
  36.2974141  53.3253610  11.0109297  37.0182504  53.7034863  10.5073014
  35.6739446  54.0442487  11.1144275  40.4405264  54.0298759  11.9467629
  40.6568879  54.9123397  11.6456457  39.9599331  53.6384973  11.2173271
  35.1804486  56.9884472  18.5238374  35.0349066  57.3024775  19.4162655
  34.7029689  57.6069373  17.9709272  37.0400869  53.9787020  18.5719263
  37.0262437  53.0828114  18.2351561  37.7573297  53.9857684  19.2057549
  38.8926999  54.4124361  20.6172391  38.6344777  55.3341431  20.6156721
  38.3612040  54.0154795  21.3072855  43.8373188  67.5175148  13.3962476
  44.0110066  66.9521570  12.6436329  44.3302079  68.3176043  13.2141966
  29.6550148  59.5289817  21.4626035  29.1103616  60.3049625  21.5946309
  30.5329498  59.8760621  21.3045156  36.4437764  52.8601401  13.8406833
  36.5653676  51.9318047  14.0397721  36.1539807  52.8740087  12.9285149
  39.3128955  50.5456311  16.9773553  39.3350652  50.6095644  16.0225533
  39.7297014  49.7060820  17.1714059  49.6912579  60.2811571  15.0152776
  50.1343725  59.5318896  14.6171899  48.8139089  60.2721707  14.6326508
  44.8248360  66.8341912  10.4959374  45.5199265  67.4548605  10.7146689
  45.1671511  65.9837263  10.7711752  30.4416170  58.6559713  24.3556192
  29.6997906  58.8042348  24.9420822  30.1208914  58.9167979  23.4922941
  46.7239784  64.2841618  12.0246705  47.2491108  64.6228890  11.2996025
  46.6362136  63.3488633  11.8409840  38.3859832  68.1975691  24.1536582
  38.6946959  67.9524838  25.0259281  39.1835314  68.4022330  23.6655452
  38.4080444  70.3513601  16.3841958  37.9685435  69.8589980  17.0774815
  39.1588561  69.8086569  16.1434034  30.8872783  66.5425142  16.3866586
  31.7130803  66.2428914  16.0065230  30.5366835  65.7732764  16.8356375
  35.8554317  65.8951610  18.4564260  35.2334326  65.2322315  18.1566488
  36.5259183  65.9212742  17.7737908  29.0881388  64.4611468  17.3455520
  28.2513297  64.0333643  17.1639521  29.0605034  64.6543912  18.2826311
  35.9278844  54.3733398  28.0496766  35.9766999  55.2495521  27.6674536
  36.4701358  53.8310791  27.4768409  35.4167823  64.4455533  11.9322721
  35.5655944  65.1290998  11.2789393  36.2234267  64.4260623  12.4472176
  49.2345444  61.7516809  17.4075223  50.0692335  62.1906613  17.5712784
  49.3704573  61.2755462  16.5883469  33.1720456  60.4720711  12.9383789
  32.9266498  59.5683041  13.1364000  33.3416371  60.4737861  11.9963267
  40.8617166  51.3444387  22.3208545  41.3799110  52.0805414  21.9955034
  40.5072299  51.6508381  23.1555304  32.4416104  56.2049069  10.4369951
  31.7485349  56.2793424   9.7809987  32.1967856  55.4409412  10.9591468
  41.1129760  47.7644670  17.8409442  41.3931514  47.0967859  18.4669868
  41.8980367  47.9573765  17.3284106  38.9163229  66.9403664   9.4034468
  38.3437196  67.5593851   8.9504940  39.4896023  67.4903025   9.9374390
  42.1360489  67.2240814  10.5343050  43.0691162  67.1586376  10.7375926
  42.0483702  68.0597081  10.0757583  44.7648505  66.5406684   7.4946998
  44.6862137  66.2066548   8.3882756  45.5858172  67.0328452   7.4938470
  39.3010027  58.2764477   6.7450520  40.2469132  58.1470685   6.8138939
  38.9224272  57.5379138   7.2219949  45.2731912  49.9420483  16.7077412
  45.0756733  49.6335571  17.5920744  45.8831618  50.6682121  16.8375342
  37.4852945  56.2014453   6.6805406  36.5784400  55.9047566   6.7568119
  37.7628926  55.9044271   5.8139692  28.4030885  57.5220816  17.1304452
  28.0833669  56.6686125  16.8378826  27.8564313  57.7369394  17.8862419
  32.1810793  60.2383257  20.8473959  32.3996802  61.1700365  20.8661992
  32.5936566  59.8791232  21.6328762  39.1015010  50.7451343  12.8349647
  38.2915739  50.3998428  13.2104893  39.7899427  50.4358886  13.4237259
  41.0305559  49.8229389  14.4573944  41.5836597  50.2424843  15.1163967
  41.2675645  48.8965138  14.4996900  37.0538658  55.8116463  30.2376708
  36.9535385  56.7610820  30.1688799  36.8360200  55.4834702  29.3652778
  36.2551729  53.0601388   6.8217385  37.1170893  53.3856286   7.0813202
  36.4402073  52.2732884   6.3090451  28.2719145  61.1423728  19.0997574
  27.5782616  60.7277681  18.5867528  29.0192136  61.1844264  18.5030993
  44.4084366  51.9329915  13.9652608  43.8283035  52.5914719  13.5830660
  44.1420298  51.1107259  13.5540025  42.8587932  51.3334972  16.1673928
  43.3587710  51.4451507  15.3588247  43.5023540  51.0296025  16.8074737
  36.9169928  59.2413602  29.0541769  36.4337010  60.0413962  29.2605658
  37.0030867  59.2521547  28.1009213  30.1855888  61.0741982  16.9763589
  30.1626576  61.1729669  16.0245472  30.4956524  61.9207132  17.2980755
  32.8443265  63.1318137  21.0910203  33.7986519  63.1002079  21.0240135
  32.6455789  62.6708760  21.9060429  33.4342648  61.7019253  23.6581001
  34.2535536  62.1963331  23.6815838  33.7079455  60.7851221  23.6298568
  43.1909244  54.0930005  13.0208956  42.3035099  54.3779656  12.8029151
  43.6063233  53.9323768  12.1736233  46.5423780  54.1176526  16.7363295
  47.3184170  54.6072978  17.0087912  45.8171914  54.5434580  17.1935165
  31.1993494  68.6737756  18.1080401  31.0647962  67.9138157  17.5418399
  30.7825556  69.3978656  17.6409190  42.3352457  63.8574680   7.1156976
  43.0388307  64.0624682   7.7314632  41.6115106  64.4251442   7.3806060
  43.1650267  59.6084541  13.2359246  43.1085469  60.0653092  12.3966879
  43.7178610  58.8475226  13.0582089  46.9755073  55.3974273  14.0609366
  46.7192008  54.9970908  14.8917574  46.3507941  56.1118067  13.9359505
  51.2867411  58.1370346  16.5680657  50.7266969  58.2063535  17.3412219
  50.6810915  57.9611331  15.8480153  34.3562620  69.5707073  18.3198844
  34.2395004  70.5152506  18.2177534  33.5355066  69.2680635  18.7084643
  44.2439155  64.2957209   9.1655436  45.0784759  63.8638407   8.9832911
  44.0823498  64.1239223  10.0932331  43.8985047  60.7989322  10.5311776
  43.8433851  60.6333594   9.5900220  43.2731102  61.5065355  10.6873965
  28.6877562  56.0357387  24.3573198  29.3336425  55.5256341  24.8460423
  28.4794713  56.7726068  24.9316623  37.2081172  50.2997431  10.1097094
  37.1959842  51.2439271  10.2665365  38.1004594  50.1167577   9.8156555
  35.3817134  70.2235335  21.5354772  36.2844381  70.2558945  21.8521267
  35.1554504  69.2935786  21.5501108  37.1370736  68.9766322  18.1964851
  36.1866367  68.9768183  18.0829223  37.4403222  68.2299056  17.6800885
  41.0233292  46.8940208  14.3643031  40.2565687  46.3398695  14.5099713
  41.4343997  46.9662077  15.2257182  33.0275053  53.1825004  28.4548212
  33.8906514  52.8261808  28.6651537  32.4540463  52.8438898  29.1423616
  52.8723430  74.8126860  19.2610613  53.5101840  74.6933607  18.5573953
  52.7544273  75.7607704  19.3198565  49.6813136  74.7654288  19.1972138
  49.3431647  74.6495353  18.3092673  50.5502904  74.3645453  19.1773144
  45.5399952  76.6189764  15.1869029  44.9764817  76.5279701  14.4185316
  45.4252347  75.7989669  15.6671521  50.1632919  75.9189140  25.1558343
  50.1521560  75.5241938  24.2838847  50.3253558  75.1855212  25.7492115
  43.0864384  78.1140956  18.0253249  43.8785676  77.7731781  17.6099548
  43.3261034  78.2235931  18.9455402  45.0455138  77.3749869  10.8970628
  45.8186014  76.8278856  10.7583504  45.3980536  78.2394119  11.1085089
  46.8840180  78.7026252  24.1037527  46.5930046  79.6071882  23.9884193
  47.5197164  78.7442779  24.8181597  47.8096387  76.0803100  20.6938887
  48.4059959  75.8559123  19.9795850  47.8671358  75.3387846  21.2964335
  52.4264698  72.5378314  16.3363821  53.2127787  72.1197737  15.9854238
  52.6903402  73.4424406  16.5045469  57.8273125  72.4753547  17.2396800
  58.5598297  71.9052764  17.4734629  57.0712481  72.0875147  17.6803305
  47.1017704  75.4370641  10.7313453  46.9853962  74.7615545  11.3994537
  47.2119964  74.9503015   9.9145606  49.4449245  74.8980789  14.4360142
  49.0807452  74.3711409  15.1473063  50.3016361  74.5079258  14.2626627
  55.3498546  66.1875121  21.6991408  55.0181870  67.0570532  21.4752623
  54.7544159  65.8711405  22.3785439  49.0854732  69.9270688   9.4321490
  49.2529134  70.7950925   9.7991962  48.8951901  70.0897970   8.5082780
  51.8430065  78.3887667  21.0987321  51.5430788  79.2912706  20.9903128
  51.4981125  78.1219850  21.9508474  45.2942547  74.8401464  17.1324025
  44.3693043  74.7077678  17.3401717  45.5426960  75.6195683  17.6293968
  55.2427209  70.9070207  18.7784758  54.3344086  70.8385616  18.4843519
  55.1914805  71.3842152  19.6066584  49.0643953  72.3828346  10.4168157
  48.9443578  72.8285396  11.2553638  48.3696541  72.7313663   9.8581695
  42.6551358  74.4834738  17.9667814  42.7843739  74.7369216  18.8807226
  41.9748809  75.0762446  17.6472469  49.3168075  72.3259853  26.7219655
  48.5401409  72.8853773  26.7122520  49.9558638  72.8116636  27.2434526
  57.1088855  69.1086646  20.5562632  56.4663236  69.4019179  19.9102427
  56.6043784  68.9939566  21.3615829  47.5714447  75.1345306  26.2837622
  48.3129131  75.6730350  26.0072446  46.8651433  75.7611595  26.4409174
  53.0469787  77.2774447  24.8809784  53.4553143  76.8356857  24.1364416
  52.3247048  76.7027074  25.1343977  49.4000857  72.2147053  22.2543341
  50.2462052  72.6386467  22.3977990  49.3399494  71.5580678  22.9481904
  53.3698601  77.8375637  18.6362073  52.7407464  78.0021351  17.9338141
  52.9824263  78.2517247  19.4073037  52.5500302  69.8751422  23.9124515
  52.3061234  70.6293482  23.3758790  52.8260233  70.2536769  24.7471762
  54.5038765  76.4190034  22.5901780  54.7155660  77.0621794  21.9136161
  54.4568513  75.5852351  22.1223710  52.1064994  69.0307855  19.4938352
  51.2449473  69.3289108  19.7855090  52.1327428  69.2478254  18.5619385
  48.9226563  77.5750045  15.9012158  49.3864909  77.8537748  15.1116780
  48.6583361  76.6733490  15.7185249  45.8150644  77.1221527  18.8391921
  46.3852001  77.5508795  18.2009406  46.4058756  76.8404112  19.5376107
  47.8595449  73.6973198  12.7101723  48.5619493  74.1494241  13.1775649
  47.5276078  73.0557017  13.3381616  46.3075811  72.2884954  27.0852932
  45.6774471  72.9701235  27.3188329  46.2011899  72.1768036  26.1406071
  41.6020783  71.9556750  18.0118857  40.8119837  72.2114279  17.5358967
  42.0932031  72.7705088  18.1170897  55.6184593  79.2961990  20.7624137
  56.4402037  78.8942177  20.4806819  55.6146996  79.1930224  21.7140253
  43.5535529  72.3201330  14.9702333  42.7566692  72.4320024  15.4885829
  43.3261121  72.6587982  14.1043224  49.3841196  78.8446033  22.9184848
  49.4485629  79.3066440  23.7543020  48.6752120  78.2143398  23.0467158
  39.8858486  72.2087241  20.4433847  40.1366525  73.0934251  20.7091423
  40.4218035  72.0291842  19.6708939  63.7090586  75.6400738  17.1109109
  62.9554294  75.0708136  16.9553113  63.8438127  75.6063403  18.0579744
  42.5518611  78.0289578  13.3591753  43.0643132  78.8232829  13.5097318
  43.2041324  77.3315869  13.2925355  44.3613496  81.1455335  15.4414507
  44.5380124  82.0673299  15.2535490  45.1570330  80.8313754  15.8708886
  48.5024515  68.0063599  27.0398440  49.2434228  68.6070753  26.9602903
  48.7342437  67.2641237  26.4816483  43.6465853  73.1919967  25.3176670
  43.5319368  72.2905224  25.6183769  42.7910370  73.4383663  24.9661486
  50.7257690  81.1337707  26.9164170  50.2821544  80.3474085  26.5985075
  51.3874904  81.3216857  26.2508061  45.4844811  82.6633509  21.4424849
  46.0352237  82.5350572  20.6701843  44.6456287  82.9628398  21.0919742
  52.8238928  81.4140507  24.9445572  52.8057404  82.2349388  24.4525841
  53.7458848  81.2894582  25.1695713  49.2811983  78.9284636  25.7869080
  49.8140319  78.1672925  25.5568388  48.7526064  78.6358288  26.5293234
  52.4481677  64.0344702  21.3162722  52.1045947  64.9246344  21.2401832
  52.8160640  63.8446360  20.4532307  40.5167528  76.3578233  14.1351324
  41.3542750  76.7675241  13.9185032  40.6945796  75.4177675  14.1051518
  49.9979071  68.8703014  14.8820395  49.1420668  68.4809865  14.7026034
  50.4106023  68.9494975  14.0220181  51.5278218  66.4049357  19.2811955
  51.0243013  66.3679493  18.4679760  51.8208825  67.3142100  19.3408612
  47.7721104  66.4888087  18.2878137  48.6374101  66.2930896  17.9284026
  47.8398613  66.2598439  19.2147493  52.2018263  71.8980406  11.6494938
  51.8968399  72.2126555  12.5005081  53.1548705  71.9761825  11.6922271
  50.6464695  78.0570629  13.2987892  50.1186057  77.3223388  12.9861129
  50.1452198  78.8345305  13.0527860  55.6257541  76.2519649  18.4154938
  54.9681216  76.9418911  18.5035067  56.4297940  76.6416081  18.7588925
  45.3783423  68.7190295  15.6594504  45.9527175  68.4965477  14.9267696
  45.9654405  68.7878990  16.4123105  54.4363000  74.6064022  16.4658880
  54.9494882  75.2394014  16.9680590  55.0864224  74.0065218  16.1002240
  45.7053010  70.7494756   9.6790389  44.8690322  71.0869443   9.9999664
  45.5657780  70.6143736   8.7417526  47.6806091  65.5931544  14.3869573
  47.0270503  65.2780561  13.7626188  47.6386565  64.9707284  15.1129396
  50.9143831  72.0813478  18.7117221  49.9966392  72.3028425  18.5538909
  51.3303975  72.1559788  17.8528928  51.6978879  73.4804893  13.8419901
  52.4450698  73.9926290  13.5327023  51.9670468  73.1588946  14.7024294
  54.1457716  70.5162009  15.8238690  53.4080473  70.0039396  16.1548933
  54.3984489  70.0762391  15.0121967  54.2469343  63.2938261  16.4180459
  54.5528220  62.4335625  16.1306375  54.9721948  63.8855882  16.2179453
  40.5393699  73.6968948  14.8062057  40.3418099  73.1038309  14.0813124
  39.9840363  73.3921158  15.5237996  48.5190423  73.5892055  16.9256650
  48.5739033  72.6365891  16.8499127  47.7081625  73.7451494  17.4097949
  46.4582783  72.2069114  14.6847029  45.6450648  72.5063285  15.0912221
  46.9541777  71.8124803  15.4021512  48.6091361  82.2026871  16.6181294
  48.5667539  82.4287718  15.6889826  49.5254060  81.9690246  16.7667095
  52.0556994  72.6710939  23.5161923  52.4106382  72.8982412  24.3756389
  52.7029126  73.0029316  22.8939179  45.9496858  69.7787470  20.3008264
  46.5896237  69.6376229  19.6031228  45.1174388  69.4921983  19.9246866
  57.8124111  77.8605902  19.2322524  58.2460618  77.7681191  20.0805578
  58.5255692  77.8363402  18.5942540  46.7257161  79.0789900  16.4143257
  47.5197760  78.5840220  16.2125832  46.0148854  78.5507763  16.0510962
  51.5452006  81.4607996  20.7655624  51.5989028  82.0298932  21.5333340
  50.6766787  81.6309881  20.4009662  43.0339925  73.2232982  12.4903009
  42.1037513  73.1617437  12.7072972  43.1297397  72.7008935  11.6939651
  42.9525474  69.7487795  15.0781251  43.2132291  70.6633128  14.9690412
  43.7742646  69.2812237  15.2277864  44.4250399  71.1625552  22.2480076
  45.0973453  70.9542914  21.5992725  43.5980186  70.9647638  21.8085308
  58.6739661  77.9029602  21.7655409  58.8675551  78.8075413  22.0114684
  58.5740279  77.4437021  22.5993994  50.3275971  67.7887493  24.2645737
  49.6803886  68.4877443  24.1710213  51.0976987  68.2223637  24.6321985
  53.7354769  78.0536345  27.3396290  53.5840276  77.8246897  26.4226373
  53.7259449  79.0106946  27.3527635  50.5040106  75.6268258  22.3242556
  51.4332166  75.7779417  22.1511524  50.0831136  75.7152279  21.4691203
  49.3028437  79.6518922  20.0941094  49.1639523  79.2837707  20.9667032
  48.5143034  80.1666562  19.9225052  50.8533653  79.0300525  17.4829932
  50.5183485  78.9901295  18.3787582  50.3537598  78.3645241  17.0100342
  44.8277897  74.4368155  23.0082513  44.6897694  73.7048394  23.6094052
  45.7382820  74.3477055  22.7266701  47.4560197  74.1488114  22.4966192
  48.1659816  73.5081306  22.4552811  47.4129505  74.4001009  23.4192373
  55.4446976  81.0855468  25.4172772  55.3859522  80.4014688  24.7503355
  55.8466494  81.8274458  24.9653398  46.1689131  71.1353332  24.3161832
  45.6326488  70.6844071  24.9683428  45.5805840  71.2699241  23.5732296
  44.4637675  87.9017381  18.2106491  44.7034273  88.5335906  18.8885509
  43.6206871  87.5505421  18.4971850  45.5791390  70.5941984   6.8788296
  44.7020856  70.4730784   6.5150542  46.0549143  69.8028062   6.6267184
  55.4464383  79.0495052  23.6486751  54.5591162  78.7120973  23.7713150
  56.0162934  78.3178083  23.8855517  37.0993530  75.3819143  16.9729803
  37.7864570  75.0680873  16.3850818  36.9441659  76.2860508  16.6997054
  41.9028252  70.2709340  21.4014826  41.8186441  69.6635009  20.6665236
  41.0810959  70.7618358  21.4024323  48.9765537  83.7096504  20.6147995
  48.9035708  84.5151475  21.1267299  48.5342930  83.9088470  19.7896016
  52.0751966  68.7562903  16.7685021  52.5720666  68.0032866  16.4486092
  51.3038948  68.7927220  16.2028231  59.9281724  74.4603269  18.4103313
  59.9171600  75.3427984  18.0397246  59.0599103  74.1074820  18.2157850
  51.4364220  83.6083338  22.7706153  52.1492192  84.2430803  22.6982055
  50.9454249  83.7047204  21.9546155  53.1581747  77.5134591  14.3423445
  52.2238026  77.6336053  14.1728149  53.3358415  76.6107057  14.0783455
  48.6586935  70.8980286  16.4956706  48.2884723  70.3451327  17.1837612
  49.1546027  70.2938420  15.9431706  56.5454298  73.3551910  14.8773479
  57.0114751  74.1879901  14.8033782  56.9961799  72.8896891  15.5818738
  46.4876134  81.3577781  23.5911724  47.1885593  81.9914264  23.7441118
  46.0171249  81.6992513  22.8307363  54.5170961  65.7232497  18.9164380
  53.6034041  65.9536724  19.0846587  54.9464063  65.8070941  19.7678413
  54.2877420  73.9122389  21.4164274  53.6348870  74.1598296  20.7616727
  54.6657799  73.0986527  21.0826752  50.3364993  74.6542200  27.9030311
  49.6605630  74.5536329  28.5732687  51.1592626  74.4981414  28.3666309
  42.0843852  80.8914136  20.5242827  42.6697288  80.1457824  20.6570731
  41.8868690  81.2018093  21.4079491  44.9382507  83.9265384  15.5405269
  44.2692882  84.4111511  15.0569309  44.7995377  84.1734604  16.4548648
  36.6761506  73.4619737  19.2447270  36.7145606  72.9283327  20.0384388
  36.1701799  72.9354942  18.6258247  49.0787775  85.9609127  22.1387927
  49.6306084  86.1240749  22.9037013  49.4193969  86.5513565  21.4667952
  44.0552269  68.3084277  22.7409812  44.1193595  69.1699108  22.3287210
  43.9919389  67.6958279  22.0082171  43.5304541  70.3807410  26.3882846
  44.1576580  69.9984487  27.0020371  42.6732460  70.1621612  26.7538539
  53.9298650  80.7870385  27.9936582  54.4738554  81.4000343  27.4991537
  53.3485495  81.3449963  28.5103595  40.3070084  72.1883839  12.3201201
  40.6023525  71.2794517  12.2668255  39.4058120  72.1671578  11.9982204
  52.2156163  83.9091103  19.1251610  52.0907302  83.1080843  18.6162555
  52.8735254  84.4037296  18.6365580  43.8364331  70.2639835  18.3028750
  43.1150917  70.8775803  18.1636223  44.6257587  70.7997600  18.2245396
  54.2791071  81.7100123  20.7531160  53.3321407  81.5905474  20.6809486
  54.6273844  80.8222621  20.8357421  46.6390645  67.5994262  24.5769402
  47.1625046  67.8456558  25.3395711  46.4202978  68.4314297  24.1572539
  42.0357926  69.8697936  12.4440526  41.7070632  68.9895315  12.2615632
  42.3897296  69.8145605  13.3316916  51.2837504  81.5052839  16.9535512
  51.1362467  80.5769547  17.1343082  52.1090998  81.5272930  16.4692587
  45.1499749  70.1570906  12.8116004  45.4895821  70.6856828  12.0894612
  45.5971869  70.4951312  13.5874571  54.8871626  82.3281398  18.0400385
  55.8118174  82.1224259  17.9024836  54.7186930  82.0797799  18.9489726
  47.8443190  68.5407957  22.2619072  47.5040010  67.7415770  22.6639752
  47.1382196  68.8409668  21.6895905  48.4959661  65.6257269  20.7146395
  49.3185731  65.1517748  20.5925285  48.7397725  66.4047753  21.2145081
  47.1367896  68.6545528  11.0109297  47.8576258  69.0326781  10.5073014
  46.5133200  69.3734405  11.1144275  51.2799019  69.3590677  11.9467629
  51.4962633  70.2415315  11.6456457  50.7993086  68.9676890  11.2173271
  46.0198240  72.3176390  18.5238374  45.8742821  72.6316693  19.4162655
  45.5423444  72.9361290  17.9709272  47.8794623  69.3078938  18.5719263
  47.8656192  68.4120031  18.2351561  48.5967051  69.3149602  19.2057549
  49.7320754  69.7416278  20.6172391  49.4738532  70.6633349  20.6156721
  49.2005794  69.3446713  21.3072855  40.4943902  74.8581734  21.4626035
  39.9497370  75.6341542  21.5946309  41.3723252  75.2052539  21.3045156
  47.2831519  68.1893318  13.8406833  47.4047430  67.2609965  14.0397721
  46.9933561  68.2032004  12.9285149  50.1522709  65.8748229  16.9773553
  50.1744406  65.9387562  16.0225533  50.5690768  65.0352737  17.1714059
  41.2809924  73.9851631  24.3556192  40.5391660  74.1334266  24.9420822
  40.9602668  74.2459896  23.4922941  49.2253587  83.5267609  24.1536582
  49.5340713  83.2816756  25.0259281  50.0229069  83.7314247  23.6655452
  41.7266538  81.8717059  16.3866586  42.5524558  81.5720831  16.0065230
  41.3760590  81.1024682  16.8356375  46.6948071  81.2243528  18.4564260
  46.0728080  80.5614233  18.1566488  47.3652938  81.2504660  17.7737908
  39.9275143  79.7903386  17.3455520  39.0907051  79.3625560  17.1639521
  39.8998788  79.9835829  18.2826311  46.7672598  69.7025316  28.0496766
  46.8160754  70.5787438  27.6674536  47.3095113  69.1602709  27.4768409
  57.2527444  80.2466439  27.3297903  56.4622988  80.2290578  26.7902403
  57.0160799  80.7854733  28.0846940  57.3725319  77.0958905  24.6430632
  57.4223324  76.9308913  25.5846154  57.2639243  76.2286164  24.2528512
  54.6629082  73.0789833  25.9589938  55.5638944  72.9396298  25.6673936
  54.7377056  73.2444288  26.8988116  48.9971887  70.4556688  24.8043125
  48.1275196  70.7490254  24.5325713  49.2331367  71.0397133  25.5250388
  58.8743516  79.5155847  24.8872653  58.5828324  79.8785827  25.7236114
  58.2615647  78.8022855  24.7085985  60.0739198  77.0808727  17.4075223
  60.9086090  77.5198531  17.5712784  60.2098327  76.6047380  16.5883469
  57.1230704  74.6388461  23.3552711  57.5984826  74.8316108  22.5471563
  56.1996270  74.6947647  23.1096095  44.0114211  75.8012629  12.9383789
  43.7660253  74.8974959  13.1364000  44.1810125  75.8029779  11.9963267
  51.7010921  66.6736305  22.3208545  52.2192865  67.4097332  21.9955034
  51.3466054  66.9800298  23.1555304  43.2809858  71.5340986  10.4369951
  42.5879103  71.6085341   9.7809987  43.0361610  70.7701330  10.9591468
  51.9523515  63.0936588  17.8409442  52.2325269  62.4259777  18.4669868
  52.7374122  63.2865683  17.3284106  55.8232373  71.5154222  21.5881017
  56.7749796  71.6152319  21.6093241  55.6535824  70.7232490  22.0979101
  53.8446753  68.6009805  21.7740418  53.2496685  68.8814817  21.0786906
  53.5596449  69.0903706  22.5457159  58.3020451  74.7360341  20.7023316
  58.2696771  73.7976342  20.8883000  58.9121075  74.8144378  19.9689141
  58.4514940  71.5271385  20.7481600  57.9353988  70.7429841  20.5611528
  59.3354888  71.1990101  20.9128119  56.1125666  65.2712400  16.7077412
  55.9150488  64.9627488  17.5920744  56.7225372  65.9974039  16.8375342
  64.1197001  75.7976348  19.8429353  64.8500389  75.5361636  20.4037057
  63.5103946  75.0605070  19.8831421  62.2012298  73.9384211  20.4403804
  61.4745462  73.8040176  19.8320296  61.7859585  74.2461039  21.2460522
  50.0242474  77.6574140  28.2051177  50.9445484  77.8352739  28.3991224
  49.9892058  76.7130186  28.0530877  39.2424639  72.8512734  17.1304452
  38.9227424  71.9978042  16.8378826  38.6958068  73.0661312  17.8862419
  43.0204547  75.5675175  20.8473959  43.2390557  76.4992283  20.8661992
  43.4330321  75.2083149  21.6328762  49.9408765  66.0743260  12.8349647
  49.1309493  65.7290345  13.2104893  50.6293182  65.7650804  13.4237259
  51.8699313  65.1521307  14.4573944  52.4230352  65.5716761  15.1163967
  52.1069399  64.2257055  14.4996900  47.8932412  71.1408381  30.2376708
  47.7929139  72.0902738  30.1688799  47.6753954  70.8126620  29.3652778
  47.0945484  68.3893306   6.8217385  47.9564648  68.7148204   7.0813202
  47.2795828  67.6024802   6.3090451  39.1112899  76.4715645  19.0997574
  38.4176371  76.0569598  18.5867528  39.8585890  76.5136182  18.5030993
  55.2478120  67.2621832  13.9652608  54.6676789  67.9206636  13.5830660
  54.9814053  66.4399177  13.5540025  53.6981687  66.6626890  16.1673928
  54.1981465  66.7743425  15.3588247  54.3417294  66.3587943  16.8074737
  47.7563682  74.5705520  29.0541769  47.2730764  75.3705880  29.2605658
  47.8424621  74.5813464  28.1009213  41.0249642  76.4033899  16.9763589
  41.0020330  76.5021587  16.0245472  41.3350278  77.2499050  17.2980755
  43.6837020  78.4610054  21.0910203  44.6380273  78.4293997  21.0240135
  43.4849543  78.0000678  21.9060429  44.2736402  77.0311170  23.6581001
  45.0929291  77.5255249  23.6815838  44.5473210  76.1143138  23.6298568
  54.0302998  69.4221923  13.0208956  53.1428853  69.7071573  12.8029151
  54.4456987  69.2615686  12.1736233  57.3817534  69.4468444  16.7363295
  58.1577924  69.9364896  17.0087912  56.6565669  69.8726498  17.1935165
  59.8190093  70.1596063  17.7937236  60.4134584  69.9191799  17.0830544
  59.8916677  69.4403193  18.4210772  42.0387249  84.0029674  18.1080401
  41.9041717  83.2430075  17.5418399  41.6219311  84.7270574  17.6409190
  54.0044022  74.9376459  13.2359246  53.9479223  75.3945010  12.3966879
  54.5572364  74.1767143  13.0582089  57.8148828  70.7266190  14.0609366
  57.5585762  70.3262826  14.8917574  57.1901696  71.4409984  13.9359505
  62.1261166  73.4662264  16.5680657  61.5660724  73.5355453  17.3412219
  61.5204669  73.2903248  15.8480153  45.1956375  84.8998991  18.3198844
  45.0788759  85.8444423  18.2177534  44.3748821  84.5972552  18.7084643
  39.5271316  71.3649304  24.3573198  40.1730180  70.8548258  24.8460423
  39.3188467  72.1017986  24.9316623  52.0524708  78.4330152  29.8565338
  52.9215868  78.6070804  29.4951973  51.5731460  79.2524569  29.7341068
  48.0474927  65.6289349  10.1097094  48.0353597  66.5731189  10.2665365
  48.9398349  65.4459494   9.8156555  46.2210889  85.5527253  21.5354772
  47.1238135  85.5850863  21.8521267  45.9948259  84.6227704  21.5501108
  47.9764491  84.3058239  18.1964851  47.0260122  84.3060101  18.0829223
  48.2796977  83.5590974  17.6800885  51.8627046  62.2232125  14.3643031
  51.0959442  61.6690612  14.5099713  52.2737751  62.2953994  15.2257182
  61.0026673  91.2481057  25.1558343  60.9915314  90.8533856  24.2838847
  61.1647313  90.5147130  25.7492115  66.1892300  81.5167039  21.6991408
  65.8575625  82.3862450  21.4752623  65.5937914  81.2003323  22.3785439
  60.1561829  87.6551771  26.7219655  59.3795163  88.2145691  26.7122520
  60.7952392  88.1408554  27.2434526  58.4108202  90.4637224  26.2837622
  59.1522886  91.0022268  26.0072446  57.7045187  91.0903513  26.4409174
  63.3894057  85.2043340  23.9124515  63.1454988  85.9585400  23.3758790
  63.6653987  85.5828687  24.7471762  57.1469565  87.6176872  27.0852932
  56.5168226  88.2993153  27.3188329  57.0405653  87.5059954  26.1406071
  50.7252241  87.5379159  20.4433847  50.9760279  88.4226169  20.7091423
  51.2611789  87.3583760  19.6708939  56.4250308  81.9197638  29.4478183
  56.0317254  81.3663837  30.1225828  57.2416448  82.2308216  29.8384701
  59.3418269  83.3355517  27.0398440  60.0827982  83.9362670  26.9602903
  59.5736192  82.5933155  26.4816483  54.4859607  88.5211884  25.3176670
  54.3713122  87.6197142  25.6183769  53.6304125  88.7675581  24.9661486
  63.2875432  79.3636620  21.3162722  62.9439701  80.2538262  21.2401832
  63.6554395  79.1738278  20.4532307  56.7890612  85.1079388  20.3008264
  57.4289991  84.9668147  19.6031228  55.9568143  84.8213901  19.9246866
  55.2644154  86.4917470  22.2480076  55.9367207  86.2834832  21.5992725
  54.4373940  86.2939556  21.8085308  61.1669726  83.1179411  24.2645737
  60.5197641  83.8169360  24.1710213  61.9370741  83.5515555  24.6321985
  55.6671651  89.7660073  23.0082513  55.5291449  89.0340311  23.6094052
  56.5776575  89.6768973  22.7266701  58.2953952  89.4780032  22.4966192
  59.0053570  88.8373224  22.4552811  58.2523260  89.7292927  23.4192373
  57.0082886  86.4645250  24.3161832  56.4720243  86.0135988  24.9683428
  56.4199594  86.5991159  23.5732296  52.7422007  85.6001258  21.4014826
  52.6580196  84.9926927  20.6665236  51.9204713  86.0910276  21.4024323
  61.1758747  89.9834118  27.9030311  60.4999384  89.8828247  28.5732687
  61.9986381  89.8273331  28.3666309  47.5155261  88.7911654  19.2447270
  47.5539360  88.2575245  20.0384388  47.0095554  88.2646860  18.6258247
  54.8946023  83.6376195  22.7409812  54.9587350  84.4991026  22.3287210
  54.8313143  83.0250196  22.0082171  54.3698296  85.7099327  26.3882846
  54.9970335  85.3276405  27.0020371  53.5126215  85.4913529  26.7538539
  57.4784399  82.9286180  24.5769402  58.0018801  83.1748476  25.3395711
  57.2596732  83.7606214  24.1572539  58.6836944  83.8699875  22.2619072
  58.3433764  83.0707688  22.6639752  57.9775950  84.1701586  21.6895905
  59.3353416  80.9549187  20.7146395  60.1579485  80.4809665  20.5925285
  59.5791479  81.7339671  21.2145081  51.3337657  90.1873652  21.4626035
  50.7891125  90.9633460  21.5946309  52.2117007  90.5344457  21.3045156
  52.1203679  89.3143548  24.3556192  51.3785415  89.4626184  24.9420822
  51.7996423  89.5751814  23.4922941  57.6066353  85.0317233  28.0496766
  57.6554508  85.9079356  27.6674536  58.1488867  84.4894626  27.4768409
  65.5022836  88.4081751  25.9589938  66.4032699  88.2688216  25.6673936
  65.5770811  88.5736206  26.8988116  59.8365641  85.7848606  24.8043125
  58.9668951  86.0782172  24.5325713  60.0725122  86.3689051  25.5250388
  62.5404675  82.0028223  22.3208545  63.0586619  82.7389250  21.9955034
  62.1859808  82.3092216  23.1555304  60.8636229  92.9866058  28.2051177
  61.7839238  93.1644657  28.3991224  60.8285812  92.0422103  28.0530877
  58.7326167  86.4700298  30.2376708  58.6322894  87.4194655  30.1688799
  58.5147709  86.1418537  29.3652778  58.5957437  89.8997437  29.0541769
  58.1124519  90.6997797  29.2605658  58.6818376  89.9105382  28.1009213
  55.1130156  92.3603088  23.6581001  55.9323045  92.8547167  23.6815838
  55.3866964  91.4435056  23.6298568  50.3665071  86.6941222  24.3573198
  51.0123934  86.1840176  24.8460423  50.1582222  87.4309904  24.9316623
  54.7062562  83.8408839  28.4548212  55.5694023  83.4845644  28.6651537
  54.1327972  83.5022734  29.1423616  28.4845411  22.2667427  11.8803650
  28.4734052  21.8720225  11.0084153  28.6466051  21.5333500  12.4737421
  25.2052672  25.0504539  10.8282834  24.9142538  25.9550170  10.7129500
  25.8409657  25.0921066  11.5426903  30.1642557  24.7365954   7.8232627
  29.8643281  25.6390993   7.7148435  29.8193617  24.4698138   8.6753780
  27.6380567  18.6738140  13.4464962  26.8613901  19.2332060  13.4367827
  28.2771130  19.1594923  13.9679832  25.8926939  21.4823593  13.0082929
  26.6341624  22.0208637  12.7317753  25.1863925  22.1089882  13.1654481
  31.3682279  23.6252734  11.6055091  31.7765635  23.1835144  10.8609723
  30.6459540  23.0505361  11.8589283  32.8251257  22.7668321   9.3147087
  33.0368152  23.4100081   8.6381468  32.7781005  21.9330638   8.8469017
  33.9397085  25.6440277   7.4869444  34.7614529  25.2420464   7.2052126
  33.9359488  25.5408511   8.4385560  27.7053689  25.1924320   9.6430155
  27.7698121  25.6544727  10.4788326  26.9964612  24.5621685   9.7712464
  29.0470183  27.4815994  13.6409477  28.6034037  26.6952373  13.3230381
  29.7087396  27.6695145  12.9753368  31.1451421  27.7618794  11.6690878
  31.1269896  28.5827675  11.1771147  32.0671341  27.6372869  11.8941019
  27.6024475  25.2762924  12.5114387  28.1352812  24.5151212  12.2813695
  27.0738556  24.9836575  13.2538541  36.1336603  24.2084189   5.9567830
  36.5673110  24.1159478   6.8050884  36.8468184  24.1841689   5.3187846
  29.8664498  27.8086283   7.4900931  29.9201520  28.3777219   8.2578647
  28.9979280  27.9788168   7.1254968  36.9952153  24.2507890   8.4900716
  37.1888043  25.1553700   8.7359991  36.8952771  23.7915309   9.3239301
  32.0567262  24.4014632  14.0641596  31.9052768  24.1725184  13.1471680
  32.0471941  25.3585234  14.0772941  33.7659468  27.4333755  12.1418078
  33.7072014  26.7492975  11.4748661  34.1678987  28.1752745  11.6898704
  33.7676875  25.3973339  10.3732058  32.8803654  25.0599261  10.4958457
  34.3375426  24.6656370  10.6100823  27.2978029  30.0574791   7.3393301
  27.2248200  30.8629763   7.8512606  26.8555422  30.2566757   6.5141323
  29.7576712  29.9561625   9.4951460  30.4704685  30.5909090   9.4227361
  29.2666741  30.0525491   8.6791462  24.8088626  27.7056069  10.3157031
  25.5098085  28.3392552  10.4686425  24.3383741  28.0470800   9.5552670
  28.6577485  21.0020487  14.6275618  27.9818122  20.9014616  15.2977993
  29.4805119  20.8459701  15.0911615  27.4000268  32.3087415   8.8633234
  27.9518576  32.4719036   9.6282319  27.7406461  32.8991852   8.1913259
  32.2511142  27.1348672  14.7181889  32.7951046  27.7478630  14.2236843
  31.6697987  27.6928251  15.2348902  30.5368655  30.2569390   5.8496916
  30.4119794  29.4559130   5.3407862  31.1947746  30.7515583   5.3610886
  32.6003563  28.0578410   7.4776466  31.6533899  27.9383761   7.4054793
  32.9486337  27.1700908   7.5602728  33.2084119  28.6759685   4.7645691
  34.1330666  28.4702547   4.6270142  33.0399422  28.4276086   5.6735033
  27.5466079  29.8745896  10.8781888  27.8553206  29.6295043  11.7504588
  28.3441561  30.0792535  10.3900759  35.5739936  26.5944726  14.0543210
  34.7835480  26.5768865  13.5147709  35.3373291  27.1333020  14.8092246
  35.6937811  23.4437193  11.3675938  35.7435816  23.2787200  12.3091461
  35.5851735  22.5764452  10.9773819  32.9841574  19.4268121  12.6835245
  33.8851437  19.2874585  12.3919243  33.0589548  19.5922575  13.6233422
  37.1956008  25.8634134  11.6117960  36.9040817  26.2264115  12.4481421
  36.5828140  25.1501142  11.4331292  35.4443197  20.9866749  10.0798018
  35.9197318  21.1794395   9.2716869  34.5208762  21.0425935   9.8341402
  42.4409493  22.1454635   6.5674660  43.1712882  21.8839923   7.1282363
  41.8316439  21.4083357   6.6076728  40.5224790  20.2862498   7.1649111
  39.7957954  20.1518463   6.5565603  40.1072077  20.5939327   7.9705829
  28.3454967  24.0052428  14.9296484  29.2657976  24.1831027  15.1236531
  28.3104550  23.0608473  14.7776183  26.2144905  17.4886668  16.9622014
  26.1141631  18.4381025  16.8934105  25.9966447  17.1604907  16.0898084
  26.0776175  20.9183807  15.7787076  25.5943256  21.7184167  15.9850965
  26.1637114  20.9291752  14.8254520  30.3737201  24.7808439  16.5810645
  31.2428360  24.9549091  16.2197280  29.8943952  25.6002856  16.4586374
  24.5423381  31.9005540   8.2600079  25.4450628  31.9329150   8.5766574
  24.3160751  30.9705991   8.2746414  42.0329676  36.4897065   5.9855920
  42.6708086  36.3703812   5.2819260  41.9150519  37.4377909   6.0443872
  38.8419383  36.4424493   5.9217444  38.5037894  36.3265558   5.0337979
  39.7109151  36.0415658   5.9018450  34.7006198  38.2959969   1.9114335
  34.1371064  38.2049906   1.1430623  34.5858593  37.4759874   2.3916828
  39.3239166  37.5959345  11.8803650  39.3127806  37.2012143  11.0084153
  39.4859805  36.8625417  12.4737421  32.2470630  39.7911161   4.7498556
  33.0391922  39.4501986   4.3344855  32.4867281  39.9006136   5.6700709
  40.2805757  41.9630937  -2.7771200  39.6293737  42.5485018  -3.1637186
  41.0750120  42.4937132  -2.7176162  36.0446427  40.3796457  10.8282834
  35.7536293  41.2842087  10.7129500  36.6803411  40.4212984  11.5426903
  36.9702634  37.7573305   7.4184193  37.5666206  37.5329327   6.7041156
  37.0277605  37.0158051   8.0209641  41.5870945  34.2148519   3.0609128
  42.3734034  33.7967942   2.7099545  41.8509649  35.1194611   3.2290776
  41.7581022  39.6521369  -2.2402216  41.1226855  39.7255996  -1.5281311
  41.4278429  40.2414968  -2.9183136  46.9879372  34.1523752   3.9642106
  47.7204544  33.5822969   4.1979936  46.2318728  33.7645352   4.4048612
  38.6055492  36.5750993   1.1605449  38.2413699  36.0481614   1.8718370
  39.4622608  36.1849462   0.9871934  44.5104792  27.8645326   8.4236715
  44.1788117  28.7340737   8.1997930  43.9150406  27.5481610   9.1030745
  41.0036312  40.0657872   7.8232627  40.7037035  40.9682911   7.7148435
  40.6587371  39.7990055   8.6753780  34.4548793  36.5171669   3.8569332
  33.5299290  36.3847883   4.0647024  34.7033207  37.2965888   4.3539274
  44.4033456  32.5840412   5.5030065  43.4950333  32.5155821   5.2088826
  44.3521052  33.0612357   6.3311890  31.8157604  36.1604942   4.6913121
  31.9449986  36.4139421   5.6052533  31.1355056  36.7532650   4.3717776
  35.9857092  46.8302192   0.7903595  35.9081121  47.7810017   0.8692076
  35.3818735  46.4848065   1.4478521  38.4774322  34.0030058  13.4464962
  37.7007656  34.5623978  13.4367827  39.1164885  34.4886841  13.9679832
  46.2695102  30.7856851   7.2807939  45.6269482  31.0789384   6.6347733
  45.7650031  30.6709771   8.0861135  43.9235266  34.5320024  -2.0306202
  44.8353122  34.7647411  -2.2058504  43.4144913  35.1157068  -2.5931123
  36.7320694  36.8115511  13.0082929  37.4735378  37.3500555  12.7317753
  36.0257679  37.4381800  13.1654481  42.2076033  38.9544652  11.6055091
  42.6159389  38.5127062  10.8609723  41.4853295  38.3797279  11.8589283
  38.5607104  33.8917258   8.9788648  39.4068299  34.3156672   9.1223297
  38.5005741  33.2350883   9.6727211  42.5304848  39.5145842   5.3607379
  41.9013711  39.6791556   4.6583447  42.1430510  39.9287452   6.1318343
  46.4094080  40.4500280   2.7151743  45.7245118  40.8299181   2.1648777
  46.4937929  41.0595607   3.4483691  41.7106549  31.5521627  10.6369821
  41.4667481  32.3063687  10.1004097  41.9866479  31.9306974  11.4717068
  43.6645012  38.0960239   9.3147087  43.8761907  38.7391999   8.6381468
  43.6174760  37.2622556   8.8469017  41.2671241  30.7078060   6.2183659
  40.4055720  31.0059313   6.5100396  41.2933675  30.9248459   5.2864692
  38.0832810  39.2520250   2.6257465  38.5471156  39.5307953   1.8362087
  37.8189608  38.3503695   2.4430555  34.9756891  38.7991732   5.5637228
  35.5458248  39.2279000   4.9254712  35.5665003  38.5174317   6.2621413
  37.0201696  35.3743403  -0.5652970  37.7225739  35.8264446  -0.0979044
  36.6882325  34.7327222   0.0626923  35.4682058  33.9655159  13.8098239
  34.8380718  34.6471440  14.0433636  35.3618145  33.8538241  12.8651377
  30.7627030  33.6326955   4.7364163  29.9726084  33.8884484   4.2604274
  31.2538277  34.4475293   4.8416204  44.7790840  40.9732195   7.4869444
  45.6008283  40.5712382   7.2052126  44.7753242  40.8700429   8.4385560
  38.5447443  40.5216238   9.6430155  38.6091876  40.9836645  10.4788326
  37.8358367  39.8913603   9.7712464  29.0464733  33.8857446   7.1679154
  29.2972771  34.7704456   7.4336730  29.5824281  33.7062047   6.3954246
  52.8696833  37.3170943   3.8354416  52.1160541  36.7478341   3.6798420
  53.0044374  37.2833608   4.7825050  38.2595461  42.1884345  -0.4890865
  38.1241135  43.0335881  -0.0606017  38.8005273  42.3903623  -1.2524931
  34.7462800  28.2675925  16.1723490  34.3529746  27.7142124  16.8471134
  35.5628941  28.5786504  16.5630008  31.7124858  39.7059783   0.0837060
  32.2249379  40.5003034   0.2342625  32.3647571  39.0086074   0.0170661
  33.5219743  42.8225540   2.1659813  33.6986371  43.7443504   1.9780797
  34.3176576  42.5083959   2.5954193  37.6630761  29.6833804  13.7643747
  38.4040475  30.2840957  13.6848209  37.8948684  28.9411442  13.2061789
  32.8072099  34.8690172  12.0421976  32.6925614  33.9675429  12.3429075
  31.9516617  35.1153868  11.6906793  39.8863937  42.8107912  13.6409477
  39.4427791  42.0244290  13.3230381  40.5481151  42.9987062  12.9753368
  34.6451058  44.3403713   8.1670156  35.1958483  44.2120777   7.3947149
  33.8062534  44.6398602   7.8165048  41.9845175  43.0910712  11.6690878
  41.9663650  43.9119593  11.1771147  42.9065095  42.9664787  11.8941019
  38.4418229  40.6054841  12.5114387  38.9746566  39.8443129  12.2813695
  37.9132310  40.3128493  13.2538541  41.6087924  25.7114907   8.0408028
  41.2652194  26.6016549   7.9647139  41.9766887  25.5216565   7.1777613
  29.6773775  38.0348438   0.8596631  30.5148997  38.4445446   0.6430338
  29.8552043  37.0947880   0.8296824  39.1585318  30.5473219   1.6065702
  38.3026914  30.1580070   1.4271341  39.5712270  30.6265180   0.7465487
  40.6884465  28.0819562   6.0057262  40.1849260  28.0449698   5.1925067
  40.9815071  28.9912305   6.0653918  36.9327350  28.1658292   5.0123443
  37.7980347  27.9701101   4.6529333  37.0004859  27.9368644   5.9392800
  46.5472481  38.4555873  -1.5166363  45.7701924  38.1167032  -1.9611201
  47.2263962  38.4608496  -2.1911398  41.3624510  33.5750610  -1.6259755
  41.0574646  33.8896760  -0.7749612  42.3154952  33.6532030  -1.5832422
  39.8070942  39.7340834   0.0233199  39.2792304  38.9993593  -0.2893564
  39.3058445  40.5115510  -0.2226833  44.7863788  37.9289854   5.1400245
  44.1287462  38.6189116   5.2280374  45.5904187  38.3186286   5.4834231
  43.5969247  36.2834227   3.1904187  44.1101129  36.9164219   3.6925896
  44.2470471  35.6835422   2.8247547  40.8591621  46.2618551  -4.0535142
  40.1853320  46.5650248  -3.4450184  41.2457443  47.0647632  -4.4029685
  40.0750078  33.7583682   5.4362527  39.1572639  33.9798629   5.2784215
  40.4910221  33.8329993   4.5774235  40.8585125  35.1575098   0.5665207
  41.6056944  35.6696495   0.2572330  41.1276715  34.8359151   1.4269601
  39.1311776  37.6533639  -2.4507838  38.2222995  37.3692672  -2.3535368
  39.1606859  38.0732717  -3.3104531  44.3631043  41.2640228   1.3183329
  43.9093370  40.4231138   1.3748520  43.7325010  41.9001627   1.6558109
  43.3063963  32.1932214   2.5483997  42.5686719  31.6809601   2.8794239
  43.5590736  31.7532596   1.7367274  42.8063982  43.1016725   2.2533147
  43.0986957  43.6621782   1.5345513  43.3162603  43.3945286   3.0086307
  43.4075590  24.9708466   3.1425766  43.7134467  24.1105830   2.8551681
  44.1328195  25.5626087   2.9424760  37.6796670  35.2662259   3.6501957
  37.7345279  34.3136096   3.5744434  36.8687872  35.4221699   4.1343256
  35.6189030  33.8839319   1.4092336  34.8056895  34.1833490   1.8157528
  36.1148024  33.4895008   2.1266818  37.7697607  43.8797076   3.3426601
  37.7273786  44.1057922   2.4135133  38.6860306  43.6460451   3.4912402
  41.2163241  34.3481144  10.2407230  41.5712629  34.5752617  11.1001696
  41.8635372  34.6799520   9.6184485  46.9460978  37.4699580   0.9456559
  46.8078877  37.6601176   0.0177748  46.5897197  38.2318962   1.4024610
  35.1103104  31.4557675   7.0253571  35.7502484  31.3146434   6.3276534
  34.2780635  31.1692188   6.6492173  46.9730358  39.5376107   5.9567830
  47.4066864  39.4451396   6.8050884  47.6861938  39.5133607   5.3187846
  35.8863408  40.7560105   3.1388563  36.6804007  40.2610425   2.9371138
  35.1755101  40.2277968   2.7756269  40.7058253  43.1378201   7.4900931
  40.7595275  43.7069137   8.2578647  39.8373034  43.3080086   7.1254968
  33.5856646  32.8395757   8.9725382  34.2579699  32.6313119   8.3238031
  32.7586433  32.6417843   8.5330615  47.8345907  39.5799807   8.4900716
  48.0281797  40.4845618   8.7359991  47.7346525  39.1207226   9.3239301
  39.4882218  29.4657698  10.9891043  38.8410133  30.1647647  10.8955520
  40.2583233  29.8993842  11.3567291  42.8961016  39.7306550  14.0641596
  42.7446522  39.5017102  13.1471680  42.8865695  40.6877151  14.0772941
  39.6646352  37.3038463   9.0487863  40.5938412  37.4549622   8.8756830
  39.2437382  37.3922484   8.1936509  38.4634684  41.3289127   6.8186401
  38.3245770  40.9607912   7.6912339  37.6749280  41.8436767   6.6470358
  39.0582836  46.4298224  -1.8388063  39.2334592  45.9586267  -1.0242440
  38.3715624  47.0563990  -1.6106802  40.0139899  40.7070730   4.2075238
  39.6789732  40.6671500   5.1032888  39.5143845  40.0415446   3.7345649
  33.9884143  36.1138360   9.7327819  33.8503941  35.3818599  10.3339358
  34.8989067  36.0247260   9.4512007  36.6166444  35.8258319   9.2211499
  37.3266063  35.1851511   9.1798118  36.5735752  36.0771214  10.1437680
  44.6053223  42.7625673  12.1418078  44.5465769  42.0784893  11.4748661
  45.0072741  43.5044663  11.6898704  35.3295378  32.8123537  11.0407139
  34.7932735  32.3614276  11.6928735  34.7412086  32.9469446  10.2977603
  33.6243921  49.5787586   4.9351797  33.8640520  50.2106111   5.6130816
  32.7813118  49.2275626   5.2217156  44.6070630  40.7265256  10.3732058
  43.7197409  40.3891178  10.4958457  45.1769181  39.9948288  10.6100823
  26.2599777  37.0589348   3.6975109  26.9470817  36.7451078   3.1096125
  26.1047906  37.9630713   3.4242361  31.0634499  31.9479545   8.1260133
  30.9792688  31.3405214   7.3910543  30.2417206  32.4388563   8.1269629
  38.1371783  45.3866709   7.3393301  38.0641955  46.1921680   7.8512606
  37.6949176  45.5858675   6.5141323  37.9261563  44.6238479   0.8496123
  37.1429085  45.1660159   0.9434347  38.6254308  45.1412458   1.2490364
  41.2358213  30.4333108   3.4930328  41.7326913  29.6803071   3.1731398
  40.4645195  30.4697425   2.9273537  49.0887970  36.1373474   5.1348620
  49.0777847  37.0198189   4.7642553  48.2205350  35.7845025   4.9403157
  40.5970467  45.2853543   9.4951460  41.3098439  45.9201008   9.4227361
  40.1060495  45.3817409   8.6791462  42.3187994  39.1904796   1.0668752
  41.3844272  39.3106258   0.8973456  42.4964662  38.2877262   0.8028761
  37.8193182  32.5750491   3.2202013  37.4490969  32.0221532   3.9082918
  38.3152274  31.9708625   2.6677013  45.7060545  35.0322115   1.6018786
  46.1720997  35.8650106   1.5279088  46.1568046  34.5667096   2.3064044
  35.6482380  43.0347986  10.3157031  36.3491840  43.6684469  10.4686425
  35.1777495  43.3762718   9.5552670  43.7736776  41.3765936  -1.3995062
  44.0496620  41.2622531  -0.4901188  42.9041275  40.9783421  -1.4382889
  43.6777208  27.4002702   5.6409687  42.7640288  27.6306929   5.8091894
  44.1070309  27.4841146   6.4923719  43.4483666  35.5892594   8.1409581
  42.7955117  35.8368501   7.4862034  43.8264046  34.7756732   7.8072058
  40.4090840  45.6252287   2.2437751  40.5913235  44.8073943   2.7065504
  41.2323826  45.8419979   1.8062641  40.7433006  44.5520472  -0.4947200
  41.2720772  44.0412927  -1.1077038  41.0061225  44.2363002   0.3698333
  39.4971239  36.3312405  14.6275618  38.8211876  36.2306534  15.2977993
  40.3198873  36.1751619  15.0911615  31.2450098  42.5684341   7.2488133
  31.8303535  41.8228029   7.3816038  31.0474937  42.8788298   8.1324797
  34.0988754  45.6035589   2.2650576  33.4299129  46.0881716   1.7814616
  33.9601623  45.8504809   3.1793954  25.8367753  35.1389942   5.9692576
  25.8751853  34.6053532   6.7629695  25.3308046  34.6125147   5.3503554
  38.2394022  47.6379332   8.8633234  38.7912330  47.8010954   9.6282319
  38.5800216  48.2283770   8.1913259  33.2158515  29.9854482   9.4655119
  33.2799842  30.8469313   9.0532516  33.1525636  29.3728484   8.7327477
  32.6910788  32.0577615  13.1128153  33.3182827  31.6754692  13.7265677
  31.8338707  31.8391817  13.4783846  43.0904897  42.4640590  14.7181889
  43.6344801  43.0770548  14.2236843  42.5091741  43.0220168  15.2348902
  41.3762410  45.5861308   5.8496916  41.2513549  44.7851048   5.3407862
  42.0341501  46.0807501   5.3610886  32.9970578  31.9410040   5.0274056
  32.2757164  32.5546008   4.8881530  33.7863834  32.4767805   4.9490702
  43.4397318  43.3870328   7.4776466  42.4927653  43.2675679   7.4054793
  43.7880091  42.4992826   7.5602728  35.7996891  29.2764467  11.3014708
  36.3231293  29.5226763  12.0641018  35.5809225  30.1084502  10.8817846
  40.4443751  43.1823044   3.6780819  40.2968714  42.2539752   3.8588389
  41.2697245  43.2043135   3.1937894  44.0477873  44.0051603   4.7645691
  44.9724421  43.7994464   4.6270142  43.8793176  43.7568004   5.6735033
  37.0049436  30.2178162   8.9864379  36.6646257  29.4185975   9.3885059
  36.2988443  30.5179873   8.4141212  37.6565908  27.3027474   7.4391702
  38.4791977  26.8287953   7.3170592  37.9003972  28.0817958   7.9390388
  35.1804487  33.9946595   5.2483680  35.0349068  34.3086898   6.1407962
  34.7029691  34.6131495   4.6954579  37.0400870  30.9849143   5.2964570
  37.0262439  30.0890236   4.9596868  37.7573298  30.9919807   5.9302856
  38.8927000  31.4186483   7.3417697  38.6344778  32.3403554   7.3402028
  38.3612041  31.0216918   8.0318162  43.8373189  44.5237270   0.1207783
  44.0110067  43.9583693  -0.6318365  44.3302080  45.3238165  -0.0612727
  29.6550149  36.5351939   8.1871342  29.1103617  37.3111747   8.3191616
  30.5329499  36.8822744   8.0290463  39.3128956  27.5518434   3.7018860
  39.3350653  27.6157767   2.7470839  39.7297015  26.7122942   3.8959366
  49.6912580  37.2873693   1.7398083  50.1343726  36.5381018   1.3417206
  48.8139091  37.2783830   1.3571815  44.8248362  43.8404035  -2.7795319
  45.5199266  44.4610727  -2.5608004  45.1671512  42.9899386  -2.5042941
  30.4416171  35.6621836  11.0801498  29.6997907  35.8104471  11.6666129
  30.1208915  35.9230101  10.2168248  46.7239785  41.2903740  -1.2507988
  47.2491109  41.6291013  -1.9758668  46.6362137  40.3550756  -1.4344854
  38.3859834  45.2037814  10.8781888  38.6946960  44.9586961  11.7504588
  39.1835316  45.4084452  10.3900759  38.4080446  47.3575724   3.1087265
  37.9685436  46.8652102   3.8020122  39.1588563  46.8148691   2.8679340
  30.8872785  43.5487264   3.1111893  31.7130805  43.2491036   2.7310537
  30.5366837  42.7794887   3.5601682  35.8554318  42.9013733   5.1809567
  35.2334327  42.2384438   4.8811795  36.5259185  42.9274864   4.4983214
  29.0881390  41.4673591   4.0700827  28.2513298  41.0395765   3.8884828
  29.0605035  41.6606034   5.0071618  35.9278845  31.3795521  14.7742073
  35.9767001  32.2557643  14.3919842  36.4701359  30.8372914  14.2013716
  46.4133691  41.9236644  14.0543210  45.6229235  41.9060783  13.5147709
  46.1767046  42.4624938  14.8092246  46.5331566  38.7729110  11.3675938
  46.5829571  38.6079118  12.3091461  46.4245489  37.9056369  10.9773819
  35.4167825  41.4517656  -1.3431973  35.5655945  42.1353120  -1.9965300
  36.2234268  41.4322746  -0.8282517  43.8235328  34.7560038  12.6835245
  44.7245191  34.6166503  12.3919243  43.8983303  34.9214493  13.6233422
  38.1578134  32.1326893  11.5288431  37.2881443  32.4260459  11.2571020
  38.3937614  32.7167338  12.2495695  48.0349763  41.1926052  11.6117960
  47.7434571  41.5556032  12.4481421  47.4221894  40.4793060  11.4331292
  49.2345445  38.7578932   4.1320530  50.0692337  39.1968736   4.2958090
  49.3704574  38.2817585   3.3128776  46.2836951  36.3158666  10.0798018
  46.7591073  36.5086313   9.2716869  45.3602516  36.3717852   9.8341402
  40.8617168  28.3506510   9.0453852  41.3799111  29.0867537   8.7200340
  40.5072300  28.6570503   9.8800611  41.1129762  24.7706792   4.5654748
  41.3931515  24.1029982   5.1915175  41.8980369  24.9635888   4.0529412
  38.9163230  43.9465786  -3.8720225  38.3437197  44.5655974  -4.3249753
  39.4896024  44.4965148  -3.3380303  44.9838620  33.1924426   8.3126323
  45.9356043  33.2922524   8.3338547  44.8142070  32.4002695   8.8224408
  43.0053000  30.2780010   8.4985724  42.4102932  30.5585022   7.8032213
  42.7202696  30.7673911   9.2702465  42.1360490  44.2302937  -2.7411643
  43.0691163  44.1648498  -2.5378768  42.0483703  45.0659203  -3.1997110
  44.7648507  43.5468807  -5.7807696  44.6862138  43.2128670  -4.8871938
  45.5858173  44.0390575  -5.7816223  47.4626698  36.4130546   7.4268623
  47.4303018  35.4746547   7.6128307  48.0727321  36.4914583   6.6934448
  47.6121186  33.2041590   7.4726906  47.0960235  32.4200046   7.2856835
  48.4961135  32.8760306   7.6373426  45.2731913  26.9482605   3.4322719
  45.0756734  26.6397693   4.3166051  45.8831619  27.6744244   3.5620649
  53.2803248  37.4746553   6.5674660  54.0106636  37.2131841   7.1282363
  52.6710193  36.7375275   6.6076728  51.3618545  35.6154416   7.1649111
  50.6351708  35.4810381   6.5565603  50.9465832  35.9231244   7.9705829
  39.1848721  39.3344345  14.9296484  40.1051731  39.5122944  15.1236531
  39.1498304  38.3900391  14.7776183  28.4030886  34.5282939   3.8549759
  28.0833671  33.6748247   3.5624133  27.8564314  34.7431517   4.6107726
  32.1810794  37.2445380   7.5719265  32.3996804  38.1762488   7.5907299
  32.5936568  36.8853354   8.3574069  37.0538659  32.8178586  16.9622014
  36.9535386  33.7672943  16.8934105  36.8360201  32.4896825  16.0898084
  28.2719146  38.1485850   5.8242880  27.5782618  37.7339803   5.3112835
  29.0192137  38.1906387   5.2276299  44.4084367  28.9392037   0.6897915
  43.8283036  29.5976841   0.3075967  44.1420300  28.1169382   0.2785332
  42.8587933  28.3397095   2.8919235  43.3587712  28.4513629   2.0833554
  43.5023541  28.0358148   3.5320043  36.9169929  36.2475725  15.7787076
  36.4337011  37.0476085  15.9850965  37.0030868  36.2583669  14.8254520
  30.1855889  38.0804104   3.7008895  30.1626577  38.1791791   2.7490778
  30.4956525  38.9269255   4.0226061  32.8443267  40.1380259   7.8155510
  33.7986520  40.1064202   7.7485441  32.6455790  39.6770883   8.6305736
  33.4342649  38.7081375  10.3826307  34.2535538  39.2025454  10.4061145
  33.7079456  37.7913343  10.3543875  43.1909245  31.0992128  -0.2545737
  42.3035100  31.3841778  -0.4725542  43.6063234  30.9385891  -1.1018460
  46.5423781  31.1238649   3.4608602  47.3184171  31.6135101   3.7333219
  45.8171915  31.5496703   3.9180472  48.9796340  31.8366268   4.5182543
  49.5740831  31.5962004   3.8075851  49.0522923  31.1173398   5.1456079
  31.1993495  45.6799879   4.8325708  31.0647963  44.9200280   4.2663706
  30.7825558  46.4040779   4.3654496  42.3352458  40.8636802  -6.1597717
  43.0388309  41.0686805  -5.5440062  41.6115107  41.4313564  -5.8948634
  43.1650269  36.6146664  -0.0395447  43.1085470  37.0715215  -0.8787815
  43.7178611  35.8537348  -0.2172604  46.9755075  32.4036395   0.7854672
  46.7192009  32.0033031   1.6162880  46.3507943  33.1180189   0.6604812
  51.2867412  35.1432469   3.2925964  50.7266970  35.2125658   4.0657526
  50.6810916  34.9673453   2.5725460  34.3562621  46.5769196   5.0444150
  34.2395005  47.5214628   4.9422840  33.5355068  46.2742757   5.4329949
  44.2439156  41.3019331  -4.1099257  45.0784760  40.8700530  -4.2921782
  44.0823499  41.1301345  -3.1822363  43.8985048  37.8051445  -2.7442918
  43.8433852  37.6395716  -3.6854474  43.2731103  38.5127478  -2.5880728
  28.6877563  33.0419509  11.0818504  29.3336427  32.5318463  11.5705730
  28.4794714  33.7788191  11.6561930  41.2130955  40.1100357  16.5810645
  42.0822115  40.2841009  16.2197280  40.7337707  40.9294773  16.4586374
  35.3817135  47.2297458   8.2600079  36.2844382  47.2621068   8.5766574
  35.1554505  46.2997909   8.2746414  37.1370737  45.9828444   4.9210157
  36.1866368  45.9830306   4.8074529  37.4403224  45.2361179   4.4046192
  33.0275054  30.1887126  15.1793519  33.8906516  29.8323931  15.3896843
  32.4540465  29.8501021  15.8668923  52.8723431  51.8188983   5.9855920
  53.5101841  51.6995730   5.2819260  52.7544274  52.7669827   6.0443872
  49.6813137  51.7716411   5.9217444  49.3431649  51.6557475   5.0337979
  50.5502905  51.3707576   5.9018450  45.5399953  53.6251887   1.9114335
  44.9764818  53.5341824   1.1430623  45.4252348  52.8051792   2.3916828
  50.1632920  52.9251262  11.8803650  50.1521561  52.5304061  11.0084153
  50.3253560  52.1917335  12.4737421  43.0864385  55.1203079   4.7498556
  43.8785677  54.7793903   4.3344855  43.3261035  55.2298054   5.6700709
  45.0455139  54.3811992  -2.3784065  45.8186015  53.8340979  -2.5171190
  45.3980538  55.2456241  -2.1669604  46.8840181  55.7088374  10.8282834
  46.5930047  56.6134005  10.7129500  47.5197166  55.7504902  11.5426903
  47.8096388  53.0865223   7.4184193  48.4059960  52.8621245   6.7041156
  47.8671360  52.3449968   8.0209641  52.4264699  49.5440436   3.0609128
  53.2127789  49.1259860   2.7099545  52.6903404  50.4486529   3.2290776
  57.8273127  49.4815670   3.9642106  58.5598298  48.9114886   4.1979936
  57.0712482  49.0937270   4.4048612  47.1017705  52.4432764  -2.5441241
  46.9853963  51.7677667  -1.8760156  47.2119965  51.9565138  -3.3609088
  49.4449246  51.9042911   1.1605449  49.0807453  51.3773532   1.8718370
  50.3016362  51.5141380   0.9871934  55.3498547  43.1937244   8.4236715
  55.0181872  44.0632655   8.1997930  54.7544160  42.8773528   9.1030745
  49.0854733  46.9332811  -3.8433203  49.2529136  47.8013047  -3.4762732
  48.8951902  47.0960093  -4.7671914  51.8430066  55.3949790   7.8232627
  51.5430790  56.2974829   7.7148435  51.4981126  55.1281973   8.6753780
  45.2942548  51.8463587   3.8569332  44.3693044  51.7139801   4.0647024
  45.5426961  52.6257806   4.3539274  55.2427210  47.9132330   5.5030065
  54.3344088  47.8447738   5.2088826  55.1914806  48.3904275   6.3311890
  49.0643954  49.3890468  -2.8586536  48.9443579  49.8347519  -2.0201056
  48.3696543  49.7375786  -3.4172998  42.6551359  51.4896860   4.6913121
  42.7843740  51.7431339   5.6052533  41.9748810  52.0824568   4.3717776
  49.3168076  49.3321975  13.4464962  48.5401410  49.8915896  13.4367827
  49.9558639  49.8178758  13.9679832  57.1088857  46.1148768   7.2807939
  56.4663237  46.4081301   6.6347733  56.6043785  46.0001689   8.0861135
  47.5714448  52.1407429  13.0082929  48.3129133  52.6792473  12.7317753
  46.8651434  52.7673718  13.1654481  53.0469788  54.2836569  11.6055091
  53.4553144  53.8418980  10.8609723  52.3247049  53.7089197  11.8589283
  49.4000858  49.2209176   8.9788648  50.2462053  49.6448590   9.1223297
  49.3399496  48.5642800   9.6727211  53.3698603  54.8437760   5.3607379
  52.7407465  55.0083474   4.6583447  52.9824265  55.2579369   6.1318343
  52.5500303  46.8813544  10.6369821  52.3061235  47.6355605  10.1004097
  52.8260234  47.2598892  11.4717068  54.5038766  53.4252157   9.3147087
  54.7155661  54.0683917   8.6381468  54.4568514  52.5914473   8.8469017
  52.1064995  46.0369977   6.2183659  51.2449474  46.3351231   6.5100396
  52.1327430  46.2540376   5.2864692  48.9226564  54.5812168   2.6257465
  49.3864910  54.8599871   1.8362087  48.6583363  53.6795613   2.4430555
  45.8150646  54.1283650   5.5637228  46.3852003  54.5570918   4.9254712
  46.4058757  53.8466234   6.2621413  47.8595451  50.7035320  -0.5652970
  48.5619494  51.1556364  -0.0979044  47.5276079  50.0619139   0.0626923
  46.3075812  49.2947077  13.8098239  45.6774473  49.9763358  14.0433636
  46.2011900  49.1830159  12.8651377  41.6020784  48.9618873   4.7364163
  40.8119838  49.2176402   4.2604274  42.0932032  49.7767211   4.8416204
  55.6184594  56.3024112   7.4869444  56.4402038  55.9004300   7.2052126
  55.6146997  56.1992346   8.4385560  43.5535530  49.3263452   1.6947640
  42.7566693  49.4382147   2.2131136  43.3261122  49.6650105   0.8288530
  49.3841197  55.8508156   9.6430155  49.4485630  56.3128563  10.4788326
  48.6752121  55.2205520   9.7712464  39.8858487  49.2149364   7.1679154
  40.1366526  50.0996373   7.4336730  40.4218036  49.0353965   6.3954246
  63.7090587  52.6462861   3.8354416  62.9554295  52.0770259   3.6798420
  63.8438128  52.6125525   4.7825050  45.5856555  43.5967843  16.1723490
  45.1923500  43.0434041  16.8471134  46.4022695  43.9078421  16.5630008
  42.5518613  55.0351701   0.0837060  43.0643133  55.8294951   0.2342625
  43.2041325  54.3377992   0.0170661  44.3613497  58.1517457   2.1659813
  44.5380126  59.0735422   1.9780797  45.1570331  57.8375877   2.5954193
  48.5024516  45.0125722  13.7643747  49.2434229  45.6132875  13.6848209
  48.7342439  44.2703360  13.2061789  43.6465854  50.1982089  12.0421976
  43.5319369  49.2967346  12.3429075  42.7910372  50.4445786  11.6906793
  50.7257692  58.1399830  13.6409477  50.2821546  57.3536208  13.3230381
  51.3874905  58.3278980  12.9753368  45.4844813  59.6695631   8.1670156
  46.0352238  59.5412694   7.3947149  44.6456289  59.9690520   7.8165048
  52.8238930  58.4202629  11.6690878  52.8057405  59.2411511  11.1771147
  53.7458850  58.2956705  11.8941019  49.2811984  55.9346759  12.5114387
  49.8140321  55.1735047  12.2813695  48.7526065  55.6420411  13.2538541
  52.4481679  41.0406825   8.0408028  52.1045948  41.9308467   7.9647139
  52.8160641  40.8508483   7.1777613  40.5167529  53.3640355   0.8596631
  41.3542751  53.7737364   0.6430338  40.6945797  52.4239798   0.8296824
  49.9979072  45.8765137   1.6065702  49.1420669  45.4871987   1.4271341
  50.4106024  45.9557098   0.7465487  51.5278219  43.4111480   6.0057262
  51.0243015  43.3741615   5.1925067  51.8208826  44.3204223   6.0653918
  47.7721105  43.4950210   5.0123443  48.6374102  43.2993018   4.6529333
  47.8398614  43.2660562   5.9392800  52.2018265  48.9042528  -1.6259755
  51.8968400  49.2188677  -0.7749612  53.1548707  48.9823948  -1.5832422
  50.6464696  55.0632751   0.0233199  50.1186058  54.3285511  -0.2893564
  50.1452199  55.8407428  -0.2226833  55.6257542  53.2581772   5.1400245
  54.9681217  53.9481033   5.2280374  56.4297942  53.6478204   5.4834231
  45.3783424  45.7252418   2.3839810  45.9527176  45.5027599   1.6513003
  45.9654407  45.7941112   3.1368411  54.4363001  51.6126145   3.1904187
  54.9494883  52.2456136   3.6925896  55.0864225  51.0127340   2.8247547
  45.7053011  47.7556879  -3.5964305  44.8690323  48.0931565  -3.2755030
  45.5657781  47.6205859  -4.5337168  47.6806092  42.5993667   1.1114880
  47.0270504  42.2842684   0.4871494  47.6386566  41.9769407   1.8374703
  50.9143832  49.0875600   5.4362527  49.9966394  49.3090547   5.2784215
  51.3303976  49.1621911   4.5774235  51.6978880  50.4867016   0.5665207
  52.4450699  50.9988413   0.2572330  51.9670469  50.1651069   1.4269601
  54.1457717  47.5224132   2.5483997  53.4080474  47.0101518   2.8794239
  54.3984491  47.0824514   1.7367274  54.2469344  40.3000384   3.1425766
  54.5528221  39.4397748   2.8551681  54.9721949  40.8918004   2.9424760
  40.5393700  50.7031071   1.5307364  40.3418100  50.1100431   0.8058431
  39.9840364  50.3983281   2.2483303  48.5190424  50.5954177   3.6501957
  48.5739034  49.6428014   3.5744434  47.7081626  50.7513616   4.1343256
  46.4582784  49.2131237   1.4092336  45.6450650  49.5125407   1.8157528
  46.9541778  48.8186926   2.1266818  48.6091362  59.2088994   3.3426601
  48.5667541  59.4349840   2.4135133  49.5254061  58.9752368   3.4912402
  52.0556996  49.6773061  10.2407230  52.4106383  49.9044535  11.1001696
  52.7029127  50.0091438   9.6184485  45.9496859  46.7849592   7.0253571
  46.5896238  46.6438352   6.3276534  45.1174389  46.4984106   6.6492173
  57.8124112  54.8668024   5.9567830  58.2460619  54.7743313   6.8050884
  58.5255693  54.8425525   5.3187846  46.7257163  56.0852023   3.1388563
  47.5197761  55.5902343   2.9371138  46.0148855  55.5569886   2.7756269
  51.5452007  58.4670118   7.4900931  51.5989029  59.0361055   8.2578647
  50.6766789  58.6372003   7.1254968  43.0339926  50.2295105  -0.7851684
  42.1037514  50.1679560  -0.5681722  43.1297398  49.7071057  -1.5815043
  42.9525475  46.7549917   1.8026558  43.2132293  47.6695251   1.6935718
  43.7742648  46.2874360   1.9523171  44.4250401  48.1687675   8.9725382
  45.0973454  47.9605037   8.3238031  43.5980187  47.9709761   8.5330615
  58.6739662  54.9091725   8.4900716  58.8675552  55.8137535   8.7359991
  58.5740280  54.4499144   9.3239301  50.3275973  44.7949616  10.9891043
  49.6803888  45.4939565  10.8955520  51.0976988  45.2285759  11.3567291
  53.7354770  55.0598468  14.0641596  53.5840277  54.8309019  13.1471680
  53.7259450  56.0169069  14.0772941  50.5040107  52.6330380   9.0487863
  51.4332167  52.7841540   8.8756830  50.0831137  52.7214401   8.1936509
  49.3028439  56.6581045   6.8186401  49.1639524  56.2899829   7.6912339
  48.5143035  57.1728684   6.6470358  50.8533654  56.0362648   4.2075238
  50.5183486  55.9963417   5.1032888  50.3537600  55.3707363   3.7345649
  44.8277898  51.4430278   9.7327819  44.6897696  50.7110516  10.3339358
  45.7382821  51.3539178   9.4512007  47.4560198  51.1550237   9.2211499
  48.1659817  50.5143429   9.1798118  47.4129507  51.4063132  10.1437680
  55.4446977  58.0917590  12.1418078  55.3859523  57.4076810  11.4748661
  55.8466496  58.8336580  11.6898704  46.1689132  48.1415455  11.0407139
  45.6326489  47.6906193  11.6928735  45.5805841  48.2761364  10.2977603
  44.4637676  64.9079504   4.9351797  44.7034274  65.5398028   5.6130816
  43.6206872  64.5567544   5.2217156  45.5791391  47.6004106  -6.3966398
  44.7020858  47.4792907  -6.7604151  46.0549144  46.8090184  -6.6487509
  55.4464384  56.0557174  10.3732058  54.5591163  55.7183096  10.4958457
  56.0162935  55.3240205  10.6100823  37.0993532  52.3881266   3.6975109
  37.7864571  52.0742996   3.1096125  36.9441660  53.2922631   3.4242361
  41.9028254  47.2771462   8.1260133  41.8186442  46.6697132   7.3910543
  41.0810960  47.7680481   8.1269629  48.9765538  60.7158626   7.3393301
  48.9035709  61.5213598   7.8512606  48.5342931  60.9150592   6.5141323
  52.0751968  45.7625026   3.4930328  52.5720667  45.0094988   3.1731398
  51.3038949  45.7989343   2.9273537  59.9281725  51.4665392   5.1348620
  59.9171601  52.3490107   4.7642553  59.0599104  51.1136942   4.9403157
  51.4364221  60.6145461   9.4951460  52.1492194  61.2492925   9.4227361
  50.9454250  60.7109327   8.6791462  53.1581748  54.5196713   1.0668752
  52.2238027  54.6398176   0.8973456  53.3358417  53.6169180   0.8028761
  48.6586936  47.9042409   3.2202013  48.2884724  47.3513449   3.9082918
  49.1546029  47.3000542   2.6677013  56.5454300  50.3614032   1.6018786
  57.0114752  51.1942024   1.5279088  56.9961800  49.8959014   2.3064044
  46.4876135  58.3639904  10.3157031  47.1885594  58.9976387  10.4686425
  46.0171250  58.7054636   9.5552670  54.5170962  42.7294619   5.6409687
  53.6034042  42.9598846   5.8091894  54.9464064  42.8133064   6.4923719
  54.2877421  50.9184511   8.1409581  53.6348871  51.1660419   7.4862034
  54.6657801  50.1048650   7.8072058  50.3364994  51.6604323  14.6275618
  49.6605631  51.5598452  15.2977993  51.1592628  51.5043536  15.0911615
  42.0843853  57.8976259   7.2488133  42.6697290  57.1519947   7.3816038
  41.8868691  58.2080216   8.1324797  44.9382508  60.9327506   2.2650576
  44.2692883  61.4173634   1.7814616  44.7995378  61.1796727   3.1793954
  36.6761508  50.4681859   5.9692576  36.7145607  49.9345450   6.7629695
  36.1701800  49.9417065   5.3503554  49.0787777  62.9671250   8.8633234
  49.6306085  63.1302871   9.6282319  49.4193970  63.5575688   8.1913259
  44.0552270  45.3146400   9.4655119  44.1193596  46.1761231   9.0532516
  43.9919390  44.7020401   8.7327477  43.5304542  47.3869532  13.1128153
  44.1576581  47.0046610  13.7265677  42.6732461  47.1683734  13.4783846
  53.9298651  57.7932507  14.7181889  54.4738555  58.4062466  14.2236843
  53.3485496  58.3512086  15.2348902  40.3070085  49.1945961  -0.9553492
  40.6023526  48.2856640  -1.0086438  39.4058121  49.1733701  -1.2772490
  52.2156164  60.9153225   5.8496916  52.0907303  60.1142965   5.3407862
  52.8735255  61.4099419   5.3610886  43.8364332  47.2701958   5.0274056
  43.1150918  47.8837926   4.8881530  44.6257588  47.8059723   4.9490702
  54.2791072  58.7162246   7.4776466  53.3321408  58.5967597   7.4054793
  54.6273846  57.8284744   7.5602728  46.6390646  44.6056384  11.3014708
  47.1625048  44.8518681  12.0641018  46.4202979  45.4376419  10.8817846
  42.0357927  46.8760059  -0.8314167  41.7070633  45.9957438  -1.0139061
  42.3897298  46.8207728   0.0562222  51.2837506  58.5114962   3.6780819
  51.1362468  57.5831669   3.8588389  52.1090999  58.5335052   3.1937894
  45.1499750  47.1633029  -0.4638689  45.4895822  47.6918950  -1.1860081
  45.5971870  47.5013435   0.3119877  54.8871628  59.3343521   4.7645691
  55.8118175  59.1286382   4.6270142  54.7186931  59.0859922   5.6735033
  47.8443191  45.5470080   8.9864379  47.5040011  44.7477893   9.3885059
  47.1382197  45.8471790   8.4141212  48.4959663  42.6319392   7.4391702
  49.3185732  42.1579870   7.3170592  48.7397726  43.4109876   7.9390388
  47.1367897  45.6607650  -2.2645397  47.8576260  46.0388903  -2.7681680
  46.5133201  46.3796527  -2.1610419  51.2799020  46.3652799  -1.3287064
  51.4962634  47.2477437  -1.6298236  50.7993087  45.9739013  -2.0581422
  46.0198241  49.3238513   5.2483680  45.8742822  49.6378816   6.1407962
  45.5423445  49.9423413   4.6954579  47.8794624  46.3141061   5.2964570
  47.8656193  45.4182154   4.9596868  48.5967052  46.3211724   5.9302856
  49.7320755  46.7478401   7.3417697  49.4738533  47.6695471   7.3402028
  49.2005795  46.3508835   8.0318162  40.4943904  51.8643857   8.1871342
  39.9497372  52.6403665   8.3191616  41.3723253  52.2114662   8.0290463
  47.2831520  45.1955441   0.5652140  47.4047431  44.2672087   0.7643028
  46.9933563  45.2094127  -0.3469544  50.1522711  42.8810351   3.7018860
  50.1744407  42.9449684   2.7470839  50.5690770  42.0414860   3.8959366
  41.2809925  50.9913753  11.0801498  40.5391661  51.1396389  11.6666129
  40.9602670  51.2522019  10.2168248  49.2253588  60.5329732  10.8781888
  49.5340715  60.2878878  11.7504588  50.0229070  60.7376370  10.3900759
  41.7266539  58.8779182   3.1111893  42.5524559  58.5782954   2.7310537
  41.3760591  58.1086804   3.5601682  46.6948072  58.2305650   5.1809567
  46.0728082  57.5676355   4.8811795  47.3652939  58.2566782   4.4983214
  39.9275144  56.7965508   4.0700827  39.0907052  56.3687683   3.8884828
  39.8998790  56.9897952   5.0071618  46.7672600  46.7087438  14.7742073
  46.8160755  47.5849561  14.3919842  47.3095114  46.1664831  14.2013716
  57.2527445  57.2528562  14.0543210  56.4622989  57.2352700  13.5147709
  57.0160800  57.7916855  14.8092246  57.3725320  54.1021028  11.3675938
  57.4223325  53.9371035  12.3091461  57.2639244  53.2348287  10.9773819
  54.6629083  50.0851956  12.6835245  55.5638946  49.9458421  12.3919243
  54.7377057  50.2506411  13.6233422  48.9971888  47.4618811  11.5288431
  48.1275198  47.7552377  11.2571020  49.2331369  48.0459256  12.2495695
  58.8743517  56.5217969  11.6117960  58.5828326  56.8847950  12.4481421
  58.2615649  55.8084978  11.4331292  60.0739200  54.0870849   4.1320530
  60.9086091  54.5260653   4.2958090  60.2098328  53.6109502   3.3128776
  57.1230706  51.6450584  10.0798018  57.5984827  51.8378230   9.2716869
  56.1996271  51.7009770   9.8341402  44.0114212  52.8074751  -0.3370904
  43.7660254  51.9037081  -0.1390694  44.1810127  52.8091902  -1.2791426
  51.7010922  43.6798428   9.0453852  52.2192866  44.4159455   8.7200340
  51.3466055  43.9862421   9.8800611  43.2809860  48.5403109  -2.8384742
  42.5879105  48.6147464  -3.4944706  43.0361612  47.7763452  -2.3163225
  51.9523516  40.0998710   4.5654748  52.2325270  39.4321899   5.1915175
  52.7374123  40.2927806   4.0529412  55.8232375  48.5216344   8.3126323
  56.7749797  48.6214442   8.3338547  55.6535825  47.7294613   8.8224408
  53.8446754  45.6071927   8.4985724  53.2496686  45.8876940   7.8032213
  53.5596451  46.0965828   9.2702465  58.3020452  51.7422464   7.4268623
  58.2696772  50.8038465   7.6128307  58.9121076  51.8206501   6.6934448
  58.4514941  48.5333507   7.4726906  57.9353989  47.7491964   7.2856835
  59.3354889  48.2052224   7.6373426  56.1125668  42.2774523   3.4322719
  55.9150489  41.9689611   4.3166051  56.7225373  43.0036162   3.5620649
  64.1197002  52.8038471   6.5674660  64.8500391  52.5423759   7.1282363
  63.5103948  52.0667193   6.6076728  62.2012299  50.9446333   7.1649111
  61.4745463  50.8102298   6.5565603  61.7859586  51.2523162   7.9705829
  50.0242476  54.6636263  14.9296484  50.9445485  54.8414862  15.1236531
  49.9892059  53.7192308  14.7776183  39.2424641  49.8574857   3.8549759
  38.9227425  49.0040165   3.5624133  38.6958069  50.0723435   4.6107726
  43.0204548  52.5737298   7.5719265  43.2390558  53.5054405   7.5907299
  43.4330322  52.2145272   8.3574069  49.9408766  43.0805383  -0.4405046
  49.1309494  42.7352468  -0.0649800  50.6293183  42.7712927   0.1482565
  51.8699314  42.1583430   1.1819250  52.4230353  42.5778883   1.8409273
  52.1069401  41.2319178   1.2242206  47.8932414  48.1470503  16.9622014
  47.7929140  49.0964860  16.8934105  47.6753956  47.8188742  16.0898084
  47.0945485  45.3955428  -6.4537308  47.9564649  45.7210327  -6.1941491
  47.2795829  44.6086924  -6.9664243  39.1112901  53.4777768   5.8242880
  38.4176372  53.0631721   5.3112835  39.8585892  53.5198305   5.2276299
  55.2478121  44.2683955   0.6897915  54.6676790  44.9268759   0.3075967
  54.9814054  43.4461299   0.2785332  53.6981688  43.6689013   2.8919235
  54.1981466  43.7805547   2.0833554  54.3417296  43.3650065   3.5320043
  47.7563684  51.5767642  15.7787076  47.2730765  52.3768002  15.9850965
  47.8424623  51.5875587  14.8254520  41.0249643  53.4096022   3.7008895
  41.0020331  53.5083709   2.7490778  41.3350280  54.2561173   4.0226061
  43.6837021  55.4672177   7.8155510  44.6380275  55.4356119   7.7485441
  43.4849545  55.0062801   8.6305736  44.2736403  54.0373293  10.3826307
  45.0929292  54.5317372  10.4061145  44.5473211  53.1205261  10.3543875
  54.0302999  46.4284045  -0.2545737  53.1428854  46.7133696  -0.4725542
  54.4456989  46.2677809  -1.1018460  57.3817536  46.4530566   3.4608602
  58.1577926  46.9427019   3.7333219  56.6565670  46.8788620   3.9180472
  59.8190094  47.1658185   4.5182543  60.4134585  46.9253921   3.8075851
  59.8916678  46.4465316   5.1456079  42.0387250  61.0091796   4.8325708
  41.9041718  60.2492197   4.2663706  41.6219312  61.7332696   4.3654496
  54.0044023  51.9438581  -0.0395447  53.9479225  52.4007133  -0.8787815
  54.5572366  51.1829266  -0.2172604  57.8148829  47.7328313   0.7854672
  57.5585763  47.3324949   1.6162880  57.1901697  48.4472107   0.6604812
  62.1261167  50.4724386   3.2925964  61.5660725  50.5417576   4.0657526
  61.5204670  50.2965371   2.5725460  45.1956376  61.9061113   5.0444150
  45.0788760  62.8506546   4.9422840  44.3748822  61.6034675   5.4329949
  39.5271317  48.3711427  11.0818504  40.1730181  47.8610381  11.5705730
  39.3188469  49.1080108  11.6561930  52.0524710  55.4392274  16.5810645
  52.9215869  55.6132927  16.2197280  51.5731461  56.2586691  16.4586374
  48.0474928  42.6351471  -3.1657599  48.0353598  43.5793311  -3.0089329
  48.9398350  42.4521617  -3.4598138  46.2210890  62.5589375   8.2600079
  47.1238137  62.5912986   8.5766574  45.9948260  61.6289826   8.2746414
  47.9764492  61.3120362   4.9210157  47.0260123  61.3122223   4.8074529
  48.2796978  60.5653096   4.4046192  51.8627047  39.2294248   1.0888337
  51.0959443  38.6752735   1.2345020  52.2737752  39.3016117   1.9502489
  43.8668808  45.5179044  15.1793519  44.7300270  45.1615849  15.3896843
  43.2934219  45.1792939  15.8668923  61.0026675  68.2543180  11.8803650
  60.9915315  67.8595978  11.0084153  61.1647314  67.5209253  12.4737421
  66.1892301  58.5229161   8.4236715  65.8575626  59.3924572   8.1997930
  65.5937915  58.2065445   9.1030745  60.1561830  64.6613893  13.4464962
  59.3795165  65.2207813  13.4367827  60.7952394  65.1470676  13.9679832
  58.4108203  67.4699347  13.0082929  59.1522887  68.0084390  12.7317753
  57.7045188  68.0965635  13.1654481  63.3894058  62.2105462  10.6369821
  63.1454990  62.9647523  10.1004097  63.6653988  62.5890810  11.4717068
  57.1469567  64.6238995  13.8098239  56.5168227  65.3055276  14.0433636
  57.0405654  64.5122076  12.8651377  50.7252242  64.5441281   7.1679154
  50.9760280  65.4288291   7.4336730  51.2611790  64.3645883   6.3954246
  56.4250309  58.9259761  16.1723490  56.0317255  58.3725959  16.8471134
  57.2416450  59.2370339  16.5630008  59.3418270  60.3417640  13.7643747
  60.0827984  60.9424793  13.6848209  59.5736193  59.5995277  13.2061789
  54.4859608  65.5274007  12.0421976  54.3713123  64.6259264  12.3429075
  53.6304126  65.7737704  11.6906793  63.2875433  56.3698743   8.0408028
  62.9439703  57.2600384   7.9647139  63.6554396  56.1800400   7.1777613
  56.7890613  62.1141510   7.0253571  57.4289993  61.9730269   6.3276534
  55.9568144  61.8276023   6.6492173  55.2644155  63.4979592   8.9725382
  55.9367208  63.2896954   8.3238031  54.4373942  63.3001678   8.5330615
  61.1669727  60.1241533  10.9891043  60.5197642  60.8231483  10.8955520
  61.9370742  60.5577677  11.3567291  55.6671652  66.7722195   9.7327819
  55.5291450  66.0402434  10.3339358  56.5776576  66.6831095   9.4512007
  58.2953953  66.4842155   9.2211499  59.0053571  65.8435347   9.1798118
  58.2523261  66.7355049  10.1437680  57.0082887  63.4707372  11.0407139
  56.4720244  63.0198111  11.6928735  56.4199595  63.6053281  10.2977603
  52.7422008  62.6063380   8.1260133  52.6580197  61.9989050   7.3910543
  51.9204715  63.0972398   8.1269629  61.1758748  66.9896240  14.6275618
  60.4999385  66.8890370  15.2977993  61.9986382  66.8335454  15.0911615
  47.5155262  65.7973777   5.9692576  47.5539362  65.2637368   6.7629695
  47.0095555  65.2708982   5.3503554  54.8946024  60.6438317   9.4655119
  54.9587351  61.5053148   9.0532516  54.8313145  60.0312319   8.7327477
  54.3698297  62.7161450  13.1128153  54.9970336  62.3338527  13.7265677
  53.5126216  62.4975652  13.4783846  57.4784400  59.9348302  11.3014708
  58.0018802  60.1810599  12.0641018  57.2596734  60.7668337  10.8817846
  58.6836945  60.8761997   8.9864379  58.3433766  60.0769810   9.3885059
  57.9775952  61.1763708   8.4141212  59.3353417  57.9611310   7.4391702
  60.1579486  57.4871788   7.3170592  59.5791481  58.7401793   7.9390388
  51.3337658  67.1935775   8.1871342  50.7891126  67.9695583   8.3191616
  52.2117008  67.5406579   8.0290463  52.1203680  66.3205671  11.0801498
  51.3785416  66.4688306  11.6666129  51.7996424  66.5813937  10.2168248
  57.6066354  62.0379356  14.7742073  57.6554510  62.9141479  14.3919842
  58.1488868  61.4956749  14.2013716  65.5022837  65.4143874  12.6835245
  66.4032700  65.2750338  12.3919243  65.5770812  65.5798328  13.6233422
  59.8365643  62.7910728  11.5288431  58.9668952  63.0844294  11.2571020
  60.0725123  63.3751173  12.2495695  62.5404677  59.0090345   9.0453852
  63.0586620  59.7451372   8.7200340  62.1859809  59.3154339   9.8800611
  60.8636230  69.9928181  14.9296484  61.7839240  70.1706780  15.1236531
  60.8285813  69.0484226  14.7776183  58.7326168  63.4762421  16.9622014
  58.6322895  64.4256778  16.8934105  58.5147710  63.1480660  16.0898084
  58.5957438  66.9059560  15.7787076  58.1124520  67.7059920  15.9850965
  58.6818377  66.9167505  14.8254520  55.1130158  69.3665211  10.3826307
  55.9323047  69.8609289  10.4061145  55.3866965  68.4497179  10.3543875
  50.3665072  63.7003344  11.0818504  51.0123936  63.1902298  11.5705730
  50.1582223  64.4372026  11.6561930  62.8918464  70.7684192  16.5810645
  63.7609624  70.9424844  16.2197280  62.4125216  71.5878609  16.4586374
  54.7062563  60.8470962  15.1793519  55.5694025  60.4907766  15.3896843
  54.1327974  60.5084856  15.8668923  50.1632921  29.9313385  -1.3951044
  50.1521562  29.5366183  -2.2670540  50.3253561  29.1979458  -0.8017272
  46.8840183  32.7150497  -2.4471860  46.5930049  33.6196128  -2.5625193
  47.5197167  32.7567024  -1.7327790  51.8430068  32.4011912  -5.4522066
  51.5430791  33.3036951  -5.5606259  51.4981127  32.1344096  -4.6000913
  49.3168077  26.3384098   0.1710269  48.5401411  26.8978018   0.1613133
  49.9558640  26.8240881   0.6925139  47.5714450  29.1469551  -0.2671764
  48.3129134  29.6854595  -0.5436941  46.8651435  29.7735840  -0.1100212
  53.0469789  31.2898692  -1.6699603  53.4553145  30.8481102  -2.4144970
  52.3247051  30.7151319  -1.4165410  54.5038767  30.4314279  -3.9607607
  54.7155663  31.0746039  -4.6373226  54.4568516  29.5976596  -4.4285677
  55.6184595  33.3086235  -5.7885249  56.4402039  32.9066422  -6.0702568
  55.6146998  33.2054469  -4.8369133  49.3841199  32.8570278  -3.6324539
  49.4485631  33.3190685  -2.7966367  48.6752123  32.2267643  -3.5042229
  50.7257693  35.1461952   0.3654784  50.2821547  34.3598331   0.0475688
  51.3874906  35.3341103  -0.3001326  52.8238931  35.4264752  -1.6063815
  52.8057406  36.2473633  -2.0983546  53.7458851  35.3018827  -1.3813674
  49.2811985  32.9408882  -0.7640307  49.8140322  32.1797170  -0.9940999
  48.7526066  32.6482533  -0.0216152  57.8124114  31.8730147  -7.3186863
  58.2460620  31.7805436  -6.4703809  58.5255694  31.8487647  -7.9566847
  51.5452008  35.4732241  -5.7853762  51.5989031  36.0423177  -5.0176046
  50.6766790  35.6434126  -6.1499725  58.6739663  31.9153848  -4.7853978
  58.8675553  32.8199658  -4.5394703  58.5740281  31.4561267  -3.9515393
  53.7354772  32.0660590   0.7886903  53.5840278  31.8371142  -0.1283013
  53.7259451  33.0231192   0.8018248  55.4446978  35.0979713  -1.1336615
  55.3859525  34.4138933  -1.8006032  55.8466497  35.8398703  -1.5855989
  55.4464386  33.0619297  -2.9022635  54.5591164  32.7245219  -2.7796237
  56.0162937  32.3302328  -2.6653870  48.9765539  37.7220749  -5.9361392
  48.9035711  38.5275721  -5.4242088  48.5342932  37.9212715  -6.7613371
  51.4364223  37.6207583  -3.7803234  52.1492195  38.2555048  -3.8527332
  50.9454251  37.7171449  -4.5963232  46.4876136  35.3702027  -2.9597663
  47.1885596  36.0038510  -2.8068268  46.0171251  35.7116758  -3.7202023
  50.3364995  28.6666445   1.3520925  49.6605632  28.5660574   2.0223300
  51.1592629  28.5105659   1.8156922  49.0787778  39.9733373  -4.4121459
  49.6306086  40.1364994  -3.6472374  49.4193971  40.5637810  -5.0841434
  53.9298652  34.7994630   1.4427195  54.4738556  35.4124588   0.9482150
  53.3485497  35.3574208   1.9594208  52.2156165  37.9215348  -7.4257777
  52.0907305  37.1205088  -7.9346832  52.8735256  38.4161541  -7.9143807
  54.2791074  35.7224368  -5.7978227  53.3321409  35.6029719  -5.8699900
  54.6273847  34.8346866  -5.7151966  54.8871629  36.3405643  -8.5109002
  55.8118176  36.1348504  -8.6484551  54.7186932  36.0922044  -7.6019661
  49.2253589  37.5391854  -2.3972805  49.5340716  37.2941001  -1.5250105
  50.0229071  37.7438493  -2.8853935  57.2527447  34.2590684   0.7788516
  56.4622990  34.2414823   0.2393016  57.0160801  34.7978978   1.5337553
  57.3725322  31.1083151  -1.9078755  57.4223327  30.9433158  -0.9663232
  57.2639245  30.2410410  -2.2980874  54.6629084  27.0914079  -0.5919448
  55.5638947  26.9520543  -0.8835451  54.7377059  27.2568533   0.3478729
  58.8743519  33.5280092  -1.6636734  58.5828327  33.8910073  -0.8273273
  58.2615650  32.8147100  -1.8423401  57.1230707  28.6512707  -3.1956676
  57.5984828  28.8440353  -4.0037824  56.1996272  28.7071892  -3.4413292
  50.0242477  31.6698386   1.6541791  50.9445486  31.8476985   1.8481837
  49.9892060  30.7254431   1.5021490  47.8932415  25.1532626   3.6867321
  47.7929142  26.1026983   3.6179412  47.6753957  24.8250865   2.8143391
  47.7563685  28.5829765   2.5032382  47.2730767  29.3830125   2.7096272
  47.8424624  28.5937710   1.5499826  52.0524711  32.4454397   3.3055952
  52.9215871  32.6195049   2.9442586  51.5731462  33.2648814   3.1831681
  46.2210891  39.5651498  -5.0154615  47.1238138  39.5975108  -4.6988120
  45.9948261  38.6351949  -5.0008279  61.0026676  45.2605303  -1.3951044
  60.9915317  44.8658101  -2.2670540  61.1647315  44.5271375  -0.8017272
  60.1561832  41.6676016   0.1710269  59.3795166  42.2269936   0.1613133
  60.7952395  42.1532799   0.6925139  58.4108204  44.4761469  -0.2671764
  59.1522888  45.0146513  -0.5436941  57.7045190  45.1027758  -0.1100212
  63.3894059  39.2167585  -2.6384872  63.1454991  39.9709645  -3.1750597
  63.6653990  39.5952932  -1.8037625  57.1469568  41.6301117   0.5343546
  56.5168228  42.3117398   0.7678943  57.0405656  41.5184199  -0.4103316
  50.7252243  41.5503404  -6.1075539  50.9760282  42.4350414  -5.8417963
  51.2611792  41.3708005  -6.8800447  56.4250311  35.9321883   2.8968797
  56.0317256  35.3788082   3.5716441  57.2416451  36.2432462   3.2875314
  59.3418272  37.3479762   0.4889053  60.0827985  37.9486915   0.4093516
  59.5736194  36.6057400  -0.0692904  54.4859610  42.5336130  -1.2332717
  54.3713125  41.6321387  -0.9325618  53.6304127  42.7799826  -1.5847900
  56.7890615  39.1203633  -6.2501122  57.4289994  38.9792392  -6.9478159
  55.9568145  38.8338146  -6.6262520  55.2644156  40.5041715  -4.3029311
  55.9367210  40.2959077  -4.9516662  54.4373943  40.3063801  -4.7424079
  61.1669728  37.1303656  -2.2863650  60.5197643  37.8293605  -2.3799174
  61.9370744  37.5639800  -1.9187402  55.6671654  43.7784318  -3.5426874
  55.5291451  43.0464557  -2.9415335  56.5776577  43.6893218  -3.8242686
  58.2953954  43.4904277  -4.0543194  59.0053573  42.8497469  -4.0956576
  58.2523262  43.7417172  -3.1317013  57.0082888  40.4769495  -2.2347555
  56.4720245  40.0260233  -1.5825958  56.4199597  40.6115404  -2.9777090
  52.7422009  39.6125503  -5.1494560  52.6580198  39.0051172  -5.8844150
  51.9204716  40.1034521  -5.1485064  61.1758750  43.9958363   1.3520925
  60.4999387  43.8952492   2.0223300  61.9986383  43.8397577   1.8156922
  47.5155263  42.8035900  -7.3062117  47.5539363  42.2699490  -6.5124999
  47.0095556  42.2771105  -7.9251140  54.8946026  37.6500440  -3.8099575
  54.9587352  38.5115271  -4.2222177  54.8313146  37.0374442  -4.5427216
  54.3698298  39.7223573  -0.1626540  54.9970337  39.3400650   0.4510984
  53.5126217  39.5037775   0.2029152  57.4784402  36.9410425  -1.9739985
  58.0018803  37.1872721  -1.2113676  57.2596735  37.7730460  -2.3936848
  58.6836947  37.8824120  -4.2890315  58.3433767  37.0831933  -3.8869635
  57.9775953  38.1825831  -4.8613481  59.3353418  34.9673432  -5.8362992
  60.1579488  34.4933910  -5.9584101  59.5791482  35.7463916  -5.3364305
  51.3337659  44.1997897  -5.0883352  50.7891127  44.9757705  -4.9563077
  52.2117009  44.5468702  -5.2464230  52.1203681  43.3267794  -2.1953195
  51.3785417  43.4750429  -1.6088564  51.7996425  43.5876059  -3.0586446
  57.6066355  39.0441479   1.4987379  57.6554511  39.9203601   1.1165149
  58.1488870  38.5018872   0.9259023  65.5022839  42.4205996  -0.5919448
  66.4032701  42.2812461  -0.8835451  65.5770813  42.5860451   0.3478729
  59.8365644  39.7972851  -1.7466262  58.9668953  40.0906417  -2.0183673
  60.0725124  40.3813296  -1.0258998  62.5404678  36.0152468  -4.2300842
  63.0586622  36.7513495  -4.5554353  62.1859811  36.3216461  -3.3954083
  60.8636231  46.9990303   1.6541791  61.7839241  47.1768902   1.8481837
  60.8285815  46.0546349   1.5021490  58.7326169  40.4824544   3.6867321
  58.6322896  41.4318901   3.6179412  58.5147711  40.1542783   2.8143391
  58.5957439  43.9121682   2.5032382  58.1124521  44.7122043   2.7096272
  58.6818378  43.9229627   1.5499826  55.1130159  46.3727333  -2.8928386
  55.9323048  46.8671412  -2.8693549  55.3866967  45.4559301  -2.9210819
  50.3665073  40.7065467  -2.1936189  51.0123937  40.1964421  -1.7048964
  50.1582224  41.4434149  -1.6192764  62.8918465  47.7746315   3.3055952
  63.7609625  47.9486967   2.9442586  62.4125217  48.5940731   3.1831681
  54.7062564  37.8533084   1.9038825  55.5694026  37.4969889   2.1142150
  54.1327975  37.5146979   2.5914230   3.6304352  64.8107589  30.5151490
   4.3629524  64.2406806  30.7489319   2.8743707  64.4229190  30.9557995
   1.1529772  58.5229163  34.9746098   0.8213097  59.3924574  34.7507313
   0.5575385  58.2065447  35.6540129   2.9120082  61.4440688  33.8317322
   2.2694462  61.7373221  33.1857117   2.4075010  61.3293608  34.6370519
   3.0519060  71.1084117  29.2661127   2.3670098  71.4883019  28.7158160
   3.1362909  71.7179444  29.9993075   1.4215819  71.6316032  34.0378828
   2.2433263  71.2296219  33.7561509   1.4178222  71.5284266  34.9894944
   9.5121812  67.9754780  30.3863799   8.7585521  67.4062178  30.2307804
   9.6469353  67.9417445  31.3334434   3.1897461  69.1139710  25.0343021
   2.4126903  68.7750870  24.5898183   3.8688942  69.1192333  24.3597986
   1.4288768  68.5873691  31.6909629   0.7712442  69.2772953  31.7789757
   2.2329167  68.9770123  32.0343615   3.5885958  68.1283417  27.4965943
   3.4503856  68.3185013  26.5687132   3.2322177  68.8902800  27.9533994
   3.6155337  70.1959944  32.5077214   4.0491844  70.1035233  33.3560268
   4.3286918  70.1717444  31.8697230   4.4770887  70.2383644  35.0410099
   4.6706777  71.1429455  35.2869374   4.3771505  69.7791063  35.8748684
   1.2478202  73.4209510  38.6927462   1.1890748  72.7368730  38.0258045
   1.6497721  74.1628500  38.2408088   5.7312950  66.7957311  31.6858003
   5.7202826  67.6782026  31.3151936   4.8630329  66.4428862  31.4912540
   2.3485525  65.6905952  28.1528169   2.8145977  66.5233944  28.0788472
   2.7993025  65.2250934  28.8573428   0.6902853  74.6635440  31.3155075
   1.6149400  74.4578301  31.1779526   0.5218156  74.4151841  32.2244416
   6.3337560  67.9457530  28.2907466   6.7768706  67.1964856  27.8926589
   5.4564070  67.9367667  27.9081198   3.3664764  71.9487577  25.3001395
   3.8916088  72.2874850  24.5750715   3.2787117  71.0134593  25.1164530
   3.0558670  72.5820481  40.6052593   2.2654214  72.5644620  40.0657093
   2.8192025  73.1208775  41.3601630   3.1756546  69.4312947  37.9185322
   3.2254550  69.2662955  38.8600845   3.0670469  68.5640206  37.5283203
   4.6774742  71.8509889  38.1627343   4.3859551  72.2139869  38.9990804
   4.0646874  71.1376897  37.9840676   5.8770425  69.4162769  30.6829914
   6.7117316  69.8552573  30.8467474   6.0129553  68.9401422  29.8638159
   2.9261931  66.9742504  36.6307401   3.4016052  67.1670150  35.8226253
   2.0027496  67.0301689  36.3850785   1.6263600  63.8508264  34.8635707
   2.5781022  63.9506361  34.8847931   1.4567050  63.0586532  35.3733791
   4.1051677  67.0714383  33.9778007   4.0727997  66.1330384  34.1637691
   4.7152301  67.1498420  33.2443832   4.2546166  63.8625427  34.0236290
   3.7385214  63.0783883  33.8366219   5.1386114  63.5344143  34.1882809
   1.9156893  57.6066442  29.9832103   1.7181714  57.2981530  30.8675435
   2.5256598  58.3328081  30.1130032   9.9228227  68.1330390  33.1184044
  10.6531616  67.8715678  33.6791747   9.3135173  67.3959112  33.1586112
   8.0043524  66.2738253  33.7158495   7.2776688  66.1394218  33.1074986
   7.5890811  66.5815081  34.5215213   3.1848761  61.7822486  30.0117986
   3.9609151  62.2718938  30.2842603   2.4596895  62.2080540  30.4689855
   5.6221319  62.4950105  31.0691926   6.2165810  62.2545841  30.3585235
   5.6947903  61.7757235  31.6965463   3.6180054  63.0620233  27.3364056
   3.3616988  62.6616868  28.1672264   2.9932922  63.7764026  27.2114195
   7.9292392  65.8016306  29.8435348   7.3691950  65.8709495  30.6166910
   7.3235895  65.6257290  29.1234844  14.4698106  80.1399507  30.5151490
  15.2023278  79.5698724  30.7489319  13.7137462  79.7521107  30.9557995
  11.9923526  73.8521081  34.9746098  11.6606851  74.7216492  34.7507313
  11.3969140  73.5357365  35.6540129  11.8852190  78.5716167  32.0539448
  10.9769067  78.5031575  31.7598209  11.8339786  79.0488112  32.8821274
  13.7513836  76.7732605  33.8317322  13.1088216  77.0665139  33.1857117
  13.2468765  76.6585526  34.6370519   9.1925283  77.5397382  37.1879205
   8.9486215  78.2939442  36.6513480   9.4685213  77.9182729  38.0226452
   8.7489975  76.6953815  32.7693043   7.8874454  76.9935068  33.0609780
   8.7752409  76.9124213  31.8374075   2.2281534  74.2551680  42.7232874
   1.8348480  73.7017879  43.3980518   3.0447675  74.5662258  43.1139391
   5.1449495  75.6709559  40.3153130   5.8859209  76.2716712  40.2357593
   5.3767418  74.9287197  39.7571173   9.0906658  71.6990662  34.5917412
   8.7470928  72.5892304  34.5156523   9.4585621  71.5092320  33.7286997
   6.6404052  76.5348974  28.1575086   5.7845648  76.1455824  27.9780724
   7.0531004  76.6140935  27.2974871   8.1703199  74.0695317  32.5566645
   7.6667994  74.0325452  31.7434451   8.4633805  74.9788060  32.6163302
   4.4146085  74.1534047  31.5632827   5.2799081  73.9576856  31.2038716
   4.4823593  73.9244399  32.4902184   4.3231071  73.2577504  27.6624263
   3.6695484  72.9426521  27.0380878   4.2811545  72.6353244  28.3884086
  10.7882697  78.1807969  29.0993380  10.0505453  77.6685355  29.4303623
  11.0409470  77.7408351  28.2876657  10.8894324  70.9584221  29.6935150
  11.1953201  70.0981585  29.4061065  11.6146929  71.5501841  29.4934144
   6.9700952  75.4533453  37.5400427   6.3228867  76.1523402  37.4464903
   7.7401967  75.8869597  37.9076675   8.7176947  76.4208863  30.0439712
   9.2145647  75.6678825  29.7240782   7.9463929  76.4573180  29.4782921
  11.1595942  73.3878457  32.1919071  10.2459022  73.6182683  32.3601278
  11.5889043  73.4716901  33.0433103   3.2815625  75.2640222  37.8524092
   3.8050027  75.5102518  38.6150401   3.0627959  76.0960256  37.4327229
   4.4868170  76.2053917  35.5373762   4.1464991  75.4061730  35.9394442
   3.7807177  76.5055628  34.9650596   5.1384642  73.2903229  33.9901085
   5.9610711  72.8163707  33.8679976   5.3822706  74.0693713  34.4899772
   7.9224000  77.0236637  25.2222319   8.1387614  77.9061274  24.9211148
   7.4418067  76.6322850  24.4927961   3.9256500  75.8539278  27.1161524
   4.0472411  74.9255924  27.3152411   3.6358542  75.8677964  26.2039839
   6.7947690  73.5394188  30.2528244   6.8169387  73.6033522  29.2980223
   7.2115749  72.6998697  30.4468750   8.3435902  74.3382265  35.5963235
   8.8617845  75.0743292  35.2709724   7.9891034  74.6446258  36.4309994
   8.5948496  70.7582547  31.1164132   8.8750249  70.0905736  31.7424559
   9.3799103  70.9511643  30.6038796  12.4657354  79.1800181  34.8635707
  13.4174777  79.2798279  34.8847931  12.2960804  78.3878450  35.3733791
  10.4871734  76.2655764  35.0495108   9.8921666  76.5460777  34.3541597
  10.2021430  76.7549665  35.8211849  15.0939920  79.1917344  34.0236290
  14.5778969  78.4075801  33.8366219  15.9779869  78.8636061  34.1882809
  12.7550647  72.9358360  29.9832103  12.5575468  72.6273448  30.8675435
  13.3650353  73.6619999  30.1130032   6.5833746  73.7389220  26.1104337
   5.7734474  73.3936305  26.4859583   7.2718163  73.4296764  26.6991949
   8.5124294  72.8167267  27.7328634   9.0655332  73.2362720  28.3918657
   8.7494380  71.8903015  27.7751590  11.8903101  74.9267792  27.2407298
  11.3101770  75.5852596  26.8585351  11.6239034  74.1045137  26.8294716
  10.3406667  74.3272850  29.4428619  10.8406446  74.4389384  28.6342937
  10.9842275  74.0233903  30.0829427  10.6727979  77.0867882  26.2963646
   9.7853834  77.3717533  26.0783841  11.0881968  76.9261646  25.4490923
  14.0242515  77.1114403  30.0117986  14.8002905  77.6010856  30.2842603
  13.2990649  77.5372458  30.4689855  16.4615074  77.8242023  31.0691926
  17.0559565  77.5837759  30.3585235  16.5341657  77.1049153  31.6965463
  14.4573809  78.3912150  27.3364056  14.2010743  77.9908786  28.1672264
  13.8326677  79.1055944  27.2114195  18.7686146  81.1308223  29.8435348
  18.2085704  81.2001413  30.6166910  18.1629650  80.9549208  29.1234844
   4.6899908  73.2935309  23.3851784   4.6778577  74.2377148  23.5420055
   5.5823329  73.1105454  23.0911245   8.5052027  69.8878085  27.6397721
   7.7384423  69.3336572  27.7854403   8.9162732  69.9599954  28.5011873
   3.6304353  41.8169712  17.2396796   4.3629525  41.2468928  17.4734626
   2.8743709  41.4291312  17.6803302   1.1529773  35.5291286  21.6991405
   0.8213098  36.3986697  21.4752620   0.5575387  35.2127570  22.3785435
   2.9120083  38.4502810  20.5562629   2.2694463  38.7435344  19.9102424
   2.4075011  38.3355731  21.3615826   3.0519061  48.1146240  15.9906434
   2.3670099  48.4945141  15.4403467   3.1362910  48.7241566  16.7238381
   1.4215820  48.6378154  20.7624134   2.2433264  48.2358342  20.4806816
   1.4178223  48.5346388  21.7140250   9.5121813  44.9816903  17.1109106
   8.7585522  44.4124301  16.9553110   9.6469355  44.9479567  18.0579741
   3.1897462  46.1201833  11.7588327   2.4126905  45.7812992  11.3143489
   3.8688943  46.1254456  11.0843292   1.4288769  45.5935814  18.4154935
   0.7712443  46.2835075  18.5035064   2.2329168  45.9832246  18.7588922
   3.5885959  45.1345539  14.2211249   3.4503858  45.3247135  13.2932438
   3.2322178  45.8964922  14.6779300   3.6155339  47.2022066  19.2322521
   4.0491845  47.1097355  20.0805575   4.3286919  47.1779567  18.5942537
   4.4770888  47.2445767  21.7655406   4.6706778  48.1491577  22.0114681
   4.3771506  46.7853186  22.5993991   1.2478203  50.4271632  25.4172769
   1.1890750  49.7430852  24.7503352   1.6497722  51.1690622  24.9653395
   5.7312951  43.8019434  18.4103310   5.7202827  44.6844149  18.0397243
   4.8630331  43.4490984  18.2157847   2.3485526  42.6968075  14.8773476
   2.8145978  43.5296066  14.8033779   2.7993026  42.2313056  15.5818734
   0.6902854  51.6697563  18.0400382   1.6149401  51.4640424  17.9024833
   0.5218157  51.4213964  18.9489723   6.3337561  44.9519653  15.0152773
   6.7768707  44.2026978  14.6171896   5.4564071  44.9429789  14.6326505
   3.3664766  48.9549700  12.0246702   3.8916090  49.2936973  11.2996022
   3.2787118  48.0196715  11.8409837   3.0558672  49.5882604  27.3297900
   2.2654215  49.5706742  26.7902399   2.8192026  50.1270897  28.0846937
   3.1756547  46.4375070  24.6430629   3.2254552  46.2725077  25.5846151
   3.0670470  45.5702329  24.2528509   4.6774744  48.8572011  24.8872650
   4.3859552  49.2201992  25.7236111   4.0646875  48.1439020  24.7085982
   5.8770426  46.4224891  17.4075220   6.7117317  46.8614695  17.5712781
   6.0129555  45.9463544  16.5883466   2.9261932  43.9804626  23.3552708
   3.4016053  44.1732272  22.5471560   2.0027497  44.0363812  23.1096092
   1.6263601  40.8570386  21.5881014   2.5781024  40.9568484  21.6093238
   1.4567051  40.0648655  22.0979098   4.1051679  44.0776506  20.7023313
   4.0727999  43.1392507  20.8882997   4.7152302  44.1560543  19.9689138
   4.2546167  40.8687549  20.7481597   3.7385216  40.0846006  20.5611525
   5.1386116  40.5406266  20.9128116   1.9156894  34.6128565  16.7077409
   1.7181715  34.3043653  17.5920741   2.5256600  35.3390204  16.8375339
   9.9228228  45.1392513  19.8429350  10.6531617  44.8777801  20.4037054
   9.3135174  44.4021235  19.8831418   8.0043526  43.2800375  20.4403801
   7.2776689  43.1456340  19.8320293   7.5890812  43.5877204  21.2460519
   3.1848762  38.7884608  16.7363292   3.9609152  39.2781061  17.0087909
   2.4596896  39.2142662  17.1935162   5.6221321  39.5012228  17.7937233
   6.2165811  39.2607963  17.0830541   5.6947904  38.7819358  18.4210769
   3.6180055  40.0682355  14.0609363   3.3616990  39.6678991  14.8917570
   2.9932923  40.7826149  13.9359502   7.9292393  42.8078428  16.5680654
   7.3691951  42.8771618  17.3412216   7.3235897  42.6319413  15.8480150
   9.5148412  59.4834942  19.2610610  10.1526822  59.3641690  18.5573950
   9.3969255  60.4315786  19.3198562   6.3238118  59.4362370  19.1972135
   5.9856630  59.3203435  18.3092669   7.1927886  59.0353535  19.1773141
   6.8057901  60.5897222  25.1558340   6.7946542  60.1950020  24.2838844
   6.9678540  59.8563295  25.7492112   3.5265162  63.3734334  24.1037524
   3.2355028  64.2779965  23.9884190   4.1622146  63.4150862  24.8181594
   4.4521369  60.7511182  20.6938884   5.0484941  60.5267205  19.9795847
   4.5096341  60.0095928  21.2964332   9.0689680  57.2086396  16.3363818
   9.8552769  56.7905819  15.9854235   9.3328385  58.1132488  16.5045466
  14.4698107  57.1461629  17.2396796  15.2023279  56.5760846  17.4734626
  13.7137463  56.7583230  17.6803302   6.0874227  59.5688871  14.4360139
   5.7232434  59.0419492  15.1473060   6.9441343  59.1787340  14.2626624
  11.9923528  50.8583203  21.6991405  11.6606852  51.7278614  21.4752620
  11.3969141  50.5419487  22.3785435   8.4855047  63.0595749  21.0987318
   8.1855770  63.9620788  20.9903125   8.1406107  62.7927933  21.9508471
   1.9367529  59.5109546  17.1324022   1.0118025  59.3785760  17.3401714
   2.1851942  60.2903766  17.6293965  11.8852191  55.5778290  18.7784755
  10.9769068  55.5093698  18.4843516  11.8339787  56.0550235  19.6066581
   5.9593057  56.9967935  26.7219652   5.1826391  57.5561855  26.7122517
   6.5983620  57.4824718  27.2434522  13.7513837  53.7794728  20.5562629
  13.1088218  54.0727261  19.9102424  13.2468766  53.6647648  21.3615826
  11.4054001  57.5257901  11.2448488  12.3171857  57.7585288  11.0696186
  10.8963648  58.1094945  10.6823567   4.2139429  59.8053389  26.2837619
   4.9554113  60.3438433  26.0072443   3.5076415  60.4319677  26.4409171
   9.6894769  61.9482529  24.8809781  10.0978125  61.5064940  24.1364413
   8.9672030  61.3735157  25.1343974   6.0425839  56.8855136  22.2543338
   6.8887034  57.3094549  22.3977987   5.9824476  56.2288760  22.9481901
  10.0123583  62.5083720  18.6362070   9.3832446  62.6729434  17.9338138
   9.6249245  62.9225329  19.4073034  13.8912815  63.4438158  15.9906434
  13.2063853  63.8237059  15.4403467  13.9756665  64.0533484  16.7238381
   9.1925284  54.5459504  23.9124511   8.9486216  55.3001565  23.3758787
   9.4685215  54.9244852  24.7471759  11.1463747  61.0898117  22.5901777
  11.3580642  61.7329876  21.9136158  11.0993495  60.2560433  22.1223707
   8.7489976  53.7015937  19.4938349   7.8874455  53.9997191  19.7855087
   8.7752410  53.9186336  18.5619382   5.5651545  62.2458128  15.9012155
   6.0289891  62.5245831  15.1116777   5.3008343  61.3441572  15.7185246
   2.4575626  61.7929609  18.8391918   3.0276983  62.2216878  18.2009403
   3.0483738  61.5112194  19.5376104   2.9500793  56.9593037  27.0852929
   2.3199453  57.6409318  27.3188326   2.8436881  56.8476118  26.1406068
  12.2609575  63.9670072  20.7624134  13.0827019  63.5650259  20.4806816
  12.2571978  63.8638306  21.7140250   6.0266178  63.5154115  22.9184845
   6.0910611  63.9774522  23.7543017   5.3177102  62.8851480  23.0467155
  20.3515568  60.3108820  17.1109106  19.5979276  59.7416219  16.9553110
  20.4863109  60.2771485  18.0579741   2.2281536  51.2613803  29.4478180
   1.8348481  50.7080001  30.1225825   3.0447676  51.5724381  29.8384698
   5.1449497  52.6771682  27.0398437   5.8859210  53.2778835  26.9602899
   5.3767419  51.9349319  26.4816480   7.3682672  65.8045789  26.9164167
   6.9246526  65.0182168  26.5985072   8.0299886  65.9924940  26.2508058
   9.4663910  66.0848589  24.9445569   9.4482386  66.9057470  24.4525838
  10.3883830  65.9602664  25.1695710   5.9236965  63.5992719  25.7869077
   6.4565301  62.8381007  25.5568385   5.3951046  63.3066370  26.5293231
   9.0906660  48.7052785  21.3162719   8.7470929  49.5954426  21.2401829
   9.4585622  48.5154442  20.4532304   6.6404053  53.5411097  14.8820392
   5.7845650  53.1517947  14.7026031   7.0531005  53.6203057  14.0220178
   8.1703200  51.0757440  19.2811952   7.6667995  51.0387575  18.4679757
   8.4633807  51.9850183  19.3408609   4.4146086  51.1596170  18.2878134
   5.2799083  50.9638978  17.9284023   4.4823595  50.9306521  19.2147490
  14.0291216  61.4493750  11.7588327  13.2520659  61.1104910  11.3143489
  14.7082697  61.4546374  11.0843292   8.8443245  56.5688488  11.6494935
   8.5393381  56.8834637  12.5005078   9.7973688  56.6469908  11.6922268
  12.2682523  60.9227732  18.4154935  11.6106198  61.6126993  18.5035064
  13.0722922  61.3124164  18.7588922   2.0208405  53.3898377  15.6594500
   2.5952157  53.1673559  14.9267693   2.6079387  53.4587072  16.4123102
  11.0787982  59.2772104  16.4658877  11.5919864  59.9102096  16.9680587
  11.7289206  58.6773300  16.1002237   4.3231073  50.2639626  14.3869570
   3.6695485  49.9488644  13.7626185   4.2811547  49.6415367  15.1129393
   7.5568813  56.7521560  18.7117218   6.6391374  56.9736507  18.5538906
   7.9728957  56.8267870  17.8528925   8.3403861  58.1512976  13.8419898
   9.0875680  58.6634373  13.5327020   8.6095450  57.8297028  14.7024291
  11.8449778  64.2578106  14.5938020  11.3912105  63.4169016  14.6503210
  11.2143745  64.8939504  14.9312800  10.7882698  55.1870092  15.8238687
  10.0505455  54.6747478  16.1548930  11.0409471  54.7470473  15.0121964
  10.2882718  66.0954602  15.5287838  10.5805692  66.6559660  14.8100203
  10.7981338  66.3883163  16.2840997  10.8894325  47.9646344  16.4180456
  11.1953202  47.1043707  16.1306371  11.6146930  48.5563964  16.2179450
   5.1615405  58.2600137  16.9256647   5.2164015  57.3073973  16.8499124
   4.3506607  58.4159576  17.4097946   3.1007765  56.8777197  14.6847026
   2.2875630  57.1771367  15.0912218   3.5966759  56.4832885  15.4021509
   8.6981977  57.3419021  23.5161920   9.0531364  57.5690494  24.3756386
   9.3454108  57.6737398  22.8939175  14.4279713  60.4637457  14.2211249
  14.2897612  60.6539053  13.2932438  14.0715932  61.2256840  14.6779300
   2.5921840  54.4495552  20.3008261   3.2321219  54.3084311  19.6031225
   1.7599370  54.1630066  19.9246863  14.4549093  62.5313984  19.2322521
  14.8885600  62.4389273  20.0805575  15.1680674  62.5071484  18.5942537
   8.1876988  66.1316078  20.7655621   8.2414010  66.7007014  21.5333337
   7.3191769  66.3017963  20.4009658  15.3164643  62.5737685  21.7655406
  15.5100533  63.4783495  22.0114681  15.2165261  62.1145104  22.5993991
   6.9700953  52.4595575  24.2645733   6.3228868  53.1585525  24.1710210
   7.7401969  52.8931719  24.6321982  10.3779751  62.7244427  27.3396287
  10.2265258  62.4954979  26.4226370  10.3684431  63.6815029  27.3527632
   7.1465088  60.2976340  22.3242553   8.0757148  60.4487500  22.1511520
   6.7256118  60.3860361  21.4691200   5.9453419  64.3227005  20.0941091
   5.8064505  63.9545789  20.9667029   5.1568016  64.8374644  19.9225049
   7.4958635  63.7008607  17.4829929   7.1608467  63.6609377  18.3787578
   6.9962580  63.0353323  17.0100339   1.4702879  59.1076237  23.0082510
   1.3322677  58.3756476  23.6094049   2.3807802  59.0185137  22.7266697
   4.0985179  58.8196197  22.4966189   4.8084798  58.1789389  22.4552808
   4.0554487  59.0709091  23.4192370  12.0871958  65.7563550  25.4172769
  12.0284504  65.0722770  24.7503352  12.4891476  66.4982540  24.9653395
   2.8114113  55.8061414  24.3161829   2.2751470  55.3552153  24.9683425
   2.2230822  55.9407323  23.5732293  12.0889365  63.7203134  23.6486748
  11.2016144  63.3829056  23.7713147  12.6587916  62.9886165  23.8855514
   5.6190519  68.3804586  20.6147991   5.5460690  69.1859558  21.1267296
   5.1767912  68.5796552  19.7896013   8.7176948  53.4270986  16.7685018
   9.2145648  52.6740948  16.4486089   7.9463930  53.4635302  16.2028228
  16.5706706  59.1311351  18.4103310  16.5596582  60.0136067  18.0397243
  15.7024085  58.7782902  18.2157847   8.0789202  68.2791420  22.7706150
   8.7917174  68.9138885  22.6982052   7.5879231  68.3755286  21.9546152
   9.8006729  62.1842673  14.3423442   8.8663008  62.3044135  14.1728146
   9.9783397  61.2815140  14.0783452   5.3011917  55.5688369  16.4956703
   4.9309705  55.0159409  17.1837609   5.7971010  54.9646502  15.9431703
  13.1879280  58.0259992  14.8773476  13.6539733  58.8587984  14.8033779
  13.6386781  57.5604974  15.5818734   3.1301116  66.0285864  23.5911721
   3.8310575  66.6622347  23.7441115   2.6596231  66.3700595  22.8307360
  11.2555511  64.3703814  11.8759628  11.5315355  64.2560408  12.7853502
  10.3860010  63.9721298  11.8371801  11.1595943  50.3940579  18.9164377
  10.2459023  50.6244806  19.0846584  11.5889045  50.4779023  19.7678410
  10.9302402  58.5830471  21.4164271  10.2773852  58.8306379  20.7616724
  11.3082782  57.7694609  21.0826749   6.9789975  59.3250282  27.9030308
   6.3030612  59.2244412  28.5732684   7.8017609  59.1689496  28.3666306
   5.7212758  70.6317210  22.1387924   6.2731066  70.7948831  22.9037010
   6.0618951  71.2221648  21.4667949   0.6977251  52.9792359  22.7409809
   0.7618577  53.8407190  22.3287207   0.6344371  52.3666361  22.0082168
  10.5723632  65.4578467  27.9936579  11.1163536  66.0708425  27.4991534
   9.9910477  66.0158046  28.5103592   8.8581145  68.5799185  19.1251607
   8.7332284  67.7788925  18.6162552   9.5160236  69.0745379  18.6365577
  10.9216053  66.3808205  20.7531157   9.9746389  66.2613556  20.6809483
  11.2698826  65.4930703  20.8357418   3.2815627  52.2702344  24.5769399
   3.8050028  52.5164641  25.3395708   3.0627960  53.1022379  24.1572536
   7.9262486  66.1760922  16.9535509   7.7787449  65.2477629  17.1343079
   8.7515980  66.1981012  16.4692584  11.5296608  66.9989480  18.0400382
  12.4543156  66.7932342  17.9024833  11.3611912  66.7505881  18.9489723
   4.4868172  53.2116039  22.2619069   4.1464992  52.4123852  22.6639749
   3.7807178  53.5117750  21.6895902   5.1384643  50.2965352  20.7146392
   5.9610713  49.8225830  20.5925282   5.3822707  51.0755836  21.2145078
   7.9224001  54.0298759  11.9467626   8.1387615  54.9123397  11.6456454
   7.4418068  53.6384973  11.2173268   2.6623222  56.9884472  18.5238371
   2.5167803  57.3024775  19.4162652   2.1848426  57.6069373  17.9709269
   4.5219605  53.9787020  18.5719260   4.5081174  53.0828114  18.2351558
   5.2392033  53.9857684  19.2057546   6.3745736  54.4124361  20.6172388
   6.1163514  55.3341431  20.6156718   5.8430776  54.0154795  21.3072852
  11.3191925  67.5175148  13.3962473  11.4928802  66.9521570  12.6436326
  11.8120816  68.3176043  13.2141963   3.9256501  52.8601401  13.8406830
   4.0472412  51.9318047  14.0397718   3.6358543  52.8740087  12.9285146
   6.7947691  50.5456311  16.9773550   6.8169388  50.6095644  16.0225530
   7.2115750  49.7060820  17.1714056  17.1731316  60.2811571  15.0152773
  17.6162462  59.5318896  14.6171896  16.2957826  60.2721707  14.6326505
  14.2058520  64.2841618  12.0246702  14.7309844  64.6228890  11.2996022
  14.1180873  63.3488633  11.8409837   5.8678569  68.1975691  24.1536579
   6.1765695  67.9524838  25.0259278   6.6654051  68.4022330  23.6655449
   3.4097581  54.3733398  28.0496763   3.4585736  55.2495521  27.6674533
   3.9520095  53.8310791  27.4768406  13.8952426  64.9174521  27.3297900
  13.1047970  64.8998660  26.7902399  13.6585781  65.4562815  28.0846937
  14.0150301  61.7666988  24.6430629  14.0648306  61.6016995  25.5846151
  13.9064225  60.8994247  24.2528509  11.3054064  57.7497916  25.9589935
  12.2063926  57.6104381  25.6673933  11.3802038  57.9152371  26.8988113
   5.6396869  55.1264770  24.8043122   4.7700178  55.4198336  24.5325710
   5.8756349  55.7105215  25.5250385  15.5168498  64.1863929  24.8872650
  15.2253306  64.5493910  25.7236111  14.9040629  63.4730937  24.7085982
  16.7164180  61.7516809  17.4075220  17.5511072  62.1906613  17.5712781
  16.8523309  61.2755462  16.5883466  13.7655686  59.3096544  23.3552708
  14.2409808  59.5024190  22.5471560  12.8421252  59.3655730  23.1096092
   8.3435903  51.3444387  22.3208542   8.8617847  52.0805414  21.9955031
   7.9891036  51.6508381  23.1555301   8.5948497  47.7644670  17.8409439
   8.8750251  47.0967859  18.4669865   9.3799104  47.9573765  17.3284102
  12.4657355  56.1862304  21.5881014  13.4174778  56.2860402  21.6093238
  12.2960806  55.3940572  22.0979098  10.4871735  53.2717887  21.7740415
   9.8921667  53.5522900  21.0786903  10.2021431  53.7611788  22.5457156
  14.9445433  59.4068424  20.7023313  14.9121753  58.4684424  20.8882997
  15.5546057  59.4852460  19.9689138  15.0939922  56.1979467  20.7481597
  14.5778970  55.4137924  20.5611525  15.9779870  55.8698184  20.9128116
  12.7550649  49.9420483  16.7077409  12.5575470  49.6335571  17.5920741
  13.3650354  50.6682121  16.8375339  20.7621983  60.4684430  19.8429350
  21.4925371  60.2069719  20.4037054  20.1528928  59.7313152  19.8831418
  18.8437280  58.6092293  20.4403801  18.1170444  58.4748258  19.8320293
  18.4284567  58.9169122  21.2460519   6.6667457  62.3282223  28.2051174
   7.5870466  62.5060822  28.3991221   6.6317040  61.3838268  28.0530874
   6.5833747  50.7451343  12.8349644   5.7734475  50.3998428  13.2104890
   7.2718164  50.4358886  13.4237256   8.5124295  49.8229389  14.4573941
   9.0655334  50.2424843  15.1163964   8.7494381  48.8965138  14.4996897
   4.5357394  55.8116463  30.2376704   4.4354121  56.7610820  30.1688796
   4.3178936  55.4834702  29.3652775  11.8903102  51.9329915  13.9652605
  11.3101771  52.5914719  13.5830657  11.6239035  51.1107259  13.5540022
  10.3406669  51.3334972  16.1673925  10.8406447  51.4451507  15.3588244
  10.9842277  51.0296025  16.8074734   4.3988664  59.2413602  29.0541766
   3.9155746  60.0413962  29.2605655   4.4849603  59.2521547  28.1009210
   0.9161384  61.7019253  23.6580998   1.7354273  62.1963331  23.6815835
   1.1898192  60.7851221  23.6298565  10.6727980  54.0930005  13.0208953
   9.7853835  54.3779656  12.8029148  11.0881969  53.9323768  12.1736230
  14.0242516  54.1176526  16.7363292  14.8002906  54.6072978  17.0087909
  13.2990651  54.5434580  17.1935162  16.4615075  54.8304145  17.7937233
  17.0559566  54.5899881  17.0830541  16.5341659  54.1111276  18.4210769
  10.6469004  59.6084541  13.2359243  10.5904205  60.0653092  12.3966876
  11.1997346  58.8475226  13.0582086  14.4573810  55.3974273  14.0609363
  14.2010744  54.9970908  14.8917570  13.8326678  56.1118067  13.9359502
  18.7686148  58.1370346  16.5680654  18.2085706  58.2063535  17.3412216
  18.1629651  57.9611331  15.8480150  11.3803783  60.7989322  10.5311772
  11.3252587  60.6333594   9.5900217  10.7549839  61.5065355  10.6873962
   8.6949690  63.1038234  29.8565335   9.5640850  63.2778886  29.4951970
   8.2156442  63.9232651  29.7341065   4.6899909  50.2997431  10.1097091
   4.6778579  51.2439271  10.2665362   5.5823331  50.1167577   9.8156552
   8.5052028  46.8940208  14.3643028   7.7384424  46.3398695  14.5099710
   8.9162733  46.9662077  15.2257179  20.3542166  74.8126860  19.2610610
  20.9920576  74.6933607  18.5573950  20.2363009  75.7607704  19.3198562
  17.1631872  74.7654288  19.1972135  16.8250384  74.6495353  18.3092669
  18.0321641  74.3645453  19.1773141  17.6451655  75.9189140  25.1558340
  17.6340296  75.5241938  24.2838844  17.8072295  75.1855212  25.7492112
  14.3658917  78.7026252  24.1037524  14.0748783  79.6071882  23.9884190
  15.0015901  78.7442779  24.8181594  15.2915123  76.0803100  20.6938884
  15.8878696  75.8559123  19.9795847  15.3490095  75.3387846  21.2964332
  19.9083435  72.5378314  16.3363818  20.6946524  72.1197737  15.9854235
  20.1722139  73.4424406  16.5045466  25.3091862  72.4753547  17.2396796
  26.0417034  71.9052764  17.4734626  24.5531218  72.0875147  17.6803302
  16.9267982  74.8980789  14.4360139  16.5626189  74.3711409  15.1473060
  17.7835097  74.5079258  14.2626624  22.8317282  66.1875121  21.6991405
  22.5000607  67.0570532  21.4752620  22.2362896  65.8711405  22.3785435
  19.3248802  78.3887667  21.0987318  19.0249525  79.2912706  20.9903125
  18.9799861  78.1219850  21.9508471  12.7761283  74.8401464  17.1324022
  11.8511780  74.7077678  17.3401714  13.0245696  75.6195683  17.6293965
  22.7245945  70.9070207  18.7784755  21.8162823  70.8385616  18.4843516
  22.6733541  71.3842152  19.6066581  16.7986811  72.3259853  26.7219652
  16.0220145  72.8853773  26.7122517  17.4377374  72.8116636  27.2434522
  24.5907592  69.1086646  20.5562629  23.9481972  69.4019179  19.9102424
  24.0862520  68.9939566  21.3615826  22.2447756  72.8549819  11.2448488
  23.1565612  73.0877206  11.0696186  21.7357403  73.4386863  10.6823567
  15.0533184  75.1345306  26.2837619  15.7947868  75.6730350  26.0072443
  14.3470169  75.7611595  26.4409171  20.5288523  77.2774447  24.8809781
  20.9371879  76.8356857  24.1364413  19.8065785  76.7027074  25.1343974
  16.8819593  72.2147053  22.2543338  17.7280788  72.6386467  22.3977987
  16.8218231  71.5580678  22.9481901  20.8517338  77.8375637  18.6362070
  20.2226200  78.0021351  17.9338138  20.4643000  78.2517247  19.4073034
  24.7306570  78.7730075  15.9906434  24.0457608  79.1528977  15.4403467
  24.8150419  79.3825402  16.7238381  20.0319039  69.8751422  23.9124511
  19.7879970  70.6293482  23.3758787  20.3078969  70.2536769  24.7471759
  21.9857501  76.4190034  22.5901777  22.1974397  77.0621794  21.9136158
  21.9387250  75.5852351  22.1223707  19.5883730  69.0307855  19.4938349
  18.7268209  69.3289108  19.7855087  19.6146165  69.2478254  18.5619382
  16.4045300  77.5750045  15.9012155  16.8683645  77.8537748  15.1116777
  16.1402098  76.6733490  15.7185246  13.2969381  77.1221527  18.8391918
  13.8670738  77.5508795  18.2009403  13.8877493  76.8404112  19.5376104
  13.7894547  72.2884954  27.0852929  13.1593208  72.9701235  27.3188326
  13.6830635  72.1768036  26.1406068  23.1003329  79.2961990  20.7624134
  23.9220773  78.8942177  20.4806816  23.0965732  79.1930224  21.7140250
  16.8659933  78.8446033  22.9184845  16.9304365  79.3066440  23.7543017
  16.1570857  78.2143398  23.0467155   7.3677223  72.2087241  20.4433844
   7.6185261  73.0934251  20.7091420   7.9036771  72.0291842  19.6708936
  31.1909322  75.6400738  17.1109106  30.4373031  75.0708136  16.9553110
  31.3256864  75.6063403  18.0579741  13.0675290  66.5905720  29.4478180
  12.6742236  66.0371919  30.1225825  13.8841430  66.9016299  29.8384698
  15.9843251  68.0063599  27.0398437  16.7252964  68.6070753  26.9602899
  16.2161174  67.2641237  26.4816480  11.1284589  73.1919967  25.3176667
  11.0138104  72.2905224  25.6183766  10.2729107  73.4383663  24.9661483
  18.2076427  81.1337707  26.9164167  17.7640281  80.3474085  26.5985072
  18.8693640  81.3216857  26.2508058  20.3057665  81.4140507  24.9445569
  20.2876140  82.2349388  24.4525838  21.2277585  81.2894582  25.1695710
  16.7630719  78.9284636  25.7869077  17.2959056  78.1672925  25.5568385
  16.2344800  78.6358288  26.5293231  19.9300414  64.0344702  21.3162719
  19.5864683  64.9246344  21.2401829  20.2979377  63.8446360  20.4532304
  17.4797808  68.8703014  14.8820392  16.6239404  68.4809865  14.7026031
  17.8924760  68.9494975  14.0220178  19.0096954  66.4049357  19.2811952
  18.5061750  66.3679493  18.4679757  19.3027561  67.3142100  19.3408609
  15.2539840  66.4888087  18.2878134  16.1192837  66.2930896  17.9284023
  15.3217349  66.2598439  19.2147490  24.8684971  76.7785668  11.7588327
  24.0914414  76.4396828  11.3143489  25.5476452  76.7838291  11.0843292
  19.6837000  71.8980406  11.6494935  19.3787135  72.2126555  12.5005078
  20.6367442  71.9761825  11.6922268  23.1076278  76.2519649  18.4154935
  22.4499952  76.9418911  18.5035064  23.9116677  76.6416081  18.7588922
  12.8602159  68.7190295  15.6594500  13.4345911  68.4965477  14.9267693
  13.4473142  68.7878990  16.4123102  21.9181737  74.6064022  16.4658877
  22.4313618  75.2394014  16.9680587  22.5682960  74.0065218  16.1002237
  15.1624827  65.5931544  14.3869570  14.5089239  65.2780561  13.7626185
  15.1205301  64.9707284  15.1129393  18.3962567  72.0813478  18.7117218
  17.4785129  72.3028425  18.5538906  18.8122711  72.1559788  17.8528925
  19.1797615  73.4804893  13.8419898  19.9269434  73.9926290  13.5327020
  19.4489205  73.1588946  14.7024291  22.6843533  79.5870023  14.5938020
  22.2305860  78.7460933  14.6503210  22.0537499  80.2231422  14.9312800
  21.6276452  70.5162009  15.8238687  20.8899209  70.0039396  16.1548930
  21.8803226  70.0762391  15.0121964  21.1276472  81.4246520  15.5287838
  21.4199446  81.9851577  14.8100203  21.6375093  81.7175081  16.2840997
  21.7288080  63.2938261  16.4180456  22.0346956  62.4335625  16.1306371
  22.4540684  63.8855882  16.2179450  16.0009159  73.5892055  16.9256647
  16.0557769  72.6365891  16.8499124  15.1900361  73.7451494  17.4097946
  13.9401519  72.2069114  14.6847026  13.1269385  72.5063285  15.0912218
  14.4360513  71.8124803  15.4021509  19.5375731  72.6710939  23.5161920
  19.8925119  72.8982412  24.3756386  20.1847862  73.0029316  22.8939175
  25.2673468  75.7929375  14.2211249  25.1291367  75.9830971  13.2932438
  24.9109687  76.5548757  14.6779300  13.4315594  69.7787470  20.3008261
  14.0714973  69.6376229  19.6031225  12.5993125  69.4921983  19.9246863
  25.2942848  77.8605902  19.2322521  25.7279354  77.7681191  20.0805575
  26.0074428  77.8363402  18.5942537  11.9069136  71.1625552  22.2480073
  12.5792189  70.9542914  21.5992721  11.0798922  70.9647638  21.8085305
  26.1558397  77.9029602  21.7655406  26.3494287  78.8075413  22.0114681
  26.0559015  77.4437021  22.5993991  17.8094708  67.7887493  24.2645733
  17.1622623  68.4877443  24.1710210  18.5795723  68.2223637  24.6321982
  21.2173506  78.0536345  27.3396287  21.0659012  77.8246897  26.4226370
  21.2078185  79.0106946  27.3527632  17.9858842  75.6268258  22.3242553
  18.9150902  75.7779417  22.1511520  17.5649872  75.7152279  21.4691200
  16.7847174  79.6518922  20.0941091  16.6458260  79.2837707  20.9667029
  15.9961770  80.1666562  19.9225049  18.3352389  79.0300525  17.4829929
  18.0002222  78.9901295  18.3787578  17.8356335  78.3645241  17.0100339
  12.3096633  74.4368155  23.0082510  12.1716431  73.7048394  23.6094049
  13.2201557  74.3477055  22.7266697  14.9378934  74.1488114  22.4966189
  15.6478552  73.5081306  22.4552808  14.8948242  74.4001009  23.4192370
  22.9265712  81.0855468  25.4172769  22.8678259  80.4014688  24.7503352
  23.3285231  81.8274458  24.9653395  13.6507868  71.1353332  24.3161829
  13.1145225  70.6844071  24.9683425  13.0624576  71.2699241  23.5732293
  22.9283120  79.0495052  23.6486748  22.0409898  78.7120973  23.7713147
  23.4981671  78.3178083  23.8855514   9.3846989  70.2709340  21.4014823
   9.3005178  69.6635009  20.6665233   8.5629695  70.7618358  21.4024320
  19.5570703  68.7562903  16.7685018  20.0539402  68.0032866  16.4486089
  18.7857684  68.7927220  16.2028228  27.4100460  74.4603269  18.4103310
  27.3990336  75.3427984  18.0397243  26.5417840  74.1074820  18.2157847
  20.6400484  77.5134591  14.3423442  19.7056762  77.6336053  14.1728146
  20.8177152  76.6107057  14.0783452  16.1405672  70.8980286  16.4956703
  15.7703459  70.3451327  17.1837609  16.6364764  70.2938420  15.9431703
  24.0273035  73.3551910  14.8773476  24.4933487  74.1879901  14.8033779
  24.4780535  72.8896891  15.5818734  22.0949266  79.6995731  11.8759628
  22.3709110  79.5852326  12.7853502  21.2253765  79.3013216  11.8371801
  21.9989698  65.7232497  18.9164377  21.0852777  65.9536724  19.0846584
  22.4282799  65.8070941  19.7678410  21.7696156  73.9122389  21.4164271
  21.1167606  74.1598296  20.7616724  22.1476536  73.0986527  21.0826749
  17.8183729  74.6542200  27.9030308  17.1424366  74.5536329  28.5732684
  18.6411363  74.4981414  28.3666306  11.5371005  68.3084277  22.7409809
  11.6012332  69.1699108  22.3287207  11.4738125  67.6958279  22.0082168
  11.0123278  70.3807410  26.3882843  11.6395317  69.9984487  27.0020368
  10.1551197  70.1621612  26.7538536  21.4117386  80.7870385  27.9936579
  21.9557290  81.4000343  27.4991534  20.8304231  81.3449963  28.5103592
  11.3183068  70.2639835  18.3028747  10.5969653  70.8775803  18.1636220
  12.1076323  70.7997600  18.2245393  21.7609808  81.7100123  20.7531157
  20.8140143  81.5905474  20.6809483  22.1092581  80.8222621  20.8357418
  14.1209381  67.5994262  24.5769399  14.6443783  67.8456558  25.3395708
  13.9021714  68.4314297  24.1572536  18.7656241  81.5052839  16.9535509
  18.6181203  80.5769547  17.1343079  19.5909734  81.5272930  16.4692584
  22.3690363  82.3281398  18.0400382  23.2936910  82.1224259  17.9024833
  22.2005666  82.0797799  18.9489723  15.3261926  68.5407957  22.2619069
  14.9858746  67.7415770  22.6639749  14.6200932  68.8409668  21.6895902
  15.9778398  65.6257269  20.7146392  16.8004467  65.1517748  20.5925282
  16.2216461  66.4047753  21.2145078  18.7617755  69.3590677  11.9467626
  18.9781370  70.2415315  11.6456454  18.2811822  68.9676890  11.2173268
  13.5016977  72.3176390  18.5238371  13.3561557  72.6316693  19.4162652
  13.0242180  72.9361290  17.9709269  15.3613360  69.3078938  18.5719260
  15.3474928  68.4120031  18.2351558  16.0785788  69.3149602  19.2057546
  17.2139490  69.7416278  20.6172388  16.9557268  70.6633349  20.6156718
  16.6824531  69.3446713  21.3072852   7.9762639  74.8581734  21.4626032
   7.4316107  75.6341542  21.5946306   8.8541989  75.2052539  21.3045153
  14.7650255  68.1893318  13.8406830  14.8866167  67.2609965  14.0397718
  14.4752298  68.2032004  12.9285146  17.6341446  65.8748229  16.9773550
  17.6563143  65.9387562  16.0225530  18.0509505  65.0352737  17.1714056
  28.0125070  75.6103488  15.0152773  28.4556216  74.8610814  14.6171896
  27.1351580  75.6013625  14.6326505   8.7628661  73.9851631  24.3556189
   8.0210397  74.1334266  24.9420819   8.4421405  74.2459896  23.4922938
  25.0452275  79.6133535  12.0246702  25.5703599  79.9520808  11.2996022
  24.9574627  78.6780551  11.8409837  14.2491335  69.7025316  28.0496763
  14.2979490  70.5787438  27.6674533  14.7913849  69.1602709  27.4768406
  24.7346181  80.2466439  27.3297900  23.9441724  80.2290578  26.7902399
  24.4979535  80.7854733  28.0846937  24.8544056  77.0958905  24.6430629
  24.9042061  76.9308913  25.5846151  24.7457979  76.2286164  24.2528509
  22.1447818  73.0789833  25.9589935  23.0457681  72.9396298  25.6673933
  22.2195793  73.2444288  26.8988113  16.4790623  70.4556688  24.8043122
  15.6093933  70.7490254  24.5325710  16.7150104  71.0397133  25.5250385
  26.3562253  79.5155847  24.8872650  26.0647061  79.8785827  25.7236111
  25.7434384  78.8022855  24.7085982  27.5557935  77.0808727  17.4075220
  28.3904826  77.5198531  17.5712781  27.6917064  76.6047380  16.5883466
  24.6049441  74.6388461  23.3552708  25.0803562  74.8316108  22.5471560
  23.6815006  74.6947647  23.1096092  19.1829657  66.6736305  22.3208542
  19.7011601  67.4097332  21.9955031  18.8284790  66.9800298  23.1555301
  19.4342251  63.0936588  17.8409439  19.7144005  62.4259777  18.4669865
  20.2192858  63.2865683  17.3284102  23.3051110  71.5154222  21.5881014
  24.2568533  71.6152319  21.6093238  23.1354560  70.7232490  22.0979098
  21.3265489  68.6009805  21.7740415  20.7315421  68.8814817  21.0786903
  21.0415186  69.0903706  22.5457156  25.7839188  74.7360341  20.7023313
  25.7515508  73.7976342  20.8882997  26.3939811  74.8144378  19.9689138
  25.9333676  71.5271385  20.7481597  25.4172725  70.7429841  20.5611525
  26.8173625  71.1990101  20.9128116  23.5944403  65.2712400  16.7077409
  23.3969224  64.9627488  17.5920741  24.2044109  65.9974039  16.8375339
  31.6015737  75.7976348  19.8429350  32.3319126  75.5361636  20.4037054
  30.9922683  75.0605070  19.8831418  29.6831035  73.9384211  20.4403801
  28.9564198  73.8040176  19.8320293  29.2678321  74.2461039  21.2460519
  17.5061211  77.6574140  28.2051174  18.4264220  77.8352739  28.3991221
  17.4710794  76.7130186  28.0530874  10.5023284  75.5675175  20.8473956
  10.7209293  76.4992283  20.8661989  10.9149057  75.2083149  21.6328759
  17.4227501  66.0743260  12.8349644  16.6128230  65.7290345  13.2104890
  18.1111918  65.7650804  13.4237256  19.3518050  65.1521307  14.4573941
  19.9049088  65.5716761  15.1163964  19.5888136  64.2257055  14.4996897
  15.3751149  71.1408381  30.2376704  15.2747876  72.0902738  30.1688796
  15.1572691  70.8126620  29.3652775  22.7296857  67.2621832  13.9652605
  22.1495526  67.9206636  13.5830657  22.4632789  66.4399177  13.5540022
  21.1800423  66.6626890  16.1673925  21.6800201  66.7743425  15.3588244
  21.8236031  66.3587943  16.8074734  15.2382419  74.5705520  29.0541766
  14.7549501  75.3705880  29.2605655  15.3243358  74.5813464  28.1009210
  11.1655756  78.4610054  21.0910200  12.1199010  78.4293997  21.0240131
  10.9668280  78.0000678  21.9060426  11.7555139  77.0311170  23.6580998
  12.5748028  77.5255249  23.6815835  12.0291946  76.1143138  23.6298565
  21.5121735  69.4221923  13.0208953  20.6247590  69.7071573  12.8029148
  21.9275724  69.2615686  12.1736230  24.8636271  69.4468444  16.7363292
  25.6396661  69.9364896  17.0087909  24.1384405  69.8726498  17.1935162
  27.3008829  70.1596063  17.7937233  27.8953320  69.9191799  17.0830541
  27.3735413  69.4403193  18.4210769  21.4862758  74.9376459  13.2359243
  21.4297960  75.3945010  12.3966876  22.0391101  74.1767143  13.0582086
  25.2967564  70.7266190  14.0609363  25.0404499  70.3262826  14.8917570
  24.6720432  71.4409984  13.9359502  29.6079902  73.4662264  16.5680654
  29.0479460  73.5355453  17.3412216  29.0023406  73.2903248  15.8480150
  22.2197538  76.1281240  10.5311772  22.1646342  75.9625511   9.5900217
  21.5943593  76.8357273  10.6873962   7.0090053  71.3649304  24.3573195
   7.6548916  70.8548258  24.8460420   6.8007204  72.1017986  24.9316620
  19.5343445  78.4330152  29.8565335  20.4034605  78.6070804  29.4951970
  19.0550196  79.2524569  29.7341065  15.5293663  65.6289349  10.1097091
  15.5172333  66.5731189  10.2665362  16.4217085  65.4459494   9.8156552
  19.3445783  62.2232125  14.3643028  18.5778179  61.6690612  14.5099710
  19.7556488  62.2953994  15.2257179  11.3487544  68.5116921  28.4548209
  12.2119005  68.1553726  28.6651533  10.7752954  68.1730816  29.1423613
  36.1485616  87.8045465  17.2396796  36.8810788  87.2344682  17.4734626
  35.3924972  87.4167065  17.6803302  33.6711037  81.5167039  21.6991405
  33.3394361  82.3862450  21.4752620  33.0756650  81.2003323  22.3785435
  33.5639700  86.2362125  18.7784755  32.6556577  86.1677533  18.4843516
  33.5127296  86.7134070  19.6066581  35.4301346  84.4378563  20.5562629
  34.7875727  84.7311097  19.9102424  34.9256275  84.3231484  21.3615826
  30.8712793  85.2043340  23.9124511  30.6273725  85.9585400  23.3758787
  31.1472724  85.5828687  24.7471759  30.4277485  84.3599773  19.4938349
  29.5661964  84.6581026  19.7855087  30.4539919  84.5770171  18.5619382
  23.9069045  81.9197638  29.4478180  23.5135990  81.3663837  30.1225825
  24.7235185  82.2308216  29.8384698  26.8237006  83.3355517  27.0398437
  27.5646719  83.9362670  26.9602899  27.0554928  82.5933155  26.4816480
  30.7694168  79.3636620  21.3162719  30.4258438  80.2538262  21.2401829
  31.1373131  79.1738278  20.4532304  28.3191562  84.1994932  14.8820392
  27.4633159  83.8101782  14.7026031  28.7318514  84.2786893  14.0220178
  29.8490709  81.7341275  19.2811952  29.3455504  81.6971410  18.4679757
  30.1421316  82.6434018  19.3408609  26.0933595  81.8180005  18.2878134
  26.9586592  81.6222814  17.9284023  26.1611104  81.5890357  19.2147490
  26.0018582  80.9223462  14.3869570  25.3482994  80.6072479  13.7626185
  25.9599056  80.2999202  15.1129393  32.4670207  85.8453927  15.8238687
  31.7292964  85.3331313  16.1548930  32.7196980  85.4054309  15.0121964
  32.5681834  78.6230179  16.4180456  32.8740711  77.7627543  16.1306371
  33.2934439  79.2147799  16.2179450  28.6488462  83.1179411  24.2645733
  28.0016377  83.8169360  24.1710210  29.4189478  83.5515555  24.6321982
  30.3964457  84.0854821  16.7685018  30.8933157  83.3324783  16.4486089
  29.6251439  84.1219138  16.2028228  32.8383452  81.0524415  18.9164377
  31.9246532  81.2828641  19.0846584  33.2676554  81.1362859  19.7678410
  24.9603136  82.9286180  24.5769399  25.4837537  83.1748476  25.3395708
  24.7415469  83.7606214  24.1572536  26.1655681  83.8699875  22.2619069
  25.8252501  83.0707688  22.6639749  25.4594687  84.1701586  21.6895902
  26.8172152  80.9549187  20.7146392  27.6398222  80.4809665  20.5925282
  27.0610216  81.7339671  21.2145078  29.6011510  84.6882595  11.9467626
  29.8175124  85.5707232  11.6456454  29.1205577  84.2968808  11.2173268
  25.6044010  83.5185236  13.8406830  25.7259921  82.5901882  14.0397718
  25.3146052  83.5323922  12.9285146  28.4735200  81.2040146  16.9773550
  28.4956897  81.2679480  16.0225530  28.8903259  80.3644655  17.1714056
  30.0223412  82.0028223  22.3208542  30.5405356  82.7389250  21.9955031
  29.6678545  82.3092216  23.1555301  30.2736006  78.4228505  17.8409439
  30.5537760  77.7551694  18.4669865  31.0586613  78.6157601  17.3284102
  34.1444864  86.8446139  21.5881014  35.0962287  86.9444237  21.6093238
  33.9748315  86.0524408  22.0979098  32.1659244  83.9301722  21.7740415
  31.5709176  84.2106735  21.0786903  31.8808940  84.4195623  22.5457156
  36.7727431  86.8563302  20.7481597  36.2566479  86.0721759  20.5611525
  37.6567379  86.5282019  20.9128116  34.4338157  80.6004318  16.7077409
  34.2362979  80.2919406  17.5920741  35.0437863  81.3265957  16.8375339
  28.2621256  81.4035178  12.8349644  27.4521984  81.0582263  13.2104890
  28.9505673  81.0942722  13.4237256  30.1911804  80.4813225  14.4573941
  30.7442843  80.9008678  15.1163964  30.4281890  79.5548973  14.4996897
  33.5690611  82.5913750  13.9652605  32.9889280  83.2498554  13.5830657
  33.3026544  81.7691095  13.5540022  32.0194178  81.9918808  16.1673925
  32.5193956  82.1035342  15.3588244  32.6629785  81.6879861  16.8074734
  32.3515489  84.7513840  13.0208953  31.4641344  85.0363491  12.8029148
  32.7669478  84.5907604  12.1736230  35.7030025  84.7760361  16.7363292
  36.4790415  85.2656814  17.0087909  34.9778160  85.2018416  17.1935162
  38.1402584  85.4887981  17.7937233  38.7347075  85.2483716  17.0830541
  38.2129168  84.7695111  18.4210769  36.1361319  86.0558108  14.0609363
  35.8798253  85.6554744  14.8917570  35.5114187  86.7701902  13.9359502
  40.4473657  88.7954181  16.5680654  39.8873215  88.8647371  17.3412216
  39.8417160  88.6195166  15.8480150  26.3687418  80.9581267  10.1097091
  26.3566088  81.9023106  10.2665362  27.2610840  80.7751412   9.8156552
  30.1839537  77.5524043  14.3643028  29.4171933  76.9982530  14.5099710
  30.5950242  77.6245912  15.2257179   6.8057902  37.5959345  11.8803647
   6.7946543  37.2012143  11.0084150   6.9678542  36.8625417  12.4737418
   3.5265163  40.3796457  10.8282831   3.2355029  41.2842087  10.7129497
   4.1622148  40.4212984  11.5426900   8.4855048  40.0657872   7.8232624
   8.1855772  40.9682911   7.7148432   8.1406108  39.7990055   8.6753777
   5.9593058  34.0030058  13.4464959   5.1826392  34.5623978  13.4367824
   6.5983621  34.4886841  13.9679829   4.2139430  36.8115511  13.0082926
   4.9554115  37.3500555  12.7317750   3.5076416  37.4381800  13.1654478
   9.6894770  38.9544652  11.6055088  10.0978126  38.5127062  10.8609720
   8.9672031  38.3797279  11.8589280  11.1463748  38.0960239   9.3147084
  11.3580643  38.7391999   8.6381465  11.0993496  37.2622556   8.8469014
  12.2609576  40.9732195   7.4869441  13.0827020  40.5712382   7.2052123
  12.2571979  40.8700429   8.4385557   6.0266180  40.5216238   9.6430152
   6.0910612  40.9836645  10.4788323   5.3177103  39.8913603   9.7712461
   7.3682674  42.8107912  13.6409474   6.9246528  42.0244290  13.3230378
   8.0299887  42.9987062  12.9753365   9.4663912  43.0910712  11.6690875
   9.4482387  43.9119593  11.1771144  10.3883832  42.9664787  11.8941016
   5.9236966  40.6054841  12.5114384   6.4565303  39.8443129  12.2813692
   5.3951047  40.3128493  13.2538538  14.4549094  39.5376107   5.9567827
  14.8885601  39.4451396   6.8050881  15.1680675  39.5133607   5.3187843
   8.1876989  43.1378201   7.4900928   8.2414011  43.7069137   8.2578644
   7.3191771  43.3080086   7.1254965  15.3164644  39.5799807   8.4900713
  15.5100534  40.4845618   8.7359988  15.2165262  39.1207226   9.3239298
  10.3779753  39.7306550  14.0641593  10.2265259  39.5017102  13.1471677
  10.3684432  40.6877151  14.0772938  12.0871959  42.7625673  12.1418075
  12.0284505  42.0784893  11.4748658  12.4891478  43.5044663  11.6898701
  12.0889366  40.7265256  10.3732055  11.2016145  40.3891178  10.4958454
  12.6587918  39.9948288  10.6100820   5.6190520  45.3866709   7.3393298
   5.5460691  46.1921680   7.8512603   5.1767913  45.5858675   6.5141319
   8.0789203  45.2853543   9.4951457   8.7917176  45.9201008   9.4227358
   7.5879232  45.3817409   8.6791459   3.1301117  43.0347986  10.3157028
   3.8310576  43.6684469  10.4686422   2.6596232  43.3762718   9.5552667
   6.9789976  36.3312405  14.6275615   6.3030613  36.2306534  15.2977990
   7.8017610  36.1751619  15.0911612   5.7212759  47.6379332   8.8633231
   6.2731067  47.8010954   9.6282316   6.0618952  48.2283770   8.1913256
  10.5723633  42.4640590  14.7181885  11.1163537  43.0770548  14.2236840
   9.9910478  43.0220168  15.2348898   8.8581146  45.5861308   5.8496913
   8.7332285  44.7851048   5.3407859   9.5160237  46.0807501   5.3610883
  10.9216054  43.3870328   7.4776463   9.9746390  43.2675679   7.4054790
  11.2698828  42.4992826   7.5602725  11.5296610  44.0051603   4.7645688
  12.4543157  43.7994464   4.6270139  11.3611913  43.7568004   5.6735030
   5.8678570  45.2037814  10.8781885   6.1765697  44.9586961  11.7504585
   6.6654052  45.4084452  10.3900756  13.8952427  41.9236644  14.0543207
  13.1047971  41.9060783  13.5147706  13.6585782  42.4624938  14.8092243
  14.0150303  38.7729110  11.3675935  14.0648307  38.6079118  12.3091458
  13.9064226  37.9056369  10.9773816  11.3054065  34.7560038  12.6835242
  12.2063928  34.6166503  12.3919240  11.3802039  34.9214493  13.6233419
  15.5168499  41.1926052  11.6117957  15.2253308  41.5556032  12.4481418
  14.9040631  40.4793060  11.4331289  13.7655688  36.3158666  10.0798015
  14.2409809  36.5086313   9.2716866  12.8421253  36.3717852   9.8341398
  20.7621984  37.4746553   6.5674657  21.4925373  37.2131841   7.1282360
  20.1528930  36.7375275   6.6076725  18.8437281  35.6154416   7.1649108
  18.1170445  35.4810381   6.5565600  18.4284568  35.9231244   7.9705826
   6.6667458  39.3344345  14.9296481   7.5870467  39.5122944  15.1236528
   6.6317041  38.3900391  14.7776180   4.5357396  32.8178586  16.9622011
   4.4354123  33.7672943  16.8934102   4.3178938  32.4896825  16.0898081
   4.3988666  36.2475725  15.7787073   3.9155747  37.0476085  15.9850962
   4.4849605  36.2583669  14.8254517   8.6949692  40.1100357  16.5810642
   9.5640851  40.2841009  16.2197277   8.2156443  40.9294773  16.4586371
  20.3542167  51.8188983   5.9855917  20.9920577  51.6995730   5.2819257
  20.2363010  52.7669827   6.0443869  17.1631874  51.7716411   5.9217441
  16.8250385  51.6557475   5.0337976  18.0321642  51.3707576   5.9018447
  17.6451657  52.9251262  11.8803647  17.6340298  52.5304061  11.0084150
  17.8072296  52.1917335  12.4737418  14.3658918  55.7088374  10.8282831
  14.0748784  56.6134005  10.7129497  15.0015902  55.7504902  11.5426900
  15.2915125  53.0865223   7.4184190  15.8878697  52.8621245   6.7041153
  15.3490096  52.3449968   8.0209638  19.9083436  49.5440436   3.0609125
  20.6946525  49.1259860   2.7099542  20.1722140  50.4486529   3.2290773
  25.3091863  49.4815670   3.9642103  26.0417035  48.9114886   4.1979933
  24.5531219  49.0937270   4.4048609  16.9267983  51.9042911   1.1605446
  16.5626190  51.3773532   1.8718367  17.7835099  51.5141380   0.9871931
  22.8317283  43.1937244   8.4236712  22.5000608  44.0632655   8.1997927
  22.2362897  42.8773528   9.1030742  19.3248803  55.3949790   7.8232624
  19.0249526  56.2974829   7.7148432  18.9799862  55.1281973   8.6753777
  12.7761284  51.8463587   3.8569329  11.8511781  51.7139801   4.0647021
  13.0245698  52.6257806   4.3539271  22.7245947  47.9132330   5.5030062
  21.8162824  47.8447738   5.2088823  22.6733543  48.3904275   6.3311887
  16.7986813  49.3321975  13.4464959  16.0220147  49.8915896  13.4367824
  17.4377376  49.8178758  13.9679829  24.5907593  46.1148768   7.2807936
  23.9481973  46.4081301   6.6347730  24.0862522  46.0001689   8.0861132
  22.2447757  49.8611941  -2.0306205  23.1565613  50.0939328  -2.2058508
  21.7357404  50.4448986  -2.5931126  15.0533185  52.1407429  13.0082926
  15.7947869  52.6792473  12.7317750  14.3470170  52.7673718  13.1654478
  20.5288524  54.2836569  11.6055088  20.9371881  53.8418980  10.8609720
  19.8065786  53.7089197  11.8589280  16.8819595  49.2209176   8.9788644
  17.7280790  49.6448590   9.1223293  16.8218232  48.5642800   9.6727208
  20.8517339  54.8437760   5.3607376  20.2226202  55.0083474   4.6583444
  20.4643001  55.2579369   6.1318340  24.7306571  55.7792198   2.7151740
  24.0457609  56.1591099   2.1648773  24.8150420  56.3887524   3.4483688
  20.0319040  46.8813544  10.6369818  19.7879972  47.6355605  10.1004094
  20.3078970  47.2598892  11.4717065  21.9857503  53.4252157   9.3147084
  22.1974398  54.0683917   8.6381465  21.9387251  52.5914473   8.8469014
  19.5883732  46.0369977   6.2183656  18.7268211  46.3351231   6.5100393
  19.6146166  46.2540376   5.2864688  16.4045301  54.5812168   2.6257461
  16.8683647  54.8599871   1.8362084  16.1402099  53.6795613   2.4430552
  13.2969382  54.1283650   5.5637225  13.8670739  54.5570918   4.9254709
  13.8877494  53.8466234   6.2621410  13.7894549  49.2947077  13.8098236
  13.1593209  49.9763358  14.0433633  13.6830636  49.1830159  12.8651374
  23.1003331  56.3024112   7.4869441  23.9220774  55.9004300   7.2052123
  23.0965733  56.1992346   8.4385557  16.8659934  55.8508156   9.6430152
  16.9304367  56.3128563  10.4788323  16.1570858  55.2205520   9.7712461
   7.3677224  49.2149364   7.1679151   7.6185262  50.0996373   7.4336727
   7.9036772  49.0353965   6.3954243  31.1909324  52.6462861   3.8354412
  30.4373032  52.0770259   3.6798417  31.3256865  52.6125525   4.7825047
  13.0675291  43.5967843  16.1723487  12.6742237  43.0434041  16.8471131
  13.8841432  43.9078421  16.5630005  15.9843252  45.0125722  13.7643744
  16.7252966  45.6132875  13.6848206  16.2161175  44.2703360  13.2061786
  11.1284590  50.1982089  12.0421973  11.0138105  49.2967346  12.3429072
  10.2729108  50.4445786  11.6906790  18.2076428  58.1399830  13.6409474
  17.7640282  57.3536208  13.3230378  18.8693642  58.3278980  12.9753365
  20.3057666  58.4202629  11.6690875  20.2876141  59.2411511  11.1771144
  21.2277586  58.2956705  11.8941016  16.7630720  55.9346759  12.5114384
  17.2959057  55.1735047  12.2813692  16.2344801  55.6420411  13.2538538
  19.9300415  41.0406825   8.0408025  19.5864685  41.9308467   7.9647136
  20.2979378  40.8508483   7.1777610  17.4797809  45.8765137   1.6065699
  16.6239405  45.4871987   1.4271337  17.8924761  45.9557098   0.7465484
  19.0096956  43.4111480   6.0057259  18.5061751  43.3741615   5.1925064
  19.3027562  44.3204223   6.0653915  15.2539842  43.4950210   5.0123440
  16.1192838  43.2993018   4.6529330  15.3217350  43.2660562   5.9392797
  24.8684972  53.7847791  -1.5166366  24.0914415  53.4458950  -1.9611204
  25.5476453  53.7900414  -2.1911401  19.6837001  48.9042528  -1.6259758
  19.3787137  49.2188677  -0.7749615  20.6367443  48.9823948  -1.5832425
  23.1076279  53.2581772   5.1400242  22.4499953  53.9481033   5.2280371
  23.9116678  53.6478204   5.4834228  21.9181738  51.6126145   3.1904184
  22.4313620  52.2456136   3.6925893  22.5682962  51.0127340   2.8247544
  18.3962569  49.0875600   5.4362524  17.4785130  49.3090547   5.2784212
  18.8122712  49.1621911   4.5774231  19.1797616  50.4867016   0.5665204
  19.9269435  50.9988413   0.2572326  19.4489206  50.1651069   1.4269598
  22.6843534  56.5932146   1.3183326  22.2305861  55.7523056   1.3748517
  22.0537501  57.2293544   1.6558106  21.6276454  47.5224132   2.5483994
  20.8899210  47.0101518   2.8794236  21.8803227  47.0824514   1.7367271
  21.1276473  58.4308643   2.2533144  21.4199448  58.9913700   1.5345510
  21.6375094  58.7237204   3.0086304  21.7288081  40.3000384   3.1425763
  22.0346958  39.4397748   2.8551678  22.4540686  40.8918004   2.9424757
  16.0009161  50.5954177   3.6501954  16.0557770  49.6428014   3.5744431
  15.1900363  50.7513616   4.1343252  13.9401521  49.2131237   1.4092333
  13.1269386  49.5125407   1.8157525  14.4360515  48.8186926   2.1266815
  19.5375732  49.6773061  10.2407227  19.8925120  49.9044535  11.1001693
  20.1847863  50.0091438   9.6184482  25.2673469  52.7991497   0.9456556
  25.1291368  52.9893093   0.0177745  24.9109688  53.5610880   1.4024607
  13.4315595  46.7849592   7.0253568  14.0714975  46.6438352   6.3276531
  12.5993126  46.4984106   6.6492170  25.2942849  54.8668024   5.9567827
  25.7279355  54.7743313   6.8050881  26.0074429  54.8425525   5.3187843
  19.0270744  58.4670118   7.4900928  19.0807766  59.0361055   8.2578644
  18.1585525  58.6372003   7.1254965  11.9069137  48.1687675   8.9725379
  12.5792190  47.9605037   8.3238028  11.0798924  47.9709761   8.5330611
  26.1558398  54.9091725   8.4900713  26.3494288  55.8137535   8.7359988
  26.0559017  54.4499144   9.3239298  17.8094709  44.7949616  10.9891040
  17.1622624  45.4939565  10.8955516  18.5795724  45.2285759  11.3567288
  21.2173507  55.0598468  14.0641593  21.0659013  54.8309019  13.1471677
  21.2078186  56.0169069  14.0772938  17.9858843  52.6330380   9.0487860
  18.9150903  52.7841540   8.8756827  17.5649873  52.7214401   8.1936506
  16.7847175  56.6581045   6.8186397  16.6458261  56.2899829   7.6912336
  15.9961771  57.1728684   6.6470355  18.3352390  56.0362648   4.2075235
  18.0002223  55.9963417   5.1032885  17.8356336  55.3707363   3.7345645
  12.3096634  51.4430278   9.7327816  12.1716432  50.7110516  10.3339355
  13.2201558  51.3539178   9.4512004  14.9378935  51.1550237   9.2211496
  15.6478554  50.5143429   9.1798114  14.8948243  51.4063132  10.1437677
  22.9265714  58.0917590  12.1418075  22.8678260  57.4076810  11.4748658
  23.3285232  58.8336580  11.6898701  13.6507869  48.1415455  11.0407135
  13.1145226  47.6906193  11.6928732  13.0624577  48.2761364  10.2977600
  22.9283121  56.0557174  10.3732055  22.0409900  55.7183096  10.4958454
  23.4981672  55.3240205  10.6100820   9.3846990  47.2771462   8.1260130
   9.3005179  46.6697132   7.3910540   8.5629697  47.7680481   8.1269626
  16.4584274  60.7158626   7.3393298  16.3854446  61.5213598   7.8512603
  16.0161667  60.9150592   6.5141319  19.5570704  45.7625026   3.4930325
  20.0539404  45.0094988   3.1731395  18.7857686  45.7989343   2.9273534
  27.4100461  51.4665392   5.1348617  27.3990338  52.3490107   4.7642550
  26.5417841  51.1136942   4.9403154  18.9182958  60.6145461   9.4951457
  19.6310930  61.2492925   9.4227358  18.4272986  60.7109327   8.6791459
  20.6400485  54.5196713   1.0668748  19.7056763  54.6398176   0.8973453
  20.8177153  53.6169180   0.8028758  16.1405673  47.9042409   3.2202010
  15.7703460  47.3513449   3.9082915  16.6364765  47.3000542   2.6677010
  24.0273036  50.3614032   1.6018783  24.4933488  51.1942024   1.5279085
  24.4780537  49.8959014   2.3064041  13.9694871  58.3639904  10.3157028
  14.6704331  58.9976387  10.4686422  13.4989986  58.7054636   9.5552667
  22.0949267  56.7057854  -1.3995065  22.3709111  56.5914448  -0.4901191
  21.2253766  56.3075339  -1.4382892  21.9989699  42.7294619   5.6409684
  21.0852779  42.9598846   5.8091891  22.4282800  42.8133064   6.4923716
  21.7696157  50.9184511   8.1409578  21.1167608  51.1660419   7.4862031
  22.1476537  50.1048650   7.8072055  17.8183730  51.6604323  14.6275615
  17.1424367  51.5598452  15.2977990  18.6411364  51.5043536  15.0911612
  16.5606513  62.9671250   8.8633231  17.1124821  63.1302871   9.6282316
  16.9012707  63.5575688   8.1913256  11.5371006  45.3146400   9.4655116
  11.6012333  46.1761231   9.0532513  11.4738127  44.7020401   8.7327474
  11.0123279  47.3869532  13.1128150  11.6395318  47.0046610  13.7265674
  10.1551198  47.1683734  13.4783842  21.4117388  57.7932507  14.7181885
  21.9557292  58.4062466  14.2236840  20.8304232  58.3512086  15.2348898
  19.6974901  60.9153225   5.8496913  19.5726040  60.1142965   5.3407859
  20.3553992  61.4099419   5.3610883  11.3183069  47.2701958   5.0274053
  10.5969655  47.8837926   4.8881527  12.1076325  47.8059723   4.9490699
  21.7609809  58.7162246   7.4776463  20.8140144  58.5967597   7.4054790
  22.1092582  57.8284744   7.5602725  14.1209382  44.6056384  11.3014705
  14.6443784  44.8518681  12.0641014  13.9021716  45.4376419  10.8817842
  18.7656242  58.5114962   3.6780815  18.6181205  57.5831669   3.8588386
  19.5909736  58.5335052   3.1937891  22.3690364  59.3343521   4.7645688
  23.2936912  59.1286382   4.6270139  22.2005667  59.0859922   5.6735030
  15.3261927  45.5470080   8.9864376  14.9858748  44.7477893   9.3885056
  14.6200934  45.8471790   8.4141209  15.9778399  42.6319392   7.4391699
  16.8004468  42.1579870   7.3170589  16.2216463  43.4109876   7.9390385
  13.5016978  49.3238513   5.2483677  13.3561559  49.6378816   6.1407959
  13.0242182  49.9423413   4.6954576  15.3613361  46.3141061   5.2964567
  15.3474930  45.4182154   4.9596865  16.0785789  46.3211724   5.9302853
  17.2139492  46.7478401   7.3417694  16.9557269  47.6695471   7.3402025
  16.6824532  46.3508835   8.0318158  22.1585680  59.8529188   0.1207780
  22.3322558  59.2875610  -0.6318368  22.6514572  60.6530083  -0.0612730
   7.9762640  51.8643857   8.1871339   7.4316108  52.6403665   8.3191613
   8.8541990  52.2114662   8.0290460  17.6341447  42.8810351   3.7018857
  17.6563144  42.9449684   2.7470836  18.0509506  42.0414860   3.8959363
  28.0125071  52.6165611   1.7398079  28.4556217  51.8672936   1.3417203
  27.1351582  52.6075747   1.3571811   8.7628662  50.9913753  11.0801495
   8.0210398  51.1396389  11.6666126   8.4421406  51.2522019  10.2168245
  25.0452276  56.6195658  -1.2507991  25.5703600  56.9582931  -1.9758671
  24.9574628  55.6842673  -1.4344857  16.7072325  60.5329732  10.8781885
  17.0159451  60.2878878  11.7504585  17.5047807  60.7376370  10.3900756
  14.2491336  46.7087438  14.7742070  14.2979492  47.5849561  14.3919839
  14.7913850  46.1664831  14.2013713  24.7346182  57.2528562  14.0543207
  23.9441726  57.2352700  13.5147706  24.4979537  57.7916855  14.8092243
  24.8544057  54.1021028  11.3675935  24.9042062  53.9371035  12.3091458
  24.7457980  53.2348287  10.9773816  22.1447819  50.0851956  12.6835242
  23.0457682  49.9458421  12.3919240  22.2195794  50.2506411  13.6233419
  16.4790625  47.4618811  11.5288428  15.6093934  47.7552377  11.2571017
  16.7150105  48.0459256  12.2495692  26.3562254  56.5217969  11.6117957
  26.0647062  56.8847950  12.4481418  25.7434385  55.8084978  11.4331289
  27.5557936  54.0870849   4.1320527  28.3904828  54.5260653   4.2958087
  27.6917065  53.6109502   3.3128773  24.6049442  51.6450584  10.0798015
  25.0803564  51.8378230   9.2716866  23.6815007  51.7009770   9.8341398
  19.1829659  43.6798428   9.0453849  19.7011602  44.4159455   8.7200337
  18.8284791  43.9862421   9.8800608  19.4342253  40.0998710   4.5654745
  19.7144006  39.4321899   5.1915172  20.2192860  40.2927806   4.0529409
  23.3051111  48.5216344   8.3126320  24.2568534  48.6214442   8.3338544
  23.1354561  47.7294613   8.8224405  21.3265491  45.6071927   8.4985721
  20.7315423  45.8876940   7.8032210  21.0415187  46.0965828   9.2702462
  25.7839189  51.7422464   7.4268620  25.7515509  50.8038465   7.6128304
  26.3939813  51.8206501   6.6934445  25.9333677  48.5333507   7.4726903
  25.4172726  47.7491964   7.2856832  26.8173626  48.2052224   7.6373423
  23.5944404  42.2774523   3.4322716  23.3969225  41.9689611   4.3166048
  24.2044110  43.0036162   3.5620646  31.6015739  52.8038471   6.5674657
  32.3319127  52.5423759   7.1282360  30.9922684  52.0667193   6.6076725
  29.6831036  50.9446333   7.1649108  28.9564199  50.8102298   6.5565600
  29.2678323  51.2523162   7.9705826  17.5061212  54.6636263  14.9296481
  18.4264222  54.8414862  15.1236528  17.4710795  53.7192308  14.7776180
  10.5023285  52.5737298   7.5719262  10.7209295  53.5054405   7.5907296
  10.9149059  52.2145272   8.3574066  15.3751150  48.1470503  16.9622011
  15.2747877  49.0964860  16.8934102  15.1572692  47.8188742  16.0898081
  22.7296858  44.2683955   0.6897911  22.1495527  44.9268759   0.3075964
  22.4632791  43.4461299   0.2785329  21.1800424  43.6689013   2.8919232
  21.6800203  43.7805547   2.0833551  21.8236032  43.3650065   3.5320040
  15.2382420  51.5767642  15.7787073  14.7549502  52.3768002  15.9850962
  15.3243359  51.5875587  14.8254517  11.1655758  55.4672177   7.8155507
  12.1199011  55.4356119   7.7485438  10.9668281  55.0062801   8.6305732
  11.7555140  54.0373293  10.3826304  12.5748029  54.5317372  10.4061142
  12.0291947  53.1205261  10.3543872  21.5121736  46.4284045  -0.2545740
  20.6247591  46.7133696  -0.4725546  21.9275725  46.2677809  -1.1018463
  24.8636272  46.4530566   3.4608599  25.6396662  46.9427019   3.7333216
  24.1384406  46.8788620   3.9180468  27.3008831  47.1658185   4.5182540
  27.8953322  46.9253921   3.8075848  27.3735414  46.4465316   5.1456076
  21.4862760  51.9438581  -0.0395450  21.4297961  52.4007133  -0.8787818
  22.0391102  51.1829266  -0.2172607  25.2967566  47.7328313   0.7854669
  25.0404500  47.3324949   1.6162877  24.6720434  48.4472107   0.6604809
  29.6079903  50.4724386   3.2925961  29.0479461  50.5417576   4.0657523
  29.0023407  50.2965371   2.5725457  22.2197539  53.1343362  -2.7442921
  22.1646343  52.9687634  -3.6854477  21.5943594  53.8419395  -2.5880731
   7.0090054  48.3711427  11.0818501   7.6548918  47.8610381  11.5705726
   6.8007205  49.1080108  11.6561927  19.5343446  55.4392274  16.5810642
  20.4034606  55.6132927  16.2197277  19.0550198  56.2586691  16.4586371
  11.3487545  45.5179044  15.1793516  12.2119007  45.1615849  15.3896840
  10.7752956  45.1792939  15.8668920  31.1935922  67.1480900   5.9855917
  31.8314332  67.0287648   5.2819257  31.0756765  68.0961744   6.0443869
  28.0025628  67.1008328   5.9217441  27.6644140  66.9849393   5.0337976
  28.8715396  66.6999493   5.9018447  28.4845411  68.2543180  11.8803647
  28.4734052  67.8595978  11.0084150  28.6466051  67.5209253  12.4737418
  25.2052672  71.0380292  10.8282831  24.9142538  71.9425923  10.7129497
  25.8409657  71.0796819  11.5426900  26.1308879  68.4157140   7.4184190
  26.7272451  68.1913163   6.7041153  26.1883851  67.6741886   8.0209638
  30.7477190  64.8732354   3.0609125  31.5340280  64.4551777   2.7099542
  31.0115895  65.7778446   3.2290773  36.1485618  64.8107587   3.9642103
  36.8810790  64.2406804   4.1979933  35.3924973  64.4229188   4.4048609
  27.7661737  67.2334829   1.1605446  27.4019945  66.7065450   1.8718367
  28.6228853  66.8433298   0.9871931  33.6711038  58.5229161   8.4236712
  33.3394363  59.3924572   8.1997927  33.0756651  58.2065445   9.1030742
  30.1642557  70.7241707   7.8232624  29.8643281  71.6266746   7.7148432
  29.8193617  70.4573891   8.6753777  23.6155039  67.1755504   3.8569329
  22.6905535  67.0431718   4.0647021  23.8639452  67.9549723   4.3539271
  33.5639701  63.2424248   5.5030062  32.6556579  63.1739656   5.2088823
  33.5127297  63.7196193   6.3311887  27.6380567  64.6613893  13.4464959
  26.8613901  65.2207813  13.4367824  28.2771130  65.1470676  13.9679829
  35.4301348  61.4440686   7.2807936  34.7875728  61.7373219   6.6347730
  34.9256276  61.3293606   8.0861132  25.8926939  67.4699347  13.0082926
  26.6341624  68.0084390  12.7317750  25.1863925  68.0965635  13.1654478
  31.3682279  69.6128487  11.6055088  31.7765635  69.1710898  10.8609720
  30.6459540  69.0381115  11.8589280  27.7213349  64.5501094   8.9788644
  28.5674544  64.9740507   9.1223293  27.6611987  63.8934718   9.6727208
  31.6911094  70.1729678   5.3607376  31.0619956  70.3375392   4.6583444
  31.3036756  70.5871287   6.1318340  30.8712794  62.2105462  10.6369818
  30.6273726  62.9647523  10.1004094  31.1472725  62.5890810  11.4717065
  32.8251257  68.7544074   9.3147084  33.0368152  69.3975834   8.6381465
  32.7781005  67.9206391   8.8469014  30.4277486  61.3661895   6.2183656
  29.5661965  61.6643149   6.5100393  30.4539921  61.5832294   5.2864688
  27.2439055  69.9104086   2.6257461  27.7077401  70.1891789   1.8362084
  26.9795854  69.0087530   2.4430552  24.1363137  69.4575567   5.5637225
  24.7064494  69.8862836   4.9254709  24.7271248  69.1758152   6.2621410
  24.6288303  64.6238995  13.8098236  23.9986964  65.3055276  14.0433633
  24.5224391  64.5122076  12.8651374  33.9397085  71.6316030   7.4869441
  34.7614529  71.2296217   7.2052123  33.9359488  71.5284264   8.4385557
  27.7053689  71.1800073   9.6430152  27.7698121  71.6420480  10.4788323
  26.9964612  70.5497438   9.7712461  18.2070978  64.5441281   7.1679151
  18.4579017  65.4288291   7.4336727  18.7430527  64.3645883   6.3954243
  42.0303078  67.9754778   3.8354412  41.2766787  67.4062176   3.6798417
  42.1650619  67.9417443   4.7825047  23.9069046  58.9259761  16.1723487
  23.5135991  58.3725959  16.8471131  24.7235186  59.2370339  16.5630005
  26.8237007  60.3417640  13.7643744  27.5646720  60.9424793  13.6848206
  27.0554930  59.5995277  13.2061786  21.9678345  65.5274007  12.0421973
  21.8531860  64.6259264  12.3429072  21.1122863  65.7737704  11.6906790
  29.0470183  73.4691747  13.6409474  28.6034037  72.6828126  13.3230378
  29.7087396  73.6570898  12.9753365  31.1451421  73.7494547  11.6690875
  31.1269896  74.5703428  11.1771144  32.0671341  73.6248622  11.8941016
  27.6024475  71.2638677  12.5114384  28.1352812  70.5026965  12.2813692
  27.0738556  70.9712328  13.2538538  30.7694170  56.3698743   8.0408025
  30.4258439  57.2600384   7.9647136  31.1373132  56.1800400   7.1777610
  28.3191563  61.2057054   1.6065699  27.4633160  60.8163905   1.4271337
  28.7318515  61.2849015   0.7465484  29.8490710  58.7403398   6.0057259
  29.3455506  58.7033533   5.1925064  30.1421317  59.6496140   6.0653915
  26.0933596  58.8242127   5.0123440  26.9586593  58.6284936   4.6529330
  26.1611105  58.5952479   5.9392797  30.5230756  64.2334446  -1.6259758
  30.2180891  64.5480595  -0.7749615  31.4761198  64.3115866  -1.5832425
  33.9470033  68.5873690   5.1400242  33.2893708  69.2772951   5.2280371
  34.7510433  68.9770122   5.4834228  23.6995915  61.0544335   2.3839807
  24.2739667  60.8319517   1.6513000  24.2866898  61.1233030   3.1368408
  32.7575492  66.9418062   3.1904184  33.2707374  67.5748054   3.6925893
  33.4076716  66.3419258   2.8247544  26.0018583  57.9285584   1.1114877
  25.3482995  57.6134601   0.4871491  25.9599057  57.3061325   1.8374699
  29.2356323  64.4167518   5.4362524  28.3178885  64.6382465   5.2784212
  29.6516467  64.4913828   4.5774231  30.0191371  65.8158934   0.5665204
  30.7663190  66.3280331   0.2572326  30.2882960  65.4942986   1.4269598
  32.4670208  62.8516050   2.5483994  31.7292965  62.3393436   2.8794236
  32.7196982  62.4116431   1.7367271  32.5681835  55.6292302   3.1425763
  32.8740712  54.7689665   2.8551678  33.2934440  56.2209922   2.9424757
  26.8402915  65.9246095   3.6501954  26.8951525  64.9719931   3.5744431
  26.0294117  66.0805534   4.1343252  24.7795275  64.5423155   1.4092333
  23.9663141  64.8417325   1.8157525  25.2754269  64.1478843   2.1266815
  30.3769487  65.0064979  10.2407227  30.7318874  65.2336452  11.1001693
  31.0241618  65.3383356   9.6184482  24.2709350  62.1141510   7.0253568
  24.9108729  61.9730269   6.3276531  23.4386880  61.8276023   6.6492170
  36.1336603  70.1959942   5.9567827  36.5673110  70.1035231   6.8050881
  36.8468184  70.1717442   5.3187843  29.8664498  73.7962036   7.4900928
  29.9201520  74.3652972   8.2578644  28.9979280  73.9663921   7.1254965
  22.7462892  63.4979592   8.9725379  23.4185945  63.2896954   8.3238028
  21.9192678  63.3001678   8.5330611  36.9952153  70.2383643   8.4900713
  37.1888043  71.1429453   8.7359988  36.8952771  69.7791062   9.3239298
  28.6488464  60.1241533  10.9891040  28.0016379  60.8231483  10.8955516
  29.4189479  60.5577677  11.3567288  32.0567262  70.3890385  14.0641593
  31.9052768  70.1600937  13.1471677  32.0471941  71.3460987  14.0772938
  28.8252598  67.9622298   9.0487860  29.7544658  68.1133458   8.8756827
  28.4043628  68.0506319   8.1936506  27.6240930  71.9872963   6.8186397
  27.4852015  71.6191747   7.6912336  26.8355526  72.5020602   6.6470355
  29.1746145  71.3654565   4.2075235  28.8395977  71.3255335   5.1032885
  28.6750091  70.6999281   3.7345645  23.1490389  66.7722195   9.7327816
  23.0110187  66.0402434  10.3339355  24.0595312  66.6831095   9.4512004
  25.7772689  66.4842155   9.2211496  26.4872308  65.8435347   9.1798114
  25.7341998  66.7355049  10.1437677  33.7659468  73.4209508  12.1418075
  33.7072014  72.7368728  11.4748658  34.1678987  74.1628498  11.6898701
  24.4901623  63.4707372  11.0407135  23.9538980  63.0198111  11.6928732
  23.9018332  63.6053281  10.2977600  33.7676875  71.3849092  10.3732055
  32.8803654  71.0475014  10.4958454  34.3375426  70.6532123  10.6100820
  20.2240745  62.6063380   8.1260130  20.1398933  61.9989050   7.3910540
  19.4023451  63.0972398   8.1269626  27.2978029  76.0450544   7.3393298
  27.2248200  76.8505516   7.8512603  26.8555422  76.2442510   6.5141319
  30.3964459  61.0916944   3.4930325  30.8933158  60.3386906   3.1731395
  29.6251440  61.1281260   2.9273534  38.2494216  66.7957309   5.1348617
  38.2384092  67.6782025   4.7642550  37.3811595  66.4428860   4.9403154
  29.7576712  75.9437378   9.4951457  30.4704685  76.5784843   9.4227358
  29.2666741  76.0401244   8.6791459  31.4794239  69.8488631   1.0668748
  30.5450518  69.9690093   0.8973453  31.6570908  68.9461098   0.8028758
  26.9799427  63.2334327   3.2202010  26.6097215  62.6805367   3.9082915
  27.4758520  62.6292460   2.6677010  34.8666791  65.6905950   1.6018783
  35.3327243  66.5233942   1.5279085  35.3174291  65.2250932   2.3064041
  24.8088626  73.6931822  10.3157028  25.5098085  74.3268305  10.4686422
  24.3383741  74.0346553   9.5552667  32.8383453  58.0586537   5.6409684
  31.9246533  58.2890764   5.8091891  33.2676555  58.1424981   6.4923716
  32.6089912  66.2476429   8.1409578  31.9561362  66.4952337   7.4862031
  32.9870292  65.4340567   7.8072055  28.6577485  66.9896240  14.6275615
  27.9818122  66.8890370  15.2977990  29.4805119  66.8335454  15.0911612
  27.4000268  78.2963168   8.8633231  27.9518576  78.4594789   9.6282316
  27.7406461  78.8867605   8.1913256  22.3764761  60.6438317   9.4655116
  22.4406087  61.5053148   9.0532513  22.3131881  60.0312319   8.7327474
  21.8517034  62.7161450  13.1128150  22.4789072  62.3338527  13.7265674
  20.9944952  62.4975652  13.4783842  32.2511142  73.1224425  14.7181885
  32.7951046  73.7354383  14.2236840  31.6697987  73.6804004  15.2348898
  30.5368655  76.2445143   5.8496913  30.4119794  75.4434883   5.3407859
  31.1947746  76.7391337   5.3610883  22.1576823  62.5993876   5.0274053
  21.4363409  63.2129843   4.8881527  22.9470079  63.1351640   4.9490699
  32.6003563  74.0454163   7.4776463  31.6533899  73.9259514   7.4054790
  32.9486337  73.1576661   7.5602725  24.9603137  59.9348302  11.3014705
  25.4837539  60.1810599  12.0641014  24.7415470  60.7668337  10.8817842
  29.6049997  73.8406879   3.6780815  29.4574959  72.9123587   3.8588386
  30.4303490  73.8626970   3.1937891  33.2084119  74.6635438   4.7645688
  34.1330666  74.4578300   4.6270139  33.0399422  74.4151839   5.6735030
  26.1655682  60.8761997   8.9864376  25.8252502  60.0769810   9.3885056
  25.4594688  61.1763708   8.4141209  26.8172154  57.9611310   7.4391699
  27.6398223  57.4871788   7.3170589  27.0610217  58.7401793   7.9390385
  29.6011511  61.6944717  -1.3287067  29.8175125  62.5769355  -1.6298239
  29.1205578  61.3030931  -2.0581425  24.3410732  64.6530430   5.2483677
  24.1955313  64.9670733   6.1407959  23.8635936  65.2715331   4.6954576
  26.2007115  61.6432978   5.2964567  26.1868684  60.7474072   4.9596865
  26.9179543  61.6503642   5.9302853  28.0533246  62.0770319   7.3417694
  27.7951024  62.9987389   7.3402025  27.5218286  61.6800753   8.0318158
  18.8156395  67.1935775   8.1871339  18.2709863  67.9695583   8.3191613
  19.6935744  67.5406579   8.0290460  25.6044011  60.5247359   0.5652137
  25.7259922  59.5964005   0.7643025  25.3146054  60.5386045  -0.3469548
  28.4735202  58.2102269   3.7018857  28.4956898  58.2741602   2.7470836
  28.8903261  57.3706778   3.8959363  19.6022416  66.3205671  11.0801495
  18.8604152  66.4688306  11.6666126  19.2815161  66.5813937  10.2168245
  27.5466079  75.8621649  10.8781885  27.8553206  75.6170796  11.7504585
  28.3441561  76.0668288  10.3900756  25.0885091  62.0379356  14.7742070
  25.1373246  62.9141479  14.3919839  25.6307605  61.4956749  14.2013713
  35.5739936  72.5820479  14.0543207  34.7835480  72.5644618  13.5147706
  35.3373291  73.1208773  14.8092243  35.6937811  69.4312946  11.3675935
  35.7435816  69.2662953  12.3091458  35.5851735  68.5640205  10.9773816
  32.9841574  65.4143874  12.6835242  33.8851437  65.2750338  12.3919240
  33.0589548  65.5798328  13.6233419  27.3184379  62.7910728  11.5288428
  26.4487689  63.0844294  11.2571017  27.5543860  63.3751173  12.2495692
  37.1956008  71.8509887  11.6117957  36.9040817  72.2139868  12.4481418
  36.5828140  71.1376895  11.4331289  38.3951691  69.4162767   4.1320527
  39.2298582  69.8552571   4.2958087  38.5310819  68.9401420   3.3128773
  35.4443197  66.9742502  10.0798015  35.9197318  67.1670148   9.2716866
  34.5208762  67.0301688   9.8341398  30.0223413  59.0090345   9.0453849
  30.5405357  59.7451372   8.7200337  29.6678546  59.3154339   9.8800608
  30.2736007  55.4290628   4.5654745  30.5537761  54.7613817   5.1915172
  31.0586614  55.6219723   4.0529409  34.1444866  63.8508262   8.3126320
  35.0962288  63.9506359   8.3338544  33.9748316  63.0586530   8.8224405
  32.1659245  60.9363845   8.4985721  31.5709177  61.2168858   7.8032210
  31.8808942  61.4257746   9.2702462  36.6232943  67.0714382   7.4268620
  36.5909263  66.1330382   7.6128304  37.2333567  67.1498418   6.6934445
  36.7727432  63.8625425   7.4726903  36.2566480  63.0783882   7.2856832
  37.6567380  63.5344142   7.6373423  34.4338159  57.6066441   3.4322716
  34.2362980  57.2981529   4.3166048  35.0437864  58.3328079   3.5620646
  42.4409493  68.1330388   6.5674657  43.1712882  67.8715676   7.1282360
  41.8316439  67.3959110   6.6076725  40.5224790  66.2738251   7.1649108
  39.7957954  66.1394216   6.5565600  40.1072077  66.5815080   7.9705826
  28.3454967  69.9928181  14.9296481  29.2657976  70.1706780  15.1236528
  28.3104550  69.0484226  14.7776180  21.3417039  67.9029215   7.5719262
  21.5603049  68.8346323   7.5907296  21.7542813  67.5437190   8.3574066
  28.2621257  58.4097301  -0.4405049  27.4521985  58.0644386  -0.0649803
  28.9505674  58.1004844   0.1482562  30.1911805  57.4875347   1.1819247
  30.7442844  57.9070801   1.8409270  30.4281892  56.5611096   1.2242203
  26.2144905  63.4762421  16.9622011  26.1141631  64.4256778  16.8934102
  25.9966447  63.1480660  16.0898081  33.5690612  59.5975873   0.6897911
  32.9889282  60.2560677   0.3075964  33.3026545  58.7753217   0.2785329
  32.0194179  58.9980930   2.8919232  32.5193957  59.1097465   2.0833551
  32.6629787  58.6941983   3.5320040  26.0776175  66.9059560  15.7787073
  25.5943256  67.7059920  15.9850962  26.1637114  66.9167505  14.8254517
  22.0049512  70.7964095   7.8155507  22.9592766  70.7648037   7.7485438
  21.8062036  70.3354718   8.6305732  22.5948894  69.3665211  10.3826304
  23.4141783  69.8609289  10.4061142  22.8685702  68.4497179  10.3543872
  32.3515490  61.7575963  -0.2545740  31.4641346  62.0425614  -0.4725546
  32.7669480  61.5969726  -1.1018463  35.7030027  61.7822484   3.4608599
  36.4790417  62.2718936   3.7333216  34.9778161  62.2080538   3.9180468
  38.1402585  62.4950103   4.5182540  38.7347076  62.2545839   3.8075848
  38.2129169  61.7757234   5.1456076  32.3256514  67.2730499  -0.0395450
  32.2691716  67.7299050  -0.8787818  32.8784857  66.5121183  -0.2172607
  36.1361320  63.0620231   0.7854669  35.8798254  62.6616866   1.6162877
  35.5114188  63.7764025   0.6604809  40.4473658  65.8016304   3.2925961
  39.8873216  65.8709493   4.0657523  39.8417161  65.6257289   2.5725457
  17.8483809  63.7003344  11.0818501  18.4942672  63.1902298  11.5705726
  17.6400960  64.4372026  11.6561927  30.3737201  70.7684192  16.5810642
  31.2428360  70.9424844  16.2197277  29.8943952  71.5878609  16.4586371
  26.3687419  57.9643389  -3.1657603  26.3566089  58.9085229  -3.0089332
  27.2610841  57.7813535  -3.4598141  30.1839538  54.5586166   1.0888334
  29.4171934  54.0044652   1.2345017  30.5950243  54.6308035   1.9502486
  22.1881300  60.8470962  15.1793516  23.0512761  60.4907766  15.3896840
  21.6146710  60.5084856  15.8668920  39.3239166  83.5835098  11.8803647
  39.3127806  83.1887896  11.0084150  39.4859805  82.8501170  12.4737418
  44.5104792  73.8521079   8.4236712  44.1788117  74.7216490   8.1997927
  43.9150406  73.5357363   9.1030742  38.4774322  79.9905811  13.4464959
  37.7007656  80.5499731  13.4367824  39.1164885  80.4762594  13.9679829
  36.7320694  82.7991264  13.0082926  37.4735378  83.3376308  12.7317750
  36.0257679  83.4257553  13.1654478  41.7106549  77.5397380  10.6369818
  41.4667481  78.2939440  10.1004094  41.9866479  77.9182727  11.4717065
  35.4682058  79.9530912  13.8098236  34.8380718  80.6347193  14.0433633
  35.3618145  79.8413994  12.8651374  29.0464733  79.8733199   7.1679151
  29.2972771  80.7580209   7.4336727  29.5824281  79.6937800   6.3954243
  34.7462800  74.2551678  16.1723487  34.3529746  73.7017877  16.8471131
  35.5628941  74.5662257  16.5630005  37.6630761  75.6709557  13.7643744
  38.4040475  76.2716710  13.6848206  37.8948684  74.9287195  13.2061786
  32.8072099  80.8565925  12.0421973  32.6925614  79.9551182  12.3429072
  31.9516617  81.1029621  11.6906790  41.6087924  71.6990660   8.0408025
  41.2652194  72.5892302   7.9647136  41.9766887  71.5092318   7.1777610
  35.1103104  77.4433428   7.0253568  35.7502484  77.3022187   6.3276531
  34.2780635  77.1567941   6.6492170  33.5856646  78.8271510   8.9725379
  34.2579699  78.6188872   8.3238028  32.7586433  78.6293596   8.5330611
  39.4882218  75.4533451  10.9891040  38.8410133  76.1523401  10.8955516
  40.2583233  75.8869595  11.3567288  33.9884143  82.1014113   9.7327816
  33.8503941  81.3694352  10.3339355  34.8989067  82.0123013   9.4512004
  36.6166444  81.8134072   9.2211496  37.3266063  81.1727264   9.1798114
  36.5735752  82.0646967  10.1437677  35.3295378  78.7999290  11.0407135
  34.7932735  78.3490029  11.6928732  34.7412086  78.9345199  10.2977600
  31.0634499  77.9355298   8.1260130  30.9792688  77.3280967   7.3910540
  30.2417206  78.4264316   8.1269626  39.4971239  82.3188158  14.6275615
  38.8211876  82.2182287  15.2977990  40.3198873  82.1627372  15.0911612
  33.2158515  75.9730235   9.4655116  33.2799842  76.8345066   9.0532513
  33.1525636  75.3604237   8.7327474  32.6910788  78.0453368  13.1128150
  33.3182827  77.6630445  13.7265674  31.8338707  77.8267570  13.4783842
  35.7996891  75.2640220  11.3014705  36.3231293  75.5102516  12.0641014
  35.5809225  76.0960255  10.8817842  37.0049436  76.2053915   8.9864376
  36.6646257  75.4061728   9.3885056  36.2988443  76.5055626   8.4141209
  37.6565908  73.2903227   7.4391699  38.4791977  72.8163706   7.3170589
  37.9003972  74.0693711   7.9390385  29.6550149  82.5227692   8.1871339
  29.1103617  83.2987500   8.3191613  30.5329499  82.8698497   8.0290460
  30.4416171  81.6497589  11.0801495  29.6997907  81.7980224  11.6666126
  30.1208915  81.9105854  10.2168245  35.9278845  77.3671274  14.7742070
  35.9767001  78.2433396  14.3919839  36.4701359  76.8248667  14.2013713
  43.8235328  80.7435791  12.6835242  44.7245191  80.6042256  12.3919240
  43.8983303  80.9090246  13.6233419  38.1578134  78.1202646  11.5288428
  37.2881443  78.4136212  11.2571017  38.3937614  78.7043091  12.2495692
  40.8617168  74.3382263   9.0453849  41.3799111  75.0743290   8.7200337
  40.5072300  74.6446256   9.8800608  39.1848721  85.3220098  14.9296481
  40.1051731  85.4998697  15.1236528  39.1498304  84.3776144  14.7776180
  37.0538659  78.8054339  16.9622011  36.9535386  79.7548696  16.8934102
  36.8360201  78.4772578  16.0898081  36.9169929  82.2351478  15.7787073
  36.4337011  83.0351838  15.9850962  37.0030868  82.2459422  14.8254517
  33.4342649  84.6957128  10.3826304  34.2535538  85.1901207  10.4061142
  33.7079456  83.7789096  10.3543872  28.6877563  79.0295262  11.0818501
  29.3336427  78.5194216  11.5705726  28.4794714  79.7663944  11.6561927
  41.2130955  86.0976110  16.5810642  42.0822115  86.2716762  16.2197277
  40.7337707  86.9170526  16.4586371  33.0275054  76.1762879  15.1793516
  33.8906516  75.8199684  15.3896840  32.4540465  75.8376774  15.8668920
  28.4845412  45.2605303  -1.3951047  28.4734053  44.8658101  -2.2670543
  28.6466052  44.5271375  -0.8017275  25.2052674  48.0442414  -2.4471863
  24.9142540  48.9488045  -2.5625196  25.8409658  48.0858942  -1.7327793
  30.1642559  47.7303830  -5.4522069  29.8643282  48.6328869  -5.5606262
  29.8193618  47.4636013  -4.6000916  27.6380568  41.6676016   0.1710266
  26.8613902  42.2269936   0.1613130  28.2771131  42.1532799   0.6925136
  25.8926941  44.4761469  -0.2671767  26.6341625  45.0146513  -0.5436944
  25.1863926  45.1027758  -0.1100216  31.3682280  46.6190610  -1.6699606
  31.7765636  46.1773020  -2.4144974  30.6459542  46.0443237  -1.4165413
  32.8251258  45.7606197  -3.9607610  33.0368154  46.4037957  -4.6373229
  32.7781007  44.9268514  -4.4285680  33.9397086  48.6378153  -5.7885252
  34.7614530  48.2358340  -6.0702571  33.9359489  48.5346387  -4.8369137
  27.7053690  48.1862196  -3.6324542  27.7698122  48.6482603  -2.7966370
  26.9964614  47.5559561  -3.5042232  29.0470184  50.4753870   0.3654781
  28.6034038  49.6890248   0.0475685  29.7087397  50.6633020  -0.3001329
  31.1451422  50.7556670  -1.6063818  31.1269897  51.5765551  -2.0983549
  32.0671342  50.6310745  -1.3813677  27.6024476  48.2700799  -0.7640310
  28.1352813  47.5089087  -0.9941002  27.0738557  47.9774451  -0.0216155
  36.1336605  47.2022065  -7.3186866  36.5673111  47.1097354  -6.4703812
  36.8468185  47.1779565  -7.9566850  29.8664499  50.8024159  -5.7853765
  29.9201522  51.3715095  -5.0176050  28.9979281  50.9726044  -6.1499728
  36.9952154  47.2445765  -4.7853981  37.1888044  48.1491576  -4.5394706
  36.8952772  46.7853184  -3.9515396  32.0567263  47.3952508   0.7886900
  31.9052769  47.1663060  -0.1283016  32.0471942  48.3523109   0.8018245
  33.7659469  50.4271630  -1.1336618  33.7072016  49.7430851  -1.8006035
  34.1678988  51.1690620  -1.5855992  33.7676877  48.3911214  -2.9022638
  32.8803655  48.0537136  -2.7796240  34.3375428  47.6594246  -2.6653873
  27.2978030  53.0512667  -5.9361395  27.2248202  53.8567638  -5.4242091
  26.8555423  53.2504633  -6.7613374  29.7576714  52.9499501  -3.7803237
  30.4704686  53.5846966  -3.8527335  29.2666742  53.0463367  -4.5963235
  24.8088627  50.6993944  -2.9597666  25.5098087  51.3330427  -2.8068272
  24.3383742  51.0408676  -3.7202027  28.6577486  43.9958363   1.3520922
  27.9818123  43.8952492   2.0223297  29.4805120  43.8397577   1.8156919
  27.4000269  55.3025290  -4.4121462  27.9518577  55.4656912  -3.6472377
  27.7406462  55.8929728  -5.0841438  32.2511143  50.1286548   1.4427192
  32.7951047  50.7416506   0.9482147  31.6697988  50.6866126   1.9594205
  30.5368656  53.2507266  -7.4257780  30.4119796  52.4497006  -7.9346835
  31.1947747  53.7453459  -7.9143810  32.6003565  51.0516286  -5.7978230
  31.6533900  50.9321637  -5.8699903  32.9486338  50.1638784  -5.7151969
  33.2084120  51.6697561  -8.5109005  34.1330667  51.4640422  -8.6484554
  33.0399423  51.4213962  -7.6019664  27.5466080  52.8683772  -2.3972808
  27.8553207  52.6232919  -1.5250108  28.3441562  53.0730410  -2.8853938
  35.5739938  49.5882602   0.7788513  34.7835481  49.5706741   0.2393013
  35.3373292  50.1270896   1.5337550  35.6937813  46.4375068  -1.9078758
  35.7435818  46.2725076  -0.9663235  35.5851736  45.5702327  -2.2980877
  32.9841575  42.4205996  -0.5919451  33.8851438  42.2812461  -0.8835454
  33.0589550  42.5860451   0.3478726  37.1956010  48.8572010  -1.6636737
  36.9040818  49.2201990  -0.8273276  36.5828141  48.1439018  -1.8423405
  35.4443198  43.9804624  -3.1956679  35.9197319  44.1732271  -4.0037827
  34.5208763  44.0363810  -3.4413295  42.4409494  45.1392511  -6.7080037
  43.1712883  44.8777799  -6.1472333  41.8316440  44.4021233  -6.6677969
  40.5224792  43.2800374  -6.1105585  39.7957955  43.1456338  -6.7189094
  40.1072078  43.5877202  -5.3048867  28.3454968  46.9990303   1.6541788
  29.2657977  47.1768902   1.8481834  28.3104551  46.0546349   1.5021487
  26.2144906  40.4824544   3.6867318  26.1141633  41.4318901   3.6179409
  25.9966448  40.1542783   2.8143388  26.0776176  43.9121682   2.5032379
  25.5943258  44.7122043   2.7096268  26.1637115  43.9229627   1.5499823
  30.3737202  47.7746315   3.3055948  31.2428362  47.9486967   2.9442583
  29.8943953  48.5940731   3.1831678  39.3239167  60.5897220  -1.3951047
  39.3127808  60.1950019  -2.2670543  39.4859806  59.8563293  -0.8017275
  44.5104794  50.8583202  -4.8517982  44.1788118  51.7278613  -5.0756767
  43.9150407  50.5419486  -4.1723951  38.4774323  56.9967933   0.1710266
  37.7007657  57.5561854   0.1613130  39.1164886  57.4824716   0.6925136
  36.7320695  59.8053387  -0.2671767  37.4735379  60.3438431  -0.5436944
  36.0257681  60.4319676  -0.1100216  41.7106550  54.5459502  -2.6384875
  41.4667482  55.3001563  -3.1750600  41.9866481  54.9244850  -1.8037628
  35.4682059  56.9593035   0.5343543  34.8380719  57.6409316   0.7678939
  35.3618147  56.8476117  -0.4103319  29.0464734  56.8795321  -6.1075542
  29.2972773  57.7642331  -5.8417966  29.5824283  56.6999923  -6.8800451
  34.7462802  51.2613801   2.8968794  34.3529747  50.7079999   3.5716438
  35.5628942  51.5724379   3.2875311  37.6630763  52.6771680   0.4889050
  38.4040476  53.2778833   0.4093513  37.8948685  51.9349318  -0.0692907
  32.8072101  57.8628047  -1.2332720  32.6925616  56.9613304  -0.9325621
  31.9516618  58.1091744  -1.5847904  41.6087925  48.7052783  -5.2346668
  41.2652195  49.5954425  -5.3107557  41.9766888  48.5154440  -6.0977083
  35.1103106  54.4495550  -6.2501125  35.7502485  54.3084309  -6.9478162
  34.2780636  54.1630064  -6.6262524  33.5856647  55.8333633  -4.3029314
  34.2579701  55.6250995  -4.9516665  32.7586434  55.6355719  -4.7424082
  39.4882219  52.4595573  -2.2863653  38.8410134  53.1585523  -2.3799177
  40.2583235  52.8931717  -1.9187405  33.9884145  59.1076236  -3.5426877
  33.8503943  58.3756474  -2.9415338  34.8989068  59.0185136  -3.8242689
  36.6166445  58.8196195  -4.0543197  37.3266064  58.1789387  -4.0956579
  36.5735753  59.0709090  -3.1317017  35.3295379  55.8061413  -2.2347558
  34.7932736  55.3552151  -1.5825962  34.7412088  55.9407322  -2.9777094
  31.0634500  54.9417420  -5.1494563  30.9792689  54.3343090  -5.8844153
  30.2417207  55.4326439  -5.1485067  39.4971241  59.3250280   1.3520922
  38.8211878  59.2244410   2.0223297  40.3198875  59.1689494   1.8156919
  33.2158517  52.9792358  -3.8099578  33.2799843  53.8407189  -4.2222180
  33.1525637  52.3666359  -4.5427219  32.6910789  55.0515490  -0.1626543
  33.3182828  54.6692568   0.4510981  31.8338708  54.8329692   0.2029149
  35.7996893  52.2702342  -1.9739988  36.3231294  52.5164639  -1.2113679
  35.5809226  53.1022377  -2.3936851  37.0049438  53.2116038  -4.2890318
  36.6646258  52.4123851  -3.8869638  36.2988444  53.5117748  -4.8613484
  37.6565909  50.2965350  -5.8362995  38.4791979  49.8225828  -5.9584104
  37.9003973  51.0755834  -5.3364308  29.6550150  59.5289815  -5.0883355
  29.1103618  60.3049623  -4.9563081  30.5329500  59.8760619  -5.2464233
  30.4416172  58.6559711  -2.1953198  29.6997908  58.8042347  -1.6088568
  30.1208916  58.9167977  -3.0586449  35.9278847  54.3733396   1.4987376
  35.9767002  55.2495519   1.1165146  36.4701361  53.8310789   0.9259019
  43.8235330  57.7497914  -0.5919451  44.7245192  57.6104379  -0.8835454
  43.8983304  57.9152369   0.3478726  38.1578135  55.1264769  -1.7466265
  37.2881444  55.4198335  -2.0183677  38.3937615  55.7105214  -1.0259001
  40.8617169  51.3444386  -4.2300845  41.3799113  52.0805412  -4.5554356
  40.5072302  51.6508379  -3.3954086  39.1848722  62.3282221   1.6541788
  40.1051732  62.5060820   1.8481834  39.1498306  61.3838266   1.5021487
  37.0538660  55.8116461   3.6867318  36.9535387  56.7610818   3.6179409
  36.8360202  55.4834700   2.8143388  36.9169930  59.2413600   2.5032379
  36.4337012  60.0413960   2.7096268  37.0030869  59.2521545   1.5499823
  33.4342650  61.7019251  -2.8928389  34.2535539  62.1963330  -2.8693552
  33.7079458  60.7851219  -2.9210822  28.6877564  56.0357385  -2.1936192
  29.3336428  55.5256339  -1.7048967  28.4794715  56.7726066  -1.6192767
  41.2130956  63.1038232   3.3055948  42.0822116  63.2778885   2.9442583
  40.7337708  63.9232649   3.1831678  33.0275055  53.1825002   1.9038822
  33.8906517  52.8261807   2.1142147  32.4540466  52.8438897   2.5914226
  88.8530268  88.8530268  88.8530268 109.4712190 109.4712190 109.4712190
