default_name
 48152
  26.0761960  38.4217620  23.0332843  25.5065796  37.6153439  23.2461883
  26.3431770  38.3827744  22.0599902  25.6218018  39.2460112  23.3996702
  27.3496965  38.3028678  23.7956371  28.2038882  38.2801018  23.1189264
  27.5016955  39.5029693  24.7356497  27.5260522  40.4224559  24.1507990
  26.6582931  39.5339644  25.4254408  28.7865218  39.3701302  25.5177466
  28.7627100  38.4510410  26.1032455  29.6304689  39.3395347  24.8286049
  28.9380256  40.5663265  26.4547037  28.4487312  40.4580048  27.6107568
  29.5416059  41.5769972  26.0054423  27.3567147  36.9655120  24.5582663
  26.3321976  36.2573067  24.5233527  28.4524178  36.6558896  25.2580425
  29.2166218  37.3162510  25.2542574  28.6291705  35.3790084  25.9947101
  28.1583176  34.5609565  25.4495608  30.1145875  35.0746858  26.1417242
  30.5720425  35.8967740  26.6921831  30.2125468  34.1539928  26.7169011
  30.8142325  34.9113458  24.8007816  30.5180117  35.7568614  24.1799293
  31.8968048  34.9161134  24.9277321  30.4173149  33.6380785  24.1010932
  29.9485042  32.6871555  24.7135308  30.6465166  33.5939241  22.8106577
  30.4021282  32.7665463  22.2854704  31.0663626  34.3875010  22.3479845
  27.9507631  35.4521500  27.3636566  28.0380584  36.4529405  28.0614760
  27.3988888  34.3231833  27.8643181  27.3881676  33.0038143  27.2067251
  28.3696634  32.7946877  26.7812462  26.6393052  32.9914332  26.4147965
  27.0360985  32.0661147  28.3531735  27.9433638  31.7205915  28.8487361
  26.4777320  31.2079871  27.9790809  26.1850122  32.9002901  29.2802643
  26.2671411  32.5004569  30.2909509  25.1332212  32.9760012  29.0043965
  26.8439454  34.2812265  29.2115621  26.1351536  35.1023340  29.3187761
  27.9419976  34.4109213  30.2783149  29.0874135  34.1862826  30.0004305
  27.5378014  34.6998752  31.4901174  26.5903228  35.0288899  31.6089996
  28.4207888  34.6357149  32.6921380  29.2313566  35.3576485  32.5926848
  27.6347726  34.9590368  33.9502145  26.7547287  34.3159463  33.9426902
  28.2408172  34.7343683  34.8279012  27.1955249  36.4228489  33.9957076
  27.7480374  37.2520267  33.1798760  26.3577080  36.7241782  34.8423937
  29.0742707  33.2563377  32.7861634  28.4918150  32.2364078  32.3434025
  30.2827332  33.2061406  33.3033943  30.7724887  34.0551363  33.5472082
  31.0037943  31.9134762  33.4374190  31.0729090  31.3506616  32.5065258
  32.4066334  32.1620733  33.9868478  32.3348655  32.8205250  34.8525216
  33.0637535  30.8502923  34.3998207  33.1362955  30.1914508  33.5345080
  34.0623331  31.0500959  34.7884311  32.4632328  30.3698882  35.1722752
  33.2525222  32.9469307  32.9834635  33.5283534  32.2539502  32.1886076
  32.6158989  33.7320641  32.5755716  34.4863321  33.5572457  33.5614995
  35.1237132  32.7726287  33.9692021  35.0261082  34.0945905  32.7817550
  34.2112584  34.2507414  34.3561681  30.2053438  30.9282819  34.2889489
  30.1923726  29.7315903  33.9496706  29.5819046  31.4060969  35.3548130
  29.6556265  32.4017407  35.5076456  28.7628355  30.6055495  36.3042480
  28.8446294  29.5477871  36.0541529  29.2380159  30.8051177  37.7396884
  29.1601588  31.8836355  37.8769358  28.5347321  30.3031170  38.4041335
  30.6461574  30.3560847  38.0640170  31.3592296  30.9497398  37.4920009
  30.9039038  30.5441742  39.5374668  30.1914647  29.9504220  40.1101688
  31.9178664  30.2213350  39.7735927  30.7889958  31.5969490  39.7954622
  30.8834349  28.9341460  37.6514426  30.7316665  28.8370417  36.5764373
  31.9053865  28.6486272  37.9008325  30.1859786  28.2816622  38.1767222
  27.3202099  31.1000358  36.2132493  27.1127628  32.3455611  36.1364747
  26.3706444  30.1961794  36.2889200  26.6068972  29.2249194  36.1442203
  24.9446202  30.5498883  36.4966840  24.7240033  31.4618254  35.9418884
  24.0377437  29.4979168  36.0450602  24.3586817  28.5541724  36.4860187
  23.0327104  29.7374583  36.3923754  24.0339501  29.3810122  34.6215473
  23.4294189  28.6828437  34.3594353  24.7132279  30.8753152  37.9588751
  25.0127131  30.0840372  38.8264907  24.1133820  32.0158609  38.2046830
  23.9842351  32.7063295  37.4789603  23.6549467  32.3385665  39.5625810
  24.4693222  32.3356352  40.2870692  22.9813382  33.7150278  39.5884823
  22.3574734  33.8301482  38.7021194  22.1111121  33.8386321  40.8452812
  22.7343986  33.7240730  41.7321246  21.6329842  34.8180288  40.8619006
  21.3465872  33.0617647  40.8363203  24.0165756  34.7995425  39.5245110
  24.5905969  34.7007241  38.6031877  23.5257960  35.7726152  39.5436091
  24.6863489  34.7141415  40.3802044  22.6988549  31.2177185  39.9768578
  21.7948688  30.8230747  39.2002263  22.8688722  30.7623107  41.2180818
  23.6033379  31.1722376  41.7772054  22.0573275  29.7106956  41.8097928
  21.7316231  30.0493405  42.7933250  21.1866939  29.5576468  41.1720840
  22.7884227  28.4083856  41.9590254  22.2895479  27.5114253  42.7126514
  23.8285906  28.1918320  41.1771941  24.1300481  28.8456227  40.4688294
  24.5184648  26.8866709  41.2658734  23.8434661  26.0445603  41.4186009
  25.4025448  26.6152154  40.0558840  25.8807383  25.6452175  40.1920289
  24.5997820  26.6090588  38.7550831  24.1216381  27.5789501  38.6180066
  25.2674947  26.4119520  37.9163880  23.8369623  25.8318792  38.8019575
  26.5879750  27.5640285  40.0109173  26.2576897  28.4691554  39.5012529
  26.8493499  27.8029557  41.0417890  27.8140630  26.9929839  39.2930771
  27.5535693  26.7542318  38.2619417  28.6174153  27.7296140  39.3030956
  28.1452283  26.0880302  39.8024769  25.3057861  26.8336569  42.5868089
  25.7307887  27.8782002  43.1699788  25.6368137  25.6043878  42.9317860
  25.2994922  24.8405754  42.3635395  26.4472112  25.2862907  44.1184853
  26.5820167  26.1436338  44.7779467  25.6368643  24.2206685  44.8609656
  24.6210198  24.6006782  44.7525599  25.7325141  23.2806551  44.3175264
  25.9336340  23.9888903  46.3224838  26.9369884  23.5687484  46.3922084
  25.8563423  25.2521053  47.1558080  24.8530779  25.6726021  47.0869474
  26.0801548  25.0159784  48.1961218  26.5801165  25.9777003  46.7846437
  24.9672256  22.9019978  46.8363829  25.1192963  21.9828687  46.2705422
  25.1597301  22.7138627  47.8926255  23.9387806  23.2401327  46.7096361
  27.8050302  24.8010398  43.6186071  27.8343510  23.8905644  42.7754025
  28.8809167  25.4216121  44.0589878  28.7496651  26.2463764  44.6269986
  30.2729433  25.0185558  43.7091359  30.3085340  24.3908990  42.8186981
  31.1841500  26.2307323  43.4904362  31.1505887  26.8426822  44.3918186
  32.6219028  25.8347277  43.2008950  32.6563255  25.2230994  42.2993260
  33.2238046  26.7315401  43.0541219  33.0186510  25.2649990  44.0411936
  30.6538605  27.1195540  42.3792481  29.6576883  27.4754457  42.6420869
  31.3201214  27.9718350  42.2457821  30.6025866  26.5502810  41.4511317
  30.7578158  24.1188699  44.8440571  30.7259289  24.5531353  45.9968653
  31.1185993  22.8817226  44.5125037  30.9091051  22.6056860  43.5638123
  31.6989236  21.8643674  45.4318933  31.8167669  20.9159201  44.9078132
  33.0647846  22.3179895  45.9303376  33.5429415  22.8586652  45.1135543
  32.8940279  22.9981563  46.7647926  33.9689847  21.1771997  46.3820464
  33.3887119  20.5329554  47.0426019  34.2655537  20.6156198  45.4961700
  35.1971510  21.6590490  47.1041855  35.8210296  22.1521769  46.3587331
  34.8582049  22.3922538  47.8360500  36.0053438  20.5780862  47.8065820
  35.3301353  19.8226436  48.2084534  36.6871492  20.1133179  47.0943805
  36.7840146  21.1828150  48.9128350  36.1523995  21.6131609  49.5731111
  37.3202999  20.4648852  49.3787479  37.4100476  21.8825531  48.5406141
  30.7541801  21.5375086  46.5982595  31.2447259  21.3768280  47.7613402
  29.4375233  21.5656641  46.3449077  29.1451057  21.8128421  45.4102985
  28.3971169  21.3087517  47.3580353  27.4097548  21.4847799  46.9311520
  28.4727992  19.8512519  47.8347035  29.4625287  19.6826760  48.2591055
  27.7173450  19.7057871  48.6068621  28.2347929  18.8714941  46.7054043
  27.2891274  19.1152103  46.2212351  29.0558590  19.0614046  46.0141129
  28.2367394  17.3946314  47.1056716  27.2425790  16.7046212  46.8075976
  29.2659943  16.9159327  47.6669601  28.5462735  22.2682340  48.5432239
  28.1078245  21.9214201  49.6316240  29.1229434  23.4601943  48.3408174
  29.4165981  23.7295268  47.4127408  29.3974682  24.3916267  49.4640302
  28.7919686  24.1355439  50.3334501  30.8594535  24.2783733  49.8421817
  31.0423410  23.2380162  50.1110842  31.4413309  24.5317363  48.9559955
  31.2736822  25.1802601  50.9953928  31.2986144  26.2129354  50.6474547
  30.5442157  25.0859493  51.7998094  32.6339157  24.7901724  51.5043813
  32.5772485  23.8365324  52.0292229  33.3339633  24.7058038  50.6731685
  33.1186381  25.7868791  52.4137876  32.4722471  26.5175178  52.6754079
  34.3341618  25.8046649  52.9325890  35.1415030  24.7642680  52.7176182
  34.8171485  23.9827719  52.1661131  36.0732624  24.7630168  53.1073907
  34.7376938  26.8377901  53.6366375  34.1158815  27.6204552  53.7811535
  35.6678670  26.8445943  54.0301221  29.0617304  25.8540594  49.1611545
  28.5127037  26.5140357  50.0555543  29.5357339  26.3902082  48.0418162
  30.0535373  25.8018225  47.4048066  29.4309971  27.8346465  47.7352281
  29.1598853  28.3889480  48.6337532  30.7614827  28.3539142  47.2289375
  31.0913369  27.7642560  46.3736022  30.7233894  29.4070789  46.9505616
  31.8251553  28.2254137  48.2731698  31.9634207  28.9434580  49.4243275
  31.2078429  29.7031283  49.6245847  33.0756396  28.5303758  50.1068326
  33.3925936  28.8991069  50.9920879  33.6946110  27.5468854  49.3904115
  34.8607686  26.8347456  49.6430839  35.4274651  27.0651870  50.5452206
  35.2256683  25.8804781  48.7333583  36.1292567  25.3024675  48.9270898
  34.4944409  25.6213997  47.5804165  34.7808379  24.8469973  46.8688147
  33.3657234  26.3593633  47.3118581  32.8531326  26.1761781  46.3675094
  32.9409932  27.3195350  48.2350172  28.3013348  28.0999840  46.7631972
  28.3831806  27.6630127  45.5926749  27.2301797  28.7114258  47.2611535
  27.2034618  28.9419552  48.2441294  26.0578754  29.0154326  46.4471901
  25.9816962  28.2750155  45.6508997  24.7651483  28.9963637  47.2555525
  24.6734443  28.0028192  47.6943679  24.8701209  29.7354893  48.0497655
  23.5306856  29.3030952  46.4432977  23.6726394  30.2771419  45.9751280
  23.4407993  28.5390491  45.6711216  22.2669084  29.3249606  47.2820623
  22.0997851  28.3324979  47.7006153  22.3890234  30.0443558  48.0917893
  21.0844595  29.7181929  46.4355123  21.2708325  30.7036542  46.0086262
  20.9706344  28.9903960  45.6321104  19.8528992  29.7573000  47.2394947
  19.9580049  30.4319455  47.9837433  19.0755126  30.0226622  46.6518273
  19.6797891  28.8441372  47.6347993  26.2679285  30.3801456  45.7994200
  26.4085167  31.3563525  46.4800198  26.2765616  30.4030654  44.4762502
  26.1154413  29.5409308  43.9753873  26.5341680  31.6292961  43.6945423
  27.3584363  32.1992881  44.1232497  26.8609869  31.3224892  42.2287399
  26.0053997  30.8216344  41.7757341  27.1655806  32.6054206  41.4588311
  28.0214029  33.1066308  41.9110009  27.3944268  32.3615547  40.4214019
  26.2986579  33.2652166  41.4937018  28.0312456  30.3651999  42.1254924
  27.7839699  29.4322799  42.6320662  28.2441749  30.1627120  41.0758452
  28.9085128  30.8110860  42.5942020  25.2833968  32.4914579  43.7841329
  24.2009120  32.0079184  43.3639376  25.4446101  33.7438065  44.2415325
  26.3724207  34.0500554  44.4974199  24.3098972  34.6817142  44.4508688
  23.3608078  34.1485091  44.3959056  24.4320843  35.3196754  45.8336753
  25.3894725  35.8361762  45.7648706  23.6379860  36.0479133  45.9985308
  24.4682331  34.3403014  46.9921307  25.2813003  33.6314692  46.8353522
  24.6899385  35.0869575  48.3086460  23.8769687  35.7956939  48.4663529
  24.7139360  34.3732479  49.1321407  25.6371181  35.6247382  48.2668962
  23.2380719  33.4704936  47.0261749  23.1688366  32.9017286  46.0989143
  23.3017942  32.7829931  47.8696106  22.3525490  34.0967360  47.1346582
  24.2263325  35.7679734  43.3722901  23.1000865  36.1305082  42.9969417
  25.3442864  36.3976189  43.0811670  26.1868288  36.2163406  43.6078166
  25.3527882  37.4975736  42.1151813  24.8695253  37.1513835  41.2015575
  24.6317351  38.7483187  42.6037028  24.6737873  39.4652219  41.7837146
  23.5961270  38.4559036  42.7772234  25.1839216  39.3725955  43.8368721
  25.0439233  38.7494424  44.7201510  26.2381933  39.6314578  43.7388739
  24.3611525  40.6438251  43.9781527  24.5837226  41.3149222  43.1485804
  23.3003873  40.3932953  43.9675967  24.6595714  41.3126462  45.1983676
  24.2376373  40.9412336  46.0374884  25.4151417  42.3879809  45.2973166
  26.0794882  42.8382254  44.2467241  26.0076454  42.3551799  43.3626394
  26.6557978  43.6631585  44.3330509  25.5235382  42.9883771  46.4701024
  25.0302129  42.6193241  47.2704336  26.0991755  43.8133584  46.5603592
  26.7464688  37.7803177  41.6466656  27.6944732  37.6424902  42.3928058
  26.8169847  38.1653158  40.3966512  26.0024337  38.0699418  39.8071515
  28.0527435  38.6760334  39.7968581  28.8933049  38.0491033  40.0943715
  27.9529785  38.6676378  38.2720569  27.6661853  37.6645680  37.9563040
  27.1779698  39.3757878  37.9788245  29.2649399  39.0506579  37.6099702
  29.4530039  40.1073076  37.8002967  30.0629117  38.4546108  38.0527693
  29.2226653  38.8058463  36.1095482  29.3482246  37.7382452  35.9290992
  28.2507384  39.1254967  35.7336742  30.3175548  39.5711498  35.3933769
  30.6138918  40.4184786  36.0116963  31.1717771  38.9090923  35.2516609
  29.8487839  40.0618313  34.0748222  29.0575128  40.6756683  34.2059478
  30.5950394  40.5671973  33.6189626  29.5745459  39.2768036  33.5015649
  28.2823471  40.0747971  40.3538134  27.3889193  40.9246415  40.2212531
  29.4729319  40.3277401  40.8703448  30.1621794  39.5955171  40.9646144
  29.7936791  41.6707025  41.4158072  29.0068614  42.4120512  41.2764543
  30.1638068  41.5920618  42.9010648  30.4198345  42.5862190  43.2674002
  28.9889512  41.0581561  43.6780841  28.7326109  40.0637650  43.3126028
  29.2478515  41.0005352  44.7353216  28.1350528  41.7232816  43.5493801
  31.4608790  40.8242911  43.1789079  31.3001549  39.7863535  42.8874389
  32.2428206  41.2590592  42.5562977  31.8896701  40.8813706  44.6534126
  31.1083749  40.4463269  45.2766418  32.8141848  40.3192997  44.7855036
  32.0510385  41.9190335  44.9455012  30.8997872  42.3383246  40.6056865
  31.1342272  43.5427333  40.8548923  31.5618146  41.6077045  39.7167927
  31.3887359  40.6209668  39.5883723  32.5948349  42.2539194  38.8770087
  32.1994902  43.1997398  38.5065691  33.4737899  42.4443933  39.4928473
  32.9934703  41.3984112  37.7067654  32.8147147  40.1757604  37.7472326
  33.5640592  42.0408361  36.6886874  33.5715976  43.0497481  36.7349373
  34.1726876  41.3943749  35.5232637  34.2644409  40.3196977  35.6805830
  33.5833299  41.5806150  34.6254489  35.5471356  41.9816686  35.3378622
  35.6378419  43.0255882  34.6933987  36.5040229  41.4685930  36.1118409
  36.2322300  40.7170450  36.7294197  37.9092415  41.9141439  36.1294299
  37.9349710  42.9852674  36.3297585  38.4353066  41.3838365  36.9232365
  38.6063971  41.6413876  34.8056882  37.9275930  41.2893856  33.8170479
  39.9300707  41.8083171  34.7954464  40.3566196  42.1011242  35.6628675
  40.7991701  41.5988555  33.6263758  40.5726990  42.3572426  32.8769367
  41.8394402  41.6952541  33.9372529  40.5911021  40.2239356  33.0165462
  40.3970069  40.1421149  31.7952918  40.6680962  39.1561652  33.8108152
  40.6674948  39.2531118  34.8161512  40.8254866  37.7973943  33.2350940
  40.6002607  37.8178321  32.1688132  42.2662871  37.3035311  33.4225774
  42.4631243  37.3937355  34.4908552  42.4371251  36.2740396  33.1078369
  43.2995713  38.1455357  32.7214632  43.8790147  39.2228096  33.3717056
  43.6077773  39.4307768  34.4067321  44.7954310  40.0327454  32.7192073
  45.2554527  40.8658789  33.2505916  45.1226166  39.7901297  31.4154584
  45.8843156  40.3930176  30.9210489  44.4874247  38.7805612  30.7250030
  44.6802278  38.6420879  29.6611646  43.6003231  37.9384920  31.3861092
  43.1364846  37.1086506  30.8528953  39.8262588  36.8324966  33.8751801
  40.0554427  35.5759863  33.9139436  38.7304000  37.3668545  34.3851273
  38.5779008  38.3649531  34.4104727  37.6840428  36.4840555  34.9408355
  37.3225978  35.8232902  34.1528977  38.1140713  35.8877292  35.7455527
  36.5245743  37.2785758  35.4848900  36.3585976  38.4114692  35.1140877
  35.7196607  36.6377553  36.3135733  35.9325956  35.6712476  36.5151195
  34.5319584  37.2309787  36.9328302  34.5149322  38.3081008  36.7666459
  33.2952400  36.6289545  36.3165345  33.3666701  35.5448377  36.4042149
  32.4306334  36.9822177  36.8784603  33.1366205  37.0126415  34.8405528
  32.9053354  38.0540278  35.0644338  34.0333828  36.9648648  34.2227876
  31.9877312  36.3934031  34.1020616  31.3937837  35.4488926  34.6245120
  31.8922715  36.6748506  32.8862143  34.5684578  36.9708923  38.4295626
  35.2087281  36.0174450  38.8561751  33.9299053  37.8391243  39.1898256
  33.5364106  38.6663632  38.7644585  33.8589793  37.7064861  40.6510657
  34.1388294  36.7201317  41.0210496  34.7075385  38.7697692  41.3451481
  35.7490255  38.5804640  41.0852084  34.3460199  40.1521334  40.9578012
  33.3047303  40.3423476  41.2178688  34.9867943  40.8575975  41.4867902
  34.4799779  40.2757028  39.8831455  34.7062923  38.6007496  42.8645097
  33.7470757  38.9603429  43.2369302  34.8030529  37.5365333  43.0794064
  35.8160477  39.3491974  43.5388879  35.7196813  40.4136158  43.3248161
  35.7609993  39.1892372  44.6156802  36.7756590  38.9898075  43.1672903
  32.3996829  37.7436766  41.0796262  31.6009013  38.5461022  40.4901254
  32.0729118  36.9196976  42.0473551  32.8260841  36.4233387  42.5017322
  30.7008885  36.6857314  42.5177897  30.0392777  37.4339860  42.0813432
  30.1998494  35.3036550  42.1226965  30.8936755  34.5805540  42.5514499
  29.2195552  35.1833860  42.5838460  30.0883371  35.0734260  40.6442630
  31.2062988  34.8002026  39.8600509  32.1824664  34.7279186  40.3396041
  31.0916994  34.6204976  38.4860578  31.9795083  34.4228710  37.8853574
  29.8606747  34.7483551  37.8763400  29.7521815  34.5853007  36.5042101
  30.5915578  34.3873844  36.0824564  28.7306817  34.9833172  38.6484972
  27.7486369  35.0568090  38.1812847  28.8566783  35.1239636  40.0153818
  27.9709005  35.2798730  40.6311658  30.6696268  36.7798011  44.0450315
  31.6709762  36.5223431  44.7161327  29.5287677  37.2088976  44.5471687
  28.8840103  37.6670213  43.9190684  29.1300086  37.0334840  45.9440288
  29.9926243  37.1369640  46.6022728  28.1081151  38.1005911  46.3100058
  28.5455053  39.0763493  46.0986179  27.2718575  37.9236308  45.6336491
  27.6151626  38.0683568  47.7402173  27.9259347  37.1227170  48.4405395
  26.9345020  39.0607924  48.1500386  28.4925964  35.6672519  46.0651966
  27.6240751  35.3040723  45.2099632  29.0270138  34.8367296  46.9391988
  29.8533816  35.1290752  47.4409454  28.5171885  33.4866753  47.1706928
  27.5966585  33.3497949  46.6032534  29.5103840  32.4351596  46.7395749
  30.4343513  32.5535642  47.3055826  29.0953354  31.4445950  46.9256307
  29.7197614  32.5468463  45.6757204  28.1647028  33.3296603  48.6448916
  28.8325920  33.9288764  49.4614533  27.2433333  32.4208503  48.9482934
  26.6589828  32.0361794  48.2198278  27.0188983  31.9618332  50.3535885
  27.3379689  32.7366795  51.0506583  25.5336108  31.6704797  50.5917066
  25.1785150  31.3454559  49.6137671  25.4309896  30.8527940  51.3051202
  24.7028547  32.8670307  51.0642519  24.7363302  33.6530127  50.3097902
  23.2714693  32.4355195  51.2779900  23.2371375  31.6498227  52.0327089
  22.6808944  33.2877062  51.6142933  22.8618017  32.0571416  50.3414522
  25.2376964  33.5416240  52.3189479  26.2474973  33.9074750  52.1330588
  24.5920068  34.3783381  52.5855858  25.2572547  32.8229787  53.1382558
  27.8600042  30.6942475  50.6037609  27.7374291  29.7167037  49.8841260
  28.7403430  30.7540980  51.5912697  28.9119986  31.6464650  52.0320813
  29.5113310  29.5777485  52.0614999  29.7540968  28.9360597  51.2145056
  30.7952570  30.0091197  52.7224605  31.3273650  30.7321976  52.1043031
  30.4309380  30.5012249  53.6242389  31.7293696  28.8914492  53.1035383
  31.2219173  27.8020616  53.3995704  32.9902584  29.1166949  52.9823988
  28.6501300  28.7839696  53.0423688  28.3690848  29.3056486  54.1650770
  28.1468672  27.6525753  52.6266482  28.3280178  27.3067963  51.6951330
  27.1582842  26.9280437  53.4673329  26.5311199  27.6448990  53.9973164
  26.2631132  26.0406942  52.6043046  26.8963898  25.5046269  51.8974158
  25.7624886  25.3258542  53.2573582  25.1723749  26.8844515  51.8057799
  25.6580177  27.1851186  50.8774205  24.3668886  26.1844708  51.5836969
  24.4543690  28.4067055  52.6499271  23.6323872  27.6277132  54.0630138
  24.3691935  27.0950360  54.6642380  23.1522430  28.3935390  54.6721716
  22.8802551  26.9250077  53.7044004  27.8583012  26.1764550  54.6078238
  27.1377072  25.7218782  55.5487101  29.1731903  26.0889308  54.6246587
  29.7230312  26.4010653  53.8370380  29.8853146  25.4921077  55.7925911
  29.3419191  24.6225838  56.1623864  31.2901932  25.0466737  55.3639168
  31.1296187  24.3119203  54.5749603  31.8299035  25.9024375  54.9583540
  32.1048030  24.4182874  56.4828746  32.1290302  25.0975205  57.3350227
  31.4882072  23.1232725  56.8965929  31.4640525  22.4433076  56.0450278
  32.0778250  22.6793752  57.6987194  30.4718782  23.3001991  57.2485484
  33.5384963  24.2101291  56.0521976  33.9831230  25.1705085  55.7912803
  34.1020241  23.7593917  56.8691269  33.5657807  23.5501518  55.1851425
  29.9696294  26.5181617  56.9345623  29.5562158  26.1986166  58.0697025
  30.3706594  27.7392083  56.6410150  30.6239988  27.9353415  55.6831788
  30.5885100  28.7925797  57.6524338  30.6679975  28.3798394  58.6581307
  31.8419205  29.5889625  57.3557278  31.9225613  30.3951247  58.0849052
  33.0914931  28.7057113  57.4311578  33.0117844  27.8995356  56.7018932
  33.9749591  29.3058640  57.2134336  33.1780121  28.2824465  58.4318885
  31.6581426  30.1738249  56.0600416  32.4333803  30.6910064  55.8295420
  29.3474003  29.6792790  57.7857344  29.3411083  30.4806951  58.7305300
  28.4383427  29.5895191  56.8435097  28.6521409  29.0050340  56.0480433
  27.1716029  30.3716045  56.8245933  26.6145643  30.1779062  55.9079210
  26.3098621  29.9476806  58.0206736  26.9320216  30.0301761  58.9118590
  25.4827617  30.6543251  58.0889261  25.7666146  28.5491134  57.9166449
  25.0601510  28.4819392  57.0893012  26.5804262  27.8417386  57.7571657
  25.0516070  28.2156707  59.2246025  25.7640345  28.2451918  60.0490263
  24.2589293  28.9420417  59.4038970  24.4682091  26.9016062  59.1662710
  24.7764817  26.3049430  58.4119101  23.5437285  26.4299880  60.0200606
  23.1016782  27.1822390  61.0198425  23.4622569  28.1177974  61.1415534
  22.4066788  26.8157777  61.6544933  23.0918371  25.2075255  59.8719733
  23.4408067  24.6310811  59.1196223  22.3970181  24.8483764  60.5109859
  27.5034328  31.8529757  56.7940260  27.1429676  32.6292275  57.7252161
  28.2986983  32.2475481  55.8092121  28.6123066  31.5440318  55.1559020
  28.7348650  33.6295084  55.6032216  28.0429011  34.3083905  56.1016234
  30.1481597  33.8553495  56.1795174  30.8004814  33.1107007  55.7233663
  30.4626705  34.8518704  55.8694707  30.2340379  33.7459385  57.6819632
  29.4886667  34.4634930  58.0249473  29.9406449  32.7425436  57.9905379
  31.5800829  34.0873237  58.2887227  32.5193407  34.3462876  57.5103903
  31.7023007  34.0120048  59.5681389  28.7763353  33.9279918  54.1046483
  28.9792637  33.0078304  53.3044857  28.6995939  35.2014636  53.7319108
  28.4335558  35.9084340  54.4023703  28.9377973  35.6169240  52.3310026
  28.5332172  34.8510833  51.6692608  28.2851195  36.9577532  51.9841543
  28.6160089  37.6564367  52.7525636  28.5936902  37.3229164  51.0045932
  26.7924559  36.8826989  52.0175329  26.1443821  37.0327371  53.0593025
  26.2300929  36.5678710  50.8834534  25.2243090  36.4969586  50.8245473
  26.8030787  36.3964909  50.0695634  30.4398659  35.6799059  52.1106272
  31.2052459  36.0983915  53.0221733  30.8611868  35.2587695  50.9231665
  30.1585422  34.9212174  50.2809449  32.2763789  35.2051549  50.5041489
  32.8949625  35.8723748  51.1043747  32.8422998  33.7697045  50.6187385
  33.8806350  33.7702232  50.2871378  32.7702561  33.2825261  52.0580460
  31.7321053  33.2812914  52.3902243  33.1723686  32.2713338  52.1204648
  33.3545996  33.9453828  52.6962195  32.1160029  32.7942961  49.7181714
  32.2142224  33.1143906  48.6808698  32.5489560  31.8006760  49.8338013
  31.0609312  32.7642373  49.9902394  32.3773000  35.7162720  49.0799091
  31.3423461  35.8137526  48.3948091  33.5826255  35.9973926  48.6345602
  34.3406141  35.9929757  49.3020429  33.8917418  36.3226427  47.2234806
  33.0106800  36.6674243  46.6822276  34.9411093  37.3799489  47.1486447
  35.8330307  37.0455072  47.6784795  35.1898628  37.5724748  46.1050185
  34.5683954  38.2956344  47.6076694  34.3873530  35.0549226  46.5413337
  35.1535724  34.2911530  47.1212732  33.9044164  34.8721581  45.3353742
  33.2498174  35.5542861  44.9799859  34.2329966  33.7060600  44.4856964
  35.0255773  33.1140273  44.9433122  32.9891536  32.8241806  44.3327216
  32.8312037  32.3715540  45.3116395  32.1534094  33.4836657  44.0988176
  33.0832124  31.7283538  43.2753237  33.4688032  32.1440290  42.3443915
  33.9789908  30.7010395  43.7506418  33.5937979  30.2845395  44.6813690
  34.0554067  29.9108413  43.0037494  34.9651364  31.1309056  43.9262331
  31.7005526  31.1326839  42.9898235  31.0347324  31.9158952  42.6273832
  31.7893916  30.3531290  42.2331842  31.2926097  30.7047087  43.9055303
  34.7248829  34.2498998  43.1472439  33.9116559  34.8182226  42.3909132
  36.0127785  34.0600356  42.8527078  36.6171073  33.6664794  43.5598142
  36.5976995  34.4133133  41.5582055  36.0044913  35.1952243  41.0840553
  38.0230741  34.9271617  41.7436371  38.5626553  34.1783542  42.3234980
  38.4680461  35.0079398  40.7518837  38.1080412  36.2606963  42.4424354
  37.5143374  36.9748325  41.8717988  37.6778672  36.1441366  43.4371546
  39.5257672  36.7680867  42.5635881  40.1243195  36.0063961  43.0632495
  39.9189483  36.9388377  41.5614144  39.5860458  38.0476818  43.3498049
  38.9038211  38.7699811  42.9015262  39.2783861  37.8464217  44.3759331
  40.9617478  38.5995973  43.3460316  41.2468625  38.7865623  42.3953195
  40.9817002  39.4576439  43.8784393  41.5940016  37.9306275  43.7617643
  36.5949588  33.1720995  40.6665739  36.9081335  32.1088993  41.1606832
  36.3318306  33.3580306  39.3987856  36.0587144  34.2779861  39.0838432
  36.3215159  32.2450850  38.4151110  36.9991469  31.4457627  38.7151099
  34.9262341  31.6473224  38.1928984  35.0021239  30.8393211  37.4652489
  34.3576341  31.1071651  39.4895483  34.2810080  31.9147409  40.2175941
  33.3679860  30.6886299  39.3064490  35.0143393  30.3290402  39.8786006
  33.9982345  32.6777462  37.5769491  34.4007562  33.0025005  36.6174633
  33.0130632  32.2363006  37.4264067  33.9133017  33.5357071  38.2438752
  36.9256926  32.7057705  37.0996854  36.8873543  33.8936595  36.7867959
  37.4275769  31.7442981  36.3914997  37.4898969  30.8388695  36.8346866
  37.9416605  31.8866033  35.0172246  37.5097177  32.7711371  34.5491173
  39.4652927  32.0362874  35.0333671  39.7638426  32.3955417  34.0485302
  39.7067293  32.7898490  35.7830026  40.2071445  30.7553757  35.3489920
  39.6297041  30.5097603  36.2402475  40.0926688  29.9604586  34.6120379
  41.6833949  30.8959718  35.7213176  42.1602572  31.9930187  35.6164911
  42.3394395  29.8662457  35.8660334  37.5159454  30.6579760  34.2217658
  37.3981867  29.5556153  34.7987474  37.2775691  30.8132868  32.9328886
  37.2249783  31.7352906  32.5239358  37.0260961  29.6463349  32.0634241
  36.2168772  29.0531503  32.4893303  36.6426703  30.0522704  30.6809687
  35.6356693  30.4693197  30.6918375  37.3428076  30.8040545  30.3166495
  36.6762790  28.9272650  29.8301824  36.4290931  29.1911294  28.9408711
  38.2832687  28.7556448  32.0274634  39.3953354  29.3073774  31.9103658
  38.1092438  27.4457521  32.0549128  37.1796083  27.0985706  32.2429081
  39.2038194  26.4710573  31.9183618  40.0100114  26.7315661  32.6041378
  38.7115624  25.0902755  32.2573880  37.9100310  24.8115829  31.5732989
  39.5318378  24.3785224  32.1643497  38.3356968  25.0789962  33.2804701
  39.7946072  26.5547028  30.5034847  40.8633755  25.9975499  30.3284277
  39.0981318  27.1923545  29.5500334  38.2476991  27.6563372  29.8356618
  39.4816389  27.2425365  28.1087950  40.2398630  26.4859174  27.9069952
  38.2751334  26.9762972  27.2104538  37.4320090  27.5315231  27.6215069
  38.5140150  27.3608525  26.2189131  37.9116379  25.5088643  27.1086012
  37.2014424  25.4116661  26.2874583  38.7868080  24.8913826  26.9063746
  37.2565714  25.0162204  28.3724334  36.3067226  25.6155388  28.8892523
  37.8007378  23.9410669  28.9178257  37.4112847  23.5571926  29.7669831
  38.6031969  23.5089278  28.4826056  40.0803475  28.5972251  27.6954102
  40.5778850  28.6751887  26.5445995  40.0386494  29.6253223  28.5316927
  39.6466120  29.5160852  29.4560699  40.4354530  30.9936903  28.0888419
  40.0548478  31.1658984  27.0820732  39.8834707  32.0742290  29.0092313
  40.0971300  33.0372728  28.5455549  38.8044819  31.9315025  29.0684962
  40.4684542  32.0439119  30.3911358  40.4576804  31.0581359  30.8561415
  41.4998100  32.3596939  30.2340087  39.8016301  33.0230508  31.3225899
  38.5748033  32.9930076  31.5691956  40.6400935  33.8263939  31.9655814
  40.2801334  34.5148559  32.6109885  41.6342000  33.7455155  31.8064834
  41.9517465  31.0402942  27.9397645  42.6666485  30.2954679  28.5996395
  42.4711237  31.8504508  26.9870964  41.7087351  32.8494756  26.2152655
  41.4274671  33.6572369  26.8909209  40.8094286  32.3675242  25.8317688
  42.6290795  33.3106722  25.1123267  42.5645410  34.3952762  25.0253327
  42.3175196  32.8522329  24.1737825  44.0394170  32.8645831  25.4954645
  44.5934936  33.7209776  25.8797646  44.5735666  32.4382511  24.6463326
  43.8792612  31.7995292  26.6073850  44.0882848  30.7868842  26.2624828
  44.8396310  32.1580800  27.7568572  45.9036949  31.5803249  27.8344649
  44.4922518  33.1566624  28.5555637  43.6500840  33.6820030  28.3688287
  45.3499290  33.5791232  29.7001622  46.2227488  32.9266887  29.7249424
  45.8265614  35.0302957  29.6221686  46.3247638  35.1749322  28.6635373
  44.9531849  35.6799901  29.6788316  46.7912360  35.3753394  30.7537236
  46.1994153  35.3966697  31.6688160  47.5110904  34.5585392  30.8061560
  47.5261357  36.6837007  30.5999804  48.2583891  36.5779528  29.7995297
  46.8055632  37.4566544  30.3327404  48.2311712  37.0731448  31.8791909
  48.6230457  38.0833152  31.7604865  47.5025182  37.0595699  32.6897338
  49.3476164  36.1428494  32.2005497  50.0231281  36.1556033  31.4498027
  49.7926557  36.4348577  33.0589034  48.9846492  35.2068188  32.3110057
  44.5816194  33.3571981  30.9928971  43.5051028  33.9636452  31.1644835
  45.0987268  32.4355326  31.8015748  45.9129796  31.9209490  31.4977731
  44.5019295  32.0931242  33.1049548  43.5560187  32.6183005  33.2374002
  44.2405876  30.6033238  33.1650076  45.1470926  30.0789669  32.8626871
  43.9916841  30.3352239  34.1917838  43.0872075  30.2037820  32.2393874
  42.1699063  30.5268719  32.7315991  43.1819113  30.7112036  31.2793580
  43.0050484  28.7280026  31.9948143  43.1995071  27.9140804  32.8942839
  42.7593417  28.3688573  30.7428459  42.6906835  27.3894528  30.5058769
  42.6418988  29.0762435  30.0315701  45.4473938  32.5484096  34.2181054
  46.6660507  32.3108925  34.0798774  44.9346589  33.2362809  35.2101462
  43.9440962  33.4325489  35.2292189  45.7871128  33.8386489  36.2524111
  46.8171671  33.4839210  36.2878430  45.7985849  35.3745608  36.1799961
  46.3613013  35.7506157  37.0344153  46.4376172  35.8882575  34.8798640
  45.8751329  35.5129682  34.0249545  46.4234198  36.9781458  34.8733523
  47.4681095  35.5384582  34.8179954  44.4195842  35.9616477  36.4585945
  44.0937901  35.6676920  37.4563671  44.4680763  37.0489029  36.3983927
  43.7094751  35.5887181  35.7205095  45.3729764  33.3458023  37.6381886
  46.0097601  33.8083942  38.6360574  44.3471149  32.4804434  37.7798053
  43.8128086  32.1209497  37.0017434  43.9047571  32.1419740  39.1504748
  43.8852221  33.0522077  39.7498013  42.5099766  31.5120467  39.1721970
  42.4956838  30.8093021  38.3391033  42.3775565  30.9684939  40.1076730
  41.3790914  32.5191593  39.0060110  41.4600947  32.9903901  38.0264801
  40.0237206  31.8129065  39.1223127  39.9417868  31.3417946  40.1018224
  39.2221685  32.5417083  39.0020511  39.9419827  31.0522589  38.3458885
  41.4383440  33.6317472  39.9978064  42.3794731  34.1699506  39.8850560
  40.6067195  34.3155252  39.8276604  41.3721995  33.2239283  41.0064727
  44.9535042  31.2517307  39.8316888  44.9954206  31.3106673  41.0665052
  45.8110091  30.5566059  39.0819950  45.7198845  30.5215625  38.0767251
  46.9049829  29.7822549  39.7160651  46.4908573  29.0778045  40.4374173
  47.6827777  28.9979449  38.6581469  46.9689096  28.3312530  38.1743974
  48.0478283  29.7259268  37.9336605  48.8524289  28.1855455  39.1936917
  49.6768722  28.8759888  39.3716869  48.5387824  27.7434955  40.1393765
  49.3037643  27.0959852  38.2554749  48.6061746  26.2629404  38.3421002
  49.2746711  27.4894122  37.2393705  50.7103964  26.6135826  38.5716679
  51.3661540  27.4800415  38.6572918  50.6911958  26.0779049  39.5207622
  51.2140487  25.7190009  37.5127067  51.2323259  26.2153123  36.6332519
  52.1479082  25.4132799  37.7462473  50.6067886  24.9158449  37.4334947
  47.8290737  30.7587120  40.4619376  48.2489344  30.4523235  41.6146826
  48.0672002  31.9304457  39.8918841  47.7089223  32.1136982  38.9655177
  48.8943923  32.9862293  40.5539477  49.8041934  32.5333534  40.9479839
  49.2871572  34.1037159  39.5706265  49.8277032  33.6361601  38.7476436
  48.3636661  34.5439330  39.1944974  50.1471387  35.1865342  40.1884861
  50.2950323  35.9569918  39.4317673  49.5918746  35.6045362  41.0281635
  51.7786557  34.6005933  40.7777479  52.5689156  34.1767094  39.2462226
  52.6300542  35.0607046  38.6114679  53.5733044  33.8034404  39.4461577
  51.9894298  33.4052745  38.7390878  48.1314632  33.5793677  41.7312034
  48.7031718  33.8179902  42.8281426  46.8469438  33.8527071  41.5343674
  46.4521240  33.7442963  40.6110778  45.9766432  34.3600395  42.6119854
  46.2975761  35.3610716  42.9001450  44.5127017  34.4278840  42.1490507
  44.4703224  35.0701223  41.2693728  44.2016072  33.4192166  41.8771862
  43.5792533  34.9750965  43.2226774  42.5669021  34.5874157  43.1088819
  44.0478124  34.5160992  44.0932365  43.5261079  36.4773094  43.4114654
  44.0270567  37.1967989  42.5211580  42.8475639  36.8996608  44.3485109
  46.1134835  33.4582499  43.8344866  46.3277032  33.9839833  44.9541412
  45.9712816  32.1605860  43.6505082  45.8113642  31.7915173  42.7240558
  45.9937918  31.2017359  44.8038884  45.3523664  31.4982912  45.6337845
  45.5997849  29.7820961  44.3609715  46.1772166  29.5356047  43.4699531
  45.8647028  28.7338836  45.4471294  45.2872153  28.9794639  46.3383643
  45.5691489  27.7499268  45.0830178  46.9264343  28.7256705  45.6936255
  44.1872506  29.7397958  43.9018347  44.0586425  30.4171401  43.0575796
  43.9347917  28.7249486  43.5945084  43.5306482  30.0462278  44.7161279
  47.3684743  31.1791391  45.4356885  47.4735853  31.2163096  46.6262480
  48.4308536  31.1611449  44.6255401  48.3050991  31.1771198  43.6235271
  49.8017754  31.0579348  45.1560220  49.9255300  30.1695416  45.7753293
  50.7887916  30.9952413  44.0230170  50.6832646  31.8826974  43.3990092
  51.8012692  30.9522729  44.4244435  50.5982119  30.1052521  43.4232690
  50.0444143  32.2645387  46.0698789  50.6087949  32.0933017  47.1599254
  49.7715754  33.4534278  45.5703523  49.4050580  33.5532285  44.6345082
  50.0847806  34.6909544  46.3431766  51.0534496  34.6816570  46.8428695
  49.9997735  35.9405418  45.4649471  49.0056423  36.0021013  45.0222137
  50.2572595  37.1764200  46.2998572  51.2514557  37.1157965  46.7425758
  50.1950417  38.0621161  45.6675821  49.5109786  37.2426580  47.0915509
  50.9019730  35.8377184  44.2466559  50.6059122  34.9775351  43.6462105
  50.8119693  36.7452094  43.6496140  51.9361608  35.7165411  44.5689485
  49.1524870  34.7883174  47.5510979  49.6474864  35.1250433  48.6501399
  47.8467408  34.6031794  47.3851465  47.4688690  34.4210882  46.4663674
  46.9122966  34.6530417  48.5302980  46.8075556  35.6632808  48.9259563
  45.5663933  34.1991253  47.9975229  45.4805067  34.6851035  47.0256443
  45.6673260  33.1228976  47.8573570  44.3427643  34.4830224  48.8056197
  44.3697788  33.8330735  49.6802267  44.2374769  35.9306843  49.2540119
  44.2099428  36.5812518  48.3798823  43.3257378  36.0659831  49.8358424
  45.1011004  36.1849918  49.8684895  43.1586845  34.1384931  47.9162094
  43.2081206  33.0862930  47.6359764  42.2308918  34.3268823  48.4564053
  43.1869805  34.7549629  47.0177312  47.4020934  33.7207422  49.6329996
  47.4288220  34.1230916  50.8188168  47.8110116  32.5098682  49.2899675
  47.7335405  32.1928033  48.3341603  48.2933478  31.5499753  50.3121648
  47.5560689  31.4758481  51.1115547  48.5134334  30.1503725  49.7155373
  49.0761532  30.2619011  48.7887110  49.0979721  29.5669870  50.4269274
  47.2232866  29.4457020  49.4338072  46.7015593  29.3465740  50.3856870
  46.6477673  30.0909746  48.7701033  47.3759582  28.1049845  48.8109711
  47.6299772  28.2382406  47.7593932  48.1858013  27.5784320  49.3159425
  46.1072179  27.2998453  48.9227303  45.2550167  27.9597175  48.7601808
  46.1145199  26.5219016  48.1592846  45.9998780  26.6763812  50.2610112
  45.9926615  27.3970931  50.9685576  45.1445077  26.1421234  50.3158771
  46.7892309  26.0645597  50.4116618  49.5508666  32.1047391  50.9622214
  49.7044563  31.9890314  52.1825652  50.5066016  32.6114141  50.1746828
  50.3956110  32.6127107  49.1708010  51.7826529  33.0934551  50.7381778
  52.2498634  32.3102738  51.3352042  52.7378523  33.4788860  49.6012732
  52.1124664  33.7543704  48.7520970  53.2897005  34.3539791  49.9444577
  53.7178711  32.3957914  49.1783496  53.3521122  31.4634654  49.6085699
  53.6649204  32.3390345  48.0911160  55.1640982  32.6191165  49.6053333
  55.5308413  33.4676246  49.0277239  55.1383796  32.8837473  50.6624087
  56.0909276  31.4298778  49.4030775  56.9520229  31.5609254  50.0583957
  55.5487202  30.5295608  49.6921099  56.5543106  31.2988085  47.9968364
  57.0571290  32.1327823  47.7289538  57.1640692  30.4976493  47.9165962
  55.7565796  31.1769395  47.3894878  51.5344375  34.2559308  51.7067857
  52.3715985  34.4751031  52.6024347  50.4578394  35.0068152  51.5169142
  49.8264107  34.7920632  50.7584430  50.1974774  36.2233496  52.3261512
  51.1241897  36.5828549  52.7734311  49.6341418  37.3103867  51.4448775
  48.8329989  36.7973118  50.9128780  49.2090149  38.0915907  52.0750263
  50.5882669  37.9326005  50.4432123  51.0817955  37.1500914  49.8668358
  49.7851581  38.8423314  49.4918223  49.2916858  39.6254175  50.0674610
  50.4601761  39.2960962  48.7661854  49.0351035  38.2494636  48.9683471
  51.6951469  38.6724804  51.2250489  52.2282669  37.9641208  51.8591697
  52.3936558  39.1282941  50.5233222  51.2460508  39.4481003  51.8453920
  49.2929198  35.9336054  53.5046667  49.0354433  36.8646272  54.2754431
  48.8614250  34.7039668  53.7225828  49.0441565  33.9362244  53.0922812
  47.9746952  34.4653359  54.8764487  47.1214032  35.1422340  54.8340131
  47.4652331  33.0464309  54.8622305  48.3161418  32.3696369  54.7847487
  46.9337938  32.8558532  55.7946212  46.5136999  32.8134076  53.6719324
  47.1188401  32.9776516  52.7803439  46.1349743  31.7913186  53.6701522
  45.3220439  33.7774914  53.6396734  44.4192165  33.6512134  54.4653691
  45.2406207  34.7020994  52.6708595  44.4561378  35.3378539  52.6484041
  45.9641810  34.7581646  51.9684219  48.7329534  34.8369045  56.1667414
  49.8821837  34.4318295  56.3311490  48.0320127  35.5168289  57.0710528
  47.0522582  35.6989916  56.9067444  48.6365075  36.0197715  58.3165044
  47.9028931  35.9210963  59.1166121  49.5078661  35.4062687  58.5455194
  49.0662498  37.4690872  58.2177052  49.4007776  38.0199352  59.2693067
  49.1941305  38.0104638  57.0019997  49.0111363  37.4290438  56.1966654
  49.6353834  39.3927656  56.7768255  50.3114263  39.6806880  57.5819130
  50.3587205  39.5654585  55.4493969  49.6190570  39.3724975  54.6723748
  50.6677844  40.6097723  55.4048068  51.5656054  38.6713176  55.2317737
  51.3444978  37.6923489  55.6570177  51.7264130  38.5726336  54.1582261
  52.7988345  39.2253441  55.8714155  52.8008034  40.3068443  55.7355758
  52.7682053  38.9934520  56.9360222  54.0493303  38.6410451  55.2660991
  53.9155681  38.5411372  54.1889609  54.8908067  39.3040329  55.4672554
  54.3181809  37.3118108  55.8542839  53.5387562  36.6971917  55.6676285
  55.1568872  36.9258555  55.4447593  54.4425828  37.4042256  56.8523233
  48.4206353  40.2946560  56.8382561  47.2692414  39.8449899  56.6401286
  48.6859977  41.5703671  57.0042467  49.6270136  41.8601217  57.2292595
  47.6375612  42.5932749  56.9526763  46.7269394  42.2322121  57.4306938
  48.1192888  43.8359962  57.6967740  48.7543448  43.5513569  58.5356921
  48.7104077  44.3859425  56.9644916  46.9877187  44.7143612  58.1949837
  45.8216844  44.3102351  58.0436192  47.3046345  45.7741843  58.7956404
  47.2866607  42.8702932  55.4794880  48.0906254  42.6010564  54.5680477
  46.1603001  43.5077678  55.2789913  45.5338118  43.5631915  56.0692697
  45.7091834  44.0726620  53.9821809  44.7567844  44.5840365  54.1219358
  46.7294269  45.0781651  53.4255906  47.6635659  44.5767392  53.1724983
  46.3385916  45.5842859  52.5428735  47.0701871  46.1419972  54.4108788
  46.1496700  47.0986942  54.8425327  46.7703329  47.9407933  55.6817560
  46.2477425  48.8080907  56.0852328  48.0230615  47.5027604  55.8702029
  48.7100816  47.8985112  56.4958902  48.2288052  46.4113911  55.0638818
  49.2055795  45.9282618  55.0394013  45.4294891  42.9728006  52.9588026
  45.4308045  43.2813291  51.7789999  45.1739503  41.7546710  53.3913743
  45.3004538  41.4987350  54.3601844  44.8685730  40.6774694  52.4112155
  44.4335705  41.0503324  51.4839371  46.0554849  39.7469087  52.0617603
  45.7514164  39.1175625  51.2253603  47.3087079  40.5114549  51.6884358
  47.6136728  41.1407218  52.5245701  48.1075663  39.8081097  51.4534226
  47.1079747  41.1364791  50.8182906  46.3364209  38.7201697  53.1123049
  45.4574354  38.0904426  53.2498923  47.1797121  38.1032604  52.8018494
  46.5771540  39.2174402  54.0519167  43.6296425  39.9059710  52.8760408
  43.3880211  39.7471123  54.1016039  42.8900872  39.4331872  51.9078221
  43.1200420  39.6541437  50.9494911  41.6845301  38.6288925  52.1688567
  41.0722766  39.1273706  52.9203648  40.8585033  38.4518649  50.9110782
  41.4607410  38.0175313  50.1131038  39.9963552  37.8133106  51.1035595
  40.1920159  40.0154129  50.2480659  39.5654934  39.4700923  49.2093199
  42.0626374  37.2816653  52.7390347  43.0303865  36.6695630  52.3003384
  41.2563946  36.7762177  53.6488007  40.5486193  37.3608198  54.0699821
  41.3875238  35.3805607  54.1237035  42.4096237  35.2019505  54.4576338
  40.4368456  35.1114141  55.2929118  40.5804735  35.9127891  56.0176658
  39.4209091  35.1550025  54.9003903  40.6601305  33.7721159  55.9695471
  40.3128728  32.9801289  55.3060190  41.7263197  33.6461607  56.1579029
  39.9003789  33.6995514  57.2868617  38.8445538  33.9033036  57.1084874
  40.0103543  32.7030956  57.7147410  40.4114334  34.6796004  58.2443423
  39.9067975  35.5486291  58.3454919  41.4726586  34.4589682  59.0368550
  42.1368492  33.3170718  58.9486192  41.8425001  32.6151939  58.2846719
  42.9348181  33.1531077  59.5456628  41.9053072  35.3981974  59.8636136
  41.4338280  36.2906446  59.9002939  42.7048418  35.2179201  60.4538197
  41.1131145  34.4109974  52.9689310  40.0879308  34.5449393  52.2598076
  41.9840494  33.4423098  52.7940432  42.8282113  33.4653220  53.3480832
  41.8095032  32.3430131  51.8369714  41.4699072  32.7300598  50.8762588
  43.1431228  31.6252182  51.6305463  43.8021790  32.3104920  51.0974947
  43.6297129  31.2936740  52.5478295  42.9936482  30.4202123  50.7679519
  42.9626958  30.5663019  49.3996249  43.0890614  31.5546612  48.9577228
  42.7703030  29.4542424  48.5785994  42.7190105  29.5694137  47.4959151
  42.6454479  28.2097303  49.1428288  42.6117334  27.3266810  48.5047166
  42.5627417  28.0741760  50.5120161  42.3182825  27.1099545  50.9576806
  42.7928705  29.1744914  51.3234461  42.8158038  29.0573985  52.4068958
  40.7779514  31.3582135  52.3524096  40.8674906  30.9076797  53.5025318
  39.8562996  30.9525871  51.4779553  39.8742411  31.3215767  50.5379425
  38.7203955  30.0639283  51.8685514  38.8244370  29.6423146  52.8683096
  37.3893669  30.8183824  51.7683980  37.3272885  31.2853486  50.7854487
  36.1973419  29.8706082  51.9604070  36.2584835  29.4035840  52.9433875
  35.2678830  30.4348473  51.8839787  36.2179718  29.0993997  51.1903999
  37.4087604  31.9910807  52.7722762  37.4165472  31.5426858  53.7657460
  38.3469830  32.5203242  52.6057255  36.2547713  32.9653507  52.6677715
  35.3161724  32.4368870  52.8346789  36.3694712  33.7471195  53.4186249
  36.2466070  33.4145240  51.6746569  38.7160632  28.7707794  51.0539212
  38.3919234  27.7157049  51.6179461  39.0719166  28.8026421  49.7671939
  39.2834109  29.6769165  49.3078314  39.1655786  27.5625448  48.9827737
  39.9266892  26.9272338  49.4357523  38.2004004  27.0576878  49.0233916
  39.5296482  27.8118879  47.5375289  39.6563823  28.9700826  47.1336485
  39.6854320  26.7418817  46.7958037  39.6108045  25.8350017  47.2340944
  40.0822203  26.8021638  45.3721324  39.4012652  27.4638664  44.8368296
  41.4901700  27.3243647  45.2094152  41.7074616  27.4979036  44.1554855
  41.6123541  28.2552690  45.7631194  42.7822414  26.2092798  45.8111778
  43.8049264  27.0002272  45.4990627  39.9000771  25.4591046  44.6947839
  39.8306087  24.4063148  45.3698459  39.7404584  25.4746951  43.3890107
  39.7474334  26.3515682  42.8878677  39.5508608  24.2480002  42.6300730
  40.3376093  23.5460490  42.9064616  38.5802879  23.8266603  42.8919133
  39.6001643  24.4793108  41.1361341  39.6431225  25.6388759  40.6923949
  39.6667923  23.3771429  40.4077822  39.6268019  22.5000033  40.9069077
  39.8435372  23.3411326  38.9395379  39.5291541  24.2867161  38.4977977
  41.3210566  23.1130838  38.6073882  41.5774806  22.1179754  38.9708511
  41.4087733  23.1363591  37.5211728  42.2755997  24.1397470  39.2175219
  41.9749802  25.1004238  38.7993965  42.0685076  24.1290364  40.2876155
  43.7763269  23.9290204  38.9856636  44.3268765  24.7177117  39.4984600
  44.0641488  22.9606181  39.3948762  44.1269404  23.9605125  37.5621649
  44.2326160  23.0682821  37.1008006  44.3149652  25.0843916  36.8406197
  44.2086064  26.2753030  37.4031130  43.9838983  26.3483508  38.3850857
  44.3525073  27.1070392  36.8484897  44.6092212  25.0035128  35.5535381
  44.6924879  24.0981812  35.1136045  44.7492767  25.8474618  35.0166645
  38.9476960  22.2333190  38.4060246  38.9194261  21.1420965  39.0281469
  38.1740635  22.5109917  37.3629471  38.0566820  23.4721691  37.0757905
  37.3554103  21.4743044  36.6954598  37.8434771  20.5073692  36.8176327
  35.9423984  21.3853353  37.2748429  35.4082134  20.5919437  36.7520853
  36.0066897  21.1417554  38.3353313  35.1565159  22.6884343  37.1193867
  34.9695095  23.2482981  36.0276262  34.6894075  23.1900374  38.2686165
  34.1582534  24.0490684  38.2622254  34.8701210  22.7073239  39.1371964
  37.4031636  21.7375061  35.1931807  38.1229230  22.6613949  34.7786798
  36.7393813  20.8817065  34.4207332  36.2643355  20.1086831  34.8644286
  36.7401488  20.9492549  32.9451023  37.7644201  20.9553611  32.5723688
  36.0161357  19.7344142  32.3642786  35.1058637  19.6247107  32.9537437
  35.7538082  19.9111510  31.3211830  36.8425667  18.4661207  32.4697509
  38.0212577  18.5754881  32.8720956  36.3202944  17.3893942  32.0952622
  36.1280498  22.2703225  32.4695844  36.4035903  22.6611099  31.3390874
  35.3143117  22.9356131  33.2887864  35.1625331  22.6185052  34.2356259
  34.5550240  24.1136231  32.8131389  34.5572994  24.1452979  31.7236020
  33.1049829  24.0302926  33.2971070  33.1342501  23.9336936  34.3824232
  32.6230780  24.9706165  33.0294159  32.3130232  22.8649541  32.7032155
  32.0894837  23.0592287  31.6542215  32.8852536  21.9410454  32.7871614
  31.0063695  22.7276686  33.4855037  31.2804989  22.6568614  34.5380902
  30.4457700  23.6472630  33.3176535  30.1524431  21.5896744  33.1460555
  30.5060905  20.9580422  32.4417306  28.9452406  21.3305066  33.6976379
  28.4418404  22.1341796  34.6257192  28.9636276  22.9461657  34.9232368
  27.5391960  21.9302295  35.0303636  28.2511905  20.2632371  33.3142629
  28.6282316  19.6459537  32.6093506  27.3501068  20.0746795  33.7297059
  35.2638313  25.3683453  33.3074452  35.4199706  26.3641491  32.5420131
  35.6372533  25.3686192  34.5672352  35.5106605  24.5515848  35.1473459
  36.1721575  26.5901376  35.1896789  36.7425859  27.1541914  34.4517399
  35.0458419  27.4780129  35.7193202  35.5271800  28.3466808  36.1685739
  34.3735149  27.8054277  34.9263032  34.1777555  26.8587520  36.7952997
  33.0441929  26.1157526  36.4658382  32.7817714  25.9584552  35.4196583
  32.2460403  25.5737838  37.4747343  31.3751596  24.9781661  37.2010429
  32.5468542  25.7833340  38.8004219  31.9220333  25.3539659  39.5835833
  33.6493547  26.5438171  39.1360856  33.8954321  26.7234898  40.1826341
  34.4477197  27.0817539  38.1313964  35.3101425  27.6958307  38.3906965
  37.1614747  26.2390121  36.2993205  37.0980376  25.1015906  36.8699071
  37.9658116  27.2328860  36.6272256  37.9998155  28.0152561  35.9893855
  38.8173591  27.2729706  37.8261543  38.7838229  26.3047432  38.3256643
  40.2581454  27.5852895  37.4708436  40.3278253  28.5916998  37.0580699
  40.8601894  27.5224425  38.3773166  40.8086191  26.6073337  36.4560696
  40.5492424  25.4191076  36.5105434  41.5625671  27.1335708  35.5163361
  41.9645575  26.5404630  34.8044888  41.7362766  28.1285045  35.5106192
  38.2622938  28.3429737  38.7541919  37.6765087  29.3438521  38.2892302
  38.4193494  28.1721798  40.0620485  38.8746398  27.3459243  40.4227587
  37.8444146  29.1220489  41.0183350  37.8119148  30.1103905  40.5598333
  36.4232273  28.7303753  41.4394614  35.9991773  29.5526779  42.0157419
  35.8522860  28.5992060  40.5202658  36.3625847  27.4635317  42.2531203
  36.3086797  26.2336793  41.6428553  36.2834271  26.1792514  40.5545082
  36.2861670  25.0613071  42.4013212  36.2696951  24.0903639  41.9062457
  36.3064180  25.1330021  43.7804353  36.2710825  23.9535282  44.4951847
  36.2346360  23.1756603  43.9337643  36.3390431  26.3611803  44.4034817
  36.3310201  26.4341821  45.4910050  36.3822685  27.5067351  43.6353822
  36.4336615  28.4836367  44.1161339  38.7374060  29.2912994  42.2308116
  39.5441397  28.3822229  42.5638980  38.5906028  30.4521948  42.8704560
  38.0182215  31.1674523  42.4451496  39.2368414  30.7501732  44.1657588
  39.5297976  29.8393125  44.6878783  40.4713165  31.6474461  44.0154346
  40.1484582  32.6371721  43.6924729  41.2093308  31.7623611  45.3127331
  41.5329310  30.7730168  45.6361241  42.0806289  32.4037254  45.1800988
  40.5525794  32.1941347  46.0679488  41.3825588  31.1451821  42.9284841
  40.8453916  31.1329529  41.9801151  42.2481680  31.8025515  42.8467175
  41.7151598  30.1356799  43.1701094  38.1991326  31.4403655  45.0203729
  37.4892937  32.3450910  44.5068386  38.1433579  31.0701533  46.3014045
  38.7613604  30.3441429  46.6346927  37.1803158  31.6593274  47.2510618
  36.5377581  32.4084815  46.7884747  36.2945257  30.5808479  47.8908969
  36.9068507  29.9928539  48.5745785  35.1362749  31.1900165  48.6489824
  34.5231911  31.7778253  47.9658206  34.5313728  30.3967079  49.0881354
  35.5183063  31.8351800  49.4401320  35.8026845  29.6027647  46.8625433
  36.6540936  29.1161831  46.3866832  35.1781130  28.8508949  47.3449353
  35.2184164  30.1304228  46.1086808  37.9717638  32.4097417  48.3182574
  38.9417623  31.8548011  48.8786374  37.5258367  33.5968209  48.6790983
  36.7286562  33.9860161  48.1962633  38.2121470  34.4300040  49.6721427
  38.5361497  33.8004543  50.5008698  39.4463893  35.1387202  49.0801112
  40.0726909  35.4617029  49.9116927  39.9894344  34.4096553  48.4787241
  39.0962158  36.3147774  48.2370257  38.3929706  36.8888399  48.8403491
  40.0278545  36.8717744  48.1374977  38.3899675  36.0441022  46.6008132
  39.6683974  35.0399964  45.8486912  39.7985293  34.1244357  46.4256776
  39.3798150  34.7878573  44.8282762  40.6059324  35.5957902  45.8337726
  37.2660887  35.4179956  50.3157359  36.0942506  35.5483458  49.9126985
  37.7422557  36.0404086  51.3703008  38.6697405  35.8160415  51.7012549
  36.9439559  37.0088956  52.1365439  36.1016759  36.5348130  52.6404381
  37.8751920  37.5831090  53.1856422  38.2914290  36.7360632  53.7309489
  38.6728222  38.0958952  52.6481143  37.2278602  38.5412513  54.1608821
  36.7619377  39.4080465  53.6921784  36.4776861  37.9865132  54.7244480
  38.2938014  39.0248615  55.1203837  39.5053655  38.6976883  55.0128229
  37.8962250  39.8826487  56.0445932  38.5608182  40.2423622  56.7146854
  36.9297539  40.1742525  56.0762499  36.3336357  38.0836808  51.2423342
  37.0480286  38.6586462  50.4035956  35.0620232  38.3717301  51.4535362
  34.5576767  37.8192093  52.1321043  34.3352277  39.4376814  50.7414378
  34.6603978  39.5093909  49.7035450  32.8202567  39.0774322  50.7645553
  32.7532705  38.0916920  50.3041984  32.5123172  39.0121874  51.8081148
  31.9003476  40.0518067  50.0207896  32.0344509  41.0479438  50.4424862
  32.2213142  40.0839192  48.5273576  32.0869801  39.0881641  48.1048355
  31.5525328  40.7838526  48.0264329  33.2537376  40.4026824  48.3838578
  30.4530221  39.6309984  50.2351312  30.2226064  39.6496999  51.3003346
  29.7921127  40.3196864  49.7088150  30.3066409  38.6218964  49.8499238
  34.6176064  40.7578644  51.4578825  34.3702152  40.8624636  52.6574139
  34.9762084  41.7740860  50.6837319  35.1355159  41.6053641  49.7007500
  35.2309644  43.1170620  51.2075800  35.2056395  43.1141251  52.2972814
  36.6013298  43.5675311  50.7576574  36.6057987  43.6193657  49.6689001
  36.7892881  44.5593330  51.1688760  37.6949355  42.6057351  51.2265935
  37.4558447  41.6256890  50.8137422  38.6349352  42.9586380  50.8023741
  37.8578971  42.4741573  52.7008118  37.2211145  43.1225468  53.5043894
  38.7493647  41.5993440  53.1149920  38.9018499  41.4683267  54.1047819
  39.2769789  41.0629646  52.4411806  34.1252086  44.0736812  50.7613941
  33.0695380  43.6401638  50.2501561  34.3482833  45.3392571  51.0755031
  35.2431167  45.6033888  51.4622938  33.3421708  46.3807979  50.8834816
  32.3765362  45.8916073  50.7556477  33.3216930  46.9942484  51.7842360
  33.6066201  47.2732258  49.6838050  33.9656501  46.7525051  48.5873158
  33.5205021  48.5750505  49.9208562  33.3352254  48.8811558  50.8653515
  33.5324849  49.5892208  48.8449027  32.9371327  49.2339052  48.0038286
  32.9498287  50.9124892  49.3298631  33.5373280  51.2605760  50.1794391
  33.0166578  51.6393503  48.5203528  31.4881924  50.7530472  49.7521659
  30.9809208  50.1424505  49.0052067  31.4639947  50.2428542  50.7150883
  30.7841287  52.0950011  49.8722782  31.1875179  52.8342622  49.1802744
  29.7076167  52.0091148  49.7244781  31.0310025  52.5412845  51.2203017
  31.3628825  51.8263581  51.8518359  30.8583743  53.7763524  51.6917810
  30.4617054  54.7818631  50.9069887  30.2844587  54.6138469  49.9269610
  30.3408416  55.7055603  51.2972130  31.1014496  53.9763916  52.9718090
  31.4055811  53.2070273  53.5511902  30.9824373  54.8981000  53.3672688
  34.9529935  49.7007117  48.2629560  35.9241175  49.8285410  48.9846642
  34.9884969  49.6845238  46.9677431  34.1012741  49.6703108  46.4853189
  36.2084886  49.7177090  46.1701642  36.9758543  49.0405289  46.5452324
  35.7749465  49.2457164  44.8016953  35.2528024  48.2975134  44.9296631
  35.1138236  49.9607690  44.3120869  36.9655044  49.0208946  43.9282807
  37.4397970  50.0000050  43.3368770  37.3682089  47.7560487  43.8297776
  38.1674733  47.5269564  43.2563729  36.8726666  47.0311877  44.3288920
  36.7645687  51.1452576  46.0826325  35.9873430  52.0963571  45.9658985
  38.0886532  51.3500433  46.1873330  38.7197875  50.5658666  46.2700107
  38.6590945  52.7143948  46.2079903  38.2061177  53.2789920  47.0229389
  40.1805046  52.6932925  46.4121249  40.5289433  51.9966841  45.6496117
  40.5507665  53.6933128  46.1863698  40.6940390  52.2609216  47.7579209
  40.5944229  51.1792940  47.8488005  42.1717657  52.6533693  47.9099294
  42.2721256  53.7349751  47.8196214  42.5338428  52.3357831  48.8877535
  42.7591338  52.1681521  47.1304018  39.8765557  52.8624386  48.8668053
  38.8394787  52.5412761  48.7697216  40.2698215  52.5331666  49.8285866
  39.9267654  53.9496541  48.8073043  38.3639208  53.4555916  44.9075500
  38.2777155  54.6774384  44.9616982  38.3128282  52.7500345  43.7777462
  38.5148180  51.7604921  43.7880156  38.0167816  53.3907057  42.4806021
  38.7333325  54.1898869  42.2909618  38.0935840  52.4001221  41.3545086
  37.3752360  51.5983642  41.5255653  37.8622968  52.8999119  40.4138617
  39.0990426  51.9820797  41.3055933  36.6297585  54.0309152  42.5447649
  36.4693166  55.1858883  42.0942955  35.6590360  53.3202396  43.0995072
  35.8558518  52.3778645  43.4049446  34.2717616  53.8306417  43.2403703
  33.9326192  54.2340956  42.2862705  33.3229823  52.7190948  43.6629547
  33.7651366  52.2514136  44.5426553  32.3768182  53.1857287  43.9370465
  33.0768122  51.6627478  42.5975809  33.2743773  51.9863881  41.4285339
  32.6769797  50.5217210  42.9551625  34.2446663  54.9843623  44.2559808
  33.6047176  56.0202892  43.9939770  34.9480148  54.8327707  45.3773317
  35.4948716  54.0001137  45.5438533  34.9028104  55.8673134  46.4374695
  33.8719877  56.0534413  46.7388995  35.6809569  55.3921353  47.6442548
  36.6169807  55.0417034  47.2093339  35.8824510  56.2291240  48.3127981
  35.0314810  54.2604909  48.4296718  34.7245085  53.4739658  47.7402903
  36.0214518  53.6937393  49.4369709  36.3285501  54.4796232  50.1270260
  35.5498895  52.8848212  49.9949863  36.8959953  53.3102590  48.9114075
  33.7404516  54.6780836  49.1097347  33.0253515  55.0132060  48.3584530
  33.3247091  53.8297671  49.6534428  33.9428112  55.4916025  49.8063956
  35.4688174  57.1681305  45.8854395  34.9649277  58.2376056  46.2044757
  36.5537316  57.0710712  45.1058181  36.9633641  56.1727188  44.8930658
  37.1915094  58.2781661  44.5523307  37.3964371  58.9687640  45.3703639
  38.5000423  57.9796413  43.8269525  39.1212192  57.3500408  44.4640095
  38.2773528  57.4505123  42.9003825  39.2386054  59.2599291  43.5106256
  38.5318046  59.9258299  43.0155401  39.5455855  59.6979838  44.4603484
  40.4584143  59.0667886  42.6242624  41.0062071  60.0049644  42.5356717
  41.1108375  58.3045359  43.0501900  40.0502542  58.6419723  41.3032925
  40.0124680  57.6456559  41.1419687  39.7585978  59.4470117  40.3122658
  39.7505707  60.7642831  40.4655720  39.9734900  61.1663181  41.3648911
  39.5215734  61.3593874  39.6823028  39.4393376  58.9174154  39.1495235
  39.4247831  57.9132192  39.0423867  39.2105280  59.5179096  38.3703242
  36.2396472  58.9671700  43.5583020  36.0704702  60.2056819  43.5926769
  35.5790408  58.1767915  42.7285919  35.7540270  57.1822529  42.7478827
  34.6879247  58.7163657  41.6643444  35.1886674  59.5293575  41.1386064
  34.3419036  57.6197963  40.6534126  34.1033591  56.7091401  41.2028678
  33.4686145  57.9399156  40.0850907  35.5004443  57.3475565  39.6957578
  35.8542210  58.3394677  39.4145906  36.2507924  56.8569966  40.3157826
  35.2606122  56.5221608  38.4435116  34.8184515  55.5540332  38.6787175
  34.6248711  57.0479265  37.7311190  36.5820838  56.3006386  37.8243227
  37.0885307  55.5102929  38.1971022  37.1569600  57.0305777  36.8554372
  36.5359362  58.0572007  36.2807237  35.6018243  58.3062831  36.5731157
  37.0014312  58.5827918  35.5546604  38.3731330  56.7055653  36.4585252
  38.8475083  55.9221391  36.8843322  38.8237247  57.2418020  35.7308467
  33.4588759  59.3903125  42.3117120  32.9124711  60.3100667  41.7009282
  33.0670442  58.9903422  43.5227139  33.5521799  58.2066217  43.9356605
  31.9234115  59.5737054  44.2579435  31.0969615  59.7589979  43.5718339
  31.4586726  58.6352184  45.3223255  32.3035219  58.3738829  45.9595323
  30.6918256  59.1275640  45.9203570  30.9204816  57.4541272  44.7411714
  30.6261925  56.8609425  45.4362438  32.2593091  60.9400831  44.8595502
  31.3604963  61.6878962  45.1895065  33.5319876  61.2838052  44.9602357
  34.2433356  60.6146255  44.7027831  33.9617495  62.6012678  45.4686233
  33.4501639  62.8321583  46.4030049  35.4706737  62.5782671  45.7295690
  35.9723411  62.2401220  44.8228788  35.7950168  63.5913584  45.9673660
  35.8245459  61.6500172  46.8803342  35.3862502  60.6572067  46.7787223
  36.9112863  61.5670741  46.8950960  35.3731531  62.2408418  48.1763241
  35.8417177  63.3183418  48.5932496  34.4126075  61.5913908  48.7806747
  34.0546795  61.9304709  49.6621585  34.0330586  60.7536848  48.3631909
  33.6144968  63.6938871  44.4674537  33.8875397  63.4848074  43.2996051
  33.3236551  64.8858609  44.9901235  33.2831005  64.9235536  45.9986045
  32.9392754  66.0962370  44.2256328  31.9262050  65.9743790  43.8423074
  32.9823605  67.3418910  45.0983273  33.9300889  67.3742258  45.6357885
  32.8916167  68.2274065  44.4692582  31.9108967  67.3116555  46.0300544
  31.9415283  68.0989205  46.5785754  33.7714114  66.2691193  42.9516060
  33.1488253  66.6096786  41.9029368  35.0856171  66.2912199  43.0526249
  35.5154129  66.1352371  43.9532049  35.9721435  66.6015589  41.8876272
  35.3721825  66.7762618  40.9945287  36.7889537  67.8605322  42.1815954
  37.1723697  67.7497070  43.1958977  37.6207874  67.8600882  41.4772144
  36.0260759  69.1789444  42.0672281  35.4101821  69.1731011  41.1679275
  35.3899170  69.3152499  42.9417707  37.0319202  70.3235638  41.9869942
  37.7114805  70.2209477  42.8330241  37.5889108  70.2042121  41.0576847
  36.4515655  71.6569997  42.0144916  35.4615101  71.7172266  41.8240647
  37.1243400  72.7898770  42.2730830  38.4217512  72.7639155  42.5409190
  38.9145275  71.8823504  42.5516221  38.9119429  73.6258102  42.7331407
  36.4922146  73.9519445  42.2589911  35.5038562  73.9832515  42.0534002
  37.0008973  74.8024481  42.4538867  36.8517570  65.3682983  41.6415225
  37.9781266  65.4583409  41.0462631  36.3808444  64.2091983  42.0892484
  35.4365686  64.1502480  42.4427558  37.2055174  62.9839621  42.0872731
  36.6121059  62.1635345  42.4908329  37.4885995  62.7557850  41.0597036
  38.4750084  63.1430515  42.9306078  39.4575446  62.4075868  42.6957351
  38.4221575  63.9927812  43.9628051  37.6178653  64.5899263  44.0917672
  39.5842164  64.1751989  44.8638732  40.3905531  63.5219109  44.5305038
  40.1007237  65.6105860  44.8944836  40.9711815  65.6443179  45.5496673
  40.4840902  66.1045703  43.5258501  39.6139683  66.0715670  42.8701839
  40.8457942  67.1303164  43.5973656  41.2706107  65.4701733  43.1171612
  39.0827457  66.4639022  45.4154836  39.4033706  67.3685307  45.4366324
  39.2574789  63.6715910  46.2601209  38.1399077  63.9582613  46.7731431
  40.2685370  63.1208610  46.9139803  41.0823637  62.8329962  46.3896528
  40.2675095  62.9104535  48.3843930  39.2447962  62.9200868  48.7613067
  40.8968932  61.5680927  48.7214412  41.8372230  61.5616543  48.1702265
  41.1006041  61.4682388  49.7875703  40.1429631  60.3229984  48.3061492
  38.7762885  60.1758255  48.5319405  38.2063706  60.9967083  48.9671932
  38.1424744  58.9910273  48.2049802  37.0814252  58.8799287  48.4284354
  38.8300712  57.9624415  47.6070790  38.3112912  57.0604550  47.2824444
  40.2101385  58.0820602  47.4167193  40.7882168  57.2628514  46.9891419
  40.8419692  59.2603179  47.7791096  41.9193321  59.3631924  47.6494719
  41.0715726  64.0158413  49.0471498  42.0296037  64.5913091  48.4423795
  40.7201403  64.3101897  50.2975899  39.8677341  63.9152182  50.6684005
  41.4957740  65.1969668  51.1485145  41.6765352  66.1676217  50.6867205
  40.7834838  65.4169156  52.4887280  41.4145766  66.0424386  53.1200306
  39.4447484  66.0892971  52.2917619  38.8128950  65.4641033  51.6608946
  38.9634214  66.2320300  53.2592591  39.5908195  67.0574903  51.8128403
  40.6708244  64.1465930  53.1169815  40.2276584  64.2460730  53.9627403
  42.8783015  64.6007937  51.3925394  43.0901230  63.3811956  51.1996630
  43.7805926  65.4380746  51.8751462  43.6120082  66.4329885  51.9178652
  45.1387464  64.9408060  52.2002192  45.5425707  64.2358466  51.4735436
  46.1324099  66.0937609  52.4009997  46.1687978  66.6757829  51.4801161
  45.7317097  66.9995329  53.5581935  45.6955556  66.4182755  54.4795693
  46.4631404  67.8008358  53.6631864  44.7492805  67.4285862  53.3611014
  47.5584637  65.5563614  52.5170749  48.2188238  66.4105076  52.6669400
  47.5946208  64.9113703  53.3950149  48.0125963  64.7727223  51.2928697
  47.9771480  65.4172343  50.4145489  49.0332138  64.4211286  51.4439363
  47.3529431  63.9180977  51.1426224  45.0422831  63.9578152  53.3849609
  45.7607832  62.9707773  53.3551659  44.1145986  64.1518013  54.3068285
  43.5809602  65.0092705  54.2981171  43.9119444  63.2110736  55.4302326
  44.8488001  63.0928094  55.9746718  42.8636968  63.7089209  56.3819978
  43.2038667  64.6302094  56.8548733  41.9365973  63.8994721  55.8413715
  42.6361696  62.7209076  57.3788539  41.9662292  63.0329115  57.9915801
  43.6035734  61.8161601  54.8952066  44.2002638  60.8091761  55.3704053
  42.5816318  61.6729325  54.0472072  42.0093222  62.4766229  53.8312376
  42.1841782  60.3649260  53.4987104  42.0866377  59.6153652  54.2840406
  40.8475521  60.4700865  52.7525295  40.8725641  61.3734359  52.1430753
  40.5871602  59.2869480  51.8782228  40.5615434  58.3832111  52.4870768
  39.6292537  59.4114860  51.3732432  41.3804373  59.2017170  51.1355602
  39.7999134  60.6164218  53.7339068  38.9519319  60.6843006  53.2890247
  43.3422369  59.8446928  52.6281017  43.6695934  58.6655421  52.7379541
  43.9440455  60.6979488  51.8090880  43.6304685  61.6577615  51.7861035
  45.0177699  60.2784180  50.8521790  44.6612710  59.4644287  50.2209665
  45.4663691  61.4259636  49.9587911  45.7540208  62.2632752  50.5946102
  46.6386882  61.0312795  49.0825215  46.3516312  60.1942648  48.4460434
  46.9287892  61.8776642  48.4599676  47.4797928  60.7377081  49.7105816
  44.3524466  61.8107601  49.1546553  44.6082331  62.5355227  48.5794225
  46.2055576  59.6874574  51.6346973  46.7115760  58.6186759  51.2187592
  46.6587348  60.3778495  52.6809364  46.2198306  61.2417296  52.9658461
  47.8467783  59.9166551  53.4273622  48.6882081  59.7720954  52.7497210
  48.2301123  60.9650543  54.4620294  47.2845809  61.2356703  54.9319618
  48.8864419  60.5094007  55.2034546  48.8894697  62.2094960  53.9006974
  48.2373288  62.6682632  53.1574977  49.1341518  63.1843827  55.0242777
  49.7866346  62.7264612  55.7676975  49.6083964  64.0829311  54.6295583
  48.1845871  63.4496278  55.4891135  50.1922518  61.8874417  53.1639926
  49.9839478  61.2105189  52.3354491  50.6296909  62.8085158  52.7788034
  50.8920081  61.4136630  53.8524502  47.5512056  58.5780240  54.0928000
  48.4275407  57.7007218  54.1167100  46.4059992  58.4306107  54.7257791
  45.7771177  59.2153808  54.8192847  46.0829983  57.1838411  55.4502182
  46.9336732  56.8828041  56.0616330  44.8788051  57.3872198  56.3586795
  44.0704294  57.8122717  55.7637351  44.5733024  56.4141673  56.7433052
  45.1924110  58.3103226  57.5151983  46.0031154  57.8727646  58.0977806
  45.5119887  59.2721125  57.1140345  43.9901465  58.5102568  58.3998182
  43.5185471  57.5455623  58.5870548  44.3098930  58.9474729  59.3457059
  43.0107717  59.3971580  57.7824972  43.3364806  60.0071934  57.0463790
  41.7484305  59.4882805  58.1650903  41.2865400  58.6514190  59.0633514
  41.8962744  57.9472369  59.4538019  40.3233049  58.7151206  59.3603696
  40.9377113  60.3759596  57.6058441  41.2862201  60.9878252  56.8817846
  39.9753752  60.4361936  57.9064762  45.9374924  56.0151845  54.4703678
  46.4939322  54.9527017  54.7292015  45.2109467  56.1993434  53.3749834
  44.6914230  57.0528417  53.2275550  45.1092255  55.1357693  52.3607591
  44.7147231  54.2219187  52.8049933  44.1554339  55.5914090  51.2472799
  44.4773149  56.6038837  51.0035859  44.3064728  54.9447518  50.3829179
  42.6855371  55.6042305  51.6176014  42.5138005  56.2648856  52.4673908
  41.9092535  56.1165102  50.4118140  42.0801364  55.4560610  49.5616936
  40.8450336  56.1378517  50.6465082  42.2461534  57.1228192  50.1629343
  42.1848377  54.2177061  52.0425912  42.7499821  53.8769246  52.9101044
  41.1269257  54.2756225  52.2986559  42.3213688  53.5140880  51.2213849
  46.4934002  54.8182728  51.8006909  46.8291968  53.6414708  51.6461378
  47.2552689  55.8419790  51.4274366  46.8869636  56.7749098  51.5461409
  48.5946300  55.6920834  50.8555510  48.5222164  55.2056009  49.8828279
  49.0512180  56.6746821  50.7366958  49.4692489  54.8473803  51.7670072
  50.1942641  53.9592505  51.2704567  49.4392900  55.1426838  53.0722552
  48.8693088  55.8902711  53.4414894  50.3020692  54.3986757  54.0028508
  51.3257799  54.3993923  53.6285313  50.2900599  55.0326683  55.3929077
  50.5730187  56.0802454  55.2898752  49.2754804  54.9678700  55.7860102
  51.2488887  54.3406691  56.3490089  50.8338846  53.3656555  56.6043925
  52.2032745  54.2066700  55.8397995  51.4612866  55.1478479  57.6172709
  52.1843654  54.6248029  58.2431143  51.8587175  56.1250086  57.3428534
  50.2376546  55.3398472  58.3798397  49.3934536  54.9086059  58.0313358
  50.1897815  55.9763712  59.5433213  51.2907033  56.4827365  60.0705122
  52.1709457  56.3842206  59.5851588  51.2467850  56.9659148  60.9563506
  49.0315907  56.1798844  60.1334404  48.1817657  55.8504792  59.6982511
  48.9977063  56.6645729  61.0188938  49.8419029  52.9360904  54.0735910
  50.6714418  52.0461461  54.0235666  48.5471703  52.6818362  54.0737921
  47.8809337  53.4386019  54.1332386  48.0361343  51.2988994  54.0760607
  48.4916504  50.7455521  54.8972860  46.5192112  51.2693967  54.2498798
  46.0937966  51.9233118  53.4886198  46.1932173  50.2447218  54.0713597
  46.0523294  51.7147426  55.6123607  46.7971056  51.3328616  56.3106273
  45.9980178  52.8000560  55.6974912  44.7037847  51.1329014  55.9775825
  44.4435397  49.9524868  55.7182087  43.8197392  51.9892797  56.4954683
  42.9010778  51.6635458  56.7601573  44.0737862  52.9588275  56.6201216
  48.4696208  50.5904706  52.7937681  48.8383512  49.3997600  52.8493291
  48.3366341  51.2579560  51.6543372  47.8432672  52.1391098  51.6383208
  48.7317081  50.6542854  50.3678951  48.3491820  49.6366266  50.2895136
  48.2179294  51.4790910  49.2009366  48.5682161  52.5074091  49.2901643
  48.7411661  50.8797339  47.9207154  48.3908895  49.8514938  47.8305520
  48.3804852  51.4615872  47.0725075  49.8310375  50.8920802  47.9319843
  46.6910798  51.5232589  49.2045937  46.3373377  50.5287059  48.9328738
  46.3759001  51.7550420  50.2219618  46.1190429  52.5239299  48.2697459
  46.4334286  52.2925176  47.2520476  45.0309741  52.4964168  48.3284707
  46.4719932  53.5188541  48.5411346  50.2395915  50.3813317  50.3498722
  50.6491985  49.2912066  49.8803125  51.0588049  51.3148163  50.8359349
  50.7226385  52.2175693  51.1394618  52.5132437  51.0490660  50.9023915
  52.9175779  50.8576582  49.9084216  53.1971117  52.2691279  51.4752706
  53.0053960  53.0221199  50.7108445  52.7080095  52.5624140  52.4041744
  54.6982206  52.1521308  51.7071370  54.8824148  51.3403325  52.4108108
  55.4235470  51.8695810  50.4113326  55.2401923  52.6812287  49.7072674
  56.4936204  51.7904296  50.6031107  55.0605850  50.9330552  49.9879197
  55.2237013  53.4045442  52.4010279  54.7231402  53.5253933  53.3617222
  56.2976026  53.3084142  52.5610164  55.0264415  54.2761642  51.7769557
  52.7521224  49.8138932  51.7631347  53.6338998  49.0121634  51.3992404
  52.0854410  49.7130034  52.9126351  51.5103209  50.4648047  53.2649576
  52.2382783  48.4910117  53.7475687  53.2744544  48.4094094  54.0758664
  51.3399210  48.5303574  54.9768518  50.3165317  48.6732299  54.6299208
  51.4229009  47.5638705  55.4739608  51.7024316  49.6377051  55.9571090
  52.6950431  49.5422060  56.3972262  51.6978797  50.4659657  55.2485450
  50.6908591  49.9033780  57.0489025  49.6875852  49.1943076  57.1297516
  51.0268509  50.6939380  57.9377250  51.9457084  47.2491159  52.9112771
  52.7134867  46.2719701  52.9868852  50.8669499  47.2446790  52.1459213
  50.2329975  48.0279622  52.2142677  50.4558963  46.0770311  51.3306746
  50.4794731  45.1829421  51.9536899  49.0675905  46.2377586  50.7725244
  48.7096946  45.2478107  50.4896588  48.4375744  46.6380431  51.5668492
  49.0137675  47.0918960  49.6565707  48.1077323  47.1554498  49.3456673
  51.5123085  45.7578462  50.2728053  51.7927172  44.5625891  50.0149343
  52.1095416  46.7746137  49.6692123  51.7731422  47.7146297  49.8218711
  53.1900337  46.5652301  48.6637819  52.9613695  45.7839852  47.9388900
  53.4474737  47.8928471  47.9238686  53.5535860  48.6894485  48.6602563
  54.7082185  47.8103249  47.0832203  54.6026682  47.0141926  46.3462446
  54.8671849  48.7595811  46.5716120  55.5616340  47.5978426  47.7271400
  52.2045893  48.2524710  47.0878553  52.1371848  47.5175507  46.2857023
  51.3400696  48.1533980  47.7442772  52.2305891  49.6444557  46.4952453
  53.0946384  49.7441440  45.8382972  51.3183620  49.8134078  45.9230600
  52.2975256  50.3799916  47.2968726  54.4220236  45.9794316  49.3342042
  55.0188976  45.0460733  48.7622666  54.8942843  46.5537819  50.4403608
  54.4729270  47.3902134  50.8184345  56.0822472  45.9892587  51.1314951
  56.9434224  46.0283643  50.4644514  56.4082657  46.7748812  52.3928524
  56.4791357  47.8306803  52.1313854  55.5968098  46.6314785  53.1063473
  57.7077508  46.3220302  53.0118609  57.4977321  45.2960998  53.3142842
  58.4745960  46.3221768  52.2372335  58.1993369  47.1106350  54.2090039
  57.5519920  48.1162611  54.5672687  59.2702627  46.7323306  54.7267778
  55.7722533  44.5140856  51.4730653  56.6747285  43.6692232  51.3403855
  54.5504925  44.2109913  51.8922410  53.8703908  44.9512386  51.9901945
  54.1618186  42.8399561  52.3038381  54.8521587  42.4656107  53.0597451
  52.7728477  42.8548550  52.8857623  52.7207252  43.6438325  53.6360269
  52.0647493  43.0682658  52.0850423  52.4508391  41.6225545  53.4792561
  51.5621044  41.6636114  53.8399010  54.2730269  41.8721638  51.1189331
  54.9125577  40.8145560  51.2738913  53.7096499  42.2229668  49.9827234
  53.1250396  43.0419799  49.8958458  53.7727008  41.2749041  48.8346099
  53.5952179  40.2566152  49.1805678  52.7884516  41.6117496  47.7243376
  51.7877229  41.6447593  48.1550960  53.1018159  42.9459827  47.0699503
  54.1022794  42.9135839  46.6385299  52.3738755  43.1454208  46.2835484
  53.0545147  43.7378804  47.8174527  52.7790174  40.4963028  46.6806966
  53.7834122  40.4259481  46.2631540  52.5332216  39.5662771  47.1932745
  51.7972254  40.7319669  45.5788664  52.0426680  41.6616473  45.0654930
  51.8394425  39.9044029  44.8707316  50.7924769  40.8019785  45.9956142
  55.2217058  41.1489490  48.3844866  55.6948949  39.9985337  48.1879093
  55.9865964  42.2305251  48.3853071  55.5974048  43.1433418  48.5734424
  57.4311822  42.1379862  48.0278112  57.5368154  41.6945431  47.0377107
  58.0723477  43.5196787  48.0132637  57.8456347  44.0286763  48.9500785
  59.1527171  43.4795921  47.8743570  57.5374835  44.3716057  46.9285113
  57.9197668  45.6935876  46.8103796  57.3054584  46.2043820  45.7632863
  57.4547358  47.2575622  45.5253225  56.5744571  45.2689543  45.1627515
  56.0204802  45.3564597  44.3227799  56.7052898  44.1117067  45.9103810
  56.1698091  43.2091411  45.6158697  58.1457855  41.2041834  48.9922133
  59.0321293  40.4737458  48.5666296  57.7700600  41.2568099  50.2722566
  57.0252377  41.8832500  50.5422787  58.4830162  40.5156824  51.3353580
  59.5555008  40.6818109  51.2339814  58.0533787  40.9691030  52.7048861
  58.8157981  40.6680895  53.4233614  57.9697768  42.0558734  52.6984901
  56.8287618  40.4115085  53.0666469  56.5832526  40.7191847  53.9422384
  58.3218640  39.0068541  51.1662624  59.1880588  38.2789727  51.6973455
  57.3094466  38.5499583  50.4474006  56.5838140  39.1817718  50.1402064
  57.1356074  37.0943703  50.1854475  57.8292955  36.4597822  50.7369854
  55.7017157  36.6281958  50.4820902  55.6286359  35.5651060  50.2527463
  55.3329259  36.8590834  51.9438060  55.4053299  37.9220810  52.1737942
  54.3125789  36.5184703  52.1198040  56.0169192  36.3019509  52.5840076
  54.6728955  37.2354823  49.5624304  54.8993196  36.9618081  48.5319273
  53.6831999  36.8635503  49.8275128  54.6913002  38.3207683  49.6620121
  57.5776445  36.7526655  48.7628646  57.3176588  35.6066427  48.3246442
  58.2282437  37.6957387  48.0638399  58.2369857  38.6426131  48.4151970
  58.9317473  37.4132607  46.8050997  59.8127143  38.0534597  46.7588225
  59.2426730  36.3686318  46.8183265  58.0722774  37.6603273  45.5670626
  58.4203808  37.1129103  44.4814321  56.9955720  38.4213392  45.6702481
  56.6990587  38.8094591  46.5542969  56.1504434  38.6689567  44.4731382
  56.6283274  38.2190225  43.6029168  54.7455350  38.0730299  44.6235164
  54.4396635  38.3401318  45.6350491  54.0165417  38.4580247  43.9104611
  54.6814595  36.5693309  44.5364440  54.9688993  35.7785362  45.6340414
  55.2001952  36.2537776  46.5873240  54.9650507  34.3857181  45.5308716
  55.1726923  33.7700792  46.4060712  54.6982016  33.7916782  44.3203580
  54.7218959  32.7065019  44.2207041  54.3983282  34.5799900  43.2250496
  54.1149393  34.1128630  42.2818724  54.4571469  35.9564481  43.3237889
  54.3252318  36.5727747  42.4344971  56.0748899  40.1623542  44.2248367
  55.9708570  40.9964714  45.1944988  56.0081640  40.4964203  42.9491006
  56.1638215  39.7795517  42.2548603  55.6575424  41.8464931  42.4893692
  55.9059779  42.5783456  43.2579855  56.4391348  42.1886380  41.2165789
  56.0997503  41.4451054  40.4954155  56.1406411  43.1819214  40.8813334
  57.9462481  42.1275156  41.3319723  58.2290259  41.1243287  41.6509606
  58.6150097  42.4439645  40.0086359  58.3330557  43.4472423  39.6892076
  59.6973761  42.3913957  40.1261953  58.2960819  41.7210877  39.2577467
  58.4219581  43.0853772  42.4237678  57.9762651  42.8008467  43.3769202
  59.5080517  43.0370352  42.5022854  58.1213125  44.1023615  42.1718667
  54.1852557  41.8219633  42.1434616  53.6738376  40.7752475  41.6079743
  53.5016675  42.9279281  42.3582148  53.9536095  43.7234932  42.7859107
  52.0626700  43.0105170  42.0821527  51.5979450  42.0433605  42.2738247
  51.3983181  44.0526593  42.9673741  51.5903965  43.7525116  43.9974792
  51.7023765  45.0902166  42.8290871  49.9203343  44.0129326  42.7802387
  49.2955455  44.5556479  41.6872519  47.9898030  44.3086685  41.7862602
  47.2792280  44.7091115  41.0631921  47.8007751  43.5237666  42.8888402
  46.9301760  43.1125323  43.1938705  48.9738314  43.3838551  43.5118005
  49.0303607  42.8313324  44.4496834  51.8487853  43.2879988  40.5974991
  51.0949281  42.5385164  39.8984558  52.4827607  44.3573581  40.1194732
  52.8709420  44.9977230  40.7972250  52.5514676  44.7275031  38.6775106
  53.2843043  45.5264597  38.5647365  52.9491911  43.5703066  37.7696437
  52.1702463  42.8102871  37.8305919  53.0090910  43.9473815  36.7486997
  54.2965729  42.9539963  38.1665779  54.9521810  43.7778369  38.4486516
  54.1134012  42.3221643  39.0356800  54.9500736  42.1422669  37.0874670
  55.1451441  42.7715491  36.2191062  55.8895291  41.7287864  37.4542865
  54.0778913  41.0370698  36.6800624  53.2754177  40.8766714  37.2720150
  54.2506521  40.2613259  35.6354668  53.3526176  39.3094431  35.3622836
  52.5472281  39.1926560  35.9604546  53.4836433  38.7114281  34.5589718
  55.3014063  40.4107120  34.8489336  55.9816148  41.1294163  35.0511234
  55.4197152  39.8055352  34.0490193  51.2539146  45.3637050  38.1735184
  51.2747274  45.7265652  36.9444927  50.2299723  45.4961033  39.0155463
  50.3088072  45.1596059  39.9645741  48.9196314  46.0240169  38.5631594
  49.0275856  46.6624711  37.6863348  48.0528748  44.8137683  38.1852969
  48.6117535  44.1562076  37.5194382  47.9865225  44.3582793  39.1733390
  46.6496255  45.0263301  37.6288509  46.5265025  45.8733195  36.7346526
  45.6636414  44.1824591  38.0134430  48.3414513  46.9232196  39.6495665
  47.1257908  46.8566625  39.9041126  49.1491530  47.7403166  40.3015883
  50.1375139  47.7188653  40.0947505  48.6766929  48.6286964  41.3996210
  47.9894776  48.1457343  42.0943022  49.8546992  49.2086633  42.1719788
  50.5708108  49.6287058  41.4656865  49.3843442  50.2903031  43.1144991
  48.6685030  49.8708864  43.8214373  50.2375908  50.6947344  43.6590231
  48.9068834  51.0872848  42.5444547  50.6936232  48.1210649  42.8973658
  50.9855936  47.3792458  42.1540230  51.5850663  48.6042143  43.2973602
  49.9531541  47.4502804  44.0042829  49.0617645  46.9664787  43.6049582
  50.5944208  46.7018874  44.4698837  49.6612350  48.1914482  44.7482946
  47.7704072  49.7072722  40.7716764  48.2151545  50.4257567  39.9043991
  46.5153953  49.7727806  41.1890143  46.2113774  49.1039711  41.8820988
  45.5253735  50.7252306  40.6557350  45.9780764  51.7152992  40.6016682
  45.0454678  50.3319994  39.2624052  44.3340695  51.0906966  38.9362299
  45.9137448  50.3416447  38.6035410  44.3791573  48.9500814  39.2100224
  45.1065711  48.2085426  39.5403104  43.5302591  48.9551857  39.8937239
  43.9045309  48.6042091  37.8237831  43.1881287  49.3581010  37.4974189
  44.7600147  48.6001777  37.1483346  43.2466308  47.2461983  37.8098153
  44.0174508  46.4974444  37.9923112  42.5155174  47.2186359  38.6177835
  42.5718824  46.9562454  36.5238814  43.2492528  46.9813119  35.7751220
  42.1489257  46.0399818  36.5647316  41.8572965  47.6496973  36.3547941
  44.4055271  50.7460195  41.6796934  44.2383075  49.7976426  42.4381319
  43.5609213  51.7810714  41.6829550  43.7035505  53.0077812  40.8766096
  43.3174283  52.8283817  39.8732025  44.7570233  53.2810564  40.8164869
  42.8779597  54.0365326  41.6477928  42.3907782  54.7240247  40.9563395
  43.5170552  54.5988679  42.3285552  41.8790598  53.2243550  42.4033320
  41.0197907  53.0209949  41.7642699  41.5450455  53.7256876  43.3117370
  42.5824090  51.9170343  42.7585817  43.1361830  51.9673863  43.6960769
  41.5699076  50.7656392  42.8245758  41.1054615  50.4038484  43.9210899
  41.1847408  50.1974328  41.6861562  41.5201861  50.5459018  40.7995079
  40.1435090  49.1263718  41.6779884  39.3738992  49.3919609  42.4027383
  39.5078160  48.9368044  40.3657782  38.7311713  48.1775736  40.4579244
  39.0584256  49.8794837  40.0535222  40.4720623  48.5186358  39.3862267
  40.0368101  48.4009438  38.5386985  40.6651122  47.7908672  42.2098451
  39.8744164  46.9078585  42.4764682  41.9545682  47.7055063  42.5504646
  42.5929420  48.4411866  42.2833454  42.5068974  46.5032306  43.2063211
  41.8212848  45.6686914  43.0594234  43.8601076  46.1241971  42.6380425
  44.4447633  47.0209143  42.4326761  44.3730925  45.5201015  43.3863841
  43.7463807  45.3240693  41.3703681  42.7437351  44.6097258  41.1570814
  44.7377944  45.4434480  40.4915133  44.7056559  44.9253235  39.6251336
  45.5181202  46.0516650  40.6946497  42.5607965  46.6806473  44.7326042
  43.1996707  45.8540178  45.4001613  41.8661920  47.6694572  45.2741959
  41.3388224  48.2674996  44.6542556  41.8259098  47.9547439  46.7296274
  42.1682616  47.0771911  47.2780758  42.7194907  49.1361271  47.0934457
  42.4789845  50.0399256  46.5336204  42.6178403  49.3326237  48.1607583
  44.1672124  48.8523513  46.8465462  44.9575912  48.2191665  47.8033411
  44.5274566  47.9841876  48.7769267  46.2653413  47.8907892  47.5319334
  46.8681369  47.3756967  48.2798757  46.8123766  48.2146855  46.3112579
  47.8333535  47.9241296  46.0637029  46.0551370  48.9134283  45.3985078
  46.5284059  49.2639432  44.4813078  44.7226923  49.1718146  45.6276138
  44.1136033  49.6267688  44.8465074  40.3854163  48.2797041  47.1644380
  39.6288273  48.9060793  46.4287967  40.0006334  47.7538282  48.2924453
  40.6036879  47.0925083  48.7605059  38.6758438  48.0487289  48.8963180
  38.3404634  49.0215763  48.5368919  37.6302259  47.0148818  48.5399062
  37.9476243  46.0367713  48.9013730  36.6809067  47.2825919  49.0038291
  37.5077915  46.9794174  47.4573854  38.8181276  48.1388676  50.3960548
  39.6755017  47.4576900  50.9578454  37.9055796  48.8799349  51.0014450
  37.3050740  49.4702425  50.4437449  37.7569197  48.9159836  52.4519066
  38.7426427  48.8785577  52.9156398  37.0397011  50.2058423  52.9180579
  36.0005712  50.1253842  52.5989422  37.0848032  50.2193830  54.0070403
  37.6379714  51.4873906  52.3718413  37.4490602  51.4974180  51.2983829
  37.1064779  52.3150541  52.8415113  39.4155103  51.6778822  52.6655304
  39.4944194  51.8299325  54.4438791  39.0822460  50.9321182  54.9044673
  40.5325077  51.9523655  54.7528832  38.9167142  52.6982146  54.7608081
  36.9794522  47.6793798  52.8681642  36.2186479  47.1042120  52.0574732
  37.1453881  47.2773782  54.1215587  37.8177865  47.7189685  54.7322778
  36.3419961  46.1639590  54.6560004  36.4636021  45.3035383  53.9979826
  36.7139557  45.9159066  55.6500907  34.8532279  46.5107235  54.7530712
  34.4573244  47.7205677  54.6230890  34.0188263  45.5022719  55.0162469
  34.3625442  44.5605290  55.1390379  32.5534359  45.7166114  54.9856929
  32.3356738  46.7519943  54.7236605  31.9013472  44.7985367  53.9414108
  30.8971921  45.1843765  53.7656281  32.4903592  44.8907770  53.0289106
  31.8183519  43.3388503  54.3436501  32.8248596  42.9781071  54.5555639
  31.2076460  43.2594942  55.2430071  31.1994653  42.4953654  53.2329753
  30.1551955  42.7547294  53.0588208  31.7551740  42.5810366  52.2991939
  31.2660366  41.1373179  53.6837162  32.2044799  40.7642892  53.7002432
  30.2573632  40.3445621  54.0621078  30.5339356  39.1137156  54.5062572
  31.4928702  38.7997230  54.5504489  29.7825978  38.5038286  54.7954440
  29.0234935  40.7660422  53.9909099  28.8297715  41.6961219  53.6480927
  28.2686364  40.1599912  54.2789927  31.9177221  45.5811025  56.3624014
  30.6722623  45.7121077  56.4422102  32.6867030  45.4177602  57.4273403
  33.6781555  45.3174995  57.2628136  32.1940906  45.3216232  58.8167311
  31.1058924  45.3807452  58.8374311  32.6207272  43.9865896  59.4151619
  33.6764412  43.7397939  59.3026500  32.3744437  44.0523344  60.4749365
  31.8444063  42.8198013  58.8640176  30.5719687  42.5624801  59.3284337
  30.1555906  43.1991681  60.1090472  29.8263653  41.5158692  58.8193706
  28.8353377  41.3144579  59.2260628  30.3246455  40.7342363  57.8109337
  29.7296561  39.9214242  57.3944916  31.5776092  40.9801621  57.3275464
  32.0070521  40.3327181  56.5630235  32.3053909  42.0590344  57.8128064
  33.2624869  42.3185374  57.3603405  32.7250799  46.4884212  59.6350915
  33.7656210  47.0455732  59.3057330  32.1395869  46.7518367  60.8261033
  30.8583639  46.1850019  61.3164073  31.0241293  45.1965291  61.7448272
  30.1427150  46.1102083  60.4976573  30.4423161  47.2093072  62.3571695
  29.8651134  46.7270330  63.1460597  29.8401631  47.9901706  61.8926639
  31.7533510  47.7789510  62.8942278  32.1727885  47.0794769  63.6173510
  31.6721331  48.7660789  63.3492902  32.6451738  47.8467028  61.6626164
  32.5070407  48.7892864  61.1329433  34.1423931  47.6467277  61.9725117
  34.9325538  48.6242095  61.9963719  34.5387071  46.3934115  62.2148418
  33.8552608  45.6500126  62.1959078  35.9294986  46.0608425  62.6136359
  36.3198800  46.8302265  63.2797815  35.9602130  44.7493877  63.3290566
  36.9614110  44.5720293  63.7217979  35.2454844  44.7664369  64.1518399
  35.6217008  43.7277527  62.4401964  35.6412169  42.8847928  62.8991491
  36.8927509  46.0699834  61.4216047  38.0958484  45.9758657  61.6597814
  36.4123752  46.1131808  60.1732228  35.4127737  46.1530118  60.0342630
  37.2876145  46.0258944  58.9747495  38.3341408  46.0630935  59.2772358
  37.0548182  44.7448410  58.1830090  37.7356957  44.7296711  57.3319650
  37.2982018  43.5270028  59.0442127  36.6173248  43.5412367  59.8952729
  37.1255883  42.6253839  58.4565164  38.3274785  43.5347961  59.4028618
  35.7011815  44.7331662  57.6908246  35.5493557  43.9276966  57.1910566
  37.1223020  47.2289003  58.0492737  37.9247260  47.3426174  57.1324607
  36.1236937  48.0688592  58.2450994  35.5192089  47.9892860  59.0503108
  35.8066892  49.1004265  57.2266756  35.9281781  48.6747462  56.2306155
  34.3754897  49.6000553  57.3710787  34.1283824  50.2825703  56.5579302
  33.6789186  48.7616898  57.3654198  34.0559951  50.5061229  58.8997931
  32.7731449  50.7525288  58.6498375  36.7978457  50.2648608  57.2869288
  36.7752516  51.0747160  56.3511136  37.7265493  50.2933801  58.2467212
  37.6515392  49.6604597  59.0302290  38.7991703  51.3103176  58.2675128
  38.5651192  52.0966726  57.5499021  38.9427637  51.9350078  59.6407980
  39.3987703  51.1924187  60.2955641  39.6087256  52.7926491  59.5456866
  37.6245779  52.3838323  60.2295093  37.1063046  52.9854445  59.4828124
  37.0332118  51.4962645  60.4544794  37.8133229  53.2044460  61.5013829
  36.8320341  53.3979390  61.9346631  38.4105294  52.6207133  62.2018827
  38.4810298  54.4802913  61.2680480  39.4711923  54.5163767  61.4639446
  37.8976938  55.5558612  60.7362045  38.6030227  56.6585579  60.5159135
  39.5847062  56.6820659  60.7522288  38.1547717  57.4690076  60.1129966
  36.6373943  55.4943289  60.3391379  36.1208086  54.6323372  60.4401806
  36.1975250  56.3096215  59.9367555  40.1127328  50.6963646  57.7511077
  41.1155577  51.4099651  57.7321479  40.0736952  49.4460433  57.3099255
  39.1826207  48.9769664  57.3877230  41.2190783  48.6867113  56.7755862
  42.1349427  49.2334416  57.0000356  41.3291700  47.2841883  57.3716677
  41.3045142  47.3985967  58.4553660  40.4480236  46.7319496  57.0449973
  42.5914205  46.5158701  56.9682912  42.4355534  45.4825294  57.2781514
  42.6473082  46.5640464  55.8807906  43.9116993  47.0417924  57.5754136
  44.7376542  46.5051334  57.1086219  43.9924083  48.1039455  57.3442943
  43.9673385  46.8459165  59.0801880  43.1460870  47.3973577  59.5379644
  43.8593394  45.7841192  59.3015970  45.2554055  47.3354632  59.6257863
  45.3554791  48.3194302  59.4211060  45.2719890  47.1962442  60.6260078
  46.0165057  46.8243191  59.2020444  41.0693655  48.6173560  55.2545455
  39.9637861  48.2834221  54.7575985  42.1240007  48.9375247  54.5376056
  42.9197335  49.3269288  55.0226552  42.1969502  48.8017730  53.0793183
  41.2048033  48.8144007  52.6281154  42.9814906  49.9897222  52.5578338
  42.5482540  50.9236350  52.9159011  44.0237312  49.9295994  52.8712342
  43.0062548  50.1069272  50.7675087  43.7475085  51.2097442  50.7106245
  42.8597607  47.4683033  52.7067556  43.8997610  47.1419917  53.2702173
  42.2364603  46.7268226  51.8212400  41.3927821  47.1064708  51.4160565
  42.6779452  45.3899647  51.3895712  43.5268755  45.0636362  51.9903426
  41.5474854  44.3913477  51.5642100  40.6796199  44.7703471  51.0245174
  41.8715623  43.4520131  51.1161868  41.1818260  44.1603514  52.9966928
  40.2632711  44.9764501  53.6355525  39.8059114  45.7816810  53.0606396
  39.9234955  44.7951264  54.9536470  39.2257512  45.4840701  55.4296842
  40.5001452  43.7889639  55.6852276  40.0853114  43.6130126  56.9968099
  39.4101043  44.2409038  57.2641069  41.4255166  42.9550129  55.0740776
  41.9064584  42.1652867  55.6512502  41.7418909  43.1249691  53.7222614
  42.4339917  42.4388458  53.2340694  43.0985981  45.4115992  49.9212361
  42.3823897  45.9297465  49.0795895  44.2513923  44.7990467  49.6588892
  44.8463631  44.5922409  50.4484083  44.7278372  44.4360784  48.3092718
  44.5777947  45.2682768  47.6214985  46.2257345  44.1049038  48.3590840
  46.7310627  44.9677296  48.7929900  46.3428201  43.2458029  49.0196418
  46.8393256  43.7875602  46.9992046  46.3471149  42.9152063  46.5692882
  46.7138367  44.6404364  46.3321537  48.6030367  43.4393679  47.1935241
  49.2768747  45.0929371  47.0397446  48.8648482  45.7281203  47.8238845
  50.3618461  45.0541953  47.1368884  49.0143332  45.5036104  46.0647981
  43.9043496  43.2467762  47.8444723  43.8885775  42.2361331  48.5358244
  43.1581325  43.3992673  46.7546725  43.3556348  44.1678697  46.1298985
  42.0440704  42.4797081  46.4095152  41.6621557  41.9912649  47.3059880
  40.9207737  43.2735763  45.7749509  41.4142787  43.7793171  44.9450242
  40.1806454  42.5745998  45.3854102  40.2336441  44.2983375  46.6534589
  40.9632816  45.0166772  47.0272477  39.1918312  45.0215658  45.8265606
  38.4615333  44.3038928  45.4527835  38.6873359  45.7637999  46.4451670
  39.6755072  45.5184316  44.9855598  39.6267203  43.6425244  47.8904010
  40.4137923  43.1591625  48.4691742  39.1400142  44.4015374  48.5028696
  38.8922025  42.8977483  47.5839846  42.4382762  41.3857934  45.4231814
  41.6726801  40.3933035  45.3482787  43.4849899  41.5572043  44.6049530
  44.1352108  42.3060248  44.7962118  43.7224490  40.7168648  43.4371804
  43.3171409  39.7232950  43.6286054  43.0690101  41.2746284  42.1839230
  42.0493459  41.5597897  42.4428964  43.6362105  42.1643415  41.9104374
  43.0425003  40.3196125  41.0205933  42.0396241  39.5006526  40.9083876
  43.9995899  40.3801408  40.2042566  45.2184570  40.6110428  43.2069807
  45.9345112  41.5995632  43.4968924  45.6571207  39.4767902  42.6984150
  44.9878427  38.7675208  42.4355400  47.0994506  39.2019671  42.4734422
  47.6669448  40.1318201  42.5111635  47.6304117  38.2595751  43.5598761
  47.1442886  37.2952047  43.4123187  48.7121613  38.1285596  43.5324411
  47.2883406  38.7033568  44.9459336  47.9569779  39.7500964  45.5407766
  48.7842053  40.2233908  45.0118274  47.5909989  40.1999300  46.7895541
  48.0695916  41.0840188  47.2107865  46.6280541  39.5387858  47.5014337
  46.3459845  39.8826371  48.4965734  46.0181866  38.4410667  46.9586406
  45.2669669  37.9022896  47.5361252  46.3479299  38.0156842  45.6911517
  45.8669717  37.1327181  45.2702599  47.3007819  38.5314319  41.1345986
  48.3481804  37.9223307  40.9286597  46.3354312  38.6636454  40.2287318
  45.5682216  39.2958768  40.4069791  46.3426898  37.9112609  38.9553057
  46.2786544  36.8479885  39.1864991  45.4683684  38.2101243  38.3770825
  47.5861470  38.1618163  38.1321623  48.0856050  37.2211253  37.4254755
  48.0605794  39.4088982  38.1275185  47.6579419  40.1259400  38.7138916
  49.1629716  39.7886939  37.2069298  49.2325987  39.0921651  36.3714066
  48.8591316  41.1828888  36.6568616  48.4968966  41.7261501  37.5296458
  49.7633861  41.6616309  36.2810560  47.7852330  41.1952128  35.5669300
  46.8838920  40.7205774  35.9547528  47.4660250  42.6158619  35.1442549
  48.3668405  43.0910282  34.7558643  46.7002661  42.6013706  34.3686880
  47.1011596  43.1779645  36.0039143  48.1770750  40.3458687  34.3896261
  48.3219454  39.3160440  34.7160816  47.3888810  40.3805921  33.6375318
  49.1048498  40.7244028  33.9606217  50.4961406  39.7385370  37.9468135
  51.4900219  40.1828204  37.3975355  50.5187915  39.1839575  39.1489206
  49.6609633  38.8739882  39.5826821  51.7759828  39.1018616  39.9364308
  52.1774646  40.1137142  39.9918012  51.4991438  38.6173956  41.3335299
  51.1050838  37.6018471  41.2950852  52.4232220  38.6263619  41.9115431
  50.7682591  39.2724627  41.8076542  52.8252987  38.2436724  39.2575220
  52.5688165  37.4232983  38.3396760  54.0782247  38.4647502  39.6709554
  54.2889705  39.2847199  40.2217142  55.2015017  37.6010228  39.2392511
  54.8233221  36.6131062  38.9763823  55.9085524  38.1953323  38.0177006
  55.1619800  38.2710830  37.2271371  56.2402208  39.1944055  38.3004530
  57.1010735  37.3872629  37.5148523  57.8635441  37.3717326  38.2936322
  56.7697834  36.3690134  37.3110956  57.6804263  37.9903502  36.2544405
  56.9434128  37.9120110  35.4552076  57.9063764  39.0407681  36.4379294
  58.8874252  37.3249371  35.8360051  59.7701678  37.7216524  36.1249375
  58.9002712  36.2510375  35.0930108  57.7652297  35.7166224  34.6873233
  56.8877167  36.1402960  34.9529763  57.7785517  34.8860585  34.1127923
  60.0551128  35.7095523  34.7760175  60.9130180  36.1266336  35.1078939
  60.0793082  34.8788714  34.2020119  56.1232732  37.3691299  40.4171361
  56.4316806  38.3354150  41.1693687  56.6331473  36.1495491  40.5370242
  56.3216318  35.3955329  39.9416110  57.6597043  35.8535531  41.5697376
  57.3696560  36.3076742  42.5172317  57.8004021  34.3470018  41.7736184
  56.8241399  33.9365678  42.0316012  58.1476678  33.8992489  40.8424772
  58.7894167  34.0364853  42.8841632  59.8133813  34.3651662  42.7064943
  58.3765792  34.5791284  43.7345782  58.8058569  32.5720307  43.2119186
  57.9524224  31.8047659  42.7796882  59.8725966  32.1538393  43.8476099
  59.9555905  31.1800186  44.1023383  60.6068811  32.8072639  44.0799115
  58.9752173  36.4605649  41.0969550  59.3428582  36.1568143  39.9724153
  59.6374927  37.2935645  41.9042003  59.2580433  37.5199483  42.8124227
  60.8576514  38.0065483  41.4543639  61.0352740  37.7619644  40.4071160
  60.7478161  39.5190519  41.5888440  61.5603260  39.9830901  41.0297417
  59.7922121  39.8541276  41.1855508  60.8322591  40.0485445  42.9853593
  59.7346536  40.0239655  43.8056879  58.7959350  39.6296095  43.4165983
  59.8029916  40.4863215  45.1008755  58.9169715  40.4290718  45.7331662
  60.9632426  41.0122072  45.5962387  61.0278262  41.3861792  46.6180381
  62.0633186  41.0633870  44.7753705  62.9960883  41.4886315  45.1457864
  61.9897855  40.5751963  43.4763648  62.8673771  40.6094120  42.8307937
  62.0991796  37.4784130  42.1626936  63.1854614  37.9102805  41.8283761
  61.9335549  36.5463981  43.1104962  61.0049216  36.2219870  43.3396184
  63.0879642  35.9874045  43.8761327  64.0304135  36.3501825  43.4659125
  63.0382073  36.3325268  45.3672842  63.8858660  35.8488671  45.8527203
  63.0967963  37.8276078  45.6196612  62.2491387  38.3119309  45.1348856
  63.0582737  38.0173186  46.6923331  64.0251238  38.2290950  45.2133158
  61.8368742  35.7672829  45.8847928  61.7690066  35.9630667  46.8221630
  63.1682445  34.4681711  43.7564245  62.1505540  33.8453214  43.5165382
  64.3290790  33.9375015  44.1464476  65.1507750  34.5211191  44.0808301
  64.4928561  32.5403700  44.6332642  63.9047778  31.8694530  44.0070585
  65.9506910  32.0991173  44.5845888  66.4278099  32.2880422  43.6229422
  66.4602027  32.6700842  45.3607941  66.0774595  30.6247835  44.9063382
  66.8197735  30.2339577  45.8116459  65.2811730  29.8095177  44.2300606
  65.3194816  28.8147560  44.4005937  64.6396337  30.1866724  43.5472118
  63.9741120  32.3845715  46.0789901  63.6660630  33.4203450  46.7432981
  63.9119277  31.1291376  46.5585136  64.0714650  30.4037715  45.8740494
  63.5744492  30.7221736  47.9571263  62.5351559  30.9718077  48.1707883
  63.7612956  29.2379197  48.1427279  63.4982432  28.9755131  49.1674452
  63.1020920  28.7112191  47.4527010  65.1087033  28.8635157  47.8891474
  65.2063022  27.9164977  48.0125620  64.4225666  31.5048648  48.9661087
  63.9234316  31.7630321  50.0787959  65.6544781  31.8626912  48.5784346
  65.8973824  31.6382751  47.6241107  66.6858705  32.5012767  49.4362454
  66.6019545  32.1357529  50.4596952  68.0782855  32.1621161  48.9096699
  68.1139967  31.1276912  48.5679257  68.3456834  32.8254111  48.0870898
  69.3988624  32.3307288  50.1413080  70.3902174  31.9664942  49.3329473
  66.4704325  34.0228749  49.4818470  66.9503276  34.6559084  50.4432383
  65.7733484  34.5816529  48.4827825  65.3716098  33.9552136  47.7999362
  65.5559898  36.0315898  48.3152739  64.5218676  36.1930207  48.0109213
  65.7327362  36.5203890  49.2733634  66.4839974  36.6426843  47.2667128
  66.4563797  37.8909227  47.1592132  67.2898343  35.8259061  46.5508843
  67.3186520  34.8606773  46.8468612  68.1079556  36.2297626  45.3556009
  68.8628448  36.9589714  45.6497030  68.8179370  34.9992229  44.7598313
  67.9772239  34.3404565  44.5422825  69.3182037  35.2683145  43.8295502
  69.8217456  34.2665635  45.6946589  69.8932826  34.6144729  46.9018650
  70.6225848  33.3900338  45.1293322  67.1572147  36.8212636  44.2728202
  66.3065740  36.0651817  43.8635274  67.3412846  38.0713258  43.7955436
  68.0169478  38.6505062  44.2731717  66.5204985  38.6897697  42.7030244
  65.4682157  38.4853967  42.9005894  66.7046227  40.2112415  42.5405443
  67.7641397  40.4481137  42.6375727  66.2094503  40.6727524  41.1994056
  65.1498182  40.4366234  41.1018164  66.3508498  41.7498615  41.1102833
  66.7678923  40.1671028  40.4116476  65.9805360  41.0290926  43.6019878
  66.3569187  40.7593007  44.5887251  66.1545633  42.0904574  43.4250165
  64.9111986  40.8236402  43.5529209  66.7906297  37.9323823  41.3894250
  67.9449774  37.6966674  41.0567360  65.7561090  37.4964328  40.6846236
  64.8288136  37.6750547  41.0428369  65.8914909  36.6407907  39.4997315
  66.6977209  35.9224192  39.6481734  64.5946340  35.8748692  39.2570948
  64.8549721  35.0102381  38.6465734  64.2463922  35.5379672  40.2334783
  63.5158126  36.6484552  38.5861083  63.3632297  37.6002722  39.0948947
  63.7769604  36.8319466  37.5438824  62.2332557  35.8263976  38.6512105
  62.0946834  35.4483535  39.6641169  61.3847769  36.4541603  38.3790026
  62.2893960  34.7113077  37.7474618  63.2045985  34.4886189  37.3828891
  61.2676969  33.9978558  37.3482043  60.0368672  34.2355793  37.8041063
  59.8832541  34.9789231  38.4703969  59.2641659  33.6711440  37.4809267
  61.5050588  33.0150392  36.5024166  62.4490422  32.8393994  36.1891338
  60.7418428  32.4422008  36.1715749  66.3745500  37.5105867  38.3445810
  66.0449699  38.6782131  38.2494680  67.2657310  36.9708189  37.4889291
  67.9927923  35.7273303  37.6914135  67.3105377  34.8881286  37.5558798
  68.3940751  35.7086903  38.7046873  69.0896311  35.7675100  36.6322062
  69.2716628  34.7637398  36.2482675  70.0087510  36.1627092  37.0648002
  68.5603165  36.6909294  35.5446201  67.9283939  36.0987628  34.8827201
  69.3169216  37.2095233  34.9558004  67.7129504  37.6984642  36.3025108
  68.2968928  38.5664816  36.6085423  66.5042155  38.1586951  35.4972553
  65.5966360  37.3542490  35.2006563  66.4624378  39.4289080  35.0701863
  67.4421661  40.5040019  35.3458500  68.4380067  40.1698874  35.0546985
  67.4344573  40.7367440  36.4106837  66.9398389  41.6687551  34.4905797
  67.4635336  41.6729652  33.5346377  67.1241701  42.6094715  35.0094015
  65.4355986  41.4317900  34.3042315  65.1240235  41.8164503  33.3331206
  64.8047956  41.8597348  35.0833659  65.3226949  39.9149748  34.3199637
  64.4074593  39.6023255  34.8226489  65.3392850  39.3542383  32.8983859
  66.4023807  39.1763168  32.2838743  64.1534927  39.2569354  32.3132817
  63.3069393  39.4033447  32.8443287  64.0326638  38.9386603  30.8809576
  64.7032275  38.1176544  30.6272000  62.6012000  38.5218974  30.5445216
  61.9288272  39.2917914  30.9230413  62.5134891  38.4650628  29.4595439
  62.2302299  37.1864352  31.1507212  62.7981894  36.4032271  30.6486179
  62.4869337  37.1984364  32.2099951  60.7528150  36.9155169  30.9941820
  60.4621617  37.0695543  29.9550034  60.5385231  35.8863074  31.2821165
  59.9844740  37.7897198  31.8178272  60.4767755  38.4743794  32.3736867
  58.6459629  37.7763995  31.8586150  57.9828027  36.9459424  31.0707283
  58.4891515  36.3323299  30.4484819  56.9732329  36.9293859  31.0951061
  58.0314532  38.5493995  32.7025308  58.5657708  39.1486540  33.3153105
  57.0222253  38.5475412  32.7419558  64.3959110  40.1739931  30.0586643
  64.2295505  41.2697421  30.5384479  64.8486411  39.9649502  28.8275821
  65.0112059  39.0149332  28.5256884  65.1984676  41.0637762  27.9027082
  65.8555835  41.7765945  28.4008928  65.9148562  40.5068691  26.7028632
  65.2660398  39.7981265  26.1882553  66.1746029  41.3195901  26.0245444
  66.8237432  39.9987930  27.0251709  63.9387958  41.8302570  27.5138221
  64.0136877  43.0165868  27.3311153  62.8239326  41.1220364  27.3795779
  62.8954976  40.1285996  27.5470924  61.4963345  41.6798236  26.9921122
  61.4361217  42.7601160  27.1241799  61.1313668  41.3403277  25.5308576
  61.2274619  40.2649254  25.3812752  59.6979100  41.7702676  25.2261144
  59.6011474  42.8457022  25.3750382  59.4561802  41.5239625  24.1921893
  59.0118899  41.2484220  25.8933139  62.1106067  41.9431816  24.5367055
  63.1113264  41.5580718  24.7325433  61.8109747  41.6761373  23.5232916
  62.1126961  43.0282363  24.6404011  60.4623942  41.0831486  27.9348086
  60.4645143  39.8525686  28.1178069  59.5398671  41.9116053  28.4252618
  59.6222227  42.9002730  28.2359128  58.4230341  41.4527107  29.2702936
  58.2454817  40.3851921  29.1399927  58.6912056  41.7191894  30.7158963
  58.8619681  42.7855302  30.8637395  57.8331784  41.4034462  31.3093572
  59.5743738  41.1632597  31.0306270  57.1679407  42.1742815  28.8029529
  57.1395731  43.4028590  28.9347960  56.2620991  41.4307103  28.1868962
  56.4338278  40.4378768  28.1169659  55.0205425  41.9689225  27.5989968
  55.2459683  42.8468106  26.9935260  54.5450330  41.2111068  26.9763368
  54.0761940  42.3620664  28.6961827  53.4527553  41.4414738  29.2582588
  53.9109661  43.6604914  28.9056827  54.4495969  44.2756227  28.3127327
  53.0403144  44.2686883  29.9466371  53.2598412  43.8223559  30.9165312
  53.2779930  45.7627427  30.0361435  54.3308541  45.8468482  30.3054185
  53.0788928  46.3731654  29.1553238  52.4927558  46.3722951  31.1698800
  52.6957686  45.9302323  32.4676301  53.4451262  45.1608983  32.6538775
  51.9555142  46.4567222  33.5301826  52.1728843  46.1550738  34.5548089
  50.9490214  47.3592615  33.2779329  50.3451200  47.7448726  34.0993385
  50.7027774  47.7778292  31.9824291  49.9333654  48.5267061  31.7945765
  51.4320717  47.2474600  30.9212283  51.1756478  47.5149250  29.8961384
  51.5588173  44.0164261  29.6662743  51.1328639  44.2662022  28.5413487
  50.7950620  43.5714837  30.6732460  51.2252084  43.3809453  31.5669845
  49.3400870  43.2843870  30.5131418  49.0389187  43.5903826  29.5112618
  48.9838058  41.7964623  30.7017286  49.2476555  41.5547171  31.7313120
  47.9027050  41.7307444  30.5792455  49.6613380  40.8116906  29.7602942
  50.7352706  40.9631391  29.8690735  49.3984922  39.8132693  30.1098211
  49.2782310  40.9527419  28.3067456  49.7492804  41.8546137  27.9157997
  49.6561573  40.0835242  27.7684782  47.8379198  41.0464139  28.0910527
  47.4294392  41.9667444  28.1700133  47.0354929  40.0137288  27.8026323
  47.5262645  38.7871012  27.6970909  48.5140705  38.6280928  27.8351328
  46.9101888  38.0170148  27.4791061  45.7407791  40.2192685  27.6192972
  45.3647783  41.1533774  27.6978082  45.1348629  39.4410425  27.4017460
  48.5159710  44.1317344  31.5014136  47.3303223  44.0524187  31.3996824
  49.1219784  44.9962289  32.3119722  50.1256473  45.0819554  32.2384941
  48.4131966  45.8387415  33.3137955  47.6538165  45.2118291  33.7811516
  49.1485773  46.1361090  34.0613831  47.7361738  47.1073946  32.7406886
  47.3263308  47.1031291  31.5640105  47.5671804  48.1559400  33.5704306
  47.9607467  48.1113686  34.4995260  46.6984773  49.3037244  33.2313141
  46.1118127  49.0404999  32.3511797  45.7384781  49.6128969  34.3852526
  46.3375900  49.6540002  35.2949094  44.9691414  50.9054032  34.2299808
  44.3693931  50.8648618  33.3207185  44.3146632  51.0448805  35.0903898
  45.6680160  51.7394754  34.1667479  44.7873991  48.5549815  34.4074766
  44.1596365  48.7039476  35.1183377  47.5785299  50.4665823  32.7960086
  48.5197510  50.8617724  33.5439476  47.2569113  51.0376346  31.6487920
  46.4646450  50.7133203  31.1128502  48.1063006  52.1161331  31.0711902
  49.1563233  51.8465213  30.9577838  47.5573973  52.5295228  29.7044714
  46.4694297  52.5059909  29.7666963  48.0095953  53.9128693  29.2677124
  49.0975105  53.9370464  29.2048084  47.5844806  54.1430545  28.2907821
  47.6716368  54.6522507  29.9937984  47.9218094  51.4734313  28.6672286
  47.4899393  50.5152905  28.9562902  47.5302120  51.7690443  27.6939023
  49.0062058  51.3797718  28.6088068  48.1606885  53.2788894  32.0787484
  49.2431241  53.7879343  32.3253826  47.0416327  53.6441912  32.6973968
  46.1986502  53.0888255  32.6650128  47.0014491  54.9355963  33.4094390
  47.2410060  55.7413191  32.7155208  45.6247836  55.1937271  33.9961403
  44.9001412  55.2128675  33.1821217  45.3818700  54.3796571  34.6790627
  45.5788080  56.5061182  34.7414247  46.2078575  56.4226852  35.6276732
  45.9710143  57.2873988  34.0903664  44.1873720  56.8526962  35.1507396
  43.6889173  55.9732279  35.5583882  44.2057946  57.6408270  35.9034746
  43.4453208  57.3168397  34.0192694  43.9102252  57.3381888  33.1228836
  42.1683586  57.6446958  34.0742127  41.5437626  57.6002518  35.2431219
  42.0482750  57.3182845  36.0714103  40.5664036  57.8485711  35.2997490
  41.5639649  58.0840313  32.9838029  42.0822059  58.1649876  32.1206850
  40.5867157  58.3367321  33.0188040  48.0642869  54.9802330  34.5176774
  48.6823056  56.0411102  34.7345101  48.2473817  53.8932069  35.2876590
  47.7826454  53.0295428  35.0464043  49.0909029  53.9195675  36.4997494
  49.3436927  54.9497846  36.7504472  48.3483659  53.2944357  37.6868948
  48.2566045  52.2109634  37.6109545  49.0328496  53.5446553  38.4974331
  47.0049685  53.8898714  37.9674186  46.8736163  55.1043315  38.6219651
  47.7649179  55.6047758  39.0004309  45.6267809  55.6829959  38.7976295
  45.5454026  56.6229455  39.3434997  44.4945960  55.0743332  38.3011448
  43.2397766  55.6235496  38.4451852  43.2477761  56.4580455  38.9196873
  44.6184364  53.8747898  37.6211019  43.7353646  53.3640609  37.2371219
  45.8710047  53.3257786  37.4305438  45.9835794  52.4172089  36.8389966
  50.3904305  53.1555996  36.2498411  51.2028982  53.0243527  37.1817057
  50.6227221  52.7152575  35.0200003  49.9354176  52.8498319  34.2922630
  51.8442146  51.9004670  34.7039286  51.9599902  51.1443912  35.4804880
  51.6726761  51.2076974  33.3806660  51.5646243  51.9519259  32.5916485
  52.5465636  50.5884955  33.1781570  50.7822987  50.5797017  33.4114667
  53.1013988  52.7701634  34.7658727  53.1123852  53.9114707  34.2820030
  54.2140639  52.2339496  35.2495225  54.1772184  51.3414516  35.7208917
  55.5069602  52.9426050  35.1935877  55.3489253  53.9898939  35.4510954
  56.5104991  52.3616024  36.1442316  57.2308327  53.1237042  36.4415858
  56.0074687  51.9727085  37.0295688  57.1800879  51.3152196  35.4890592
  57.8285137  50.9291436  36.0824302  56.0600439  52.9389371  33.7513651
  55.5553466  52.2189011  32.8592588  57.0472585  53.7853863  33.5291578
  57.2778486  54.4688056  34.2361696  57.7820317  53.8304916  32.2412211
  57.1287924  54.0933461  31.4091844  58.9329440  54.8471396  32.3300451
  59.5464892  54.6176655  33.2012536  59.7832799  54.7802688  31.0844122
  59.1704866  55.0100986  30.2127682  60.5947496  55.5042341  31.1585195
  60.1994236  53.7781240  30.9813136  58.4042545  56.2641738  32.5510574
  58.0584882  56.6351664  31.5862201  57.5593244  56.1916417  33.2358433
  59.4455890  57.2299935  33.1258311  60.2906717  57.3034054  32.4413271
  58.9964558  58.2147635  33.2546978  59.7915097  56.8598791  34.0909498
  58.2620170  52.4158814  31.9037612  58.1563918  52.0141467  30.7391559
  58.7335288  51.6331817  32.8828724  58.8356348  51.9822794  33.8251062
  59.3084069  50.3066136  32.5591592  60.0222504  50.4090938  31.7418315
  60.0278617  49.7129679  33.7616193  59.4349631  49.4525917  34.6384173
  60.4701222  48.8096833  33.3414019  61.1432300  50.6435778  34.1905154
  61.9336854  51.0911279  33.3453841  61.1059286  51.0989194  35.4346334
  61.8297293  51.7221519  35.7629527  60.3538727  50.8205867  36.0486722
  58.2493268  49.4158425  31.9278983  58.5903367  48.7241449  30.9617784
  57.0045528  49.4343120  32.4175378  56.8370646  49.9465165  33.2717588
  55.8789195  48.6908121  31.8143102  56.1211365  47.6288575  31.7732908
  54.6257716  48.8688808  32.6408458  54.3653066  49.9264404  32.6835726
  53.8071741  48.3117314  32.1852331  54.7999782  48.4970490  33.6505449
  55.6688562  49.1554010  30.3716365  55.4804743  48.3058635  29.4880080
  55.6435361  50.4681263  30.1290068  55.6714174  51.0832379  30.9296063
  55.4947696  51.0758902  28.7752972  54.5521300  50.7638309  28.3256878
  55.5015597  52.6053447  28.8875695  56.2175240  52.9596624  29.6291578
  55.7325315  53.0492467  27.9192188  54.1745443  53.1343995  29.2916700
  53.1435683  53.2016053  28.3869508  52.0742124  53.6784608  28.9911534
  51.1401737  53.8136037  28.4458030  52.3851306  53.9186706  30.2603796
  51.7558567  54.2572132  30.9741745  53.7160860  53.6305788  30.4540435
  54.1797041  53.8210391  31.4219713  56.5879661  50.5707693  27.8356848
  56.2851207  50.3683560  26.6412601  57.7764775  50.3157665  28.3727549
  57.8924826  50.4523458  29.3667309  58.9729425  49.9301898  27.5667493
  58.8648293  50.2794121  26.5398830  60.2205046  50.5661780  28.1686970
  60.2606007  50.3092842  29.2272324  61.0940435  50.1555200  27.6623476
  60.2103102  52.0796630  28.0145532  59.9320361  52.2835527  26.9805835
  59.4321561  52.4532795  28.6801274  61.5170139  52.7706582  28.3298818
  62.2505827  52.5162634  27.5648596  61.3593902  53.8491772  28.3370319
  62.0357109  52.3682819  29.6231071  61.7266904  51.4718770  29.9710496
  62.9062285  53.0674077  30.3511943  63.3377437  54.2476495  29.9295236
  63.0049136  54.6193133  29.0513493  63.9973866  54.7698511  30.4883405
  63.3039755  52.5910357  31.5218442  62.9459189  51.7060291  31.8514784
  63.9633901  53.1151110  32.0791737  59.0976970  48.4093315  27.4575006
  60.0502284  47.9736224  26.8142467  58.1685006  47.6578981  28.0240912
  57.4697427  48.1351534  28.5755112  58.1629148  46.1715429  28.0127298
  57.4004959  45.8081869  28.7017793  57.8609422  45.6252644  26.6182402
  58.5561174  46.1081332  25.9314590  58.0026569  44.5452590  26.5781741
  56.4469717  45.9444392  26.1794919  55.4636306  45.6069555  26.8529420
  56.3283432  46.5508566  25.0159872  55.4117787  46.7912827  24.6664096
  57.1545112  46.7725335  24.4789521  59.4877644  45.6720063  28.6035409
  60.0809592  44.7223965  28.0735002  59.9221397  46.3317473  29.6520164
  59.4648748  47.2025259  29.8816961  61.0593087  45.9091879  30.4689412
  61.7255448  45.2862909  29.8720929  61.8431216  47.1116733  30.9776169
  61.1418812  47.7873423  31.4673440  62.5715220  46.7546461  31.7056722
  62.5654563  47.8533230  29.8582393  63.3689807  47.2053755  29.5080772
  61.8450897  48.0047652  29.0543491  63.1417513  49.1901518  30.2779533
  63.4843113  49.6941765  29.3742328  62.3331759  49.7648868  30.7296002
  64.2498326  49.1208823  31.2226790  64.0101312  49.2040305  32.2002930
  65.5487292  49.0111126  30.8869258  65.9140449  48.8765378  29.6187192
  65.2114253  48.8557933  28.8934638  66.8931083  48.7954438  29.3842875
  66.4712063  48.9798254  31.8332123  66.1971005  49.0384241  32.8035382
  67.4458708  48.8974680  31.5815281  60.5173070  45.0609341  31.6156242
  59.3094888  45.2372123  32.0573506  61.3875983  44.2422081  32.1625965
  62.2958330  44.0999133  31.7443129  61.0446276  43.4682572  33.3578464
  60.1415598  42.8889180  33.1656644  62.1607106  42.5140026  33.7399326
  62.4943184  41.9957926  32.8408978  62.9860197  43.0954196  34.1509302
  61.7002114  41.5025693  34.7617605  62.5891700  41.0858405  35.2352482
  61.0871487  41.9986740  35.5141788  60.9068709  40.3935126  34.1191920
  61.5446901  39.5380277  33.4465359  59.6508982  40.3988130  34.2715939
  60.7415061  44.4291036  34.4818408  61.5608864  45.2552433  34.7898978
  59.5653892  44.2826750  35.0978324  58.9087826  43.5753692  34.8000312
  59.1667611  45.1897665  36.1720384  59.5015811  46.2031125  35.9503977
  57.6391766  45.1971448  36.3082926  57.2787410  44.1684635  36.3084038
  57.3699854  45.6760088  37.2497412  57.0006426  45.9602180  35.1481308
  57.1596257  47.0295503  35.2872483  57.4591668  45.6441204  34.2111463
  55.2470918  45.6310653  35.0837856  54.7418743  46.7094022  36.4266229
  55.0242305  47.7362961  36.1945394  53.6609315  46.6502392  36.5537571
  55.2332003  46.3974904  37.3482578  59.8606213  44.7609939  37.4663015
  60.1512596  43.5997622  37.6538950  60.0940270  45.7248499  38.3336160
  59.8326133  46.6666784  38.0792123  60.7138477  45.5041601  39.6506313
  60.8545868  44.4324705  39.7912482  61.6832773  46.0022755  39.6642952
  59.8670142  46.0428967  40.7844994  58.7546848  46.5352125  40.5363997
  60.4138150  45.9855807  42.0079138  61.3290198  45.5720832  42.1152426
  59.7139184  46.4562392  43.2160174  58.7819675  45.9059434  43.3454050
  60.5794697  46.2349881  44.4368913  61.5368847  46.7214348  44.2502756
  60.0848460  46.7186645  45.2792122  60.8136110  44.7540860  44.7633259
  59.9318539  44.4095355  45.3035947  60.8824245  44.2305436  43.8097694
  62.0723080  44.4643751  45.5989899  62.1157403  45.1550910  46.4410850
  62.0331442  43.4406123  45.9711126  63.2771859  44.6245538  44.8028963
  63.0866013  45.0852690  43.9245351  64.5979649  44.2286593  45.0803517
  64.8834743  43.5933958  46.1640462  64.1520289  43.3750208  46.8254084
  65.8374148  43.3167163  46.3472005  65.5806687  44.5040864  44.2561781
  65.3929912  45.0105435  43.4027272  66.5203826  44.2084053  44.4789091
  59.3701075  47.9474169  43.0219193  58.2898622  48.4077263  43.4629605
  60.2596333  48.7115570  42.4497804  61.1364594  48.2929566  42.1740106
  60.1003936  50.1757063  42.2927213  59.8137030  50.6142782  43.2485259
  61.3998730  50.8249515  41.8288980  61.1915706  51.8907606  41.7353016
  62.2313627  50.6769209  42.5179638  61.8642969  50.3655796  40.4994508
  61.9745988  49.0436101  40.1565349  62.3648524  48.9416076  38.9014104
  62.4923826  47.9669557  38.4303599  62.5397414  50.1770997  38.4218052
  62.8838076  50.4201636  37.5038519  62.1749214  51.0720398  39.3816331
  62.1758486  52.1393238  39.1602616  58.9219661  50.4975423  41.3604252
  58.3354455  51.5612701  41.5293211  58.5825216  49.6276445  40.4104751
  59.1487387  48.8026500  40.2730646  57.4843374  49.8942205  39.4508780
  57.5690441  50.9160466  39.0810193  57.5364119  48.9509253  38.2762732
  57.4606062  47.8926592  38.5261244  56.6480895  49.2579201  37.7242429
  58.7699386  49.1816010  37.4191270  58.9689579  50.3484316  37.0232017
  59.6072680  48.2736520  37.2844200  56.1499510  49.8733128  40.2039583
  55.2482271  50.6526373  39.8668347  56.0196765  49.0325088  41.2400100
  56.7344661  48.3439547  41.4272756  54.8181237  49.0454180  42.0981885
  53.9371708  49.0090825  41.4573291  54.7604442  47.8675554  43.0773243
  55.7288725  47.8472709  43.5771588  53.9782059  48.0667727  43.8097966
  54.5048654  46.5281072  42.4178411  53.9862522  46.4937010  41.2921686
  54.8081461  45.4806642  43.0670852  54.7683976  50.3533536  42.8698183
  53.6579724  50.8853580  43.0765968  55.9124957  50.9066730  43.2722489
  56.7915170  50.4360675  43.1111549  55.9269381  52.1855145  44.0227379
  55.1328195  52.2036704  44.7691596  57.2785866  52.3178146  44.7406913
  58.0075767  52.2307929  43.9350239  57.3637276  53.3015522  45.2023311
  57.5458834  51.2434055  45.7842690  57.3257755  50.2689386  45.3483015
  59.0248123  51.2787055  46.2504591  59.2455555  52.2527748  46.6869912
  59.1898930  50.5010836  46.9962160  59.6797728  51.1071009  45.3962466
  56.5976697  51.3686160  46.9726183  55.5682880  51.2663560  46.6290840
  56.8176768  50.5851367  47.6977791  56.7285349  52.3439518  47.4413327
  55.6655205  53.3659289  43.0854537  55.0381384  54.3453865  43.5386221
  56.0975015  53.3298156  41.8169707  56.7800923  52.6350891  41.5495307
  55.6759306  54.3311262  40.8019258  55.9618876  55.3311242  41.1280112
  56.3466381  54.0449646  39.4597779  56.5152328  52.9710670  39.3796589
  55.7678296  54.3863772  38.6015715  57.6831508  54.6949238  39.3582210
  58.9161373  54.1103300  39.3957867  58.9401623  53.0248021  39.4914514
  59.9005922  55.0651257  39.3001432  60.8856746  54.8791694  39.1771289
  59.3168748  56.2957809  39.2621058  59.8992991  57.5637661  39.1144451
  60.9835757  57.6541712  39.0491020  59.0385049  58.6258002  39.0616630
  59.4584160  59.6308821  39.0218488  57.6527761  58.4714725  39.0569272
  56.9912354  59.3313698  38.9518551  57.0784711  57.2250833  39.1851792
  55.9920390  57.1526564  39.2353827  57.9192304  56.1125099  39.2604201
  54.1450609  54.3276123  40.7049385  53.5385433  55.4055756  40.6334296
  53.5301334  53.1619806  40.6031492  54.0642074  52.3047648  40.5964246
  52.0617563  53.0762233  40.4239446  51.7620227  53.6868361  39.5722339
  51.6274573  51.6448184  40.1709833  51.9986627  51.0204330  40.9836632
  50.5381289  51.6099833  40.1551670  52.1290299  51.1679040  38.9474051
  51.8392681  50.2624660  38.8139136  51.3905927  53.6656066  41.6657061
  50.3925984  54.3907319  41.5332272  51.9196934  53.3897101  42.8647422
  52.6845629  52.7358423  42.9515229  51.3790385  54.0143419  44.1065994
  50.3220894  53.7753345  44.2242142  52.1362664  53.4725098  45.3083202
  51.7899558  52.4451191  45.4207329  53.2027516  53.4733067  45.0831339
  51.8914093  54.2329227  46.5995352  52.1861728  55.2734016  46.4630832
  50.4115839  54.1682402  46.9768958  50.1161777  53.1280274  47.1139776
  50.2482827  54.7170267  47.9044015  49.8135354  54.6134757  46.1817833
  52.7576231  53.6616629  47.7038439  53.8077769  53.7522025  47.4262130
  52.5780330  54.2108684  48.6280853  52.5110354  52.6104116  47.8527201
  51.5282320  55.5425240  44.0093636  50.5580927  56.2512288  44.2790532
  52.6724315  56.0568767  43.5365299  53.4360980  55.4430778  43.2912469
  52.8800295  57.5122492  43.4198086  52.7494056  57.9724017  44.3992453
  54.2783015  57.8439863  42.9079269  55.0205370  57.3703786  43.5504854
  54.4065597  57.4914911  41.8845028  54.5923511  59.3135388  42.8990202
  54.8130173  60.0076484  44.0777502  54.7742018  59.4845529  45.0332419
  55.0838606  61.3708237  44.0420456  55.2330392  61.9050558  44.9803646
  55.1641598  62.0412315  42.8537617  55.3949617  63.1064071  42.8385561
  54.9530214  61.3684652  41.6774165  55.0205382  61.8929903  40.7243085
  54.6514765  60.0103302  41.7042889  54.4568542  59.4767578  40.7739542
  51.8011019  58.0963382  42.4911422  51.1508317  59.0642774  42.8721478
  51.5340666  57.4658093  41.3378957  52.1056229  56.6786063  41.0663551
  50.5027929  57.9378625  40.3971421  50.6752016  58.9876022  40.1596109
  50.5434554  57.1388230  39.1134453  50.5540060  56.1057836  39.4610335
  49.6461067  57.3126685  38.5196078  51.7639356  57.3962152  38.2663997
  52.4199364  58.6141642  38.2684049  52.0442838  59.4063343  38.9160554
  53.5374560  58.8405742  37.4667488  54.0716746  59.7885768  37.5300210
  53.9369170  57.8849467  36.5611060  54.9913351  58.1011568  35.7053188
  55.3937878  58.9655605  35.8168433  53.2972163  56.6701198  36.5448684
  53.6513196  55.8884869  35.8727365  52.2061767  56.4317749  37.3760605
  51.6863660  55.4747138  37.3321163  49.1146015  57.8963282  41.0675631
  48.3269807  58.8352021  40.9046937  48.8290477  56.8273866  41.8195875
  49.4617142  56.0420128  41.8745462  47.5308053  56.7423644  42.5500414
  46.7219280  56.8539249  41.8279812  47.3413196  55.4172637  43.2970176
  48.2345849  55.2449448  43.8974195  46.4784754  55.5278487  43.9538059
  47.1361070  54.3162831  42.4297330  46.3397874  54.5445049  41.7212905
  48.0541819  54.0959757  41.8850265  46.6498304  52.8261456  43.4392810
  45.3504497  53.4043482  44.3875597  44.5472916  53.7459608  43.7346148
  44.9817639  52.6024499  45.0271929  45.6925500  54.2338585  45.0064145
  47.4125181  57.9045453  43.5355776  46.3009976  58.4998365  43.5770093
  48.4327461  58.1856614  44.3237537  49.2829984  57.6470911  44.2394182
  48.3780001  59.2650909  45.3532298  47.5533947  59.0651597  46.0374466
  49.6640318  59.3454349  46.1542493  50.4341897  59.5689802  45.4160194
  49.5432894  60.1982670  46.8222304  50.0705569  58.1382263  46.9520349
  50.0035999  57.2412167  46.3364121  51.5089153  58.3338104  47.4079757
  51.5765836  59.2304374  48.0240762  51.8269262  57.4688166  47.9900028
  52.1551291  58.4424921  46.5369439  49.1692531  57.9727829  48.1297161
  48.1424854  57.8448548  47.7869595  49.4733320  57.0951578  48.7001645
  49.2326328  58.8573138  48.7635040  48.1377465  60.6124348  44.6656707
  47.3453561  61.4103377  45.1352454  48.8319440  60.8636618  43.5552290
  49.5368618  60.2147458  43.2357006  48.6760991  62.1369977  42.8321736
  48.7434606  63.0125651  43.4778851  49.7505841  62.2512824  41.7341108
  49.7535512  61.3300970  41.1514376  49.4730306  63.4246505  40.8203634
  49.4703649  64.3463118  41.4022863  50.2471902  63.4809713  40.0551149
  48.5012755  63.2932688  40.3444090  51.1125901  62.3449494  42.4000140
  51.2869734  61.4511518  42.9990286  51.8861043  62.4265555  41.6363938
  51.1434485  63.2244511  43.0431511  47.2513177  62.2100315  42.3206533
  46.6065889  63.2774666  42.4373279  46.7353524  61.1350013  41.7380532
  47.2903921  60.3110996  41.5557998  45.3378365  61.1624587  41.2487453
  45.1996356  62.0147837  40.5835071  45.0093702  59.9002039  40.4898357
  45.8631961  59.6434112  39.8628285  44.8347869  59.1009721  41.2101476
  43.7892009  60.0732941  39.6281673  42.9820816  60.3700163  40.2979548
  43.9658042  60.8648242  38.8998882  43.4049926  58.8079448  38.9099916
  43.2919501  57.7642478  39.6299603  43.2608264  58.8457441  37.6615681
  44.3427893  61.3927831  42.4063750  43.3721200  62.1369004  42.2362843
  44.5890261  60.8086419  43.5676723  45.3292022  60.1247226  43.6347033
  43.7520343  61.0628239  44.7718028  42.7203999  60.7714387  44.5745103
  44.2681804  60.2547419  45.9549079  45.3501742  60.3718758  46.0154734
  43.8095725  60.6450383  46.8634494  43.9944392  58.7679977  45.9365074
  43.2649550  58.1809465  44.9409846  42.8903572  58.8034323  44.1284037
  42.9985542  56.8201156  44.9513758  42.3992456  56.3704467  44.1597143
  43.4854693  56.0516861  45.9483781  43.2714459  54.9829313  45.9559286
  44.2393418  56.6023798  46.9403892  44.6420985  55.9696543  47.7313036
  44.4942496  57.9630825  46.9451932  45.0900329  58.4031323  47.7448796
  43.6946322  62.5581263  45.1082157  42.6293814  63.0651316  45.3624424
  44.8322309  63.2591788  45.1117858  45.7067426  62.8022887  44.8959618
  44.8719242  64.6670708  45.5977009  44.0799091  64.8781043  46.3162245
  46.2175967  65.0295049  46.2322598  46.1983162  66.0690071  46.5596170
  46.4654144  64.1441479  47.4052433  46.4852940  63.1044386  47.0785777
  47.4229554  64.4003719  47.8586359  45.6694953  64.2791878  48.1376221
  47.3651602  64.9827487  45.3022932  47.2004241  65.6854502  44.4854856
  48.2766765  65.2532036  45.8352956  47.4659996  63.9750556  44.8991964
  44.4511597  65.6332273  44.5082749  43.7509298  66.5958260  44.8624384
  44.8085437  65.3877272  43.2413600  45.3166449  64.5303073  43.0777641
  44.5803688  66.3012594  42.0924870  44.4197028  67.3379164  42.3885072
  45.7860092  66.2446017  41.1256147  45.9323586  65.2071219  40.8250872
  45.5712872  67.0951625  39.9028728  45.4253141  68.1329303  40.2025905
  46.4433427  67.0245028  39.2527752  44.6894549  66.7450024  39.3663456
  47.0635046  66.6463840  41.8514841  47.2405991  65.9627397  42.6817672
  47.9044653  66.6022130  41.1594338  46.9608895  67.6621135  42.2334061
  43.2676905  65.9436886  41.3798658  42.6273631  66.8498776  40.8304704
  42.8741379  64.6686531  41.3719379  43.4468087  63.9766289  41.8337280
  41.6400594  64.2252169  40.7187660  41.1924394  63.4386907  41.3263119
  40.9570052  65.0727364  40.6617834  41.8814748  63.6916035  39.3211032
  40.9459964  63.1794204  38.7234096  43.0773547  63.8754839  38.7849351
  43.7733238  64.3777030  39.3173844  43.4323572  63.4168484  37.4189312
  43.0597234  62.4016543  37.2824602  42.8404932  64.3019711  36.3327411
  43.1643080  63.8928858  35.3757184  41.7562402  64.2237102  36.4125573
  43.2438490  65.7380851  36.4222939  43.1813548  66.0246036  37.4721045
  44.2667031  65.8715200  36.0700628  42.3343029  66.6419938  35.6195013
  41.5210622  66.2137162  34.7955936  42.4909994  67.9262329  35.8195944
  41.9161036  68.5865226  35.3159935  43.1860528  68.2507349  36.4766336
  44.9401458  63.3821365  37.2826759  45.6485642  63.8787182  38.1547585
  45.3749562  62.5905663  36.3332884  44.7003451  61.9769207  35.8991937
  46.7779410  62.4980860  35.9049733  47.4372590  62.9742987  36.6306595
  47.1541787  61.0162886  35.8000221  46.3433296  60.5412455  35.2477929
  48.0826923  60.9176094  35.2376833  47.3082677  60.3406094  37.1565925
  46.4820489  60.6389152  37.8019428  47.3003184  58.8234844  36.9889249
  48.1265911  58.5243573  36.3440254  47.4109949  58.3490708  37.9640060
  46.3576840  58.5120946  36.5388391  48.5689272  60.7587195  37.8690100
  48.5550820  61.8365726  38.0306903  48.6299741  60.2484117  38.8302386
  49.4347322  60.4939826  37.2620546  46.9409756  63.2403953  34.5796127
  46.0053434  63.4076412  33.8058956  48.1769511  63.6458370  34.2468775
  49.3604070  63.4846659  35.0906837  49.8343098  62.5186105  34.9167490
  49.1021514  63.5774105  36.1455778  50.2063406  64.6473949  34.5966000
  51.2634045  64.4437481  34.7676060  49.9251310  65.5644323  35.1143499
  49.8950669  64.7435936  33.1232974  50.4202007  63.9688753  32.5645981
  50.1276711  65.7193316  32.6967645  48.3955109  64.4961702  33.0655092
  47.8066379  65.4023744  33.2073567  48.0033723  63.8356673  31.7410474
  47.6913348  64.5232467  30.8150878  48.0346986  62.4940534  31.7267756
  48.3578632  62.0535522  32.5762594  47.7343534  61.6371877  30.5660379
  47.7254342  62.2343713  29.6542312  48.7904632  60.5577303  30.4280054
  48.5283957  59.7557935  29.7378480  49.6968872  61.0535723  30.0806781
  49.1313775  59.9064421  31.7314873  48.5529387  58.8077241  32.2914812
  47.7554505  58.3318689  31.7208026  49.1267293  58.5312171  33.5019382
  48.8365004  57.7938616  34.1281759  50.1619511  59.3897468  33.7169933
  51.0675292  59.4733520  34.7642657  50.9648993  58.7894490  35.6067871
  52.0516837  60.4318776  34.6657941  52.8032197  60.5161378  35.4507742
  52.1092351  61.2989373  33.5829879  52.8933986  62.0532495  33.5181786
  51.1914979  61.2369415  32.5686881  51.2617529  61.9826847  31.7768346
  50.2050664  60.2589946  32.6018326  46.3182453  61.0400088  30.6516010
  46.0033998  60.1539018  29.7954067  45.4406127  61.6767224  31.4300005
  45.7798023  62.4429288  31.9938955  44.0036226  61.2708948  31.5721289
  43.9585588  60.2840611  32.0328106  43.2065258  62.2536895  32.4394998
  43.6202190  62.2020118  33.4466178  43.3715064  63.2503614  32.0301999
  41.7088572  61.9664441  32.4898766  41.3351061  62.0951843  31.4740828
  41.6041266  60.9225161  32.7854233  40.9020118  62.8515527  33.4469102
  40.1530596  62.2435797  33.9543926  41.5740519  63.2899510  34.1846556
  40.2339861  63.9135379  32.7434942  40.5052061  64.8583553  32.9755702
  39.2512416  63.7314608  31.8517649  38.8121193  62.5077676  31.5772955
  39.2218014  61.7110932  32.0437400  38.0706771  62.3799279  30.9034852
  38.7530020  64.7648324  31.2007791  39.1147997  65.6911483  31.3772485
  38.0120076  64.6249875  30.5288644  43.3266199  61.1175765  30.2028528
  42.5738866  60.1397741  30.0398773  43.4830683  62.0557252  29.2485563
  44.1702719  62.7859444  29.3695128  42.6574530  62.0656407  28.0201740
  41.7037492  61.5723969  28.2079471  42.3857759  63.5018422  27.5829065
  43.3441454  63.9349953  27.2965405  41.7348366  63.4520068  26.7100409
  41.7357526  64.3701750  28.6514363  40.8217869  63.8803315  28.9873247
  42.4264029  64.4635495  29.4895206  41.4046493  65.7391877  28.1194947
  42.3316211  66.1941500  27.7704510  40.7228223  65.6138487  27.2783636
  40.7671776  66.6294556  29.1537417  40.2845275  66.0023181  29.9033069
  41.5464933  67.2264379  29.6274275  39.7692127  67.5210762  28.5449727
  39.0467641  66.9680959  28.1063607  39.3590099  68.1050385  29.2596905
  40.2163248  68.1025809  27.8506801  43.3555458  61.3187520  26.8761614
  42.7857155  61.2687173  25.8148750  44.5533498  60.8055087  27.1084455
  44.9530912  60.9000790  28.0311387  45.3654986  60.1259028  26.0488324
  45.0847864  60.4415625  25.0440146  46.8774264  60.3616897  26.2586223
  47.1889254  59.8634243  27.1766639  47.6724469  59.8087844  25.0878806
  47.3618091  60.3069326  24.1694836  48.7352169  59.9845749  25.2543692
  47.4914865  58.7376186  24.9986831  47.2111555  61.8349065  26.5056283
  46.6935625  62.1304721  27.4182285  48.2879709  61.8958685  26.6632727
  46.8195606  62.7480728  25.3948440  45.7427376  62.6880009  25.2369088
  47.0919847  63.7716463  25.6521021  47.3371447  62.4533956  24.4819519
  45.0300614  58.6240951  26.0913720  45.3004710  58.0228915  27.1133906
  44.5041843  58.0897464  24.9789577  44.3943195  58.7107596  24.1900523
  44.0431410  56.6753283  24.8368079  43.7087711  56.2939135  25.8015973
  42.8758846  56.5979820  23.8489182  43.2784033  56.8829686  22.8768788
  42.5670587  55.5530058  23.8215070  41.6744378  57.4733634  24.1766482
  41.8736857  58.4561204  23.7493429  40.8137643  57.0283534  23.6773393
  41.3831267  57.6154676  25.6470567  42.3326507  57.7939047  26.1516986
  40.7382946  58.4857712  25.7689682  40.7130753  56.4048910  26.2499433
  39.6800675  56.3655129  25.9043355  41.2403748  55.5097509  25.9201270
  40.7360893  56.4741420  27.7287891  40.2471605  57.3033051  28.0346272
  40.2835872  55.6561510  28.1111927  41.6932179  56.5102067  28.0492626
  45.1940528  55.7738084  24.3586918  45.3376930  54.6809755  24.8971402
  46.0436263  56.2737025  23.4773089  45.9209098  57.2388575  23.2061709
  47.1404545  55.5032955  22.8511341  46.7497148  54.5556641  22.4804369
  47.7587887  56.2614019  21.6888371  46.9443816  56.4880835  21.0007559
  48.2038973  57.1911894  22.0430595  48.8097873  55.4397512  20.9730758
  48.4365867  54.7021509  20.0876849  49.9674583  55.5221241  21.3420520
  48.2306883  55.1980240  23.8793494  48.8787026  56.1401063  24.3853862
  48.4997128  53.9201892  24.1074591  47.9621909  53.2226817  23.6128351
  49.4694524  53.4660275  25.1221887  49.1799023  53.8100193  26.1151286
  49.4918357  51.9365135  25.1220098  48.4996615  51.6183595  25.4421154
  49.6530229  51.6353962  24.0869025  50.5325199  51.2926488  25.9995949
  51.5177139  51.4839929  25.5742938  50.4748564  51.7341559  26.9945062
  50.3072670  49.8024661  26.0966806  49.8661756  49.5936518  27.0713261
  49.6054995  49.5184658  25.3124832  51.5761218  49.0135872  25.9423476
  52.1526872  49.4327478  25.1177402  52.1525420  49.0908379  26.8642322
  51.2799356  47.5892055  25.6634722  50.7461849  47.5173709  24.8090427
  52.1456400  47.0786374  25.5635917  50.7460481  47.2004969  26.4276508
  50.8490315  54.0955217  24.8723839  51.5320487  54.4210568  25.8932073
  51.3006412  54.1669478  23.6004374  50.6544690  53.9355897  22.8594689
  52.7020793  54.5892396  23.2232027  53.4166442  54.0967688  23.8827242
  53.0310860  54.2121774  21.7769552  52.7423693  53.1699919  21.6406052
  52.4221906  54.8448161  21.1311111  54.4966921  54.3825712  21.4160552
  54.8071495  55.4201439  21.5391811  55.0334968  53.7562531  22.1285617
  54.8130239  53.9222373  19.9949905  54.3647715  52.8092078  19.6245202
  55.4428015  54.6984552  19.2312295  52.8951692  56.1649756  23.3342953
  53.8954212  56.6002904  23.7749390  51.7684888  56.8572292  23.1530378
  50.9945794  56.3974775  22.6950072  51.6222228  58.3171580  23.5144687
  52.4425675  58.9047442  23.1023083  50.3096358  58.8261429  22.9192579
  50.1718565  58.3307629  21.9581571  49.5074279  58.5333663  23.5966385
  50.2804243  60.3287075  22.7216160  50.3243622  60.8463883  23.6798315
  51.1588010  60.5859149  22.1296695  49.0465490  60.7891070  21.9800703
  48.2422464  59.9892615  21.4879854  48.8557920  62.0974331  21.9362578
  48.0497717  62.4713627  21.4560397  49.5170522  62.7163455  22.3832295
  51.7048667  58.5102314  25.0583474  52.4667563  59.3771223  25.5609710
  50.9670973  57.7334201  25.8303198  50.2784092  57.0996532  25.4506520
  51.0688658  57.8599631  27.3028126  50.8553932  58.8752098  27.6371821
  50.1347633  56.8863828  28.0539450  50.3501470  55.8660327  27.7367784
  50.3532829  57.0073205  29.5529661  50.1376335  58.0273533  29.8709747
  49.6901419  56.3169169  30.0742025  51.3890333  56.7645590  29.7904313
  48.6649687  57.1101805  27.6929971  48.5258465  56.9576739  26.6227220
  48.0434586  56.4042403  28.2438810  48.3769497  58.1283030  27.9548608
  52.5281438  57.6731582  27.7009350  53.0397244  58.4237348  28.5530301
  53.1406133  56.5706724  27.2561144  52.6380214  55.9326147  26.6557953
  54.5310154  56.2466189  27.6096058  54.5752052  56.0417468  28.6792665
  54.8276605  55.3552025  27.0569052  55.4930879  57.3732296  27.2825588
  56.3779125  57.6501156  28.1170170  55.3246881  57.9874858  26.1219486
  54.6078624  57.6224921  25.5111787  56.1569271  59.1319620  25.6345953
  57.2061820  58.8386941  25.6686162  55.8230137  59.5367220  24.2485133
  54.7405743  59.5959914  24.1348855  56.2641001  60.5103212  24.0348608
  56.3360367  58.5839091  23.3529084  56.1219099  58.8423118  22.4534766
  55.9967132  60.3126194  26.5736367  57.0265869  60.9106532  26.9357880
  54.7753313  60.5501208  27.0692588  53.9662966  60.0622495  26.7121260
  54.5647080  61.6147602  28.0848231  55.0267416  62.5571504  27.7906722
  53.0677483  61.8424758  28.3634381  52.5851511  60.8881849  28.5744573
  52.9178492  62.7575457  29.5575283  53.3998315  63.7122713  29.3470701
  51.8593879  62.9221311  29.7592016  53.3861021  62.2989162  30.4284459
  52.3340605  62.3797357  27.1404581  52.7130148  63.3865667  26.9649991
  52.6084919  61.7377850  26.3033880  50.8449497  62.4231646  27.2674855
  50.5697207  63.0653414  28.1041203  50.4127888  62.8192972  26.3485648
  50.4651979  61.4165593  27.4425116  55.3444896  61.2579921  29.3524805
  56.0846583  62.0929063  29.8749961  55.1635361  60.0562315  29.8789835
  54.5552440  59.3853695  29.4317429  55.7886264  59.6864475  31.1607548
  55.4910316  60.3803938  31.9468687  55.3279419  58.2834201  31.5484155
  55.4223173  57.6547677  30.6629842  56.0041502  57.9224956  32.3233838
  53.8926020  58.2275996  32.0603848  53.8654494  58.7368191  33.0237431
  53.2666636  58.7651394  31.3480969  53.3865284  56.8502093  32.2179486
  53.5049396  56.3699603  31.2466409  54.0408285  56.3671961  32.9436821
  51.9522824  56.7221848  32.6706440  51.8857959  57.0583284  33.7053844
  51.3334089  57.3614530  32.0410164  51.4717474  55.3160645  32.5740378
  52.0448089  54.7236071  33.1577282  50.5116527  55.2663876  32.8836349
  51.5328714  55.0045351  31.6152301  57.3185888  59.7791263  31.0328025
  57.9535185  60.1778303  32.0194511  57.8817272  59.2992533  29.9285512
  57.2837302  58.8774670  29.2324224  59.3588519  59.2801674  29.6994760
  59.8355544  58.6612789  30.4596279  59.6993965  58.7095897  28.3196186
  58.9281803  59.0537288  27.6304938  60.6614755  59.1299757  28.0267369
  59.7762242  57.1851710  28.2768856  60.6405769  56.8748413  28.8639893
  58.8639413  56.8430507  28.7655499  59.8651335  56.5708508  26.8706613
  60.0501426  57.3301222  25.8927607  59.7869349  55.3272572  26.7504871
  59.9268509  60.6879521  29.8745568  61.0263546  60.8096278  30.4210572
  59.2126217  61.7240487  29.4272521  58.2741596  61.5532997  29.0952388
  59.7289730  63.1153932  29.3930766  60.8188204  63.0985006  29.3862618
  59.2440301  63.8531725  28.1450569  58.1565556  63.8846261  28.2122069
  59.6413111  64.8657613  28.2152827  59.6518371  63.2402086  26.8145977
  60.7379109  63.1701091  26.7543429  59.2179449  62.2453098  26.7145182
  59.1375855  64.1337691  25.6916908  59.6486932  63.8509604  24.7714261
  58.0675016  63.9583538  25.5810144  59.3585712  65.5739811  25.9322480
  58.8473809  65.9850429  26.7002402  60.1850378  66.3592108  25.2178251
  60.8669129  65.8700974  24.1923786  60.7671648  64.8967983  23.9417009
  61.4832709  66.4728285  23.6661491  60.3219663  67.6387016  25.5251361
  59.8032924  68.0271414  26.2998566  60.9445405  68.2211481  24.9836048
  59.2509687  63.8932721  30.6224745  59.6906574  65.0636934  30.8011693
  58.2533754  63.3958420  31.3368392  57.9321365  62.4488749  31.1948596
  57.5180426  64.2489514  32.2928721  57.2706785  65.2016746  31.8246534
  56.2256962  63.5690418  32.7250441  55.6517328  63.1497045  31.8987139
  56.6090833  62.7606113  33.3475828  55.3383683  64.4590657  33.5503681
  54.4356436  65.2985027  32.9492928  54.3793140  65.3137946  31.8608569
  53.6033956  66.1184196  33.6989384  52.9430444  66.8253254  33.1966215
  53.5817189  66.0120554  35.0704390  52.7297416  66.8191523  35.7964330
  52.2083045  67.4065611  35.2444783  54.4442259  65.1269647  35.6923056
  54.4572104  65.0505331  36.7795452  55.2937692  64.3356440  34.9304481
  55.9388257  63.6037406  35.4165753  58.4299122  64.5861026  33.4737256
  59.0940903  63.6736168  33.9942507  58.3927416  65.8277747  33.9328103
  57.9222324  66.5384076  33.3908496  59.0900147  66.2382807  35.1769758
  60.0026176  65.6544975  35.2971942  59.4583379  67.7067596  35.1227015
  60.1353442  67.7663286  34.2705201  58.5779244  68.3198756  34.9301896
  60.1594363  68.2094337  36.3561251  60.4196757  67.3757849  37.2699736
  60.3517387  69.4591839  36.4182011  58.1874922  65.8998678  36.3543827
  57.2924227  66.6814459  36.6665932  58.4119276  64.7635158  37.0131982
  59.1490888  64.1478519  36.7007073  57.5180307  64.2945440  38.0892841
  56.4804432  64.3382155  37.7582189  57.8543995  62.8442370  38.4572333
  58.9284523  62.6826328  38.5488517  57.3643247  62.5626201  39.3892304
  57.3664725  61.8929534  37.4132445  58.1294791  61.5531426  36.3451908
  57.4841209  60.6601452  35.6005799  57.9649078  60.2085473  34.7328229
  56.2758324  60.4853621  36.1132902  55.5342475  59.9123051  35.7367836
  56.1909407  61.2244275  37.2642471  55.2825784  61.1936611  37.8659385
  57.5231506  65.2541840  39.2899780  56.6146644  65.1647850  40.1009118
  58.4990706  66.1487872  39.4199449  59.3048464  66.1243644  38.8114811
  58.4759640  67.1472028  40.5163665  58.4241715  66.6367714  41.4780715
  59.7360502  68.0056912  40.4875529  59.8161979  68.4456369  39.4935089
  59.6157448  68.7980223  41.2263614  60.9993078  67.2132753  40.7948270
  60.9400671  66.8963882  41.8360637  60.9991109  66.3359371  40.1480042
  62.2717420  67.9967921  40.5791985  62.3599812  68.7679714  41.3444405
  63.1286013  67.3258082  40.6397974  62.2712025  68.6370684  39.2681825
  61.5839273  68.3001905  38.6091943  63.1355789  69.5624634  38.8654141
  64.0776028  70.0178738  39.6817261  64.1422061  69.6587851  40.6235232
  64.7255987  70.7214620  39.3574352  63.0093175  70.0855819  37.6635816
  62.2594301  69.7805825  37.0596408  63.6629481  70.7893853  37.3512894
  57.1972155  67.9996340  40.4207151  56.7789644  68.5860398  41.4393369
  56.6385333  68.1678460  39.2150468  57.0468269  67.7687414  38.3819135
  55.4045276  68.9796798  39.0741857  55.5850376  69.9944429  39.4288281
  54.9785886  69.0432771  37.6110820  54.9281633  67.9963169  37.3120320
  53.9867771  69.4895221  37.5384499  55.9406541  69.7894677  36.6900437
  56.9603949  69.4589682  36.8875273  55.5874155  69.5025738  35.2403416
  54.5679049  69.8332451  35.0419646  56.2759539  70.0366419  34.5855233
  55.6646253  68.4317327  35.0520906  55.9256516  71.2576865  36.9862352
  56.2284329  71.4234042  38.0201407  56.6180780  71.7706177  36.3187410
  54.9195107  71.6489786  36.8356694  54.3095959  68.3381321  39.9291753
  53.3753344  69.0453987  40.2755441  54.3708136  67.0275438  40.1375735
  55.1444186  66.4705736  39.8037790  53.2733174  66.3430416  40.8647611
  52.3117402  66.7452525  40.5458647  53.2947634  64.8568389  40.5788196
  54.3179100  64.5044330  40.7095119  52.6464229  64.3658315  41.3045374
  52.8311316  64.5339546  39.2012216  51.7895893  64.8445459  39.1186162
  53.4378337  65.1092073  38.5018655  52.9576255  62.8274222  38.8069621
  51.9471148  62.7713168  37.3339986  52.3697071  63.4324766  36.5774390
  51.9197074  61.7514945  36.9501863  50.9347302  63.0957124  37.5747185
  53.4152091  66.5654262  42.3717000  52.5273708  66.1008605  43.0922920
  54.5214390  67.1565223  42.8322160  55.2689687  67.3588995  42.1838780
  54.7426254  67.4370174  44.2662886  54.4213390  66.5936775  44.8775595
  56.2294120  67.6649265  44.4952320  56.4655013  68.4826855  43.8143272
  56.3863390  67.9918950  45.5231258  57.1416952  66.4706045  44.1944696
  56.9862771  66.1466189  43.1654024  58.5894132  66.8740280  44.3832342
  58.7457211  67.1977184  45.4122586  59.2353238  66.0226536  44.1686139
  58.8304861  67.6924387  43.7048624  56.7924090  65.2650005  45.0488298
  55.7625599  64.9663780  44.8530373  57.4619373  64.4401035  44.8051537
  56.9016268  65.5218097  46.1024993  53.8944394  68.6073011  44.7558993
  53.7495334  68.7540542  45.9545268  53.3890247  69.4519047  43.8563713
  53.4996965  69.2272275  42.8779179  52.7072125  70.7107472  44.2120900
  53.4149153  71.4328056  44.6193832  52.0838925  71.2986856  42.9441584
  52.8896584  71.3620984  42.2128450  51.3439812  70.5728856  42.6067482
  51.4252399  72.6625912  43.0922876  50.7079448  72.6163700  43.9117095
  52.1951102  73.3982585  43.3250868  50.7043422  73.0692014  41.8066732
  51.2326615  72.5947948  40.9796810  49.6919945  72.6697314  41.8672976
  50.6433277  74.5702880  41.5740399  51.6144297  74.9914250  41.8342420
  50.4463293  74.7395616  40.5154384  49.5882051  75.2251307  42.3835301
  49.7707996  75.0687620  43.3645030  49.5867201  76.2174411  42.1953338
  48.6882307  74.8353391  42.1422676  51.6335333  70.4592352  45.2779505
  51.5188729  71.2680139  46.2174461  50.8028487  69.4445232  45.0975600
  50.8776392  68.8642225  44.2743001  49.6374180  69.2453083  45.9956835
  49.5281933  70.1224075  46.6335441  48.3386240  69.0419880  45.2191168
  48.5325852  68.2253647  44.5236998  47.4536440  68.8111093  45.8120801
  48.0001702  70.2292394  44.3959144  47.5818136  71.4279894  44.9598038
  47.4052626  72.3145902  43.9983493  47.0675856  73.3270443  44.2197308
  47.7138238  71.7144859  42.8159640  47.6521935  72.1331138  41.8988750
  48.1240335  70.4445937  43.0664268  48.4699206  69.8123126  42.2486958
  49.9147067  68.1502739  47.0078167  48.9787669  67.7306447  47.6626595
  51.1400027  67.6698436  47.1192186  51.8675766  67.9613615  46.4822312
  51.4800649  66.6741853  48.1694683  50.5690253  66.2518658  48.5934402
  52.3081769  65.5414562  47.5656835  53.1199912  66.0275271  47.0245810
  52.7185808  64.9665763  48.3958533  51.5535116  64.6025825  46.6183676
  51.0277974  65.1888205  45.8646764  52.5539307  63.6663561  45.9308395
  53.0797391  63.0794152  46.6839163  52.0209251  62.9966745  45.2559082
  53.2734684  64.2563477  45.3631461  50.5252256  63.7873209  47.3931149
  49.8125848  64.4598161  47.8706008  49.9959558  63.1243536  46.7086814
  51.0305856  63.1938299  48.1550065  52.2632431  67.3538320  49.2757478
  52.9411989  68.3639276  49.0500956  52.2116257  66.7709421  50.5046269
  51.2554031  65.7387977  50.9231064  51.5570565  64.7806598  50.4999312
  50.2634648  66.0015861  50.5555473  51.3350282  65.7575354  52.4467136
  51.1631456  64.7612497  52.8541080  50.6034719  66.4505810  52.8621828
  52.7345011  66.2278351  52.7203133  53.4026616  65.3754961  52.5971102
  52.8925568  66.6737795  53.7022764  53.0061765  67.2660852  51.6241386
  52.6514375  68.2586459  51.9017746  54.4826799  67.3440400  51.2335185
  54.9671318  66.5342200  50.4160274  55.2540705  68.2787536  51.8132641
  54.8022165  69.2795669  52.7921956  54.5697051  68.7771389  53.7311337
  53.9059619  69.7689044  52.4109141  55.9721506  70.2333768  52.9170549
  56.0753382  70.5449041  53.9564789  55.7936448  71.1083726  52.2920594
  57.2023316  69.4652385  52.4405928  57.6773183  68.9013174  53.2433877
  57.9345811  70.1291360  51.9810818  56.6384357  68.5022431  51.3906408
  56.5868193  68.9437672  50.3954069  57.5328379  67.2557398  51.3507373
  58.3744654  67.1653453  50.4678438  57.3690023  66.3150395  52.2844202
  56.6823124  66.4156624  53.0181990  58.3084365  65.1751610  52.3548946
  59.3260832  65.5459971  52.2325220  58.2159166  64.4385261  53.6823711
  57.1642083  64.2672849  53.9119040  58.7265001  63.4805239  53.5842056
  58.8547161  65.2398576  54.8039348  59.5999464  65.9298867  54.4082170
  58.0144934  65.8052919  55.2069348  59.4743337  64.4050240  55.9036433
  59.4918011  63.1431084  55.8000625  60.0276451  65.0249128  56.8218690
  58.1330482  64.2583477  51.1534499  58.9719603  63.3952407  50.9960341
  57.0772918  64.4132643  50.3468824  56.2745562  64.9608731  50.6222720
  56.9730065  63.5765531  49.1240132  57.2040134  62.5427045  49.3807078
  55.5869101  63.6261103  48.5162519  55.1932858  64.6366434  48.6257139
  55.5164034  63.3203734  47.4723870  54.6694613  62.7199671  49.2933820
  54.0244728  63.1800206  50.4265081  54.1333367  64.2274541  50.7078114
  53.2453297  62.3279180  51.2039984  52.7511965  62.6956684  52.1032718
  53.1018366  61.0152088  50.8302386  52.4651314  60.3473121  51.4104285
  53.7617426  60.5442774  49.7239666  53.6863159  59.4899906  49.4577142
  54.5198331  61.4002489  48.9481570  55.0094183  61.0300305  48.0474103
  58.1245576  63.8777241  48.1588650  58.3360015  63.0484949  47.2899649
  58.8461912  64.9903309  48.2812254  58.5356058  65.7471057  48.8736170
  60.0794937  65.1866308  47.4760046  59.8127356  65.0962197  46.4230254
  60.7526621  66.5333200  47.6929989  61.6498824  66.5821479  47.0759812
  60.0637785  67.3236289  47.3947520  61.1051621  66.7037900  49.0504084
  61.5277714  67.5579220  49.1664245  61.0458229  64.0387531  47.7756354
  61.7424575  63.5926166  46.8533884  61.1297944  63.6232714  49.0418797
  60.6313747  64.1417938  49.7509719  62.0009249  62.5102008  49.4707183
  63.0050764  62.5525274  49.0488329  62.0913356  62.4402745  50.9908111
  61.0779873  62.4586351  51.3919201  62.7976492  61.1901433  51.4639530
  63.8112871  61.1713039  51.0635981  62.8376255  61.1849716  52.5532077
  62.2540064  60.3115393  51.1166683  62.7260211  63.7163346  51.5416386
  63.7957437  63.6709220  51.3373543  62.2904311  64.5615083  51.0086824
  62.5057887  63.8875583  53.0142608  62.9415447  63.0429360  53.5479553
  62.9791975  64.8109148  53.3480211  61.4362313  63.9335200  53.2192836
  61.4928337  61.2290201  48.8448865  62.3148307  60.4427855  48.3521970
  60.1933280  60.9701354  48.8988908  59.5948585  61.5871461  49.4292034
  59.5934988  59.7885768  48.2738105  59.9646758  58.8731262  48.7345457
  58.0797565  59.8587685  48.4769368  57.8235621  60.0758998  49.5139120
  57.7187820  60.6644684  47.8376833  57.3086014  58.6258185  48.0922195
  57.1337855  58.2770903  46.7665491  57.5547547  58.9204762  45.9939305
  56.4387953  57.1341842  46.4122295  56.3100019  56.8752871  45.3612846
  55.9112967  56.3261768  47.3873348  55.3470313  55.4328219  47.1197130
  56.0973422  56.6478583  48.7005405  55.6725322  56.0024291  49.4693433
  56.8172296  57.7810009  49.0637373  56.9927623  58.0008491  50.1168066
  59.9711026  59.7160855  46.7958787  60.4775008  58.6914078  46.3468391
  59.7685558  60.8118194  46.0751596  59.4463713  61.6540618  46.5300488
  59.9587639  60.8360090  44.6173425  59.4394966  59.9947294  44.1583116
  59.3928502  62.1348998  44.0383689  58.3174953  62.0714098  44.2047423
  59.7958636  62.9840463  44.5903023  59.6653425  62.3198491  42.5557605
  60.7413814  62.3381364  42.3828251  59.0508843  61.1743541  41.7846137
  57.9747157  61.1557000  41.9566952  59.2458986  61.3061409  40.7203288
  59.4882749  60.2339408  42.1198937  59.1256729  63.6623630  42.0736077
  59.6104185  64.4683997  42.6244489  59.3307754  63.7758518  41.0091104
  58.0495813  63.7036805  42.2421857  61.4422037  60.7033293  44.3028474
  61.8003803  59.9166971  43.4091274  62.3113459  61.4061591  45.0200539
  61.9880799  62.0597419  45.7189300  63.7763007  61.2910345  44.7858341
  63.9897250  61.5489298  43.7485110  64.5842772  62.2199460  45.6973775
  64.1360336  62.1221336  46.6861190  65.6112214  61.8557875  45.7269446
  64.5771922  63.6834822  45.2800808  64.2145584  63.9753520  44.1183757
  64.9662555  64.5272903  46.1143318  64.1862249  59.8323883  45.0108635
  64.9817174  59.3099318  44.2072984  63.6588473  59.1963138  46.0468708
  63.0753409  59.6927655  46.7050162  64.0465071  57.7942881  46.3648486
  65.1330357  57.7152611  46.3286612  63.5700010  57.3501239  47.7486138
  63.9677079  57.9364811  48.5769336  62.4806462  57.3679264  47.7816175
  63.9801283  55.9405002  47.9894782  65.3258170  55.6147403  48.1301322
  65.4140404  54.2910718  48.2713843  66.3930743  53.8243825  48.3799786
  64.1939937  53.7635841  48.2498258  63.9533701  52.7879331  48.3513411
  63.2864179  54.7882365  48.0618398  62.2207227  54.5678456  48.0000118
  63.6051330  56.8527920  45.2418406  64.4453961  56.1166584  44.7192305
  62.3384321  56.8803709  44.8385119  61.6503599  57.4766487  45.2756717
  61.8778033  55.9000963  43.8283511  62.3052302  54.9116479  43.9968002
  60.3424928  55.7891647  43.7510542  60.0779508  55.0327972  43.0121184
  59.7752870  55.4018361  45.0899941  60.0390403  56.1580160  45.8294038
  58.6901946  55.3278677  45.0178563  60.1851948  54.4386703  45.3939456
  59.6727940  57.0377681  43.2182632  59.7450481  57.8151106  43.9789331
  60.2064548  57.3558342  42.3226408  58.2210667  56.7983378  42.8802366
  57.6866223  56.4806666  43.7755322  57.7788926  57.7198381  42.5015305
  58.1480290  56.0213880  42.1192410  62.5391756  56.2377386  42.4874296
  62.8197919  55.2802985  41.7507799  62.8854322  57.5009407  42.2199360
  62.6154873  58.2448414  42.8475033  63.5784321  57.8606372  40.9620224
  63.0331978  57.4317173  40.1212807  63.6639545  59.3395583  40.7708699
  64.1242808  59.7998043  41.6451538  64.2597946  59.5646377  39.8863283
  62.3547280  59.8535565  40.6012711  62.3978819  60.8045577  40.4774393
  64.9637441  57.2142758  40.9203369  65.4700287  56.9981252  39.8064357
  65.5640982  56.9731909  42.0749758  65.0719450  57.2032673  42.9264154
  66.9509595  56.4347618  42.1832478  67.5724875  56.8574298  41.3938468
  67.5593447  56.7932260  43.5220315  68.6438001  56.7148412  43.4451449
  67.2861897  57.8197999  43.7662292  67.0895293  55.9165505  44.5524934
  67.4888594  56.1639053  45.3897215  66.9667778  54.9186075  41.9832204
  68.0602572  54.3490815  41.8302375  65.8059234  54.2613591  42.0218566
  64.9323036  54.7656749  42.0723864  65.7651299  52.7945010  42.0487873
  66.6271493  52.4019576  42.5881679  64.5051039  52.3374640  42.7523614
  63.7136652  52.8643061  42.2192935  64.3899022  51.2637563  42.6041034
  64.4148886  52.6582173  44.2450193  64.5384134  53.7323946  44.3828071
  63.0748246  52.2283105  44.8058248  62.9507684  51.1540965  44.6688096
  63.0321324  52.4658103  45.8687792  62.2760348  52.7552698  44.2839539
  65.5454359  52.0141406  45.0028148  66.4968462  52.3855048  44.6220173
  65.4587194  52.2572820  46.0618066  65.5003109  50.9327242  44.8739689
  65.8339953  52.2165755  40.6325795  65.4945874  52.8898820  39.6560516
  66.1845673  50.9321924  40.5591065  66.5977679  50.5093768  41.3780031
  66.0578438  50.1141828  39.3381796  65.2501041  50.5050582  38.7194128
  67.3526550  50.1395351  38.5247996  67.1766356  49.4796587  37.6752824
  67.5242581  51.1545114  38.1663646  68.5769291  49.6594541  39.2955079
  68.4430278  48.7484068  40.1360585  69.6491141  50.2300132  39.0770002
  65.6824723  48.6915875  39.7429507  65.4759102  48.4403148  40.9468686
  65.6161306  47.7777768  38.7884693  65.8485696  48.0530503  37.8449143
  65.1564588  46.3800949  39.0236033  64.1208620  46.3732177  39.3635904
  65.2466037  45.5946091  37.7228246  64.5964784  46.0804568  36.9952338
  66.2807883  45.6575296  37.3842936  64.8544651  44.1595820  37.8605184
  63.5352883  43.7686086  37.7805986  62.7710604  44.5078196  37.5405521
  63.1761217  42.4454660  38.0029429  62.1285532  42.1497344  37.9459791
  64.1527484  41.4900373  38.1408784  63.7774615  40.1770344  38.3259760
  62.8250287  40.0576082  38.3404260  65.4828570  41.8682633  38.2484389
  66.2571216  41.1358709  38.4769474  65.8202023  43.1940010  38.0615360
  66.8673589  43.4964512  38.0708626  65.9821720  45.7264728  40.1261334
  65.4308774  44.9546216  40.8936828  67.2634252  46.0634743  40.1831005
  67.6066893  46.8078281  39.5930102  68.2336439  45.3481565  41.0499576
  67.8539618  44.3521572  41.2778302  69.5781855  45.2085622  40.3609863
  69.9446146  46.1878006  40.0528935  70.3060903  44.7409261  41.0239878
  69.5201271  44.3661771  39.1274926  69.3878886  42.9906416  39.2106728
  69.2577129  42.5190909  40.1847335  69.4204544  42.2112900  38.0598776
  69.3529369  41.1263184  38.1397448  69.5359539  42.7970478  36.8386039
  69.5397565  42.1824096  35.9384343  69.6485010  44.1707844  36.7378166
  69.7697015  44.6413718  35.7621332  69.6068901  44.9488944  37.8805096
  69.6426985  46.0354437  37.8015898  68.4243181  46.0450304  42.3833188
  69.3871717  45.6505258  43.0828507  67.6305591  47.0659646  42.7073112
  66.8554625  47.3286036  42.1154114  67.8889586  47.8720607  43.9289506
  68.7614336  47.4556347  44.4324147  68.1501712  49.3522316  43.6419369
  67.2458752  49.7908481  43.2200786  68.5266950  50.0914354  44.9014192
  69.4312292  49.6536521  45.3236317  68.7065262  51.1407397  44.6674956
  67.7148470  50.0149277  45.6247103  69.2220333  49.4886413  42.7052203
  69.3785687  50.4197136  42.5314352  66.6882002  47.7436493  44.8570210
  65.5637249  48.1298907  44.4427385  66.8829113  47.1820067  46.0446224
  67.8016177  46.8568309  46.3098368  65.7741615  47.0124215  47.0079790
  64.9410193  46.5143512  46.5120968  66.1944378  46.1791620  48.2048347
  66.4943749  45.2061563  47.8157372  67.0597573  46.6776553  48.6416718
  65.1368403  45.9929052  49.2606386  64.9207303  46.9720071  49.6881392
  64.2439149  45.6064508  48.7692738  65.5563399  45.0453349  50.3598600
  65.8591148  44.1048468  49.8995249  66.4072233  45.4850840  50.8801653
  64.4444915  44.7874452  51.3442806  64.1332195  45.7386911  51.7759535
  63.6054262  44.3382533  50.8129659  64.8862363  43.8817524  52.4192859
  65.6634521  44.2979901  52.9120144  64.1237337  43.7263841  53.0631419
  65.1743077  43.0000968  52.0195393  65.3658725  48.4142116  47.4697783
  66.2120394  49.2479138  47.8044113  64.0529807  48.7178221  47.5011586
  62.9518148  47.9180396  46.9466302  62.6625002  47.1398551  47.6529064
  63.2595350  47.4590883  46.0070713  61.8698592  48.9591919  46.7533113
  60.8851081  48.4940729  46.7983512  61.9922208  49.4572464  45.7915054
  62.0753633  49.9350128  47.8992570  61.6319126  49.5249992  48.8066375
  61.6829374  50.9367550  47.7242877  63.6080519  49.9888291  48.0436506
  64.0745703  50.7863457  47.4653547  63.9740029  50.1472118  49.5116900
  63.9529495  49.1735380  50.2463478  64.1117021  51.3970556  49.9177202
  64.2378691  52.1150640  49.2186887  64.2250862  51.7790757  51.3468593
  64.6281973  50.9432283  51.9186632  65.1564950  52.9819844  51.5161764
  66.0874299  52.8515510  50.9644096  64.6001420  53.8199280  51.0961501
  65.4692217  53.2633157  52.9787565  64.7538885  52.7203102  53.8505509
  66.4895940  53.9612709  53.2251216  62.8014197  51.9730187  51.8454141
  62.3379145  53.1354126  51.9262860  62.1283635  50.8721511  52.1979931
  62.5659178  49.9639774  52.1358148  60.7147343  50.9403289  52.6137747
  60.1415134  51.4461650  51.8368277  60.1139945  49.5596798  52.8407409
  60.6913022  49.0549294  53.6153647  59.0953293  49.7200294  53.1938828
  60.0863493  48.7073784  51.6004864  59.0828708  48.8022682  50.6593462
  58.2759779  49.5113937  50.8441822  59.0778834  48.0322238  49.5081952
  58.3234892  48.1836773  48.7361504  60.0795576  47.1093742  49.3190570
  60.1202910  46.2574837  48.2304903  59.3814892  46.3806003  47.6299790
  61.0594137  46.9737875  50.2751554  61.8075382  46.1893370  50.1609291
  61.1028421  47.8103105  51.3620967  61.9488375  47.7689869  52.0481609
  60.6179995  51.8017466  53.8785545  59.6195906  52.5302010  53.9527632
  61.5852056  51.7490785  54.7947218  62.3820401  51.1371640  54.6912095
  61.4448060  52.5142549  56.0595561  60.4389930  52.3174832  56.4306630
  62.4507925  52.2007391  57.1777793  62.3717668  51.1426590  57.4274204
  63.4545341  52.4126142  56.8093885  62.1726438  53.0590920  58.4542481
  62.7189876  52.4880085  59.2048965  62.6381934  54.0371423  58.3326617
  60.7206120  53.2607368  58.9468789  60.1403631  54.3862924  58.9919201
  60.1114339  52.1899175  59.4479258  59.1621223  52.2641234  59.7846786
  60.6009208  51.3074290  59.4893746  61.4745988  54.0093968  55.7160911
  60.6901668  54.7705429  56.3318800  62.3246986  54.4348636  54.7799878
  62.9960994  53.7964796  54.3777613  62.3505099  55.8539422  54.3398143
  62.5682045  56.5099878  55.1826147  63.4427136  56.0336847  53.2862410
  64.3636658  55.7469444  53.7939084  63.2506489  55.3427183  52.4654021
  63.5858422  57.4540336  52.7341566  62.6303364  57.7453356  52.2979768
  63.9785732  58.4578697  53.8147784  64.9342724  58.1674691  54.2511331
  64.0677428  59.4507573  53.3739567  63.2145656  58.4732748  54.5920528
  64.6032864  57.4647160  51.6271538  64.2793697  56.7970260  50.8288009
  64.7039255  58.4768230  51.2352195  65.5651940  57.1280534  52.0137946
  60.9755832  56.2422702  53.7954137  60.4628543  57.2963788  54.1170455
  60.4185557  55.4349758  52.9062286  60.8850446  54.5858401  52.6208237
  59.1351469  55.7697219  52.2761398  59.1767316  56.7602449  51.8231119
  58.8397151  54.7422847  51.1798707  58.8771255  53.7982169  51.7234107
  57.8363622  54.8918332  50.7810998  59.8319762  54.7078413  50.0439634
  60.8214130  54.4813769  50.4412412  59.4333811  53.6347140  49.0232109
  58.4441775  53.8607678  48.6251221  60.1576507  53.6203654  48.2087611
  59.4146408  52.6592813  49.5092975  59.9758700  56.0769687  49.4146989
  60.3247986  56.7871224  50.1643855  60.6962135  56.0282078  48.5981029
  59.0103640  56.4028944  49.0278276  58.0327547  55.7868681  53.3468324
  57.1518519  56.6581136  53.2980940  58.0768956  54.8562985  54.3032574
  58.7612972  54.1143158  54.2692661  57.0777462  54.8390621  55.3933090
  56.0577094  54.8480520  55.0091952  57.2567928  53.6072701  56.2691085
  58.2897123  53.5751598  56.6157299  56.3242066  53.6396509  57.4634935
  55.2910154  53.6713022  57.1176414  56.4769948  52.7461065  58.0687482
  56.5329912  54.5248657  58.0642466  57.0256794  52.4440834  55.4431101
  57.1324014  51.6498985  55.9717697  57.2084824  56.1512257  56.1969618
  56.1685491  56.7277315  56.5666774  58.4364934  56.6105592  56.4477900
  59.2348148  56.0549963  56.1755179  58.6736180  57.8401490  57.2408567
  58.1256711  57.7680255  58.1803521  60.1556015  58.0442776  57.5542183
  60.2349350  58.7190928  58.4065269  60.5859988  57.0775531  57.8155648
  60.8660131  58.5973688  56.4398955  61.7901182  58.7107419  56.6739384
  58.0504475  59.0471218  56.5626524  57.5895819  59.9568996  57.2693775
  58.0324545  59.0666426  55.2261596  58.5016976  58.3431580  54.7003456
  57.3853949  60.1739935  54.4774514  57.7927959  61.1436470  54.7636257
  57.5314657  60.0101283  52.9668964  57.2127339  59.0069605  52.6837647
  56.6835655  61.0271060  52.2493928  57.0020322  62.0305957  52.5316839
  56.7961810  60.9001596  51.1726835  55.6379152  60.8876784  52.5237593
  58.9983092  60.1266518  52.5783113  59.5713355  59.3488985  53.0831309
  59.0993214  60.0092415  51.4993716  59.3763299  61.1053897  52.8737320
  55.9042181  60.2508489  54.8690667  55.4168601  61.3420820  55.2040807
  55.2262088  59.1116901  54.9199170  55.6672876  58.2451846  54.6465729
  53.8039592  59.0761001  55.3327128  53.2509058  59.8357849  54.7803450
  53.1742472  57.7216111  55.0580324  53.7916081  56.8790946  55.3696905
  52.2320217  57.7031764  55.6057287  52.8363368  57.4951394  53.6160240
  51.6958848  58.0377605  53.0652784  51.0636692  58.6727437  53.6859229
  51.3483635  57.7900375  51.7529042  50.3873792  58.1284415  51.3654863
  52.2224845  57.1114911  50.9310226  51.9855362  56.9706712  49.8764492
  53.3865408  56.6156906  51.4405897  54.0726113  56.0595169  50.8017796
  53.6977753  56.8227785  52.7852602  54.6375341  56.4482736  53.1910920
  53.6656703  59.4037921  56.8194727  52.8345017  60.2371743  57.1666975
  54.4817125  58.7985616  57.6650832  55.2011492  58.1721454  57.3332504
  54.3506307  59.0075115  59.1299032  53.3488651  58.7204136  59.4494959
  55.3636927  58.1716822  59.8969233  56.3082187  58.4184745  59.4120901
  55.3911020  58.5034105  60.9348564  55.1480185  56.6598971  59.8513535
  54.0430813  56.2274100  59.4488938  56.0577050  55.9378014  60.2885643
  54.5652042  60.4933391  59.4641839  53.8087941  61.0701368  60.2567677
  55.6104241  61.0857814  58.9093133  56.2270177  60.5389842  58.3254258
  55.9702441  62.4954311  59.1832170  55.9953973  62.6636720  60.2598607
  57.3377374  62.8283885  58.6072636  57.3214106  62.5486451  57.5538994
  57.5402208  63.8957254  58.6961040  58.4504179  62.0666824  59.2924431
  58.3048294  61.5639267  60.4110412  59.5929445  62.0076488  58.6459565
  60.3743895  61.5130134  59.0518867  59.6843323  62.4571846  57.7461417
  54.8810341  63.4147539  58.6457776  54.5175842  64.3784425  59.3538521
  54.3700157  63.1294009  57.4503551  54.7541754  62.3530097  56.9309927
  53.3139180  63.9654428  56.7988594  53.6332285  65.0076184  56.7956977
  53.0613068  63.5365610  55.3817542  52.8163499  62.4745021  55.3705177
  52.2224557  64.1066209  54.9824291  54.2036819  63.7634084  54.5875821
  54.0271101  63.4847869  53.6860321  52.0491661  63.9056970  57.6573894
  51.3978489  64.9236811  57.8672476  51.6787953  62.7089035  58.0952897
  52.1876441  61.8976790  57.7742178  50.4757794  62.4968872  58.9352628
  49.5645868  62.9326376  58.5254471  50.2755054  60.9875857  59.1363702
  51.2547670  60.5222457  59.2486459  49.4294581  60.6929275  60.3683124
  48.4498140  61.1575882  60.2565601  49.3094155  59.6151215  60.4779691
  49.9228724  61.0949242  61.2532079  49.6865558  60.4066920  57.8479888
  48.6695893  60.7896928  57.7631924  50.2882274  60.7891942  57.0234994
  49.6613874  58.8703139  57.7939514  49.0594777  58.4870692  58.6179223
  49.2287022  58.5465719  56.8473397  50.6781163  58.4865704  57.8782316
  50.5955809  63.2919925  60.2370382  49.6290464  63.9902543  60.5866274
  51.7659434  63.2876399  60.8735824  52.5218556  62.6940235  60.5632345
  51.9567536  64.0787350  62.1137324  51.1264986  63.8982031  62.7965091
  53.2496290  63.6851066  62.8069500  53.2216183  62.6054847  62.9543653
  54.0678863  63.9381221  62.1327555  53.4652019  64.3747402  64.1475658
  53.5199795  65.4498471  63.9765528  52.6129960  64.1524766  64.7897853
  54.7421108  63.9039939  64.8206860  54.5021161  62.9957862  65.3735516
  55.4578106  63.6704651  64.0324364  55.3453543  64.9243251  65.7638655
  55.9134304  65.6432833  65.1735357  54.5332306  65.4382164  66.2781320
  56.2394314  64.2890243  66.7630772  56.9922732  63.8131484  66.2867673
  56.6214710  64.9983886  67.3721323  55.7131361  63.6230951  67.3104807
  51.9087182  65.5775587  61.8067256  51.1919672  66.3124764  62.5327794
  52.5960167  66.0432655  60.7617118  53.1662773  65.4026997  60.2282536
  52.6029333  67.4844041  60.3773894  52.9892234  68.1090134  61.1828348
  53.4444467  67.7239202  59.1287200  53.1275019  67.0116043  58.3669770
  53.2963097  69.1348239  58.5936984  53.6135254  69.8477347  59.3547713
  53.9155772  69.2537007  57.7046117  52.2531768  69.3187867  58.3365367
  54.7782581  67.4209466  59.5506740  55.3827983  67.5469539  58.8156546
  51.1790255  67.9951930  60.1453734  50.8951990  69.1442258  60.5328771
  50.3095548  67.1854394  59.5410658  50.6389438  66.2769343  59.2474320
  48.9345624  67.5940038  59.1563101  48.8764979  68.6760024  59.0379599
  48.5725812  66.9352943  57.8211099  49.0695848  65.9655901  57.8486878
  47.5082392  66.7923014  57.6344844  49.1248469  67.6688491  56.6267322
  50.4664799  67.5842125  56.3079179  51.1077497  66.9309501  56.8996282
  50.9989406  68.3100443  55.2592698  52.0665317  68.2610781  55.0449051
  50.1791096  69.0942462  54.4867341  50.5719011  69.6002252  53.6048044
  48.8544772  69.2399590  54.8308993  48.2144502  69.9004554  54.2459120
  48.3336790  68.5522156  55.9147505  47.2958002  68.7059644  56.2101633
  47.9459584  67.2946303  60.3055940  46.7486976  67.5574908  60.1751291
  48.4321696  66.7656798  61.4130650  49.4178580  66.5456802  61.4239263
  47.6390763  66.4785493  62.6210236  48.3109193  66.1326874  63.4065844
  47.1468357  67.3963422  62.9426675  46.5845216  65.4143294  62.3683549
  45.5318450  65.4326554  63.0428392  46.8564333  64.4933829  61.4505713
  47.7410190  64.5188648  60.9637879  45.8803883  63.4340638  61.0835863
  44.8428751  63.7681489  61.0908539  46.2014436  62.8687839  59.7014708
  47.2574139  62.5992324  59.6822869  45.3546970  61.6373466  59.3695609
  44.2985471  61.9062423  59.3880983  45.6184722  61.2710607  58.3774128
  45.5433200  60.8566912  60.1065142  46.0605064  63.9279597  58.6466593
  46.7475761  64.7469825  58.8593536  46.2939797  63.5027303  57.6705600
  45.0375010  64.3041897  58.6432189  45.9270757  62.3373795  62.1335924
  47.0539229  61.9411168  62.5131914  44.7646680  61.9086880  62.6262159
  43.9232539  62.4440431  62.4664770  44.6923654  60.7354916  63.5423406
  45.6455820  60.2131002  63.6234851  44.2277052  61.1690933  64.9364781
  44.1521680  60.2906071  65.5773029  45.2338784  62.1649131  65.5467719
  45.3096116  63.0439292  64.9066970  44.8927892  62.4657216  66.5373642
  46.2116742  61.6901983  65.6283830  42.8264465  61.7554815  64.9378904
  42.8769652  62.7577226  64.5123772  42.1941983  61.1266384  64.3110586
  42.2387978  61.8287447  66.3373140  42.8702968  62.4578403  66.9646477
  41.2364409  62.2542635  66.2892133  42.1875322  60.8267557  66.7633301
  43.8221033  59.6679874  62.8503002  43.0020925  60.0419856  61.9791396
  44.0484523  58.3910560  63.1796027  44.6965568  58.1899667  63.9276823
  43.4212130  57.2418279  62.4568678  43.6844742  57.2709636  61.3995392
  43.9274691  55.9312650  63.0490600  45.0072564  55.9033853  62.9028365
  43.7061961  55.9490781  64.1162156  43.3009132  54.6995512  62.4236115
  43.3832665  54.9727825  61.3716308  43.8923012  53.8037688  62.6131725
  41.8275233  54.4229550  62.7672648  41.3732719  54.6881267  63.9155385
  41.1693826  53.7799492  61.9011104  41.8873057  57.3310912  62.5497415
  41.2234567  57.0863934  61.5079678  41.3417466  57.8105983  63.6608365
  41.9715270  58.0800743  64.4030351  39.8739929  57.8730909  63.9210572
  39.3941605  56.9816790  63.5170216  39.5887362  57.9455790  65.3990775
  38.5137510  57.8372997  65.5432356  40.1052107  57.1181757  65.8856553
  40.0255788  59.1859483  65.9737031  39.8260201  59.1914328  66.9127165
  39.1743456  59.0231004  63.1776188  37.9305801  59.0875762  63.2045128
  39.9147406  59.9366615  62.5634394  40.9191268  59.9302125  62.6695820
  39.2980797  61.0321322  61.7778019  38.6531818  61.6283127  62.4233828
  40.3680366  61.9410478  61.1850806  41.1401592  61.3164542  60.7358493
  39.8798381  62.5294561  60.4082035  40.9989288  62.8709260  62.2008603
  40.4038293  63.0460719  63.2885029  42.0675863  63.3820310  61.9096219
  38.4175269  60.3883593  60.7210426  38.8137649  59.4026040  60.1037866
  37.2282621  60.9414441  60.4385615  36.5692697  62.0126727  61.2013972
  36.9971878  62.9764046  60.9253407  36.7124220  61.8445099  62.2687902
  35.1190072  61.8795250  60.7852179  34.5980412  62.8342071  60.8578526
  34.6012428  61.1365831  61.3918963  35.2337015  61.4125554  59.3258997
  35.4877062  62.2708739  58.7039111  34.3465843  60.9230803  58.9239835
  36.4046970  60.4276910  59.3566376  36.0880572  59.4154599  59.6080846
  37.1852006  60.4056542  58.0315167  37.8915131  61.3344133  57.6825021
  37.0434898  59.3164097  57.2977827  36.7244276  58.4600710  57.7278789
  37.4054958  59.2881394  55.8713408  38.3819830  59.7538474  55.7383445
  37.4697147  57.8630531  55.3396916  36.5285622  57.3693526  55.5817476
  37.6198543  57.8485925  54.2601783  38.5561880  57.0268192  55.9336088
  39.8810236  57.2397841  55.6165765  40.1399689  58.0447063  54.9287193
  40.8842051  56.4406797  56.1639978  41.9288023  56.6130627  55.9047656
  40.5485075  55.4273293  57.0381542  41.3260040  54.8301975  57.5146337
  39.2268791  55.1731170  57.3064590  38.9685929  54.3203666  57.9343167
  38.2228026  55.9858928  56.7895384  37.1820560  55.8034160  57.0572111
  36.3892363  60.1329067  55.0966469  35.2704096  60.4189880  55.5637661
  36.7727099  60.5219548  53.8834431  37.6796966  60.2512033  53.5310680
  35.9482048  61.4397863  53.0666434  35.7910946  62.3787483  53.5974597
  36.6567978  61.7345578  51.7614053  36.9513756  60.7742149  51.3382450
  35.9350446  62.2157814  51.1014082  37.8839742  62.6232765  51.9046616
  38.1232512  63.2166918  53.0044847  38.6104635  62.7308210  50.9011431
  34.5316591  60.8918502  52.8423905  33.5898178  61.6918055  52.7400498
  34.3888169  59.5881017  52.6483340  35.2154521  59.0078706  52.6380689
  33.0815413  58.9555075  52.3443189  32.5023432  59.5954199  51.6786307
  33.3001538  57.6119256  51.6597852  32.3557515  57.0712866  51.5972316
  33.7045320  57.7530025  50.6574501  34.2566842  56.7198333  52.3854814
  33.9604040  55.8503557  53.3995804  32.9214839  55.8122300  53.7271338
  35.0869645  55.1895340  53.7973304  35.1242492  54.5114969  54.5449768
  36.1596508  55.6138491  53.0506973  37.5022801  55.2467728  53.0827346
  37.7995252  54.4923285  53.8111286  38.3741672  55.8530300  52.1985270
  39.4363856  55.6085197  52.2011173  37.9013379  56.7887654  51.2891394
  38.5774469  57.2361408  50.5605576  36.5936493  57.1778403  51.2728566
  36.3049979  57.8811908  50.4917810  35.6716801  56.6074146  52.1689757
  32.2058517  58.8164737  53.5976007  31.0273749  58.4836643  53.4153801
  32.7198915  59.1054184  54.8041573  33.6710436  59.4424163  54.8470713
  31.9451967  59.0109710  56.0751056  31.1898264  58.2294530  55.9929806
  32.8729621  58.6707266  57.2318001  33.6009309  59.4783333  57.3088202
  32.2641388  58.6436496  58.1355153  33.5826060  57.3800127  57.0761304
  33.0568855  56.4997586  56.7061690  34.3313332  57.6887215  56.3466061
  34.2588322  57.0492174  58.3791387  35.4372515  57.3746062  58.5307173
  33.5146488  56.6988707  59.3058260  31.3038056  60.3513556  56.4251651
  30.4381435  60.3611091  57.2997295  31.7788205  61.4288332  55.8067730
  32.1435772  61.2712974  54.8782072  31.7986673  62.8124994  56.3455864
  30.8045827  63.2425763  56.2234030  32.1859058  62.8830991  57.8349094
  32.9004302  62.0751186  57.9921406  32.6882662  63.8418399  57.9635565
  31.0534173  62.7634846  58.8475955  30.6862566  63.7692722  59.0517652
  30.2603878  62.1742735  58.3871213  31.4851090  62.1006711  60.1615957
  32.5675167  62.2067644  60.2339616  31.0112408  62.6552938  60.9714982
  31.1128374  60.6337327  60.2681772  30.1296205  60.5647743  60.7336123
  31.0672390  60.2198264  59.2608533  32.0970164  59.8663804  61.0744743
  32.1391060  60.2494844  62.0080478  31.8128563  58.8982629  61.1203164
  33.0080703  59.9297964  60.6431296  32.8481269  63.5539285  55.5306217
  32.4827198  64.1754202  54.5178686  34.0523733  63.4247310  55.8794062
  35.4137213  43.2933451  43.2513242  35.9184807  43.4840748  41.8457260
  36.7899486  42.5255518  41.2959457  37.2831335  42.6450513  39.9878684
  38.2176895  41.6290934  39.4585361  37.6914717  40.3429793  39.4868604
  38.4563435  39.3032767  39.0227313  37.8951838  38.0269553  39.0828858
  38.6196774  36.9243014  38.6255923  39.9041193  37.0977486  38.1065681
  40.4619868  38.3726128  38.0466096  41.7229946  38.4710936  37.5256155
  39.7363217  39.4754566  38.5060458  40.2862510  40.8313614  38.4611676
  41.4060319  41.0664006  38.0118656  39.4392471  41.9301787  38.9801580
  39.9614232  43.2095261  38.9203556  36.9001292  43.7572612  39.2309610
  36.0337475  44.7161257  39.7615576  35.5290864  44.5954621  41.0671971
  34.5904509  45.6542153  41.6063743  34.3968829  46.6832699  40.7345320
  35.0271025  46.2313044  42.7623555  33.3511853  45.1629884  41.8889092
  34.5094752  42.6678628  43.2342370  36.1894560  42.8009857  43.8558197
  35.1741934  44.2724045  43.6907092  37.0921468  41.6620023  41.9063698
  36.8826503  37.8892319  39.4907315  38.1778272  35.9183499  38.6742870
  40.4742850  36.2297126  37.7452503  41.9708318  37.9397551  36.7939584
  40.8719870  43.3350423  38.7448525  37.2847972  43.8781834  38.2078415
  35.7418623  45.5805112  39.1468977  16.8701377   9.8673854  62.7490382
  33.4384089  38.7122829  90.0395925  32.1173161  77.4175206  81.4596172
  50.1674370  29.9354833  -1.3909595  41.7622463  39.6562823  77.4167402
  58.6878387  37.8865573  75.3679303  17.4366835  22.8235384  58.9303108
  51.3602729  22.7097970  27.4147472  17.1673317  51.7757862  59.0277669
  62.1772854  59.5331268  74.5686266  27.9935553  46.8629792  34.7185772
  51.1240951  34.3026433  90.1553114  50.4728931  34.8880513  89.7687128
  51.9185314  34.8332628  90.2148152  45.0496578  31.3915570  90.5540248
  45.8227454  30.8444557  90.4153124  45.4021977  32.2559819  90.7654710
  47.3862856  27.5508236  88.1858698  47.6388377  27.0289757  87.4242161
  46.4487415  27.3874381  88.2885382  52.6016216  31.9916865  90.6922098
  51.9662049  32.0651491  91.4043003  52.2713623  32.5810463  90.0141178
  46.8292286  39.1697688  93.7227909  46.7516315  40.1205513  93.8016390
  46.2253929  38.8243560  94.3802835  54.7670460  26.8715519  90.9018112
  55.6788316  27.1042906  90.7265810  54.2580107  27.4552564  90.3393191
  57.2529274  32.7895776  95.6476057  56.5680312  33.1694677  95.0973091
  57.3373123  33.3991102  96.3808005  49.1030654  34.5279841  92.4433449
  48.9676329  35.3731377  92.8718297  49.6440467  34.7299119  91.6799383
  52.4173401  28.0419014  89.4804777  51.9020024  28.8123618  89.7193165
  52.1450709  27.3684150  90.1037839  57.3907675  30.7951369  91.4157951
  56.6137118  30.4562528  90.9713113  58.0699156  30.8003992  90.7412916
  50.6506136  32.0736329  92.9557513  50.1227497  31.3389089  92.6430750
  50.1493639  32.8511006  92.7097481  48.7958736  29.8916540  85.9592486
  47.8885798  29.6605793  86.1583635  49.2929768  29.0954159  86.1466467
  51.7026815  38.6014047  88.8789172  51.0288514  38.9045743  89.4874130
  52.0892637  39.4043127  88.5294629  49.9746969  29.9929134  90.4816476
  49.0658189  29.7088167  90.5788946  50.0042053  30.4128213  89.6219783
  55.2066237  33.6035724  94.2507643  54.7528564  32.7626634  94.3072834
  54.5760204  34.2397122  94.5882423  53.6499176  35.4412221  95.1857461
  53.9422150  36.0017278  94.4669827  54.1597797  35.7340782  95.9410621
  49.6723057  31.5337878  87.8204554  49.2342487  30.8173737  87.3610192
  50.4133498  31.7613993  87.2589646  57.7896172  29.8095075  93.8780873
  57.6514071  29.9996671  92.9502062  57.4332391  30.5714458  94.3348924
  49.9018030  38.7693719  91.0936251  50.0769786  38.2981762  91.9081874
  49.2150818  39.3959485  91.3217512  53.7934285  30.3922260  87.4136612
  53.1763455  29.6669088  87.3169665  53.3250773  31.1531620  87.0703686
  45.5832831  24.6107684  86.5357916  44.7062297  24.4896485  86.1720163
  46.0590584  23.8193762  86.2836805  48.7696757  36.9633974  93.7820437
  47.9864279  37.5055655  93.8758661  49.4689502  37.4807954  94.1814678
  53.1623188  31.5300291  93.9993066  52.2279466  31.6501754  93.8297770
  53.3399856  30.6272758  93.7353075  54.6171970  33.7161432  91.5329252
  54.8931814  33.6018026  92.4423126  53.7476469  33.3178916  91.4941425
  51.2526034  37.9647782  95.1762065  51.4348429  37.1469438  95.6389818
  52.0759020  38.1815475  94.7386955  51.5868200  36.8915968  92.4377114
  52.1155966  36.3808422  91.8247276  51.8496419  36.5758498  93.3022647
  54.6808383  36.8632766  93.0532097  54.8545261  36.2979188  92.3005949
  55.1737274  37.6633661  92.8711587  55.6683556  36.1799530  90.1528995
  56.3634460  36.8006223  90.3716310  56.0106706  35.3294881  90.4281373
  57.5674979  33.6299236  91.6816326  58.0926303  33.9686509  90.9565646
  57.4797331  32.6946251  91.4979460  49.2515639  39.6971219  96.0411579
  48.8120630  39.2047598  96.7344436  50.0023756  39.1544187  95.8003654
  46.2603018  33.7913151  91.5892341  46.4091139  34.4748616  90.9359014
  47.0669462  33.7718242  92.1041797  49.7598424  36.2861282  89.0604089
  49.1872391  36.9051469  88.6074560  50.3331218  36.8360644  89.5944011
  52.9795684  36.5698432  90.1912671  53.9126357  36.5043994  90.3945546
  52.8918897  37.4054699  89.7327204  55.6083700  35.8864302  87.1516618
  55.5297332  35.5524166  88.0452376  56.4293367  36.3786070  87.1508091
  50.1445223  27.6222095  86.4020141  51.0904327  27.4928303  86.4708559
  49.7659467  26.8836757  86.8789569  48.3288140  25.5472071  86.3375026
  47.4219595  25.2505184  86.4137740  48.6064121  25.2501889  85.4709313
  47.0986924  22.4059006  86.4787006  47.9606088  22.7313905  86.7382823
  47.2837268  21.6190502  85.9660071  53.1787652  33.2032298  86.7726597
  53.8823502  33.4082300  87.3884252  52.4550301  33.7709060  87.0375680
  54.0085463  28.9542159  92.8928867  53.9520664  29.4110710  92.0536499
  54.5613805  28.1932844  92.7151710  55.0874350  33.6414827  88.8225057
  55.9219954  33.2096025  88.6402532  54.9258693  33.4696841  89.7501951
  54.7420242  30.1446940  90.1881396  54.6869046  29.9791212  89.2469840
  54.1166297  30.8522973  90.3443586  55.8890333  46.7207487  90.5540248
  56.6621209  46.1736475  90.4153124  56.2415731  47.5851737  90.7654710
  58.2256610  42.8800154  88.1858698  58.4782131  42.3581675  87.4242161
  57.2881170  42.7166299  88.2885382  57.9452899  44.7828260  90.3883073
  57.8289157  44.1073163  91.0564158  58.0555159  44.2960633  89.5715226
  59.9289927  39.2728306  89.0891111  60.0964329  40.1408543  89.4561582
  59.7387096  39.4355588  88.1652400  59.9079148  41.7285964  90.0737778
  59.7878773  42.1743015  90.9123258  59.2131736  42.0771282  89.5151316
  54.3970724  41.6658948  94.6271954  53.6001887  41.7777642  95.1455450
  54.1696316  42.0045600  93.7612844  51.3602723  45.7035851  93.7920945
  52.1977945  46.1132859  93.5754652  51.5380991  44.7635293  93.7621138
  63.2567155  43.3710932  89.4804777  62.7413779  44.1415536  89.7193165
  62.9844464  42.6976068  90.1037839  60.8414266  38.2160632  94.5390016
  59.9855863  37.8267483  94.3595655  61.2541218  38.2952593  93.6789801
  63.0453458  41.2438024  91.3064559  62.7403594  41.5584173  92.1574702
  63.9983901  41.3219444  91.3491892  56.2218618  38.0647913  95.3164124
  56.7962370  37.8423095  94.5837317  56.8089600  38.1336608  96.0692725
  56.5488205  40.0952374  89.3360009  55.7125517  40.4327061  89.6569284
  56.4092975  39.9601354  88.3987146  58.5241286  34.9389162  94.0439194
  57.8705698  34.6238179  93.4195808  58.4821760  34.3164903  94.7699017
  59.6352490  45.2208457  85.9592486  58.7279552  44.9897711  86.1583635
  60.1323522  44.4246076  86.1466467  60.8140724  45.3221052  90.4816476
  59.9051943  45.0380085  90.5788946  60.8435808  45.7420131  89.6219783
  51.3828894  43.0426566  94.4631678  51.1853294  42.4495927  93.7382745
  50.8275558  42.7378776  95.1807617  60.5116812  46.8629796  87.8204554
  60.0736242  46.1465655  87.3610192  61.2527253  47.0905911  87.2589646
  53.8775120  42.5690600  92.1472630  52.9472708  42.5075056  92.3642592
  53.9732592  42.0466553  91.3509271  53.7960669  39.0945413  94.7350872
  54.0567486  40.0090746  94.6260032  54.6177841  38.6269856  94.8847485
  64.6328039  45.7214177  87.4136612  64.0157210  44.9961006  87.3169665
  64.1644528  46.4823538  87.0703686  56.4226585  39.9399602  86.5357916
  55.5456052  39.8188402  86.1720163  56.8984338  39.1485680  86.2836805
  51.1505279  41.5341457  91.9770822  51.4458720  40.6252135  91.9237876
  50.2493315  41.5129196  91.6551824  52.8793121  39.2155555  92.1010147
  52.5505827  38.3352934  91.9185253  53.2332491  39.1603223  92.9886536
  55.9934944  39.5028524  92.4685625  56.3331016  40.0314446  91.7464233
  56.4407064  39.8408931  93.2444191  57.9803091  38.0003146  90.6678917
  58.7011453  38.3784399  90.1642634  57.3568395  38.7192023  90.7713895
  62.1234214  38.7048295  91.6037250  62.3397828  39.5872933  91.3026078
  61.6428281  38.3134508  90.8742892  58.1266714  37.5350936  93.4976454
  58.2482625  36.6067583  93.6967342  57.8368756  37.5489622  92.5854770
  54.8549406  45.1470247  92.5953410  54.6095448  44.2432577  92.7933620
  55.0245321  45.1487397  91.6532888  54.1245053  40.8798604  90.0939572
  53.4314298  40.9542959  89.4379608  53.8796805  40.1158948  90.6161089
  60.9838977  42.9514012  86.4020141  61.9298082  42.8220220  86.4708559
  60.6053222  42.2128674  86.8789569  59.1681894  40.8763989  86.3375026
  58.2613350  40.5797101  86.4137740  59.4457875  40.5793807  85.4709313
  60.7843960  35.4200878  92.4919268  59.9744688  35.0747963  92.8674514
  61.4728377  35.1108422  93.0806879  62.7134508  34.4978925  94.1143564
  63.2665547  34.9174379  94.7733587  62.9504595  33.5714673  94.1566520
  57.9380679  37.7350924  86.4787006  58.7999843  38.0605822  86.7382823
  58.1231023  36.9482420  85.9660071  66.0913315  36.6079450  93.6222229
  65.5111984  37.2664254  93.2400281  65.8249248  35.7856795  93.2109646
  64.8738193  38.7679541  92.6778577  63.9864048  39.0529191  92.4598772
  65.2892182  38.6073304  91.8305854  64.0181407  48.5324215  86.7726597
  64.7217257  48.7374218  87.3884252  63.2944056  49.1000977  87.0375680
  58.8910122  34.9746967  89.7666715  58.8788792  35.9188807  89.9234985
  59.7833544  34.7917112  89.4726176  51.1240952  11.3088555  76.8798421
  50.4728932  11.8942636  76.4932435  51.9185315  11.8394750  76.9393458
  45.0496579   8.3977692  77.2785555  45.8227455   7.8506679  77.1398431
  45.4021978   9.2621942  77.4900017  47.3862857   4.5570358  74.9104005
  47.6388378   4.0351880  74.1487468  46.4487416   4.3936504  75.0130689
  52.6016217   8.9978987  77.4167405  51.9662050   9.0713614  78.1288310
  52.2713624   9.5872586  76.7386484  46.8292287  16.1759811  80.4473216
  46.7516317  17.1267636  80.5261696  46.2253930  15.8305683  81.1048142
  54.7670461   3.8777642  77.6263419  55.6788317   4.1105029  77.4511116
  54.2580108   4.4614686  77.0638497  57.2529275   9.7957898  82.3721364
  56.5680313  10.1756800  81.8218397  57.3373124  10.4053225  83.1053312
  49.1030656  11.5341963  79.1678756  48.9676331  12.3793499  79.5963603
  49.6440468  11.7361241  78.4044689  52.4173402   5.0481136  76.2050084
  51.9020025   5.8185741  76.4438472  52.1450710   4.3746273  76.8283146
  57.3907676   7.8013491  78.1403258  56.6137119   7.4624651  77.6958420
  58.0699157   7.8066114  77.4658223  50.6506137   9.0798452  79.6802819
  50.1227499   8.3451211  79.3676057  50.1493640   9.8573128  79.4342788
  48.7958737   6.8978662  72.6837792  47.8885799   6.6667916  72.8828941
  49.2929769   6.1016281  72.8711774  51.7026816  15.6076169  75.6034478
  51.0288515  15.9107866  76.2119436  52.0892638  16.4105250  75.2539936
  49.9746971   6.9991257  77.2061782  49.0658190   6.7150290  77.3034252
  50.0042054   7.4190336  76.3465089  55.2066238  10.6097846  80.9752950
  54.7528565   9.7688756  81.0318140  54.5760205  11.2459245  81.3127730
  53.6499177  12.4474343  81.9102768  53.9422152  13.0079400  81.1915134
  54.1597798  12.7402904  82.6655927  49.6723058   8.5400001  74.5449861
  49.2342488   7.8235860  74.0855498  50.4133499   8.7676115  73.9834952
  57.7896173   6.8157198  80.6026180  57.6514072   7.0058794  79.6747369
  57.4332392   7.5776581  81.0594231  49.9018031  15.7755842  77.8181558
  50.0769787  15.3043885  78.6327180  49.2150819  16.4021608  78.0462818
  53.7934286   7.3984382  74.1381919  53.1763457   6.6731210  74.0414971
  53.3250775   8.1593743  73.7948993  45.5832832   1.6169807  73.2603223
  44.7062298   1.4958607  72.8965470  46.0590585   0.8255885  73.0082111
  48.7696758  13.9696097  80.5065743  47.9864280  14.5117777  80.6003968
  49.4689503  14.4870077  80.9059985  53.1623189   8.5362414  80.7238372
  52.2279468   8.6563876  80.5543076  53.3399857   7.6334880  80.4598382
  54.6171971  10.7223554  78.2574558  54.8931815  10.6080149  79.1668432
  53.7476470  10.3241039  78.2186731  51.2526035  14.9709905  81.9007372
  51.4348430  14.1531561  82.3635124  52.0759021  15.1877597  81.4632262
  51.5868201  13.8978090  79.1622420  52.1155967  13.3870545  78.5492583
  51.8496420  13.5820620  80.0267953  54.6808384  13.8694888  79.7777403
  54.8545262  13.3041311  79.0251256  55.1737276  14.6695783  79.5956893
  55.6683557  13.1861653  76.8774302  56.3634461  13.8068345  77.0961616
  56.0106707  12.3357004  77.1526680  57.5674980  10.6361358  78.4061632
  58.0926304  10.9748631  77.6810952  57.4797332   9.7008374  78.2224767
  49.2515641  16.7033342  82.7656886  48.8120631  16.2109720  83.4589742
  50.0023758  16.1606309  82.5248961  46.2603020  10.7975274  78.3137648
  46.4091140  11.4810738  77.6604321  47.0669463  10.7780364  78.8287104
  49.7598425  13.2923404  75.7849395  49.1872392  13.9113592  75.3319867
  50.3331219  13.8422766  76.3189317  52.9795685  13.5760555  76.9157978
  53.9126358  13.5106116  77.1190853  52.8918898  14.4116821  76.4572510
  55.6083702  12.8926425  73.8761925  55.5297333  12.5586289  74.7697683
  56.4293369  13.3848193  73.8753397  50.1445224   4.6284217  73.1265448
  51.0904328   4.4990425  73.1953866  49.7659469   3.8898879  73.6034876
  48.3288141   2.5534194  73.0620333  47.4219596   2.2567306  73.1383047
  48.6064122   2.2564012  72.1954619  47.0986926  -0.5878871  73.2032312
  47.9606090  -0.2623973  73.4628130  47.2837270  -1.3747375  72.6905378
  53.1787654  10.2094420  73.4971903  53.8823504  10.4144423  74.1129559
  52.4550302  10.7771182  73.7620987  54.0085464   5.9604282  79.6174174
  53.9520665   6.4172833  78.7781806  54.5613806   5.1994966  79.4397016
  55.0874351  10.6476950  75.5470363  55.9219955  10.2158148  75.3647838
  54.9258694  10.4758963  76.4747258  54.7420243   7.1509063  76.9126703
  54.6869047   6.9853334  75.9715147  54.1166298   7.8585096  77.0688892
  63.7158626  21.1646601  85.6425540  64.3537036  21.0453348  84.9388880
  63.5979469  22.1127445  85.7013492  60.5248332  21.1174029  85.5787065
  60.1866844  21.0015093  84.6907600  61.3938100  20.7165194  85.5588071
  56.3835148  22.9709505  81.5683956  55.8200013  22.8799442  80.8000244
  56.2687543  22.1509410  82.0486448  53.9299580  24.4660697  84.4068176
  54.7220872  24.1251521  83.9914476  54.1696230  24.5755672  85.3270330
  61.9634707  26.6380473  76.8798421  61.3122686  27.2234553  76.4932435
  62.7579070  27.1686668  76.9393458  55.8890334  23.7269610  77.2785555
  56.6621210  23.1798597  77.1398431  56.2415733  24.5913859  77.4900017
  57.7275376  25.0545992  90.4852454  57.4365242  25.9591623  90.3699121
  58.3632361  25.0962520  91.1996524  58.6531583  22.4322841  87.0753814
  59.2495156  22.2078863  86.3610777  58.7106555  21.6907586  87.6779262
  58.2256612  19.8862276  74.9104005  58.4782132  19.3643797  74.1487468
  57.2881171  19.7228422  75.0130689  63.2699894  18.8898055  82.7178748
  64.0562984  18.4717478  82.3669165  63.5338599  19.7944147  82.8860397
  63.4409972  24.3270905  77.4167405  62.8055805  24.4005531  78.1288310
  63.1107378  24.9164504  76.7386484  57.9452900  21.7890382  77.1128380
  57.8289159  21.1135286  77.7809464  58.0555160  21.3022756  76.2960533
  60.2884441  21.2500529  80.8175069  59.9242649  20.7231150  81.5287991
  61.1451557  20.8598998  80.6441555  59.9289928  16.2790429  75.8136418
  60.0964331  17.1470665  76.1806889  59.7387097  16.4417711  74.8897707
  62.6865262  24.7407408  87.4802248  62.3865985  25.6432447  87.3718055
  62.3416321  24.4739591  88.3323401  56.1377743  21.1921205  83.5138953
  55.2128239  21.0597419  83.7216644  56.3862156  21.9715424  84.0108895
  59.9079149  18.7348086  76.7983085  59.7878774  19.1805137  77.6368565
  59.2131738  19.0833404  76.2396623  53.4986554  20.8354478  84.3482742
  53.6278935  21.0888957  85.2622153  52.8184005  21.4282186  84.0287397
  57.6686041  31.5051728  80.4473216  57.5910071  32.4559553  80.5261696
  57.0647685  31.1597601  81.1048142  65.6064215  19.2069560  77.6263419
  66.5182071  19.4396946  77.4511116  65.0973862  19.7906604  77.0638497
  64.2133798  24.1895378  85.0177000  63.5842660  24.3541092  84.3153068
  63.8259460  24.6036988  85.7887964  68.0923030  25.1249816  82.3721364
  67.4074068  25.5048717  81.8218397  68.1766879  25.7345143  83.1053312
  59.7661760  23.9269786  82.2827085  60.2300105  24.2057489  81.4931708
  59.5018558  23.0253231  82.1000176  56.6585841  23.4741268  85.2206848
  57.2287198  23.9028536  84.5824333  57.2493952  23.1923852  85.9191034
  58.7030646  20.0492939  79.0916650  59.4054689  20.5013982  79.5590577
  58.3711274  19.4076757  79.7196543  52.4455980  18.3076491  84.3933784
  51.6555034  18.5634020  83.9173895  52.9367227  19.1224829  84.4985824
  54.3970725  18.6721070  81.3517261  53.6001888  18.7839765  81.8700756
  54.1696317  19.0107723  80.4858151  60.2276393  25.1965774  89.2999775
  60.2920825  25.6586181  90.1357947  59.5187316  24.5663139  89.4282085
  59.9424410  26.8633881  79.1678756  59.8070085  27.7085417  79.5963603
  60.4834223  27.0653159  78.4044689  53.3953808  24.3809319  79.7406681
  53.9078328  25.1752569  79.8912245  54.0476520  23.6835610  79.6740282
  55.2048692  27.4975075  81.8229434  55.3815321  28.4193040  81.6350418
  56.0005526  27.1833495  82.2523814  56.3280008  29.0153249  87.8239776
  56.8787433  28.8870313  87.0516770  55.4891484  29.3148138  87.4734669
  51.3602724  22.7097973  80.5166251  52.1977946  23.1194982  80.2999959
  51.5380992  21.7697416  80.4866445  63.2567157  20.3773054  76.2050084
  62.7413780  21.1477659  76.4438472  62.9844465  19.7038190  76.8283146
  60.8414268  15.2222755  81.2635323  59.9855864  14.8329605  81.0840961
  61.2541219  15.3014716  80.4035108  58.6156300  12.8407828  84.6693064
  59.4809297  12.6450637  84.3098953  58.6833809  12.6118180  85.5962421
  68.2301431  23.1305409  78.1403258  67.4530873  22.7916568  77.6958420
  68.9092912  23.1358032  77.4658223  63.0453460  18.2500146  78.0309865
  62.7403595  18.5646295  78.8820008  63.9983902  18.3281566  78.0737198
  61.4899892  24.4090370  79.6802819  60.9621253  23.6743129  79.3676057
  60.9887394  25.1865046  79.4342788  66.4692738  22.6039390  84.7969866
  65.8116412  23.2938651  84.8849994  67.2733137  22.9935822  85.1403852
  56.2218619  15.0710036  82.0409431  56.7962371  14.8485217  81.3082624
  56.8089602  15.1398730  82.7938032  65.2798196  20.9583763  82.8473807
  65.7930078  21.5913755  83.3495517  65.9299420  20.3584958  82.4817167
  56.5488206  17.1014497  76.0605316  55.7125519  17.4389183  76.3814591
  56.4092976  16.9663477  75.1232453  58.5241287  11.9451285  80.7684500
  57.8705699  11.6300302  80.1441115  58.4821761  11.3227025  81.4944323
  59.6352492  22.2270580  72.6837792  58.7279553  21.9959833  72.8828941
  60.1323524  21.4308199  72.8711774  62.5420571  30.9368087  75.6034478
  61.8682269  31.2399784  76.2119436  62.9286393  31.7397167  75.2539936
  61.7579027  18.4333218  85.0932148  60.8401589  18.6548165  84.9353836
  62.1739171  18.5079529  84.2343855  62.5414075  19.8324634  80.2234828
  63.2885894  20.3446031  79.9141950  62.8105665  19.5108687  81.0839222
  60.8140725  22.3283175  77.2061782  59.9051944  22.0442207  77.3034252
  60.8435809  22.7482253  76.3465089  66.0459993  25.9389764  80.9752950
  65.5922320  25.0980674  81.0318140  65.4153959  26.5751163  81.3127730
  64.9892912  16.8681750  82.2053617  64.2515669  16.3559136  82.5363860
  65.2419686  16.4282132  81.3936894  64.4892932  27.7766261  81.9102768
  64.7815906  28.3371318  81.1915134  64.9991552  28.0694822  82.6655927
  51.3828896  20.0488689  81.1876985  51.1853295  19.4558050  80.4628051
  50.8275560  19.7440899  81.9052923  59.3625619  19.9411795  83.3071578
  59.4174229  18.9885632  83.2314054  58.5516821  20.0971234  83.7912876
  60.5116813  23.8691918  74.5449861  60.0736243  23.1527777  74.0855498
  61.2527254  24.0968033  73.9834952  57.3017979  18.5588855  81.0661957
  56.4885845  18.8583026  81.4727149  57.7976973  18.1644544  81.7836439
  59.4526557  28.5546612  82.9996221  59.4102736  28.7807458  82.0704753
  60.3689256  28.3209987  83.1482022  68.6289928  22.1449115  80.6026180
  68.4907826  22.3350711  79.6747369  68.2726147  22.9068498  81.0594231
  56.7932054  16.1307211  86.6823192  57.4331433  15.9895970  85.9846155
  55.9609584  15.8441724  86.3061794  57.5692358  25.4309641  82.7958184
  58.3632956  24.9359961  82.5940759  56.8584050  24.9027504  82.4325890
  62.3887202  27.8127736  87.1470552  62.4424225  28.3818673  87.9148268
  61.5201984  27.9829622  86.7824589  53.8775121  19.5752723  78.8717937
  52.9472709  19.5137178  79.0887899  53.9732593  19.0528675  78.0754578
  53.7960670  16.1007536  81.4596178  54.0567488  17.0152869  81.3505339
  54.6177843  15.6331978  81.6092791  61.3475302  21.9787999  88.7057484
  62.2767362  22.1299158  88.5326451  60.9266332  22.0672019  87.8506130
  60.1463634  26.0038663  86.4756021  60.0074719  25.6357447  87.3481959
  59.3578230  26.5186302  86.3039979  60.7411786  31.1047759  77.8181558
  60.9163541  30.6335803  78.6327180  60.0544574  31.7313526  78.0462818
  61.6968849  25.3820266  83.8644859  61.3618682  25.3421036  84.7602509
  61.1972795  24.7164982  83.3915269  64.6328041  22.7276300  74.1381919
  64.0157211  22.0023128  74.0414971  64.1644529  23.4885660  73.7948993
  58.2995394  20.5007855  88.8781120  59.0095012  19.8601047  88.8367738
  58.2564702  20.7520750  89.8007300  55.3072871  34.2537122  84.5921418
  55.5469469  34.8855646  85.2700436  54.4642067  33.9025162  84.8786777
  56.4226586  16.9461724  73.2603223  55.5456053  16.8250525  72.8965470
  56.8984340  16.1547803  73.0082111  47.9428727  21.7338884  83.3544730
  48.6299766  21.4200614  82.7665745  47.7876855  22.6380249  83.0811981
  59.8200733  30.0616245  86.9962922  59.7470904  30.8671216  87.5082226
  59.3778126  30.2608210  86.1710943  59.6090513  29.2988015  80.5065743
  58.8258034  29.8409695  80.6003968  60.3083258  29.8161994  80.9059985
  62.9187163  15.1082644  83.1499949  63.4155862  14.3552606  82.8301019
  62.1474144  15.1446961  82.5843158  62.2799416  29.9603079  89.1521080
  62.9927389  30.5950543  89.0796982  61.7889445  30.0566945  88.3361082
  64.0016943  23.8654331  80.7238372  63.0673222  23.9855794  80.5543076
  64.1793612  22.9626798  80.4598382  59.5022131  17.2500027  82.8771633
  59.1319919  16.6971067  83.5652539  59.9981224  16.6458161  82.3246633
  67.3889495  19.7071651  81.2588406  67.8549947  20.5399642  81.1848709
  67.8396995  19.2416632  81.9633665  57.3311330  27.7097522  89.9726651
  58.0320789  28.3434005  90.1256046  56.8606445  28.0512254  89.2122291
  65.4565726  26.0515472  78.2574558  65.7325570  25.9372066  79.1668432
  64.5870225  25.6532957  78.2186731  62.0919790  30.3001823  81.9007372
  62.2742184  29.4823479  82.3635124  62.9152776  30.5169515  81.4632262
  62.4261955  29.2270008  79.1622420  62.9549722  28.7162462  78.5492583
  62.6890175  28.9112538  80.0267953  52.9279048  27.2433877  86.9057754
  53.5132485  26.4977565  87.0385658  52.7303886  27.5537834  87.7894418
  55.7817703  30.2785125  81.9220196  55.1128078  30.7631252  81.4384236
  55.6430573  30.5254345  82.8363575  59.9222972  32.3128868  88.5202855
  60.4741280  32.4760490  89.2851940  60.2629165  32.9033306  87.8482880
  51.1505280  18.5403580  78.7016129  51.4458721  17.6314258  78.6483182
  50.2493316  18.5191319  78.3797131  63.0591359  30.2610844  85.5066537
  62.9342499  29.4600583  84.9977482  63.7170450  30.7557037  85.0180507
  54.6799527  16.6159576  84.6843677  53.9586113  17.2295544  84.5451150
  55.4692783  17.1517341  84.6060323  65.1226267  28.0619864  87.1346087
  64.1756603  27.9425215  87.0624414  65.4709041  27.1742362  87.2172348
  52.8793122  16.2217677  78.8255454  52.5505828  15.3415056  78.6430560
  53.2332493  16.1665346  79.7131843  62.1272701  27.8572580  83.3350439
  61.9797663  26.9289287  83.5158009  62.9526194  27.8792671  82.8507514
  55.9934945  16.5090647  79.1930931  56.3331018  17.0376568  78.4709540
  56.4407066  16.8471053  79.9689498  65.7306823  28.6801139  84.4215312
  66.6553370  28.4744000  84.2839763  65.5622126  28.4317540  85.3304653
  57.9803092  15.0065269  77.3924224  58.7011455  15.3846521  76.8887941
  57.3568396  15.7254145  77.4959202  62.1234215  15.7110418  78.3282556
  62.3397829  16.5935055  78.0271385  61.6428282  15.3196631  77.5988198
  56.8633436  18.6696131  84.9053301  56.7178017  18.9836434  85.7977583
  56.3858640  19.2881031  84.3524200  58.7229819  15.6598679  84.9534191
  58.7091388  14.7639772  84.6166489  59.4402247  15.6669343  85.5872477
  65.5202139  29.1986806  79.7777403  65.6939016  28.6333229  79.0251256
  66.0131030  29.9987701  79.5956893  58.1266715  14.5413059  80.2221761
  58.2482626  13.6129705  80.4212648  57.8368758  14.5551745  79.3100076
  66.5077311  28.5153570  76.8774302  67.2028216  29.1360263  77.0961616
  66.8500461  27.6648922  77.1526680  68.4068734  25.9653276  78.4061632
  68.9320059  26.3040549  77.6810952  68.3191087  25.0300291  78.2224767
  60.0688783  29.8787350  90.5351509  60.3775910  29.6336496  91.4074209
  60.8664265  30.0833988  90.0470379  60.0909395  32.0325259  82.7656886
  59.6514385  31.5401638  83.4589742  60.8417512  31.4898227  82.5248961
  52.5701734  28.2236800  82.7681514  53.3959754  27.9240572  82.3880157
  52.2195786  27.4544423  83.2171302  57.5383267  27.5763268  84.8379187
  56.9163277  26.9133973  84.5381415  58.2088134  27.6024400  84.1552835
  50.7710339  26.1423127  83.7270447  49.9342248  25.7145301  83.5454449
  50.7433985  26.3355570  84.6641238  57.0996774  26.1267192  78.3137648
  57.2484895  26.8102656  77.6604321  57.9063218  26.1072282  78.8287104
  54.8549407  22.1532369  79.3198717  54.6095449  21.2494699  79.5178927
  55.0245322  22.1549520  78.3778195  54.1245055  17.8860727  76.8184878
  53.4314300  17.9605082  76.1624914  53.8796807  17.1221071  77.3406395
  60.5992180  28.6215322  75.7849395  60.0266147  29.2405509  75.3319867
  61.1724973  29.1714684  76.3189317  63.8189440  28.9052472  76.9157978
  64.7520113  28.8398034  77.1190853  63.7312652  29.7408739  76.4572510
  66.4477456  28.2218343  73.8761925  66.3691088  27.8878206  74.7697683
  67.2687123  28.7140111  73.8753397  60.9838978  19.9576135  73.1265448
  61.9298083  19.8282343  73.1953866  60.6053223  19.2190797  73.6034876
  59.1681895  17.8826111  73.0620333  58.2613351  17.5859224  73.1383047
  59.4457876  17.5855929  72.1954619  50.0859836  19.2032475  83.5119379
  49.7662620  18.3497783  83.2193753  49.5393264  19.4181053  84.2677347
  53.8639743  21.9194916  87.2288886  54.0825753  22.8512024  87.2476920
  54.2765517  21.5602890  88.0143690  60.7843961  12.4263001  79.2164574
  59.9744689  12.0810086  79.5919820  61.4728378  12.1170545  79.8052186
  62.7134509  11.5041048  80.8388871  63.2665548  11.9236501  81.4978894
  62.9504596  10.5776796  80.8811827  57.9380680  14.7413047  73.2032312
  58.7999844  15.0667945  73.4628130  58.1231024  13.9544542  72.6905378
  49.9548096  22.8235386  85.4812501  49.2611567  22.4089339  84.9682455
  50.7021087  22.8655923  84.8845920  66.0913317  13.6141573  80.3467535
  65.5111986  14.2726377  79.9645588  65.8249249  12.7918918  79.9354953
  51.8684838  22.7553640  83.3578516  51.8455526  22.8541327  82.4060399
  52.1785475  23.6018791  83.6795682  54.5272216  24.8129795  87.4725130
  55.4815470  24.7813737  87.4055062  54.3284740  24.3520419  88.2875356
  55.1171598  23.3830911  90.0395928  55.9364487  23.8774990  90.0630765
  55.3908406  22.4662879  90.0113495  64.8738195  15.7741663  79.4023883
  63.9864050  16.0591314  79.1844078  65.2892184  15.6135427  78.5551160
  52.8822445  30.3549415  84.4895328  52.7476913  29.5949815  83.9233326
  52.4654507  31.0790314  84.0224117  64.0181408  25.5386338  73.4971903
  64.7217258  25.7436341  74.1129559  63.2944057  26.1063100  73.7620987
  64.8479218  21.2896199  79.6174174  64.7914420  21.7464751  78.7781806
  65.4007561  20.5286884  79.4397016  56.0391571  31.2518732  84.7013771
  55.9223955  32.1964164  84.5992461  55.2184017  30.9492293  85.0899570
  65.9268105  25.9768867  75.5470363  66.7613709  25.5450066  75.3647838
  65.7652448  25.8050881  76.4747258  65.5813998  22.4800981  76.9126703
  65.5262801  22.3145252  75.9715147  64.9560053  23.1877013  77.0688892
  58.8910123  11.9809090  76.4912021  58.8788793  12.9250929  76.6480292
  59.7833545  11.7979235  76.1971482  57.0646085  31.9046993  87.9169699
  57.9673332  31.9370604  88.2336194  56.8383455  30.9747444  87.9316035
  58.8199687  30.6577980  84.5779778  57.8695318  30.6579842  84.4644150
  59.1232173  29.9110715  84.0615812  74.5552380  36.4938518  85.6425540
  75.1930790  36.3745266  84.9388880  74.4373223  37.4419362  85.7013492
  71.3642087  36.4465946  85.5787065  71.0260598  36.3307011  84.6907600
  72.2331855  36.0457112  85.5588071  67.2228902  38.3001423  81.5683956
  66.6593768  38.2091360  80.8000244  67.1081298  37.4801327  82.0486448
  64.7693334  39.7952614  84.4068176  65.5614626  39.4543439  83.9914476
  65.0089985  39.9047590  85.3270330  72.8028461  41.9672391  76.8798421
  72.1516441  42.5526471  76.4932435  73.5972824  42.4978585  76.9393458
  66.7284088  39.0561528  77.2785555  67.5014964  38.5090515  77.1398431
  67.0809487  39.9205777  77.4900017  69.4925338  37.7614759  87.0753814
  70.0888910  37.5370781  86.3610777  69.5500309  37.0199504  87.6779262
  69.0650366  35.2154194  74.9104005  69.3175887  34.6935715  74.1487468
  68.1274925  35.0520339  75.0130689  74.1093649  34.2189972  82.7178748
  74.8956738  33.8009395  82.3669165  74.3732353  35.1236064  82.8860397
  74.2803726  39.6562823  77.4167405  73.6449559  39.7297449  78.1288310
  73.9501133  40.2456421  76.7386484  68.7846655  37.1182300  77.1128380
  68.6682913  36.4427203  77.7809464  68.8948915  36.6314674  76.2960533
  71.1278196  36.5792447  80.8175069  70.7636403  36.0523068  81.5287991
  71.9845312  36.1890916  80.6441555  70.7683683  31.6082347  75.8136418
  70.9358085  32.4762583  76.1806889  70.5780852  31.7709628  74.8897707
  73.5259016  40.0699326  87.4802248  73.2259739  40.9724364  87.3718055
  73.1810076  39.8031509  88.3323401  66.9771497  36.5213122  83.5138953
  66.0521994  36.3889336  83.7216644  67.2255911  37.3007342  84.0108895
  70.7472904  34.0640004  76.7983085  70.6272529  34.5097055  77.6368565
  70.0525492  34.4125322  76.2396623  64.3380309  36.1646396  84.3482742
  64.4672690  36.4180875  85.2622153  63.6577760  36.7574104  84.0287397
  68.5079796  46.8343646  80.4473216  68.4303825  47.7851471  80.5261696
  67.9041439  46.4889518  81.1048142  76.4457970  34.5361477  77.6263419
  77.3575826  34.7688864  77.4511116  75.9367617  35.1198521  77.0638497
  75.0527552  39.5187296  85.0177000  74.4236415  39.6833010  84.3153068
  74.6653214  39.9328905  85.7887964  78.9316784  40.4541734  82.3721364
  78.2467822  40.8340635  81.8218397  79.0160633  41.0637060  83.1053312
  70.6055514  39.2561704  82.2827085  71.0693860  39.5349407  81.4931708
  70.3412312  38.3545148  82.1000176  67.4979595  38.8033185  85.2206848
  68.0680952  39.2320454  84.5824333  68.0887707  38.5215770  85.9191034
  69.5424400  35.3784856  79.0916650  70.2448443  35.8305900  79.5590577
  69.2105029  34.7368675  79.7196543  63.2849734  33.6368409  84.3933784
  62.4948788  33.8925937  83.9173895  63.7760981  34.4516747  84.4985824
  65.2364479  34.0012988  81.3517261  64.4395643  34.1131682  81.8700756
  65.0090072  34.3399640  80.4858151  61.5687437  33.8898899  86.8248775
  61.8195475  34.7745909  87.0906351  62.1046985  33.7103501  86.0523867
  70.7818165  42.1925799  79.1678756  70.6463839  43.0377335  79.5963603
  71.3227977  42.3945076  78.4044689  64.2347562  39.7101237  79.7406681
  64.7472083  40.5044487  79.8912245  64.8870275  39.0127527  79.6740282
  66.0442447  42.8266993  81.8229434  66.2209075  43.7484958  81.6350418
  66.8399280  42.5125412  82.2523814  65.3294803  34.8731625  91.6991597
  65.2148318  33.9716882  91.9998696  64.4739321  35.1195322  91.3476414
  67.1673762  44.3445167  87.8239776  67.7181187  44.2162230  87.0516770
  66.3285238  44.6440056  87.4734669  62.1996479  38.0389891  80.5166251
  63.0371701  38.4486900  80.2999959  62.3774747  37.0989333  80.4866445
  74.0960911  35.7064972  76.2050084  73.5807534  36.4769576  76.4438472
  73.8238219  35.0330108  76.8283146  71.6808022  30.5514673  81.2635323
  70.8249618  30.1621523  81.0840961  72.0934974  30.6306633  80.4035108
  69.4550055  28.1699746  84.6693064  70.3203051  27.9742554  84.3098953
  69.5227563  27.9410097  85.5962421  79.0695185  38.4597326  78.1403258
  78.2924628  38.1208486  77.6958420  79.7486666  38.4649950  77.4658223
  73.8847214  33.5792064  78.0309865  73.5797350  33.8938213  78.8820008
  74.8377656  33.6573484  78.0737198  72.3293646  39.7382287  79.6802819
  71.8015008  39.0035047  79.3676057  71.8281149  40.5156964  79.4342788
  77.3086492  37.9331308  84.7969866  76.6510166  38.6230569  84.8849994
  78.1126891  38.3227740  85.1403852  67.0612374  30.4001954  82.0409431
  67.6356126  30.1777135  81.3082624  67.6483356  30.4690648  82.7938032
  76.1191951  36.2875680  82.8473807  76.6323833  36.9205672  83.3495517
  76.7693175  35.6876876  82.4817167  67.3881961  32.4306415  76.0605316
  66.5519273  32.7681101  76.3814591  67.2486730  32.2955394  75.1232453
  69.3635041  27.2743202  80.7684500  68.7099454  26.9592220  80.1441115
  69.3215515  26.6518943  81.4944323  70.4746246  37.5562497  72.6837792
  69.5673308  37.3251751  72.8828941  70.9717278  36.7600117  72.8711774
  73.3814325  46.2660005  75.6034478  72.7076024  46.5691701  76.2119436
  73.7680147  47.0689085  75.2539936  72.5972782  33.7625136  85.0932148
  71.6795343  33.9840083  84.9353836  73.0132925  33.8371446  84.2343855
  73.3807829  35.1616552  80.2234828  74.1279648  35.6737949  79.9141950
  73.6499419  34.8400604  81.0839222  71.6534480  37.6575092  77.2061782
  70.7445699  37.3734125  77.3034252  71.6829563  38.0774171  76.3465089
  76.8853747  41.2681682  80.9752950  76.4316074  40.4272592  81.0318140
  76.2547714  41.9043080  81.3127730  75.8286667  32.1973668  82.2053617
  75.0909423  31.6851054  82.5363860  76.0813440  31.7574049  81.3936894
  75.3286686  43.1058179  81.9102768  75.6209661  43.6663236  81.1915134
  75.8385307  43.3986740  82.6655927  62.2222650  35.3780606  81.1876985
  62.0247050  34.7849967  80.4628051  61.6669314  35.0732817  81.9052923
  70.2019374  35.2703713  83.3071578  70.2567983  34.3177549  83.2314054
  69.3910576  35.4263152  83.7912876  71.3510567  39.1983836  74.5449861
  70.9129997  38.4819695  74.0855498  72.0921008  39.4259951  73.9834952
  68.1411734  33.8880773  81.0661957  67.3279599  34.1874943  81.4727149
  68.6370728  33.4936461  81.7836439  70.2920311  43.8838530  82.9996221
  70.2496490  44.1099376  82.0704753  71.2083010  43.6501904  83.1482022
  79.4683682  37.4741033  80.6026180  79.3301581  37.6642629  79.6747369
  79.1119901  38.2360416  81.0594231  67.6325808  31.4599128  86.6823192
  68.2725188  31.3187887  85.9846155  66.8003339  31.1733642  86.3061794
  68.4086112  40.7601559  82.7958184  69.2026711  40.2651879  82.5940759
  67.6977805  40.2319422  82.4325890  64.7168876  34.9044640  78.8717937
  63.7866464  34.8429096  79.0887899  64.8126348  34.3820593  78.0754578
  64.6354425  31.4299453  81.4596178  64.8961242  32.3444786  81.3505339
  65.4571597  30.9623896  81.6092791  66.1079350  32.8437210  88.6295003
  66.7802404  32.6354573  87.9807652  65.2809137  32.6459296  88.1900235
  72.1869056  37.3079916  88.7057484  73.1161116  37.4591076  88.5326451
  71.7660086  37.3963937  87.8506130  70.9857388  41.3330581  86.4756021
  70.8468474  40.9649365  87.3481959  70.1971984  41.8478220  86.3039979
  71.5805540  46.4339677  77.8181558  71.7557296  45.9627720  78.6327180
  70.8938328  47.0605443  78.0462818  72.5362603  40.7112183  83.8644859
  72.2012436  40.6712953  84.7602509  72.0366549  40.0456899  83.3915269
  66.5106847  36.1179813  89.3897440  66.3726645  35.3860052  89.9908979
  67.4211771  36.0288713  89.1081628  75.4721795  38.0568218  74.1381919
  74.8550966  37.3315046  74.0414971  75.0038284  38.8177578  73.7948993
  69.1389148  35.8299773  88.8781120  69.8488767  35.1892965  88.8367738
  69.0958456  36.0812668  89.8007300  66.1466626  49.5829040  84.5921418
  66.3863224  50.2147564  85.2700436  65.3035822  49.2317080  84.8786777
  67.2620341  32.2753642  73.2603223  66.3849807  32.1542443  72.8965470
  67.7378094  31.4839720  73.0082111  58.7822481  37.0630802  83.3544730
  59.4693521  36.7492532  82.7665745  58.6270610  37.9672166  83.0811981
  63.5857203  31.9520998  87.7829754  63.5015392  31.3446668  87.0480164
  62.7639910  32.4430017  87.7839250  70.4484267  44.6279932  80.5065743
  69.6651789  45.1701613  80.6003968  71.1477012  45.1453912  80.9059985
  73.7580917  30.4374562  83.1499949  74.2549617  29.6844524  82.8301019
  72.9867899  30.4738878  82.5843158  74.8410698  39.1946249  80.7238372
  73.9066977  39.3147711  80.5543076  75.0187366  38.2918716  80.4598382
  70.3415886  32.5791945  82.8771633  69.9713673  32.0262985  83.5652539
  70.8374978  31.9750078  82.3246633  78.2283249  35.0363568  81.2588406
  78.6943701  35.8691560  81.1848709  78.6790750  34.5708550  81.9633665
  76.2959480  41.3807390  78.2574558  76.5719324  41.2663984  79.1668432
  75.4263979  40.9824874  78.2186731  72.9313544  45.6293740  81.9007372
  73.1135939  44.8115396  82.3635124  73.7546530  45.8461433  81.4632262
  73.2655710  44.5561926  79.1622420  73.7943476  44.0454380  78.5492583
  73.5283929  44.2404456  80.0267953  63.7672802  42.5725795  86.9057754
  64.3526239  41.8269483  87.0385658  63.5697641  42.8829752  87.7894418
  66.6211458  45.6077042  81.9220196  65.9521833  46.0923170  81.4384236
  66.4824327  45.8546263  82.8363575  58.3590457  35.1431395  85.6262197
  58.3974557  34.6094986  86.4199315  57.8530750  34.6166601  85.0073174
  65.7381220  29.9895936  89.1224739  65.8022546  30.8510766  88.7102137
  65.6748340  29.3769937  88.3897098  61.9899035  33.8695497  78.7016129
  62.2852476  32.9606176  78.6483182  61.0887071  33.8483237  78.3797131
  73.8985114  45.5902761  85.5066537  73.7736253  44.7892501  84.9977482
  74.5564205  46.0848955  85.0180507  65.5193282  31.9451494  84.6843677
  64.7979868  32.5587461  84.5451150  66.3086538  32.4809259  84.6060323
  63.7186876  31.5509595  78.8255454  63.3899583  30.6706974  78.6430560
  64.0726247  31.4957264  79.7131843  72.9666455  43.1864498  83.3350439
  72.8191418  42.2581205  83.5158009  73.7919949  43.2084588  82.8507514
  66.8328700  31.8382565  79.1930931  67.1724772  32.3668486  78.4709540
  67.2800820  32.1762971  79.9689498  76.5700577  44.0093056  84.4215312
  77.4947125  43.8035918  84.2839763  76.4015880  43.7609457  85.3304653
  68.8196847  30.3357186  77.3924224  69.5405209  30.7138439  76.8887941
  68.1962151  31.0546063  77.4959202  72.9627970  31.0402335  78.3282556
  73.1791584  31.9226973  78.0271385  72.4822037  30.6488549  77.5988198
  67.7027191  33.9988048  84.9053301  67.5571772  34.3128352  85.7977583
  67.2252395  34.6172949  84.3524200  69.5623574  30.9890596  84.9534191
  69.5485143  30.0931690  84.6166489  70.2796002  30.9961260  85.5872477
  76.3595893  44.5278724  79.7777403  76.5332771  43.9625146  79.0251256
  76.8524785  45.3279619  79.5956893  62.1772853  36.5393393  87.8440962
  61.6326321  37.3153201  87.9761237  63.0552203  36.8864197  87.6860084
  68.9660470  29.8704977  80.2221761  69.0876381  28.9421623  80.4212648
  68.6762512  29.8843663  79.3100076  77.3471066  43.8445488  76.8774302
  78.0421970  44.4652181  77.0961616  77.6894216  42.9940839  77.1526680
  62.9638875  35.6663289  90.7371119  62.2220611  35.8145924  91.3235749
  62.6431619  35.9271555  89.8737868  79.2462489  41.2945194  78.4061632
  79.7713813  41.6332466  77.6810952  79.1584841  40.3592209  78.2224767
  70.9303150  47.3617177  82.7656886  70.4908140  46.8693556  83.4589742
  71.6811267  46.8190145  82.5248961  63.4095489  43.5528718  82.7681514
  64.2353509  43.2532490  82.3880157  63.0589541  42.7836340  83.2171302
  68.3777022  42.9055186  84.8379187  67.7557031  42.2425891  84.5381415
  69.0481889  42.9316318  84.1552835  61.6104094  41.4715044  83.7270447
  60.7736002  41.0437219  83.5454449  61.5827739  41.6647488  84.6641238
  67.9390529  41.4559109  78.3137648  68.0878649  42.1394574  77.6604321
  68.7456972  41.4364199  78.8287104  65.6943162  37.4824287  79.3198717
  65.4489204  36.5786617  79.5178927  65.8639076  37.4841437  78.3778195
  64.9638809  33.2152645  76.8184878  64.2708054  33.2897000  76.1624914
  64.7190561  32.4512988  77.3406395  71.4385934  43.9507240  75.7849395
  70.8659901  44.5697427  75.3319867  72.0118728  44.5006602  76.3189317
  74.6583194  44.2344390  76.9157978  75.5913867  44.1689952  77.1190853
  74.5706407  45.0700657  76.4572510  77.2871211  43.5510260  73.8761925
  77.2084842  43.2170124  74.7697683  78.1080878  44.0432028  73.8753397
  71.8232733  35.2868053  73.1265448  72.7691837  35.1574261  73.1953866
  71.4446978  34.5482715  73.6034876  70.0075650  33.2118029  73.0620333
  69.1007105  32.9151142  73.1383047  70.2851631  32.9147847  72.1954619
  60.9253590  34.5324392  83.5119379  60.6056375  33.6789701  83.2193753
  60.3787018  34.7472971  84.2677347  64.7033498  37.2486833  87.2288886
  64.9219508  38.1803941  87.2476920  65.1159272  36.8894808  88.0143690
  71.6237716  27.7554919  79.2164574  70.8138444  27.4102004  79.5919820
  72.3122133  27.4462462  79.8052186  73.5528264  26.8332966  80.8388871
  74.1059303  27.2528419  81.4978894  73.7898350  25.9068714  80.8811827
  68.7774435  30.0704964  73.2032312  69.6393599  30.3959863  73.4628130
  68.9624779  29.2836460  72.6905378  60.7941850  38.1527304  85.4812501
  60.1005322  37.7381257  84.9682455  61.5414841  38.1947840  84.8845920
  76.9307071  28.9433491  80.3467535  76.3505740  29.6018295  79.9645588
  76.6643004  28.1210835  79.9354953  62.7078593  38.0845558  83.3578516
  62.6849281  38.1833245  82.4060399  63.0179229  38.9310708  83.6795682
  65.3665971  40.1421713  87.4725130  66.3209224  40.1105655  87.4055062
  65.1678494  39.6812336  88.2875356  65.9565353  38.7122829  90.0395928
  66.7758242  39.2066907  90.0630765  66.2302161  37.7954797  90.0113495
  75.7131949  31.1033581  79.4023883  74.8257804  31.3883232  79.1844078
  76.1285938  30.9427344  78.5551160  63.7216199  45.6841332  84.4895328
  63.5870667  44.9241733  83.9233326  63.3048262  46.4082232  84.0224117
  74.8575162  40.8678256  73.4971903  75.5611013  41.0728258  74.1129559
  74.1337811  41.4355018  73.7620987  75.6872973  36.6188117  79.6174174
  75.6308174  37.0756668  78.7781806  76.2401315  35.8578802  79.4397016
  66.8785325  46.5810649  84.7013771  66.7617710  47.5256082  84.5992461
  66.0577772  46.2784211  85.0899570  76.7661860  41.3060785  75.5470363
  77.6007464  40.8741983  75.3647838  76.6046203  41.1342799  76.4747258
  76.4207752  37.8092898  76.9126703  76.3656556  37.6437170  75.9715147
  75.7953807  38.5168931  77.0688892  61.2100267  33.0460963  90.7388125
  61.8559131  32.5359917  91.2275350  61.0017418  33.7829644  91.3131550
  69.7303878  27.3101007  76.4912021  69.7182547  28.2542847  76.6480292
  70.6227299  27.1271153  76.1971482  69.6593441  45.9869898  84.5779778
  68.7089073  45.9871759  84.4644150  69.9625928  45.2402632  84.0615812
  77.5677843  54.3853445  77.2785555  78.3408719  53.8382432  77.1398431
  77.9203242  55.2497695  77.4900017  79.9044121  50.5446112  74.9104005
  80.1569641  50.0227633  74.1487468  78.9668680  50.3812257  75.0130689
  79.6240409  52.4474217  77.1128380  79.5076667  51.7719121  77.7809464
  79.7342669  51.9606591  76.2960533  81.6077437  46.9374264  75.8136418
  81.7751840  47.8054501  76.1806889  81.4174606  47.1001546  74.8897707
  81.5866658  49.3931922  76.7983085  81.4666283  49.8388973  77.6368565
  80.8919247  49.7417239  76.2396623  76.0758234  49.3304906  81.3517261
  75.2789397  49.4423600  81.8700756  75.8483826  49.6691558  80.4858151
  73.0390233  53.3681809  80.5166251  73.8765455  53.7778817  80.2999959
  73.2168501  52.4281251  80.4866445  84.9354665  51.0356889  76.2050084
  84.4201289  51.8061494  76.4438472  84.6631974  50.3622026  76.8283146
  82.5201777  45.8806590  81.2635323  81.6643373  45.4913441  81.0840961
  82.9328728  45.9598551  80.4035108  84.7240969  48.9083982  78.0309865
  84.4191104  49.2230131  78.8820008  85.6771411  48.9865401  78.0737198
  77.9006128  45.7293871  82.0409431  78.4749880  45.5069053  81.3082624
  78.4877111  45.7982566  82.7938032  78.2275715  47.7598332  76.0605316
  77.3913027  48.0973019  76.3814591  78.0880485  47.6247312  75.1232453
  80.2028796  42.6035120  80.7684500  79.5493208  42.2884137  80.1441115
  80.1609270  41.9810861  81.4944323  81.3140001  52.8854415  72.6837792
  80.4067062  52.6543669  72.8828941  81.8111033  52.0892034  72.8711774
  82.4928234  52.9867010  77.2061782  81.5839453  52.7026043  77.3034252
  82.5223318  53.4066089  76.3465089  73.0616405  50.7072524  81.1876985
  72.8640804  50.1141885  80.4628051  72.5063069  50.4024734  81.9052923
  82.1904322  54.5275754  74.5449861  81.7523752  53.8111613  74.0855498
  82.9314763  54.7551869  73.9834952  75.5562630  50.2336558  78.8717937
  74.6260218  50.1721014  79.0887899  75.6520102  49.7112511  78.0754578
  75.4748179  46.7591371  81.4596178  75.7354997  47.6736704  81.3505339
  76.2965352  46.2915813  81.6092791  86.3115550  53.3860135  74.1381919
  85.6944720  52.6606964  74.0414971  85.8432038  54.1469496  73.7948993
  78.1014095  47.6045560  73.2603223  77.2243562  47.4834360  72.8965470
  78.5771849  46.8131638  73.0082111  72.8292789  49.1987415  78.7016129
  73.1246230  48.2898093  78.6483182  71.9280825  49.1775154  78.3797131
  74.5580631  46.8801513  78.8255454  74.2293337  45.9998891  78.6430560
  74.9120002  46.8249181  79.7131843  77.6722454  47.1674482  79.1930931
  78.0118527  47.6960404  78.4709540  78.1194575  47.5054888  79.9689498
  79.6590601  45.6649104  77.3924224  80.3798964  46.0430357  76.8887941
  79.0355905  46.3837981  77.4959202  83.8021724  46.3694253  78.3282556
  84.0185338  47.2518891  78.0271385  83.3215791  45.9780466  77.5988198
  79.8054224  45.1996894  80.2221761  79.9270135  44.2713541  80.4212648
  79.5156267  45.2135580  79.3100076  76.5336916  52.8116205  79.3198717
  76.2882958  51.9078535  79.5178927  76.7032831  52.8133355  78.3778195
  75.8032564  48.5444562  76.8184878  75.1101809  48.6188917  76.1624914
  75.5584316  47.7804906  77.3406395  82.6626487  50.6159970  73.1265448
  83.6085592  50.4866178  73.1953866  82.2840732  49.8774632  73.6034876
  80.8469404  48.5409947  73.0620333  79.9400860  48.2443059  73.1383047
  81.1245385  48.2439765  72.1954619  82.4631470  43.0846836  79.2164574
  81.6532198  42.7393921  79.5919820  83.1515887  42.7754380  79.8052186
  84.3922018  42.1624883  80.8388871  84.9453057  42.5820337  81.4978894
  84.6292105  41.2360631  80.8811827  79.6168189  45.3996882  73.2032312
  80.4787353  45.7251780  73.4628130  79.8018533  44.6128378  72.6905378
  87.7700825  44.2725408  80.3467535  87.1899495  44.9310212  79.9645588
  87.5036758  43.4502753  79.9354953  86.5525704  46.4325499  79.4023883
  85.6651559  46.7175149  79.1844078  86.9679693  46.2719262  78.5551160
  85.6968917  56.1970173  73.4971903  86.4004767  56.4020176  74.1129559
  84.9731566  56.7646935  73.7620987  80.5697632  42.6392925  76.4912021
  80.5576302  43.5834765  76.6480292  81.4621054  42.4563070  76.1971482
  57.6686043   8.5113851  67.1718522  57.5910072   9.4621676  67.2507003
  57.0647686   8.1659723  67.8293449  59.9424411   3.8696004  65.8924062
  59.8070086   4.7147539  66.3208910  60.4834224   4.0715281  65.1289996
  55.2048694   4.5037198  68.5474740  55.3815322   5.4255163  68.3595724
  56.0005527   4.1895617  68.9769120  56.3280009   6.0215372  74.5485083
  56.8787434   5.8932435  73.7762077  55.4891485   6.3210261  74.1979976
  62.5420572   7.9430210  62.3279785  61.8682271   8.2461906  62.9364743
  62.9286394   8.7459290  61.9785242  64.4892933   4.7828383  68.6348075
  64.7815907   5.3433441  67.9160440  64.9991554   5.0756944  69.3901234
  59.4526558   5.5608735  69.7241528  59.4102737   5.7869581  68.7950060
  60.3689257   5.3272109  69.8727329  62.3887203   4.8189859  73.8715858
  62.4424226   5.3880795  74.6393574  61.5201985   4.9891744  73.5069895
  60.7411787   8.1109882  64.5426864  60.9163543   7.6397925  65.3572487
  60.0544575   8.7375648  64.7708125  55.3072872  11.2599245  71.3166724
  55.5469471  11.8917769  71.9945743  54.4642069  10.9087285  71.6032084
  59.8200734   7.0678367  73.7208228  59.7470906   7.8733339  74.2327533
  59.3778127   7.2670333  72.8956250  59.6090514   6.3050137  67.2311050
  58.8258036   6.8471817  67.3249275  60.3083259   6.8224117  67.6305291
  62.2799418   6.9665201  75.8766387  62.9927390   7.6012666  75.8042289
  61.7889446   7.0629067  75.0606389  57.3311331   4.7159645  76.6971958
  58.0320791   5.3496128  76.8501352  56.8606446   5.0574376  75.9367597
  62.0919791   7.3063945  68.6252679  62.2742186   6.4885601  69.0880431
  62.9152777   7.5231638  68.1877569  62.4261957   6.2332130  65.8867727
  62.9549723   5.7224585  65.2737889  62.6890176   5.9174661  66.7513260
  52.9279049   4.2496000  73.6303061  53.5132486   3.5039688  73.7630965
  52.7303888   4.5599956  74.5139725  55.7817704   7.2847247  68.6465503
  55.1128080   7.7693375  68.1629543  55.6430574   7.5316468  69.5608882
  59.9222973   9.3190991  75.2448161  60.4741281   9.4822612  76.0097247
  60.2629167   9.9095428  74.5728186  63.0591360   7.2672966  72.2311844
  62.9342500   6.4662706  71.7222789  63.7170451   7.7619160  71.7425813
  62.1272702   4.8634703  70.0595746  61.9797664   3.9351410  70.2403316
  62.9526196   4.8854793  69.5752821  65.7306824   5.6863261  71.1460619
  66.6553371   5.4806123  71.0085070  65.5622127   5.4379662  72.0549960
  65.5202140   6.2048929  66.5022710  65.6939018   5.6395351  65.7496563
  66.0131031   7.0049824  66.3202200  60.0688784   6.8849472  77.2596816
  60.3775911   6.6398619  78.1319515  60.8664266   7.0896111  76.7715686
  60.0909396   9.0387382  69.4902192  59.6514387   8.5463761  70.1835049
  60.8417513   8.4960350  69.2494268  52.5701735   5.2298923  69.4926820
  53.3959755   4.9302695  69.1125464  52.2195787   4.4606545  69.9416609
  57.5383269   4.5825391  71.5624494  56.9163278   3.9196096  71.2626722
  58.2088135   4.6086523  70.8798142  50.7710340   3.1485249  70.4515754
  49.9342249   2.7207424  70.2699755  50.7433986   3.3417693  71.3886545
  57.0996775   3.1329314  65.0382954  57.2484896   3.8164779  64.3849627
  57.9063219   3.1134404  65.5532410  60.5992181   5.6277445  62.5094702
  60.0266148   6.2467632  62.0565174  61.1724975   6.1776806  63.0434624
  63.8189441   5.9114595  63.6403284  64.7520114   5.8460157  63.8436160
  63.7312654   6.7470862  63.1817817  49.9548097  -0.1702491  72.2057808
  49.2611568  -0.5848538  71.6927762  50.7021088  -0.1281955  71.6091227
  54.5272217   1.8191918  74.1970437  55.4815471   1.7875860  74.1300368
  54.3284741   1.3582541  75.0120663  52.8822446   7.3611537  71.2140635
  52.7476914   6.6011938  70.6478633  52.4654509   8.0852437  70.7469424
  56.0391572   8.2580854  71.4259077  55.9223956   9.2026287  71.3237768
  55.2184018   7.9554416  71.8144877  57.0646086   8.9109116  74.6415006
  57.9673333   8.9432726  74.9581501  56.8383456   7.9809567  74.6561342
  58.8199688   7.6640103  71.3025084  57.8695319   7.6641964  71.1889457
  59.1232174   6.9172837  70.7861119  74.5552382  13.5000641  72.3670847
  75.1930792  13.3807388  71.6634187  74.4373225  14.4481485  72.4258799
  71.3642088  13.4528069  72.3032372  71.0260600  13.3369134  71.4152906
  72.2331856  13.0519234  72.2833378  67.2228904  15.3063545  68.2929263
  66.6593769  15.2153482  67.5245550  67.1081299  14.4863450  68.7731755
  64.7693336  16.8014737  71.1313483  65.5614628  16.4605562  70.7159782
  65.0089986  16.9109712  72.0515636  72.8028462  18.9734513  63.6043727
  72.1516442  19.5588594  63.2177741  73.5972825  19.5040708  63.6638765
  66.7284090  16.0623650  64.0030862  67.5014966  15.5152637  63.8643738
  67.0809488  16.9267900  64.2145323  68.5669132  17.3900033  77.2097761
  68.2758998  18.2945663  77.0944427  69.2026117  17.4316560  77.9241831
  69.4925339  14.7676881  73.7999121  70.0888911  14.5432904  73.0856084
  69.5500311  14.0261627  74.4024569  69.0650367  12.2216316  61.6349312
  69.3175888  11.6997838  60.8732775  68.1274927  12.0582462  61.7375995
  74.1093650  11.2252095  69.4424055  74.8956739  10.8071518  69.0914472
  74.3732355  12.1298187  69.6105703  74.2803728  16.6624945  64.1412712
  73.6449561  16.7359572  64.8533616  73.9501134  17.2518544  63.4631791
  68.7846656  14.1244422  63.8373687  68.6682914  13.4489326  64.5054771
  68.8948916  13.6376796  63.0205840  71.1278197  13.5854570  67.5420376
  70.7636404  13.0585190  68.2533297  71.9845313  13.1953039  67.3686861
  70.7683684   8.6144469  62.5381724  70.9358086   9.4824706  62.9052195
  70.5780853   8.7771751  61.6143014  73.5259017  17.0761448  74.2047555
  73.2259740  17.9786487  74.0963362  73.1810077  16.8093631  75.0568708
  66.9771499  13.5275245  70.2384259  66.0521995  13.3951459  70.4461951
  67.2255912  14.3069464  70.7354202  70.7472905  11.0702127  63.5228391
  70.6272530  11.5159177  64.3613872  70.0525493  11.4187444  62.9641929
  64.3380310  13.1708518  71.0728048  64.4672691  13.4242997  71.9867460
  63.6577761  13.7636226  70.7532703  68.5079797  23.8405768  67.1718522
  68.4303827  24.7913594  67.2507003  67.9041441  23.4951641  67.8293449
  76.4457971  11.5423600  64.3508725  77.3575827  11.7750987  64.1756423
  75.9367618  12.1260644  63.7883804  75.0527553  16.5249418  71.7422307
  74.4236416  16.6895132  71.0398375  74.6653215  16.9391028  72.5133271
  78.9316785  17.4603856  69.0966670  78.2467823  17.8402758  68.5463704
  79.0160635  18.0699183  69.8298618  70.6055515  16.2623826  69.0072392
  71.0693861  16.5411529  68.2177014  70.3412313  15.3607271  68.8245483
  67.4979596  15.8095308  71.9452155  68.0680953  16.2382576  71.3069640
  68.0887708  15.5277893  72.6436341  69.5424401  12.3846979  65.8161957
  70.2448445  12.8368022  66.2835883  69.2105030  11.7430798  66.4441850
  63.2849735  10.6430531  71.1179091  62.4948789  10.8988060  70.6419201
  63.7760983  11.4578869  71.2231131  65.2364481  11.0075111  68.0762567
  64.4395644  11.1193805  68.5946063  65.0090073  11.3461763  67.2103458
  71.0670148  17.5319814  76.0245082  71.1314581  17.9940221  76.8603254
  70.3581072  16.9017179  76.1527392  61.5687438  10.8961022  73.5494081
  61.8195477  11.7808032  73.8151657  62.1046987  10.7165623  72.7769173
  70.7818166  19.1987921  65.8924062  70.6463841  20.0439457  66.3208910
  71.3227978  19.4007199  65.1289996  64.2347563  16.7163359  66.4651987
  64.7472084  17.5106610  66.6157552  64.8870276  16.0189650  66.3985589
  66.0442448  19.8329116  68.5474740  66.2209076  20.7547080  68.3595724
  66.8399282  19.5187535  68.9769120  65.3294805  11.8793748  78.4236904
  65.2148320  10.9779005  78.7244003  64.4739322  12.1257444  78.0721720
  67.1673764  21.3507290  74.5485083  67.7181189  21.2224353  73.7762077
  66.3285239  21.6502179  74.1979976  62.1996480  15.0452014  67.2411558
  63.0371702  15.4549022  67.0245266  62.3774748  14.1051456  67.2111752
  74.0960912  12.7127094  62.9295391  73.5807536  13.4831699  63.1683778
  73.8238221  12.0392231  63.5528452  71.6808023   7.5576795  67.9880629
  70.8249620   7.1683646  67.8086268  72.0934975   7.6368756  67.1280415
  79.0695186  15.4659449  64.8648564  78.2924629  15.1270609  64.4203726
  79.7486667  15.4712072  64.1903529  73.8847215  10.5854186  64.7555172
  73.5797351  10.9000336  65.6065315  74.8377658  10.6635606  64.7982505
  72.3293647  16.7444410  66.4048126  71.8015009  16.0097169  66.0921363
  71.8281150  17.5219086  66.1588094  77.3086493  14.9393430  71.5215172
  76.6510168  15.6292692  71.6095301  78.1126893  15.3289862  71.8649159
  67.0612375   7.4064076  68.7654737  67.6356127   7.1839258  68.0327930
  67.6483357   7.4752771  69.5183339  76.1191952  13.2937803  69.5719114
  76.6323834  13.9267795  70.0740824  76.7693176  12.6938998  69.2062474
  67.3881962   9.4368537  62.7850623  66.5519274   9.7743224  63.1059897
  67.2486732   9.3017517  61.8477760  70.4746247  14.5624620  59.4083099
  69.5673309  14.3313874  59.6074248  70.9717279  13.7662239  59.5957081
  73.3814326  23.2722127  62.3279785  72.7076025  23.5753824  62.9364743
  73.7680148  24.0751208  61.9785242  72.5972783  10.7687259  71.8177454
  71.6795344  10.9902206  71.6599143  73.0132927  10.8433569  70.9589162
  73.3807831  12.1678674  66.9480135  74.1279650  12.6800071  66.6387257
  73.6499420  11.8462727  67.8084528  71.6534481  14.6637215  63.9307089
  70.7445700  14.3796248  64.0279559  71.6829565  15.0836294  63.0710396
  76.8853748  18.2743804  67.6998257  76.4316075  17.4334714  67.7563447
  76.2547715  18.9105203  68.0373037  75.3286688  20.1120301  68.6348075
  75.6209662  20.6725358  67.9160440  75.8385308  20.4048862  69.3901234
  62.2222651  12.3842729  67.9122291  62.0247051  11.7912090  67.1873358
  61.6669315  12.0794939  68.6298230  70.2019375  12.2765836  70.0316884
  70.2567985  11.3239672  69.9559361  69.3910577  12.4325275  70.5158183
  71.3510569  16.2045959  61.2695168  70.9129999  15.4881818  60.8100805
  72.0921010  16.4322073  60.7080259  68.1411735  10.8942895  67.7907263
  67.3279600  11.1937066  68.1972455  68.6370729  10.4998584  68.5081746
  70.2920313  20.8900652  69.7241528  70.2496492  21.1161499  68.7950060
  71.2083012  20.6564027  69.8727329  79.4683683  14.4803156  67.3271486
  79.3301582  14.6704752  66.3992675  79.1119902  15.2422538  67.7839537
  67.6325810   8.4661251  73.4068498  68.2725189   8.3250010  72.7091462
  66.8003340   8.1795764  73.0307100  68.4086114  17.7663681  69.5203491
  69.2026712  17.2714001  69.3186066  67.6977806  17.2381544  69.1571196
  73.2280958  20.1481777  73.8715858  73.2817980  20.7172713  74.6393574
  72.3595739  20.3183662  73.5069895  64.7168877  11.9106763  65.5963243
  63.7866465  11.8491218  65.8133205  64.8126349  11.3882716  64.7999885
  64.6354426   8.4361576  68.1841485  64.8961243   9.3506909  68.0750645
  65.4571598   7.9686018  68.3338098  66.1079351   9.8499333  75.3540310
  66.7802405   9.6416695  74.7052958  65.2809138   9.6521419  74.9145542
  72.1869058  14.3142039  75.4302790  73.1161118  14.4653198  75.2571757
  71.7660088  14.4026060  74.5751437  70.9857390  18.3392703  73.2001328
  70.8468475  17.9711488  74.0727266  70.1971986  18.8540343  73.0285286
  71.5805541  23.4401800  64.5426864  71.7557297  22.9689843  65.3572487
  70.8938330  24.0667566  64.7708125  72.5362605  17.7174306  70.5890166
  72.2012437  17.6775076  71.4847815  72.0366550  17.0519022  70.1160576
  66.5106849  13.1241936  76.1142747  66.3726647  12.3922175  76.7154286
  67.4211772  13.0350836  75.8326934  75.4721796  15.0630340  60.8627225
  74.8550967  14.3377168  60.7660278  75.0038285  15.8239701  60.5194299
  69.1389149  12.8361895  75.6026426  69.8488768  12.1955087  75.5613045
  69.0958457  13.0874790  76.5252607  66.1466627  26.5891162  71.3166724
  66.3863225  27.2209687  71.9945743  65.3035823  26.2379202  71.6032084
  67.2620342   9.2815765  59.9848529  66.3849809   9.1604565  59.6210776
  67.7378095   8.4901843  59.7327418  58.7822482  14.0692924  70.0790037
  59.4693522  13.7554654  69.4911052  58.6270611  14.9734289  69.8057288
  63.5857204   8.9583121  74.5075060  63.5015393   8.3508790  73.7725470
  62.7639911   9.4492139  74.5084557  70.6594489  22.3970285  73.7208228
  70.5864660  23.2025256  74.2327533  70.2171882  22.5962251  72.8956250
  70.4484268  21.6342055  67.2311050  69.6651790  22.1763735  67.3249275
  71.1477013  22.1516035  67.6305291  73.1193172  22.2957119  75.8766387
  73.8321144  22.9304584  75.8042289  72.6283201  22.3920985  75.0606389
  74.8410699  16.2008372  67.4483679  73.9066978  16.3209834  67.2788383
  75.0187368  15.2980838  67.1843689  70.3415887   9.5854067  69.6016940
  69.9713675   9.0325108  70.2897846  70.8374980   8.9812201  69.0491940
  78.2283250  12.0425691  67.9833713  78.6943703  12.8753682  67.9094016
  78.6790751  11.5770672  68.6878971  68.1705086  20.0451562  76.6971958
  68.8714545  20.6788045  76.8501352  67.7000201  20.3866294  75.9367597
  76.2959482  18.3869512  64.9819865  76.5719325  18.2726107  65.8913739
  75.4263980  17.9886997  64.9432038  72.9313546  22.6355863  68.6252679
  73.1135940  21.8177519  69.0880431  73.7546532  22.8523555  68.1877569
  73.2655711  21.5624048  65.8867727  73.7943477  21.0516503  65.2737889
  73.5283931  21.2466578  66.7513260  63.7672804  19.5787917  73.6303061
  64.3526241  18.8331605  73.7630965  63.5697642  19.8891874  74.5139725
  66.6211459  22.6139165  68.6465503  65.9521834  23.0985292  68.1629543
  66.4824329  22.8608385  69.5608882  58.3590458  12.1493518  72.3507504
  58.3974558  11.6157108  73.1444622  57.8530751  11.6228723  71.7318481
  70.7616728  24.6482908  75.2448161  71.3135036  24.8114530  76.0097247
  71.1022921  25.2387346  74.5728186  65.7381221   6.9958058  75.8470046
  65.8022547   7.8572889  75.4347444  65.6748341   6.3832060  75.1142405
  61.9899036  10.8757620  65.4261435  62.2852477   9.9668298  65.3728489
  61.0887072  10.8545359  65.1042437  73.8985115  22.5964884  72.2311844
  73.7736254  21.7954624  71.7222789  74.5564206  23.0911077  71.7425813
  65.5193283   8.9513616  71.4088984  64.7979869   9.5649584  71.2696457
  66.3086539   9.4871381  71.3305630  75.9620023  20.3973904  73.8591394
  75.0150359  20.2779255  73.7869720  76.3102796  19.5096402  73.9417655
  63.7186878   8.5571717  65.5500760  63.3899584   7.6769096  65.3675866
  64.0726248   8.5019386  66.4377150  72.9666457  20.1926620  70.0595746
  72.8191419  19.2643328  70.2403316  73.7919950  20.2146711  69.5752821
  66.8328701   8.8444687  65.9176238  67.1724773   9.3730609  65.1954846
  67.2800821   9.1825093  66.6934805  76.5700578  21.0155179  71.1460619
  77.4947126  20.8098040  71.0085070  76.4015882  20.7671580  72.0549960
  68.8196848   7.3419309  64.1169531  69.5405210   7.7200562  63.6133248
  68.1962152   8.0608186  64.2204509  72.9627971   8.0464458  65.0527863
  73.1791585   8.9289096  64.7516691  72.4822038   7.6550671  64.3233505
  67.7027192  11.0050171  71.6298608  67.5571773  11.3190474  72.5222889
  67.2252396  11.6235071  71.0769506  69.5623575   7.9952719  71.6779497
  69.5485144   7.0993812  71.3411795  70.2796003   8.0023383  72.3117783
  76.3595895  21.5340846  66.5022710  76.5332772  20.9687269  65.7496563
  76.8524786  22.3341741  66.3202200  62.1772854  13.5455515  74.5686269
  61.6326322  14.3215323  74.7006543  63.0552204  13.8926320  74.4105390
  77.3471067  20.8507611  63.6019608  78.0421972  21.4714303  63.8206923
  77.6894217  20.0002962  63.8771986  62.9638876  12.6725412  77.4616426
  62.2220612  12.8208047  78.0481056  62.6431621  12.9333677  76.5983175
  79.2462490  18.3007316  65.1306939  79.7713814  18.6394589  64.4056259
  79.1584843  17.3654332  64.9470074  70.9082539  22.2141390  77.2596816
  71.2169665  21.9690537  78.1319515  71.7058021  22.4188028  76.7715686
  70.9303151  24.3679300  69.4902192  70.4908141  23.8755678  70.1835049
  71.6811268  23.8252267  69.2494268  63.4095490  20.5590840  69.4926820
  64.2353510  20.2594612  69.1125464  63.0589542  19.7898463  69.9416609
  68.3777023  19.9117309  71.5624494  67.7557032  19.2488014  71.2626722
  69.0481890  19.9378441  70.8798142  61.6104095  18.4777167  70.4515754
  60.7736003  18.0499341  70.2699755  61.5827740  18.6709610  71.3886545
  67.9390530  18.4621232  65.0382954  68.0878650  19.1456696  64.3849627
  68.7456973  18.4426322  65.5532410  65.6943163  14.4886410  66.0444023
  65.4489205  13.5848740  66.2424234  65.8639078  14.4903560  65.1023501
  64.9638810  10.2214767  63.5430185  64.2708055  10.2959122  62.8870221
  64.7190562   9.4575111  64.0651702  71.4385936  20.9569362  62.5094702
  70.8659903  21.5759550  62.0565174  72.0118729  21.5068724  63.0434624
  74.6583195  21.2406513  63.6403284  75.5913868  21.1752074  63.8436160
  74.5706408  22.0762779  63.1817817  77.2871212  20.5572383  60.6007232
  77.2084843  20.2232247  61.4942990  78.1080879  21.0494151  60.5998704
  71.8232734  12.2930175  59.8510754  72.7691839  12.1636383  59.9199172
  71.4446979  11.5544837  60.3280183  70.0075651  10.2180152  59.7865640
  69.1007107   9.9213264  59.8628353  70.2851632   9.9209970  58.9199926
  60.9253592  11.5386515  70.2364686  60.6056376  10.6851823  69.9439060
  60.3787020  11.7535093  70.9922653  64.7033499  14.2548956  73.9534193
  64.9219509  15.1866064  73.9722226  65.1159273  13.8956930  74.7388996
  68.7774436   7.0767087  59.9277619  69.6393600   7.4021985  60.1873436
  68.9624780   6.2898583  59.4150685  60.7941852  15.1589426  72.2057808
  60.1005323  14.7443379  71.6927762  61.5414843  15.2009963  71.6091227
  62.7078594  15.0907680  70.0823822  62.6849282  15.1895368  69.1305706
  63.0179231  15.9372831  70.4040989  65.3665972  17.1483835  74.1970437
  66.3209225  17.1167778  74.1300368  65.1678496  16.6874459  75.0120663
  65.9565354  15.7184951  76.7641235  66.7758243  16.2129030  76.7876072
  66.2302162  14.8016919  76.7358802  63.7216201  22.6903455  71.2140635
  63.5870669  21.9303856  70.6478633  63.3048263  23.4144355  70.7469424
  74.8575164  17.8740378  60.2217210  75.5611014  18.0790381  60.8374866
  74.1337813  18.4417140  60.4866294  75.6872974  13.6250240  66.3419480
  75.6308175  14.0818791  65.5027113  76.2401316  12.8640924  66.1642323
  66.8785327  23.5872772  71.4259077  66.7617711  24.5318204  71.3237768
  66.0577773  23.2846333  71.8144877  76.7661861  18.3122908  62.2715670
  77.6007465  17.8804106  62.0893145  76.6046204  18.1404921  63.1992565
  76.4207753  14.8155021  63.6372009  76.3656557  14.6499292  62.6960454
  75.7953809  15.5231054  63.7934199  61.2100268  10.0523085  77.4633432
  61.8559132   9.5422039  77.9520657  61.0017419  10.7891767  78.0376857
  67.9039841  24.2401034  74.6415006  68.8067087  24.2724644  74.9581501
  67.6777211  23.3101485  74.6561342  69.6593443  22.9932020  71.3025084
  68.7089074  22.9933882  71.1889457  69.9625929  22.2464755  70.7861119
  85.3946136  28.8292559  72.3670847  86.0324546  28.7099306  71.6634187
  85.2766979  29.7773403  72.4258799  82.2035843  28.7819987  72.3032372
  81.8654354  28.6661051  71.4152906  83.0725611  28.3811152  72.2833378
  78.0622658  30.6355463  68.2929263  77.4987523  30.5445400  67.5245550
  77.9475053  29.8155368  68.7731755  75.6087090  32.1306655  71.1313483
  76.4008382  31.7897479  70.7159782  75.8483740  32.2401630  72.0515636
  83.6422217  34.3026431  63.6043727  82.9910197  34.8880511  63.2177741
  84.4366580  34.8332626  63.6638765  77.5677844  31.3915568  64.0030862
  78.3408720  30.8444555  63.8643738  77.9203243  32.2559817  64.2145323
  79.4062887  32.7191950  77.2097761  79.1152753  33.6237581  77.0944427
  80.0419871  32.7608478  77.9241831  80.3319094  30.0968799  73.7999121
  80.9282666  29.8724821  73.0856084  80.3894065  29.3553544  74.4024569
  79.9044122  27.5508234  61.6349312  80.1569643  27.0289755  60.8732775
  78.9668681  27.3874380  61.7375995  84.9487405  26.5544012  69.4424055
  85.7350494  26.1363436  69.0914472  85.2126109  27.4590105  69.6105703
  85.1197482  31.9916863  64.1412712  84.4843315  32.0651489  64.8533616
  84.7894889  32.5810462  63.4631791  79.6240411  29.4536340  63.8373687
  79.5076669  28.7781243  64.5054771  79.7342671  28.9668714  63.0205840
  81.9671952  28.9146487  67.5420376  81.6030159  28.3877108  68.2533297
  82.8239067  28.5244956  67.3686861  81.6077439  23.9436387  62.5381724
  81.7751841  24.8116623  62.9052195  81.4174608  24.1063669  61.6143014
  84.3652772  32.4053366  74.2047555  84.0653495  33.3078405  74.0963362
  84.0203831  32.1385549  75.0568708  77.8165253  28.8567163  70.2384259
  76.8915750  28.7243377  70.4461951  78.0649666  29.6361382  70.7354202
  81.5866659  26.3994044  63.5228391  81.4666285  26.8451095  64.3613872
  80.8919248  26.7479362  62.9641929  75.1774064  28.5000436  71.0728048
  75.3066445  28.7534915  71.9867460  74.4971516  29.0928144  70.7532703
  79.3473552  39.1697686  67.1718522  79.2697581  40.1205511  67.2507003
  78.7435195  38.8243559  67.8293449  87.2851726  26.8715518  64.3508725
  88.1969582  27.1042904  64.1756423  86.7761373  27.4552562  63.7883804
  85.8921308  31.8541336  71.7422307  85.2630170  32.0187050  71.0398375
  85.5046970  32.2682946  72.5133271  81.4449270  31.5915744  69.0072392
  81.9087615  31.8703447  68.2177014  81.1806068  30.6899189  68.8245483
  78.3373351  31.1387226  71.9452155  78.9074708  31.5674494  71.3069640
  78.9281463  30.8569810  72.6436341  80.3818156  27.7138896  65.8161957
  81.0842199  28.1659940  66.2835883  80.0498784  27.0722715  66.4441850
  74.1243490  25.9722449  71.1179091  73.3342544  26.2279978  70.6419201
  74.6154737  26.7870787  71.2231131  76.0758235  26.3367028  68.0762567
  75.2789398  26.4485723  68.5946063  75.8483827  26.6753681  67.2103458
  81.9063903  32.8611732  76.0245082  81.9708335  33.3232139  76.8603254
  81.1974827  32.2309097  76.1527392  72.4081193  26.2252940  73.5494081
  72.6589231  27.1099949  73.8151657  72.9440741  26.0457541  72.7769173
  81.6211920  34.5279839  65.8924062  81.4857595  35.3731375  66.3208910
  82.1621733  34.7299117  65.1289996  75.0741318  32.0455277  66.4651987
  75.5865838  32.8398527  66.6157552  75.7264031  31.3481568  66.3985589
  76.8836203  35.1621033  68.5474740  77.0602831  36.0838998  68.3595724
  77.6793036  34.8479453  68.9769120  76.1688559  27.2085665  78.4236904
  76.0542074  26.3070923  78.7244003  75.3133077  27.4549362  78.0721720
  78.0067518  36.6799207  74.5485083  78.5574943  36.5516271  73.7762077
  77.1678994  36.9794096  74.1979976  73.0390235  30.3743931  67.2411558
  73.8765457  30.7840940  67.0245266  73.2168502  29.4343374  67.2111752
  84.9354667  28.0419012  62.9295391  84.4201290  28.8123617  63.1683778
  84.6631975  27.3684148  63.5528452  82.5201778  22.8868713  67.9880629
  81.6643374  22.4975563  67.8086268  82.9328730  22.9660674  67.1280415
  80.2943810  20.5053786  71.3938371  81.1596807  20.3096595  71.0344260
  80.3621319  20.2764138  72.3207727  84.7240970  25.9146104  64.7555172
  84.4191105  26.2292253  65.6065315  85.6771412  25.9927524  64.7982505
  83.1687402  32.0736327  66.4048126  82.6408763  31.3389087  66.0921363
  82.6674904  32.8511004  66.1588094  77.9006129  22.7355994  68.7654737
  78.4749881  22.5131175  68.0327930  78.4877112  22.8044688  69.5183339
  86.9585707  28.6229721  69.5719114  87.4717588  29.2559713  70.0740824
  87.6086930  28.0230916  69.2062474  78.2275716  24.7660455  62.7850623
  77.3913029  25.1035141  63.1059897  78.0880486  24.6309435  61.8477760
  80.2028797  19.6097243  67.4929807  79.5493209  19.2946260  66.8686422
  80.1609271  18.9872983  68.2189630  81.3140002  29.8916538  59.4083099
  80.4067064  29.6605791  59.6074248  81.8111034  29.0954157  59.5957081
  84.2208081  38.6014045  62.3279785  83.5469780  38.9045742  62.9364743
  84.6073903  39.4043125  61.9785242  83.4366537  26.0979176  71.8177454
  82.5189099  26.3194123  71.6599143  83.8526681  26.1725487  70.9589162
  84.2201585  27.4970592  66.9480135  84.9673404  28.0091989  66.6387257
  84.4893175  27.1754645  67.8084528  82.4928235  29.9929133  63.9307089
  81.5839455  29.7088165  64.0279559  82.5223319  30.4128211  63.0710396
  87.7247503  33.6035722  67.6998257  87.2709830  32.7626632  67.7563447
  87.0941470  34.2397120  68.0373037  86.6680422  24.5327708  68.9298924
  85.9303179  24.0205094  69.2609167  86.9207196  24.0928090  68.1182201
  86.1680442  35.4412219  68.6348075  86.4603416  36.0017276  67.9160440
  86.6779063  35.7340780  69.3901234  73.0616406  27.7134647  67.9122291
  72.8640806  27.1204007  67.1873358  72.5063070  27.4086857  68.6298230
  81.0413129  27.6057753  70.0316884  81.0961739  26.6531590  69.9559361
  80.2304331  27.7617192  70.5158183  82.1904323  31.5337876  61.2695168
  81.7523753  30.8173735  60.8100805  82.9314764  31.7613991  60.7080259
  78.9805489  26.2234813  67.7907263  78.1673355  26.5228984  68.1972455
  79.4764484  25.8290502  68.5081746  81.1314067  36.2192570  69.7241528
  81.0890246  36.4453416  68.7950060  82.0476766  35.9855944  69.8727329
  78.4719564  23.7953168  73.4068498  79.1118943  23.6541928  72.7091462
  77.6397095  23.5087682  73.0307100  79.2479868  33.0955599  69.5203491
  80.0420467  32.6005919  69.3186066  78.5371560  32.5673462  69.1571196
  84.0674712  35.4773694  73.8715858  84.1211735  36.0464631  74.6393574
  83.1989494  35.6475579  73.5069895  75.5562631  27.2398681  65.5963243
  74.6260220  27.1783136  65.8133205  75.6520103  26.7174633  64.7999885
  75.4748181  23.7653493  68.1841485  75.7354998  24.6798827  68.0750645
  76.2965353  23.2977936  68.3338098  76.9473106  25.1791251  75.3540310
  77.6196159  24.9708613  74.7052958  76.1202892  24.9813337  74.9145542
  83.0262812  29.6433956  75.4302790  83.9554872  29.7945116  75.2571757
  82.6053842  29.7317977  74.5751437  81.8251144  33.6684621  73.2001328
  81.6862230  33.3003405  74.0727266  81.0365740  34.1832260  73.0285286
  82.4199296  38.7693717  64.5426864  82.5951052  38.2981761  65.3572487
  81.7332084  39.3959484  64.7708125  83.3756359  33.0466224  70.5890166
  83.0406192  33.0066994  71.4847815  82.8760305  32.3810940  70.1160576
  77.3500603  28.4533854  76.1142747  77.2120401  27.7214092  76.7154286
  78.2605527  28.3642754  75.8326934  86.3115551  30.3922258  60.8627225
  85.6944721  29.6669086  60.7660278  85.8432039  31.1531618  60.5194299
  79.9782904  28.1653813  75.6026426  80.6882522  27.5247005  75.5613045
  79.9352212  28.4166708  76.5252607  76.9860381  41.9183080  71.3166724
  77.2256979  42.5501604  71.9945743  76.1429578  41.5671120  71.6032084
  78.1014097  24.6107682  59.9848529  77.2243563  24.4896483  59.6210776
  78.5771850  23.8193761  59.7327418  69.6216237  29.3984842  70.0790037
  70.3087277  29.0846572  69.4911052  69.4664366  30.3026207  69.8057288
  74.4250959  24.2875039  74.5075060  74.3409148  23.6800708  73.7725470
  73.6033665  24.7784057  74.5084557  81.4988243  37.7262203  73.7208228
  81.4258415  38.5317174  74.2327533  81.0565636  37.9254168  72.8956250
  81.2878023  36.9633973  67.2311050  80.5045545  37.5055653  67.3249275
  81.9870768  37.4807952  67.6305291  84.5974673  22.7728602  69.8745255
  85.0943372  22.0198564  69.5546326  83.8261654  22.8092919  69.3088465
  83.9586927  37.6249037  75.8766387  84.6714899  38.2596501  75.8042289
  83.4676955  37.7212903  75.0606389  85.6804454  31.5300289  67.4483679
  84.7460732  31.6501752  67.2788383  85.8581122  30.6272756  67.1843689
  81.1809642  24.9145985  69.6016940  80.8107429  24.3617025  70.2897846
  81.6768734  24.3104119  69.0491940  79.0098840  35.3743480  76.6971958
  79.7108300  36.0079963  76.8501352  78.5393955  35.7158212  75.9367597
  87.1353236  33.7161430  64.9819865  87.4113080  33.6018024  65.8913739
  86.2657735  33.3178915  64.9432038  83.7707300  37.9647781  68.6252679
  83.9529695  37.1469437  69.0880431  84.5940286  38.1815473  68.1877569
  84.1049466  36.8915966  65.8867727  84.6337232  36.3808420  65.2737889
  84.3677685  36.5758496  66.7513260  74.6066558  34.9079835  73.6303061
  75.1919995  34.1623523  73.7630965  74.4091397  35.2183792  74.5139725
  77.4605213  37.9431083  68.6465503  76.7915589  38.4277210  68.1629543
  77.3218083  38.1900303  69.5608882  69.1984213  27.4785435  72.3507504
  69.2368312  26.9449026  73.1444622  68.6924506  26.9520641  71.7318481
  81.6010482  39.9774826  75.2448161  82.1528790  40.1406448  76.0097247
  81.9416676  40.5679264  74.5728186  76.5774975  22.3249976  75.8470046
  76.6416302  23.1864807  75.4347444  76.5142096  21.7123977  75.1142405
  72.8292791  26.2049537  65.4261435  73.1246232  25.2960216  65.3728489
  71.9280826  26.1837277  65.1042437  84.7378869  37.9256802  72.2311844
  84.6130009  37.1246541  71.7222789  85.3957960  38.4202995  71.7425813
  76.3587038  24.2805534  71.4088984  75.6373623  24.8941502  71.2696457
  77.1480293  24.8163299  71.3305630  86.8013778  35.7265822  73.8591394
  85.8544113  35.6071173  73.7869720  87.1496551  34.8388320  73.9417655
  74.5580632  23.8863635  65.5500760  74.2293338  23.0061014  65.3675866
  74.9120003  23.8311304  66.4377150  83.8060211  35.5218538  70.0595746
  83.6585173  34.5935245  70.2403316  84.6313705  35.5438629  69.5752821
  77.6722455  24.1736605  65.9176238  78.0118528  24.7022526  65.1954846
  78.1194576  24.5117011  66.6934805  87.4094333  36.3447097  71.1460619
  88.3340880  36.1389958  71.0085070  87.2409636  36.0963498  72.0549960
  79.6590602  22.6711227  64.1169531  80.3798965  23.0492479  63.6133248
  79.0355907  23.3900103  64.2204509  83.8021725  23.3756376  65.0527863
  84.0185340  24.2581013  64.7516691  83.3215792  22.9842589  64.3233505
  78.5420947  26.3342089  71.6298608  78.3965527  26.6482392  72.5222889
  78.0646150  26.9526989  71.0769506  80.4017330  23.3244637  71.6779497
  80.3878898  22.4285730  71.3411795  81.1189758  23.3315300  72.3117783
  87.1989649  36.8632764  66.5022710  87.3726527  36.2979187  65.7496563
  87.6918540  37.6633659  66.3202200  73.0166609  28.8747433  74.5686269
  72.4720077  29.6507241  74.7006543  73.8945959  29.2218238  74.4105390
  79.8054226  22.2059017  66.9467067  79.9270137  21.2775663  67.1457955
  79.5156268  22.2197703  66.0345383  73.8032631  28.0017329  77.4616426
  73.0614367  28.1499965  78.0481056  73.4825375  28.2625595  76.5983175
  81.7476293  37.5433308  77.2596816  82.0563420  37.2982454  78.1319515
  82.5451775  37.7479946  76.7715686  81.7696905  39.6971217  69.4902192
  81.3301896  39.2047596  70.1835049  82.5205022  39.1544185  69.2494268
  74.2489244  35.8882758  69.4926820  75.0747264  35.5886530  69.1125464
  73.8983296  35.1190381  69.9416609  79.2170778  35.2409226  71.5624494
  78.5950787  34.5779931  71.2626722  79.8875644  35.2670358  70.8798142
  72.4497849  33.8069085  70.4515754  71.6129758  33.3791259  70.2699755
  72.4221495  34.0001528  71.3886545  78.7784284  33.7913150  65.0382954
  78.9272405  34.4748614  64.3849627  79.5850728  33.7718240  65.5532410
  76.5336917  29.8178327  66.0444023  76.2882959  28.9140657  66.2424234
  76.7032832  29.8195478  65.1023501  75.8032565  25.5506685  63.5430185
  75.1101810  25.6251040  62.8870221  75.5584317  24.7867029  64.0651702
  82.2779690  36.2861280  62.5094702  81.7053657  36.9051467  62.0565174
  82.8512484  36.8360642  63.0434624  85.4976950  36.5698430  63.6403284
  86.4307623  36.5043992  63.8436160  85.4100163  37.4054697  63.1817817
  82.6626488  27.6222093  59.8510754  83.6085593  27.4928301  59.9199172
  82.2840733  26.8836755  60.3280183  80.8469406  25.5472069  59.7865640
  79.9400861  25.2505182  59.8628353  81.1245387  25.2501887  58.9199926
  71.7647346  26.8678433  70.2364686  71.4450130  26.0143741  69.9439060
  71.2180774  27.0827011  70.9922653  75.5427254  29.5840874  73.9534193
  75.7613263  30.5157981  73.9722226  75.9553027  29.2248848  74.7388996
  82.4631471  20.0908959  65.9409881  81.6532200  19.7456044  66.3165127
  83.1515888  19.7816503  66.5297492  84.3922020  19.1687006  67.5634178
  84.9453058  19.5882459  68.2224201  84.6292106  18.2422754  67.6057134
  79.6168190  22.4059004  59.9277619  80.4787354  22.7313903  60.1873436
  79.8018534  21.6190500  59.4150685  71.6335606  30.4881344  72.2057808
  70.9399077  30.0735297  71.6927762  72.3808597  30.5301881  71.6091227
  87.7700827  21.2787531  67.0712842  87.1899496  21.9372335  66.6890894
  87.5036759  20.4564876  66.6600259  73.5472349  30.4199598  70.0823822
  73.5243037  30.5187285  69.1305706  73.8572985  31.2664749  70.4040989
  76.2059726  32.4775753  74.1970437  77.1602980  32.4459695  74.1300368
  76.0072250  32.0166377  75.0120663  76.7959109  31.0476869  76.7641235
  77.6151998  31.5420948  76.7876072  77.0695916  30.1308837  76.7358802
  86.5525705  23.4387621  66.1269190  85.6651560  23.7237272  65.9089385
  86.9679694  23.2781385  65.2796467  74.5609955  38.0195372  71.2140635
  74.4264423  37.2595773  70.6478633  74.1442017  38.7436272  70.7469424
  85.6968918  33.2032296  60.2217210  86.4004768  33.4082298  60.8374866
  84.9731567  33.7709058  60.4866294  86.5266729  28.9542157  66.3419480
  86.4701930  29.4110709  65.5027113  87.0795071  28.1932842  66.1642323
  77.7179081  38.9164689  71.4259077  77.6011465  39.8610122  71.3237768
  76.8971527  38.6138251  71.8144877  87.6055616  33.6414825  62.2715670
  88.4401220  33.2096024  62.0893145  87.4439959  33.4696839  63.1992565
  87.2601508  30.1446939  63.6372009  87.2050312  29.9791210  62.6960454
  86.6347563  30.8522971  63.7934199  72.0494023  25.3815003  77.4633432
  72.6952886  24.8713957  77.9520657  71.8411174  26.1183685  78.0376857
  80.5697633  19.6455048  63.2157328  80.5576303  20.5896887  63.3725599
  81.4621055  19.4625193  62.9216789  78.7433595  39.5692951  74.6415006
  79.6460842  39.6016562  74.9581501  78.5170965  38.6393402  74.6561342
  80.4987197  38.3223938  71.3025084  79.5482828  38.3225800  71.1889457
  80.8019683  37.5756672  70.7861119  86.4480845  47.4598572  71.1313483
  87.2402137  47.1189397  70.7159782  86.6877495  47.5693547  72.0515636
  86.0167819  43.8292354  71.0728048  86.1460200  44.0826833  71.9867460
  85.3365270  44.4220062  70.7532703  84.9637244  41.3014367  71.1179091
  84.1736298  41.5571895  70.6419201  85.4548492  42.1162705  71.2231131
  86.9151990  41.6658946  68.0762567  86.1183153  41.7777640  68.5946063
  86.6877582  42.0045598  67.2103458  83.2474947  41.5544857  73.5494081
  83.4982986  42.4391867  73.8151657  83.7834496  41.3749459  72.7769173
  85.9135072  47.3747195  66.4651987  86.4259593  48.1690445  66.6157552
  86.5657785  46.6773485  66.3985589  87.0082314  42.5377583  78.4236904
  86.8935829  41.6362840  78.7244003  86.1526831  42.7841280  78.0721720
  83.8783989  45.7035849  67.2411558  84.7159211  46.1132857  67.0245266
  84.0562257  44.7635291  67.2111752  83.9010160  43.0426564  67.9122291
  83.7034560  42.4495925  67.1873358  83.3456824  42.7378775  68.6298230
  86.3956386  42.5690598  65.5963243  85.4653974  42.5075054  65.8133205
  86.4913858  42.0466551  64.7999885  86.3141935  39.0945411  68.1841485
  86.5748752  40.0090744  68.0750645  87.1359107  38.6269854  68.3338098
  87.7866860  40.5083168  75.3540310  88.4589914  40.3000530  74.7052958
  86.9596647  40.3105254  74.9145542  87.8254136  57.2474998  71.3166724
  88.0650734  57.8793522  71.9945743  86.9823332  56.8963038  71.6032084
  80.4609991  44.7276760  70.0790037  81.1481031  44.4138490  69.4911052
  80.3058120  45.6318124  69.8057288  85.2644713  39.6166956  74.5075060
  85.1802902  39.0092626  73.7725470  84.4427420  40.1075975  74.5084557
  85.4460313  50.2371753  73.6303061  86.0313750  49.4915441  73.7630965
  85.2485151  50.5475710  74.5139725  88.2998968  53.2723000  68.6465503
  87.6309343  53.7569128  68.1629543  88.1611838  53.5192221  69.5608882
  80.0377967  42.8077353  72.3507504  80.0762067  42.2740944  73.1444622
  79.5318260  42.2812559  71.7318481  87.4168730  37.6541894  75.8470046
  87.4810056  38.5156724  75.4347444  87.3535850  37.0415895  75.1142405
  83.6686545  41.5341455  65.4261435  83.9639986  40.6252134  65.3728489
  82.7674581  41.5129195  65.1042437  87.1980792  39.6097452  71.4088984
  86.4767378  40.2233419  71.2696457  87.9874048  40.1455217  71.3305630
  85.3974387  39.2155553  65.5500760  85.0687093  38.3352932  65.3675866
  85.7513757  39.1603222  66.4377150  83.8560363  44.2039351  74.5686269
  83.3113831  44.9799159  74.7006543  84.7339713  44.5510155  74.4105390
  84.6426385  43.3309247  77.4616426  83.9008121  43.4791882  78.0481056
  84.3219129  43.5917513  76.5983175  85.0882999  51.2174676  69.4926820
  85.9141019  50.9178448  69.1125464  84.7377051  50.4482298  69.9416609
  83.2891604  49.1361002  70.4515754  82.4523512  48.7083177  70.2699755
  83.2615249  49.3293446  71.3886545  87.3730672  45.1470245  66.0444023
  87.1276714  44.2432575  66.2424234  87.5426586  45.1487395  65.1023501
  86.6426319  40.8798603  63.5430185  85.9495564  40.9542958  62.8870221
  86.3978071  40.1158946  64.0651702  82.6041101  42.1970350  70.2364686
  82.2843885  41.3435659  69.9439060  82.0574529  42.4118928  70.9922653
  86.3821008  44.9132791  73.9534193  86.6007018  45.8449899  73.9722226
  86.7946782  44.5540766  74.7388996  82.4729361  45.8173262  72.2057808
  81.7792832  45.4027215  71.6927762  83.2202352  45.8593798  71.6091227
  84.3866103  45.7491516  70.0823822  84.3636791  45.8479203  69.1305706
  84.6966740  46.5956666  70.4040989  87.0453481  47.8067671  74.1970437
  87.9996734  47.7751613  74.1300368  86.8466005  47.3458294  75.0120663
  87.6352863  46.3768787  76.7641235  88.4545752  46.8712865  76.7876072
  87.9089671  45.4600755  76.7358802  85.4003710  53.3487290  71.2140635
  85.2658178  52.5887691  70.6478633  84.9835772  54.0728190  70.7469424
  82.8887777  40.7106921  77.4633432  83.5346641  40.2005875  77.9520657
  82.6804928  41.4475602  78.0376857  79.3473553  16.1759809  53.8963829
  79.2697582  17.1267634  53.9752310  78.7435196  15.8305681  54.5538755
  81.6211922  11.5341962  52.6169369  81.4857596  12.3793497  53.0454217
  82.1621734  11.7361239  51.8535303  76.8836204  12.1683156  55.2720047
  77.0602832  13.0901121  55.0841031  77.6793037  11.8541575  55.7014427
  78.0067519  13.6861330  61.2730389  78.5574944  13.5578393  60.5007383
  77.1678995  13.9856219  60.9225282  84.2208082  15.6076168  49.0525092
  83.5469781  15.9107864  49.6610050  84.6073904  16.4105248  48.7030549
  86.1680443  12.4474341  55.3593381  86.4603418  13.0079399  54.6405747
  86.6779064  12.7402902  56.1146540  81.1314068  13.2254692  56.4486835
  81.0890247  13.4515539  55.5195367  82.0476767  12.9918067  56.5972636
  84.0674714  12.4835817  60.5961165  84.1211736  13.0526753  61.3638881
  83.1989495  12.6537702  60.2315202  82.4199297  15.7755840  51.2672171
  82.5951053  15.3043883  52.0817794  81.7332085  16.4021606  51.4953432
  76.9860383  18.9245203  58.0412031  77.2256981  19.5563727  58.7191050
  76.1429579  18.5733243  58.3277390  81.4988244  14.7324325  60.4453535
  81.4258416  15.5379297  60.9572840  81.0565637  14.9316291  59.6201556
  81.2878024  13.9696095  53.9556357  80.5045546  14.5117775  54.0494581
  81.9870769  14.4870075  54.3550598  83.9586928  14.6311159  62.6011694
  84.6714900  15.2658624  62.5287595  83.4676957  14.7275025  61.7851696
  79.0098841  12.3805603  63.4217265  79.7108301  13.0142086  63.5746659
  78.5393956  12.7220334  62.6612904  83.7707301  14.9709903  55.3497985
  83.9529696  14.1531559  55.8125738  84.5940287  15.1877596  54.9122875
  84.1049467  13.8978088  52.6113034  84.6337233  13.3870543  51.9983196
  84.3677686  13.5820619  53.4758567  74.6066559  11.9141958  60.3548367
  75.1919996  11.1685646  60.4876271  74.4091398  12.2245914  61.2385031
  77.4605215  14.9493205  55.3710810  76.7915590  15.4339333  54.8874850
  77.3218084  15.1962426  56.2854188  81.6010483  16.9836949  61.9693468
  82.1528791  17.1468570  62.7342553  81.9416677  17.5741386  61.2973493
  84.7378871  14.9318924  58.9557150  84.6130010  14.1308664  58.4468096
  85.3957962  15.4265118  58.4671120  83.8060212  12.5280660  56.7841052
  83.6585175  11.5997368  56.9648623  84.6313706  12.5500751  56.2998128
  87.4094334  13.3509219  57.8705925  88.3340882  13.1452081  57.7330376
  87.2409637  13.1025620  58.7795267  87.1989650  13.8694887  53.2268017
  87.3726528  13.3041309  52.4741869  87.6918542  14.6695782  53.0447507
  81.7476295  14.5495430  63.9842122  82.0563421  14.3044577  64.8564822
  82.5451777  14.7542069  63.4960993  81.7696907  16.7033340  56.2147499
  81.3301897  16.2109719  56.9080356  82.5205024  16.1606308  55.9739574
  74.2489246  12.8944881  56.2172127  75.0747266  12.5948653  55.8370771
  73.8983298  12.1252503  56.6661916  79.2170779  12.2471349  58.2869801
  78.5950788  11.5842054  57.9872028  79.8875646  12.2732481  57.6043448
  72.4497851  10.8131207  57.1761061  71.6129759  10.3853382  56.9945062
  72.4221496  11.0063651  58.1131852  78.7784286  10.7975272  51.7628261
  78.9272406  11.4810737  51.1094934  79.5850729  10.7780362  52.2777717
  82.2779691  13.2923403  49.2340009  81.7053658  13.9113590  48.7810480
  82.8512485  13.8422764  49.7679930  85.4976951  13.5760553  50.3648591
  86.4307624  13.5106115  50.5681466  85.4100164  14.4116820  49.9063123
  71.6335607   7.4943467  58.9303114  70.9399079   7.0797420  58.4173069
  72.3808598   7.5364003  58.3336533  76.2059728   9.4837876  60.9215744
  77.1602981   9.4521818  60.8545675  76.0072251   9.0228499  61.7365969
  74.5609956  15.0257495  57.9385941  74.4264424  14.2657896  57.3723939
  74.1442019  15.7498395  57.4714730  77.7179082  15.9226812  58.1504384
  77.6011467  16.8672245  58.0483074  76.8971529  15.6200374  58.5390183
  78.7433596  16.5755074  61.3660312  79.6460843  16.6078684  61.6826807
  78.5170967  15.6455525  61.3806648  80.4987199  15.3286061  58.0270391
  79.5482830  15.3287922  57.9134763  80.8019685  14.5818795  57.5106426
  86.4480846  24.4660695  57.8558790  87.2402138  24.1251520  57.4405089
  86.6877496  24.5755670  58.7760943  86.0167820  20.8354476  57.7973355
  86.1460201  21.0888955  58.7112767  85.3365271  21.4282184  57.4778010
  84.9637246  18.3076489  57.8424397  84.1736300  18.5634018  57.3664508
  85.4548493  19.1224827  57.9476438  86.9151991  18.6721069  54.8007874
  86.1183154  18.7839763  55.3191370  86.6877583  19.0107721  53.9348764
  83.2474949  18.5606980  60.2739388  83.4982987  19.4453990  60.5396964
  83.7834497  18.3811581  59.5014480  85.9135074  24.3809317  53.1897294
  86.4259594  25.1752568  53.3402859  86.5657786  23.6835608  53.1230895
  87.0082315  19.5439706  65.1482210  86.8935830  18.6424963  65.4489309
  86.1526833  19.7903402  64.7967027  83.8783990  22.7097972  53.9656864
  84.7159212  23.1194980  53.7490572  84.0562258  21.7697414  53.9357058
  83.9010162  20.0488687  54.6367598  83.7034561  19.4558048  53.9118664
  83.3456826  19.7440897  55.3543537  86.3956387  19.5752721  52.3208550
  85.4653975  19.5137176  52.5378512  86.4913859  19.0528674  51.5245191
  86.3141936  16.1007534  54.9086792  86.5748754  17.0152867  54.7995952
  87.1359109  15.6331976  55.0583404  87.7866862  17.5145291  62.0785616
  88.4589915  17.3062653  61.4298265  86.9596648  17.3167377  61.6390848
  87.8254137  34.2537120  58.0412031  88.0650735  34.8855645  58.7191050
  86.9823333  33.9025160  58.3277390  80.4609993  21.7338882  56.8035343
  81.1481032  21.4200612  56.2156359  80.3058121  22.6380247  56.5302595
  85.2644715  16.6229079  61.2320367  85.1802903  16.0154748  60.4970777
  84.4427421  17.1138097  61.2329863  85.4460314  27.2433875  60.3548367
  86.0313751  26.4977563  60.4876271  85.2485152  27.5537832  61.2385031
  88.2998969  30.2785123  55.3710810  87.6309344  30.7631250  54.8874850
  88.1611839  30.5254343  56.2854188  80.0377969  19.8139476  59.0752810
  80.0762068  19.2803066  59.8689928  79.5318262  19.2874681  58.4563788
  87.4168731  14.6604016  62.5715353  87.4810058  15.5218847  62.1592750
  87.3535851  14.0478018  61.8387711  83.6686546  18.5403578  52.1506742
  83.9639987  17.6314256  52.0973795  82.7674582  18.5191317  51.8287744
  87.1980793  16.6159574  58.1334290  86.4767379  17.2295542  57.9941764
  87.9874049  17.1517339  58.0550936  85.3974388  16.2217675  52.2746067
  85.0687094  15.3415054  52.0921173  85.7513759  16.1665344  53.1622456
  83.8560365  21.2101473  61.2931575  83.3113833  21.9861281  61.4251850
  84.7339714  21.5572278  61.1350697  84.6426386  20.3371370  64.1861732
  83.9008123  20.4854005  64.7726363  84.3219131  20.5979635  63.3228482
  85.0883000  28.2236798  56.2172127  85.9141020  27.9240570  55.8370771
  84.7377052  27.4544421  56.6661916  83.2891605  26.1423125  57.1761061
  82.4523514  25.7145299  56.9945062  83.2615251  26.3355568  58.1131852
  87.3730673  22.1532368  52.7689330  87.1276715  21.2494698  52.9669540
  87.5426588  22.1549518  51.8268808  86.6426321  17.8860725  50.2675491
  85.9495566  17.9605080  49.6115527  86.3978073  17.1221069  50.7897008
  82.6041102  19.2032473  56.9609993  82.2843886  18.3497781  56.6684367
  82.0574530  19.4181051  57.7167960  86.3821009  21.9194914  60.6779499
  86.6007019  22.8512022  60.6967533  86.7946783  21.5602888  61.4634303
  82.4729362  22.8235384  58.9303114  81.7792833  22.4089337  58.4173069
  83.2202353  22.8655921  58.3336533  84.3866104  22.7553638  56.8069129
  84.3636792  22.8541325  55.8551012  84.6966741  23.6018789  57.1286295
  87.0453482  24.8129793  60.9215744  87.9996736  24.7813736  60.8545675
  86.8466006  24.3520417  61.7365969  87.6352864  23.3830909  63.4886541
  88.4545753  23.8774988  63.5121378  87.9089672  22.4662877  63.4604109
  85.4003711  30.3549413  57.9385941  85.2658179  29.5949814  57.3723939
  84.9835773  31.0790313  57.4714730  82.8887779  17.7169043  64.1878738
  83.5346642  17.2067997  64.6765963  82.6804930  18.4537725  64.7622164
  29.4453442  49.6318350  90.1553111  28.7941422  50.2172431  89.7687125
  30.2397805  50.1624545  90.2148149  23.3709069  46.7207487  90.5540245
  24.1439945  46.1736475  90.4153121  23.7234468  47.5851737  90.7654707
  25.7075347  42.8800154  88.1858695  25.9600868  42.3581675  87.4242158
  24.7699906  42.7166299  88.2885379  30.9228707  47.3208782  90.6922095
  30.2874540  47.3943409  91.4043000  30.5926114  47.9102381  90.0141175
  33.0882951  42.2007437  90.9018109  34.0000807  42.4334824  90.7265806
  32.5792598  42.7844481  90.3393188  35.5741765  48.1187693  95.6476054
  34.8892803  48.4986595  95.0973087  35.6585614  48.7283020  96.3808002
  42.0344517  44.9858356  96.7678726  41.2808226  44.4165754  96.6122731
  42.1692059  44.9521021  97.7149361  27.4243145  49.8571759  92.4433446
  27.2888820  50.7023294  92.8718294  27.9652958  50.0591036  91.6799380
  30.7385892  43.3710932  89.4804774  30.2232515  44.1415536  89.7193162
  30.4663200  42.6976068  90.1037836  35.7120166  46.1243286  91.4157948
  34.9349609  45.7854446  90.9713110  36.3911647  46.1295909  90.7412913
  28.9718627  47.4028247  92.9557510  28.4439988  46.6681007  92.6430747
  28.4706130  48.1802923  92.7097478  27.1171227  45.2208457  85.9592483
  26.2098289  44.9897711  86.1583632  27.6142259  44.4246076  86.1466464
  30.0239306  53.9305964  88.8789169  29.3501005  54.2337661  89.4874127
  30.4105128  54.7335045  88.5294626  28.2959460  45.3221052  90.4816473
  27.3870680  45.0380085  90.5788942  28.3254544  45.7420131  89.6219780
  33.5278728  48.9327642  94.2507640  33.0741055  48.0918551  94.3072831
  32.8972695  49.5689040  94.5882420  31.9711667  50.7704138  95.1857458
  32.2634641  51.3309195  94.4669824  32.4810288  51.0632699  95.9410617
  27.9935548  46.8629796  87.8204551  27.5554978  46.1465655  87.3610189
  28.7345989  47.0905911  87.2589643  36.1108663  45.1386993  93.8780870
  35.9726562  45.3288589  92.9502059  35.7544882  45.9006376  94.3348921
  28.2230521  54.0985637  91.0936248  28.3982277  53.6273680  91.9081871
  27.5363309  54.7251403  91.3217509  32.1146776  45.7214177  87.4136609
  31.4975946  44.9961006  87.3169662  31.6463264  46.4823538  87.0703683
  23.9045322  39.9399602  86.5357913  23.0274788  39.8188402  86.1720160
  24.3803075  39.1485680  86.2836802  27.0909248  52.2925892  93.7820434
  26.3076770  52.8347572  93.8758658  27.7901993  52.8099872  94.1814675
  31.4835679  46.8592209  93.9993062  30.5491957  46.9793671  93.8297767
  31.6612347  45.9564676  93.7353072  32.9384461  49.0453349  91.5329249
  33.2144305  48.9309944  92.4423123  32.0688960  48.6470834  91.4941422
  29.5738525  53.2939700  95.1762062  29.7560920  52.4761356  95.6389815
  30.3971511  53.5107392  94.7386952  29.9080691  52.2207885  92.4377111
  30.4368457  51.7100340  91.8247273  30.1708910  51.9050415  93.3022644
  33.0020874  52.1924683  93.0532094  33.1757752  51.6271106  92.3005946
  33.4949765  52.9925578  92.8711584  38.8560265  44.9561106  94.6722393
  39.2991411  44.2068432  94.2741517  37.9786776  44.9471243  94.2896125
  33.9896047  51.5091448  90.1528992  34.6846951  52.1298141  90.3716307
  34.3319197  50.6586799  90.4281370  35.8887470  48.9591153  91.6816323
  36.4138794  49.2978426  90.9565643  35.8009822  48.0238169  91.4979457
  24.5815510  49.1205069  91.5892338  24.7303630  49.8040534  90.9359011
  25.3881953  49.1010159  92.1041794  38.3993130  46.4266345  97.0644841
  39.2340021  46.8656149  97.2282401  38.5352259  45.9504998  96.2453087
  28.0810915  51.6153200  89.0604086  27.5084882  52.2343387  88.6074557
  28.6543709  52.1652561  89.5944007  31.3008175  51.8990350  90.1912668
  32.2338848  51.8335911  90.3945543  31.2131388  52.7346617  89.7327200
  33.9296191  51.2156220  87.1516615  33.8509823  50.8816084  88.0452373
  34.7505858  51.7077988  87.1508088  28.4657714  42.9514012  86.4020138
  29.4116818  42.8220220  86.4708556  28.0871958  42.2128674  86.8789566
  26.6500631  40.8763989  86.3375023  25.7432086  40.5797101  86.4137737
  26.9276612  40.5793807  85.4709310  25.4199415  37.7350924  86.4787002
  26.2818579  38.0605822  86.7382820  25.6049759  36.9482420  85.9660068
  31.5000143  48.5324215  86.7726594  32.2035993  48.7374218  87.3884249
  30.7762792  49.1000977  87.0375677  32.3297954  44.2834077  92.8928864
  32.2733155  44.7402628  92.0536496  32.8826296  43.5224761  92.7151707
  33.4086841  48.9706745  88.8225054  34.2432445  48.5387943  88.6402529
  33.2471184  48.7988758  89.7501948  33.0632733  45.4738858  90.1881393
  33.0081537  45.3083129  89.2469837  32.4378788  46.1814891  90.3443583
  34.2102824  62.0499405  90.5540245  34.9833700  61.5028392  90.4153121
  34.5628222  62.9143654  90.7654707  36.5469101  58.2092071  88.1858695
  36.7994622  57.6873593  87.4242158  35.6093661  58.0458217  88.2885379
  36.2665390  60.1120177  90.3883070  36.1501648  59.4365081  91.0564155
  36.3767650  59.6252551  89.5715223  38.2502418  54.6020224  89.0891108
  38.4176820  55.4700460  89.4561579  38.0599587  54.7647506  88.1652397
  38.2291639  57.0577882  90.0737775  38.1091264  57.5034932  90.9123255
  37.5344227  57.4063199  89.5151313  32.7183215  56.9950866  94.6271951
  31.9214378  57.1069560  95.1455447  32.4908807  57.3337518  93.7612841
  29.6815214  61.0327769  93.7920941  30.5190436  61.4424777  93.5754649
  29.8593482  60.0927211  93.7621135  41.5779646  58.7002849  89.4804774
  41.0626270  59.4707454  89.7193162  41.3056955  58.0267985  90.1037836
  39.1626757  53.5452550  94.5390013  38.3068354  53.1559400  94.3595651
  39.5753709  53.6244511  93.6789798  41.3665949  56.5729941  91.3064556
  41.0616085  56.8876090  92.1574699  42.3196392  56.6511361  91.3491889
  34.5431109  53.3939831  95.3164121  35.1174861  53.1715012  94.5837314
  35.1302091  53.4628525  96.0692722  34.8700696  55.4244292  89.3360006
  34.0338008  55.7618978  89.6569281  34.7305466  55.2893272  88.3987143
  36.8453777  50.2681080  94.0439191  36.1918189  49.9530097  93.4195805
  36.8034251  49.6456820  94.7699013  37.9564981  60.5500375  85.9592483
  37.0492043  60.3189628  86.1583632  38.4536013  59.7537994  86.1466464
  39.1353215  60.6512970  90.4816473  38.2264434  60.3672003  90.5788942
  39.1648299  61.0712048  89.6219780  43.4117029  47.9687797  96.0750077
  43.7175906  47.1085161  95.7875992  44.1369634  48.5605417  95.8749071
  29.7041385  58.3718484  94.4631675  29.5065785  57.7787845  93.7382741
  29.1488049  58.0670694  95.1807614  38.8329303  62.1921713  87.8204551
  38.3948733  61.4757572  87.3610189  39.5739744  62.4197828  87.2589643
  32.1987611  57.8982518  92.1472627  31.2685199  57.8366973  92.3642589
  32.2945083  57.3758471  91.3509268  32.1173160  54.4237331  94.7350869
  32.3779977  55.3382664  94.6260029  32.9390332  53.9561773  94.8847481
  42.9540530  61.0506095  87.4136609  42.3369701  60.3252923  87.3169662
  42.4857019  61.8115455  87.0703683  34.7439076  55.2691519  86.5357913
  33.8668543  55.1480320  86.1720160  35.2196829  54.4777598  86.2836802
  29.4717770  56.8633375  91.9770819  29.7671211  55.9544053  91.9237872
  28.5705806  56.8421114  91.6551821  31.2005612  54.5447472  92.1010144
  30.8718318  53.6644851  91.9185250  31.5544982  54.4895141  92.9886533
  34.3147435  54.8320442  92.4685622  34.6543507  55.3606363  91.7464230
  34.7619555  55.1700848  93.2444188  36.3015582  53.3295064  90.6678914
  37.0223944  53.7076316  90.1642631  35.6780886  54.0483940  90.7713892
  40.4446705  54.0340213  91.6037247  40.6610319  54.9164851  91.3026075
  39.9640772  53.6426426  90.8742889  36.4479205  52.8642854  93.4976451
  36.5695116  51.9359500  93.6967339  36.1581247  52.8781540  92.5854766
  39.3170395  50.5497765  96.6343171  39.3392092  50.6137098  95.6795150
  39.7338454  49.7102273  96.8283677  33.1761897  60.4762164  92.5953407
  32.9307939  59.5724494  92.7933617  33.3457812  60.4779315  91.6532885
  32.4457545  56.2090522  90.0939569  31.7526789  56.2834877  89.4379604
  32.2009296  55.4450866  90.6161085  39.3051468  58.2805930  86.4020138
  40.2510573  58.1512138  86.4708556  38.9265713  57.5420592  86.8789566
  37.4894385  56.2055906  86.3375023  36.5825841  55.9089019  86.4137737
  37.7670366  55.9085724  85.4709310  39.1056451  50.7492796  92.4919265
  38.2957179  50.4039881  92.8674511  39.7940868  50.4400340  93.0806876
  41.0346999  49.8270843  94.1143561  41.5878038  50.2466296  94.7733584
  41.2717086  48.9006591  94.1566517  36.2593170  53.0642842  86.4787002
  37.1212334  53.3897740  86.7382820  36.4443514  52.2774338  85.9660068
  44.4125806  51.9371368  93.6222225  43.8324475  52.5956172  93.2400278
  44.1461739  51.1148713  93.2109643  43.1950684  54.0971458  92.6778574
  42.3076539  54.3821109  92.4598768  43.6104673  53.9365222  91.8305851
  42.3393898  63.8616133  86.7726594  43.0429748  64.0666136  87.3884249
  41.6156547  64.4292895  87.0375677  37.2122613  50.3038885  89.7666711
  37.2001283  51.2480725  89.9234982  38.1046035  50.1209030  89.4726173
  41.0274732  46.8981661  94.0212648  40.2607128  46.3440148  94.1669331
  41.4385437  46.9703530  94.8826800  29.4453443  26.6380473  76.8798418
  28.7941423  27.2234553  76.4932431  30.2397806  27.1686668  76.9393455
  23.3709070  23.7269610  77.2785552  24.1439946  23.1798597  77.1398428
  23.7234469  24.5913859  77.4900013  25.7075348  19.8862276  74.9104002
  25.9600869  19.3643797  74.1487465  24.7699907  19.7228422  75.0130686
  30.9228708  24.3270905  77.4167402  30.2874541  24.4005531  78.1288307
  30.5926115  24.9164504  76.7386481  25.1504778  31.5051728  80.4473213
  25.0728808  32.4559553  80.5261693  24.5466421  31.1597601  81.1048139
  33.0882952  19.2069560  77.6263416  34.0000808  19.4396946  77.4511113
  32.5792599  19.7906604  77.0638494  35.5741766  25.1249816  82.3721361
  34.8892804  25.5048717  81.8218394  35.6585615  25.7345143  83.1053309
  42.0344519  21.9920479  83.4924033  41.2808227  21.4227877  83.3368038
  42.1692060  21.9583143  84.4394668  27.4243147  26.8633881  79.1678752
  27.2888822  27.7085417  79.5963600  27.9652959  27.0653159  78.4044686
  30.7385893  20.3773054  76.2050081  30.2232516  21.1477659  76.4438468
  30.4663201  19.7038190  76.8283142  35.7120167  23.1305409  78.1403255
  34.9349610  22.7916568  77.6958417  36.3911648  23.1358032  77.4658220
  28.9718628  24.4090370  79.6802816  28.4439990  23.6743129  79.3676054
  28.4706131  25.1865046  79.4342785  27.1171228  22.2270580  72.6837789
  26.2098290  21.9959833  72.8828938  27.6142260  21.4308199  72.8711771
  30.0239307  30.9368087  75.6034475  29.3501006  31.2399784  76.2119433
  30.4105129  31.7397167  75.2539932  28.2959462  22.3283175  77.2061779
  27.3870681  22.0442207  77.3034249  28.3254545  22.7482253  76.3465086
  33.5278729  25.9389764  80.9752947  33.0741056  25.0980674  81.0318137
  32.8972696  26.5751163  81.3127727  31.9711668  27.7766261  81.9102765
  32.2634643  28.3371318  81.1915131  32.4810289  28.0694822  82.6655924
  27.9935549  23.8691918  74.5449858  27.5554979  23.1527777  74.0855495
  28.7345990  24.0968033  73.9834949  36.1108664  22.1449115  80.6026176
  35.9726563  22.3350711  79.6747366  35.7544883  22.9068498  81.0594228
  28.2230522  31.1047759  77.8181555  28.3982278  30.6335803  78.6327177
  27.5363310  31.7313526  78.0462815  32.1146777  22.7276300  74.1381915
  31.4975948  22.0023128  74.0414968  31.6463266  23.4885660  73.7948990
  23.9045323  16.9461724  73.2603220  23.0274789  16.8250525  72.8965466
  24.3803076  16.1547803  73.0082108  27.0909249  29.2988015  80.5065740
  26.3076771  29.8409695  80.6003965  27.7901994  29.8161994  80.9059981
  31.4835680  23.8654331  80.7238369  30.5491959  23.9855794  80.5543073
  31.6612348  22.9626798  80.4598379  32.9384462  26.0515472  78.2574555
  33.2144306  25.9372066  79.1668429  32.0688961  25.6532957  78.2186728
  29.5738526  30.3001823  81.9007369  29.7560921  29.4823479  82.3635121
  30.3971512  30.5169515  81.4632259  29.9080692  29.2270008  79.1622417
  30.4368458  28.7162462  78.5492579  30.1708911  28.9112538  80.0267950
  33.0020875  29.1986806  79.7777400  33.1757753  28.6333229  79.0251253
  33.4949767  29.9987701  79.5956890  38.8560267  21.9623229  81.3967700
  39.2991413  21.2130554  80.9986823  37.9786777  21.9533365  81.0141432
  33.9896048  28.5153570  76.8774299  34.6846952  29.1360263  77.0961613
  34.3319198  27.6648922  77.1526676  35.8887471  25.9653276  78.4061629
  36.4138795  26.3040549  77.6810949  35.8009824  25.0300291  78.2224764
  27.5728132  32.0325259  82.7656883  27.1333122  31.5401638  83.4589739
  28.3236249  31.4898227  82.5248958  24.5815511  26.1267192  78.3137645
  24.7303631  26.8102656  77.6604318  25.3881954  26.1072282  78.8287100
  38.3993131  23.4328467  83.7890148  39.2340023  23.8718271  83.9527708
  38.5352260  22.9567121  82.9698393  28.0810916  28.6215322  75.7849392
  27.5084883  29.2405509  75.3319864  28.6543710  29.1714684  76.3189314
  31.3008176  28.9052472  76.9157974  32.2338849  28.8398034  77.1190850
  31.2131389  29.7408739  76.4572507  33.9296193  28.2218343  73.8761922
  33.8509824  27.8878206  74.7697680  34.7505860  28.7140111  73.8753394
  28.4657715  19.9576135  73.1265445  29.4116820  19.8282343  73.1953863
  28.0871960  19.2190797  73.6034873  26.6500632  17.8826111  73.0620330
  25.7432087  17.5859224  73.1383044  26.9276613  17.5855929  72.1954616
  25.4199417  14.7413047  73.2032309  26.2818581  15.0667945  73.4628126
  25.6049761  13.9544542  72.6905375  31.5000145  25.5386338  73.4971900
  32.2035995  25.7436341  74.1129556  30.7762793  26.1063100  73.7620984
  32.3297955  21.2896199  79.6174171  32.2733156  21.7464751  78.7781803
  32.8826297  20.5286884  79.4397013  33.4086842  25.9768867  75.5470360
  34.2432446  25.5450066  75.3647835  33.2471185  25.8050881  76.4747255
  33.0632734  22.4800981  76.9126700  33.0081538  22.3145252  75.9715144
  32.4378789  23.1877013  77.0688889  42.0371117  36.4938518  85.6425537
  42.6749527  36.3745266  84.9388877  41.9191960  37.4419362  85.7013489
  38.8460823  36.4465946  85.5787062  38.5079335  36.3307011  84.6907597
  39.7150592  36.0457112  85.5588068  34.7047639  38.3001423  81.5683953
  34.1412504  38.2091360  80.8000241  34.5900034  37.4801327  82.0486445
  32.2512071  39.7952614  84.4068173  33.0433363  39.4543439  83.9914473
  32.4908721  39.9047590  85.3270327  40.2847198  41.9672391  76.8798418
  39.6335177  42.5526471  76.4932431  41.0791561  42.4978585  76.9393455
  34.2102825  39.0561528  77.2785552  34.9833701  38.5090515  77.1398428
  34.5628224  39.9205777  77.4900013  36.0487867  40.3837910  90.4852451
  35.7577733  41.2883541  90.3699118  36.6844852  40.4254438  91.1996521
  36.9744074  37.7614759  87.0753811  37.5707647  37.5370781  86.3610774
  37.0319046  37.0199504  87.6779259  36.5469103  35.2154194  74.9104002
  36.7994623  34.6935715  74.1487465  35.6093662  35.0520339  75.0130686
  41.5912386  34.2189972  82.7178745  42.3775475  33.8009395  82.3669162
  41.8551090  35.1236064  82.8860394  46.9920813  34.1565205  83.6211724
  47.7245985  33.5864422  83.8549553  46.2360168  33.7686806  84.0618229
  36.2665391  37.1182300  77.1128377  36.1501650  36.4427203  77.7809461
  36.3767651  36.6314674  76.2960530  38.6096932  36.5792447  80.8175066
  38.2455140  36.0523068  81.5287988  39.4664048  36.1890916  80.6441552
  38.2502419  31.6082347  75.8136415  38.4176822  32.4762583  76.1806886
  38.0599588  31.7709628  74.8897704  41.0077753  40.0699326  87.4802245
  40.7078476  40.9724364  87.3718052  40.6628812  39.8031509  88.3323398
  34.4590234  36.5213122  83.5138949  33.5340730  36.3889336  83.7216641
  34.7074647  37.3007342  84.0108892  44.4074896  32.5881866  85.1599682
  43.4991774  32.5197274  84.8658443  44.3562492  33.0653811  85.9881508
  38.2291640  34.0640004  76.7983082  38.1091265  34.5097055  77.6368562
  37.5344229  34.4125322  76.2396620  31.8199045  36.1646396  84.3482739
  31.9491426  36.4180875  85.2622150  31.1396496  36.7574104  84.0287394
  35.9898532  46.8343646  80.4473213  35.9122562  47.7851471  80.5261693
  35.3860176  46.4889518  81.1048139  46.2736543  30.7898304  86.9377556
  45.6310923  31.0830837  86.2917351  45.7691471  30.6751224  87.7430753
  43.9276706  34.5361477  77.6263416  44.8394562  34.7688864  77.4511113
  43.4186353  35.1198521  77.0638494  42.2117474  38.9586105  91.2624708
  42.6200830  38.5168516  90.5179340  41.4894736  38.3838733  91.5158901
  38.5648544  33.8958712  88.6358265  39.4109739  34.3198125  88.7792914
  38.5047182  33.2392336  89.3296828  42.5346289  39.5187296  85.0176997
  41.9055151  39.6833010  84.3153065  42.1471951  39.9328905  85.7887961
  46.4135521  40.4541734  82.3721361  45.7286559  40.8340635  81.8218394
  46.4979370  41.0637060  83.1053309  43.6686452  38.1001693  88.9716704
  43.8803347  38.7433453  88.2951085  43.6216200  37.2664009  88.5038634
  41.2712681  30.7119513  85.8753276  40.4097160  31.0100767  86.1670014
  41.2975116  30.9289912  84.9434309  38.0874251  39.2561704  82.2827082
  38.5512596  39.5349407  81.4931705  37.8231049  38.3545148  82.1000173
  34.9798332  38.8033185  85.2206845  35.5499689  39.2320454  84.5824330
  35.5706443  38.5215770  85.9191031  37.0243137  35.3784856  79.0916647
  37.7267180  35.8305900  79.5590574  36.6923765  34.7368675  79.7196540
  30.7668471  33.6368409  84.3933781  29.9767525  33.8925937  83.9173891
  31.2579718  34.4516747  84.4985821  44.7832280  40.9773648  87.1439062
  45.6049724  40.5753835  86.8621743  44.7794683  40.8741882  88.0955177
  32.7183216  34.0012988  81.3517258  31.9214379  34.1131682  81.8700753
  32.4908808  34.3399640  80.4858148  38.5488884  40.5257691  89.2999772
  38.6133316  40.9878099  90.1357944  37.8399807  39.8955056  89.4282082
  52.8738273  37.3212397  83.4924033  52.1201982  36.7519795  83.3368038
  53.0085814  37.2875061  84.4394668  38.2636901  42.1925799  79.1678752
  38.1282576  43.0377335  79.5963600  38.8046714  42.3945076  78.4044686
  31.7166299  39.7101237  79.7406678  32.2290819  40.5044487  79.8912242
  32.3689011  39.0127527  79.6740279  33.5261183  42.8266993  81.8229431
  33.7027812  43.7484958  81.6350415  34.3218017  42.5125412  82.2523811
  39.8905378  42.8149365  93.2979095  39.4469232  42.0285744  92.9799999
  40.5522591  43.0028516  92.6322985  34.6492499  44.3445167  87.8239773
  35.1999924  44.2162230  87.0516767  33.8103975  44.6440056  87.4734666
  41.9886616  43.0952165  91.3260496  41.9705091  43.9161046  90.8340765
  42.9106536  42.9706240  91.5510637  38.4459670  40.6096295  92.1684004
  38.9788007  39.8484583  91.9383312  37.9173751  40.3169947  92.9108159
  29.6815215  38.0389891  80.5166248  30.5190437  38.4486900  80.2999956
  29.8593483  37.0989333  80.4866442  41.5779648  35.7064972  76.2050081
  41.0626271  36.4769576  76.4438468  41.3056956  35.0330108  76.8283142
  39.1626759  30.5514673  81.2635319  38.3068355  30.1621523  81.0840958
  39.5753710  30.6306633  80.4035105  40.6925905  28.0861016  85.6626879
  40.1890701  28.0491151  84.8494684  40.9856512  28.9953759  85.7223536
  36.9368791  28.1699746  84.6693061  37.8021788  27.9742554  84.3098950
  37.0046300  27.9410097  85.5962418  46.5513922  38.4597326  78.1403255
  45.7743364  38.1208486  77.6958417  47.2305403  38.4649950  77.4658220
  41.3665951  33.5792064  78.0309862  41.0616086  33.8938213  78.8820005
  42.3196393  33.6573484  78.0737195  39.8112383  39.7382287  79.6802816
  39.2833744  39.0035047  79.3676054  39.3099885  40.5156964  79.4342785
  44.7905229  37.9331308  84.7969863  44.1328903  38.6230569  84.8849991
  45.5945628  38.3227740  85.1403849  34.5431110  30.4001954  82.0409428
  35.1174862  30.1777135  81.3082621  35.1302093  30.4690648  82.7938029
  43.6010687  36.2875680  82.8473804  44.1142569  36.9205672  83.3495514
  44.2511911  35.6876876  82.4817164  34.8700697  32.4306415  76.0605313
  34.0338010  32.7681101  76.3814588  34.7305467  32.2955394  75.1232450
  36.8453778  27.2743202  80.7684497  36.1918190  26.9592220  80.1441112
  36.8034252  26.6518943  81.4944320  37.9564983  37.5562497  72.6837789
  37.0492044  37.3251751  72.8828938  38.4536015  36.7600117  72.8711771
  40.8633062  46.2660005  75.6034475  40.1894760  46.5691701  76.2119433
  41.2498884  47.0689085  75.2539932  40.0791518  33.7625136  85.0932145
  39.1614080  33.9840083  84.9353833  40.4951662  33.8371446  84.2343852
  40.8626566  35.1616552  80.2234825  41.6098385  35.6737949  79.9141947
  41.1318156  34.8400604  81.0839219  39.1353216  37.6575092  77.2061779
  38.2264435  37.3734125  77.3034249  39.1648300  38.0774171  76.3465086
  44.3672484  41.2681682  80.9752947  43.9134811  40.4272592  81.0318137
  43.7366450  41.9043080  81.3127727  43.3105403  32.1973668  82.2053614
  42.5728160  31.6851054  82.5363857  43.5632177  31.7574049  81.3936891
  42.8105423  43.1058179  81.9102765  43.1028397  43.6663236  81.1915131
  43.3204043  43.3986740  82.6655924  43.4117030  24.9749920  82.7995384
  43.7175907  24.1147283  82.5121299  44.1369635  25.5667540  82.5994378
  29.7041387  35.3780606  81.1876982  29.5065786  34.7849967  80.4628048
  29.1488051  35.0732817  81.9052920  37.6838110  35.2703713  83.3071575
  37.7386720  34.3177549  83.2314051  36.8729312  35.4263152  83.7912873
  38.8329304  39.1983836  74.5449858  38.3948734  38.4819695  74.0855495
  39.5739745  39.4259951  73.9834949  35.6230470  33.8880773  81.0661954
  34.8098336  34.1874943  81.4727146  36.1189464  33.4936461  81.7836436
  37.7739048  43.8838530  82.9996218  37.7315227  44.1099376  82.0704750
  38.6901747  43.6501904  83.1482019  41.2204682  34.3522597  89.8976847
  41.5754070  34.5794070  90.7571313  41.8676813  34.6840974  89.2754103
  46.9502419  37.4741033  80.6026176  46.8120317  37.6642629  79.6747366
  46.5938638  38.2360416  81.0594228  35.1144545  31.4599128  86.6823189
  35.7543924  31.3187887  85.9846152  34.2822075  31.1733642  86.3061790
  46.9771798  39.5417560  85.6137448  47.4108305  39.4492849  86.4620502
  47.6903379  39.5175061  84.9757464  35.8904849  40.7601559  82.7958181
  36.6845447  40.2651879  82.5940756  35.1796541  40.2319422  82.4325887
  40.7099693  43.1419654  87.1470549  40.7636716  43.7110590  87.9148264
  39.8414475  43.3121539  86.7824586  32.1987612  34.9044640  78.8717934
  31.2685200  34.8429096  79.0887896  32.2945084  34.3820593  78.0754575
  32.1173161  31.4299453  81.4596175  32.3779979  32.3444786  81.3505336
  32.9390334  30.9623896  81.6092788  47.8387348  39.5841261  88.1470333
  48.0323238  40.4887071  88.3929608  47.7387966  39.1248680  88.9808918
  42.9002457  39.7348003  93.7211214  42.7487963  39.5058555  92.8041298
  42.8907136  40.6918605  93.7342559  39.6687793  37.3079916  88.7057480
  40.5979853  37.4591076  88.5326448  39.2478823  37.3963937  87.8506127
  38.4676125  41.3330581  86.4756018  38.3287210  40.9649365  87.3481956
  37.6790721  41.8478220  86.3039976  39.0624277  46.4339677  77.8181555
  39.2376032  45.9627720  78.6327177  38.3757065  47.0605443  78.0462815
  40.0181340  40.7112183  83.8644856  39.6831173  40.6712953  84.7602506
  39.5185286  40.0456899  83.3915266  42.9540532  38.0568218  74.1381915
  42.3369702  37.3315046  74.0414968  42.4857020  38.8177578  73.7948990
  36.6207885  35.8299773  88.8781117  37.3307503  35.1892965  88.8367735
  36.5777193  36.0812668  89.8007297  44.6094663  42.7667126  91.7987696
  44.5507209  42.0826346  91.1318279  45.0114182  43.5086116  91.3468322
  33.6285362  49.5829040  84.5921415  33.8681960  50.2147564  85.2700433
  32.7854559  49.2317080  84.8786774  34.7439077  32.2753642  73.2603220
  33.8668544  32.1542443  72.8965466  35.2196831  31.4839720  73.0082108
  44.6112071  40.7306710  90.0301676  43.7238849  40.3932632  90.1528074
  45.1810622  39.9989741  90.2670441  26.2641218  37.0630802  83.3544727
  26.9512257  36.7492532  82.7665742  26.1089346  37.9672166  83.0811978
  38.1413224  45.3908162  86.9962919  38.0683395  46.1963134  87.5082223
  37.6990617  45.5900128  86.1710940  37.9303004  44.6279932  80.5065740
  37.1470525  45.1701613  80.6003965  38.6295749  45.1453912  80.9059981
  41.2399654  30.4374562  83.1499946  41.7368353  29.6844524  82.8301016
  40.4686635  30.4738878  82.5843155  49.0929411  36.1414927  84.7918237
  49.0819287  37.0239643  84.4212170  48.2246790  35.7886478  84.5972774
  40.6011907  45.2894996  89.1521077  41.3139880  45.9242461  89.0796979
  40.1101936  45.3858862  88.3361079  42.3229434  39.1946249  80.7238369
  41.3885713  39.3147711  80.5543073  42.5006103  38.2918716  80.4598379
  37.8234622  32.5791945  82.8771630  37.4532410  32.0262985  83.5652536
  38.3193715  31.9750078  82.3246630  45.7101986  35.0363568  81.2588403
  46.1762438  35.8691560  81.1848706  46.1609486  34.5708550  81.9633662
  35.6523821  43.0389440  89.9726648  36.3533280  43.6725923  90.1256042
  35.1818936  43.3804171  89.2122287  43.7778217  41.3807390  78.2574555
  44.0538061  41.2663984  79.1668429  42.9082716  40.9824874  78.2186728
  43.6818648  27.4044155  85.2979305  42.7681728  27.6348382  85.4661511
  44.1111750  27.4882599  86.1493337  43.4525107  35.5934047  87.7979199
  42.7996557  35.8409955  87.1431651  43.8305487  34.7798185  87.4641676
  40.4132281  45.6293740  81.9007369  40.5954675  44.8115396  82.3635121
  41.2365267  45.8461433  81.4632259  40.7474446  44.5561926  79.1622417
  41.2762213  44.0454380  78.5492579  41.0102666  44.2404456  80.0267950
  31.2491539  42.5725795  86.9057751  31.8344976  41.8269483  87.0385655
  31.0516377  42.8829752  87.7894415  34.1030194  45.6077042  81.9220193
  33.4340570  46.0923170  81.4384233  33.9643064  45.8546263  82.8363572
  38.2435463  47.6420786  88.5202852  38.7953771  47.8052407  89.2851937
  38.5841656  48.2325224  87.8482876  43.0946337  42.4682043  94.3751506
  43.6386241  43.0812002  93.8806461  42.5133182  43.0261622  94.8918519
  29.4717771  33.8695497  78.7016125  29.7671212  32.9606176  78.6483179
  28.5705807  33.8483237  78.3797128  41.3803850  45.5902761  85.5066534
  41.2554990  44.7892501  84.9977479  42.0382941  46.0848955  85.0180504
  33.0012018  31.9451494  84.6843674  32.2798604  32.5587461  84.5451147
  33.7905274  32.4809259  84.6060320  43.4438758  43.3911781  87.1346084
  42.4969094  43.2717133  87.0624411  43.7921532  42.5034279  87.2172345
  31.2005613  31.5509595  78.8255451  30.8718319  30.6706974  78.6430556
  31.5544984  31.4957264  79.7131840  40.4485192  43.1864498  83.3350436
  40.3010154  42.2581205  83.5158006  41.2738685  43.2084588  82.8507511
  34.3147436  31.8382565  79.1930928  34.6543509  32.3668486  78.4709537
  34.7619557  32.1762971  79.9689495  44.0519314  44.0093056  84.4215309
  44.9765861  43.8035918  84.2839760  43.8834617  43.7609457  85.3304650
  36.3015583  30.3357186  77.3924221  37.0223946  30.7138439  76.8887938
  35.6780887  31.0546063  77.4959199  40.4446706  31.0402335  78.3282553
  40.6610320  31.9226973  78.0271382  39.9640773  30.6488549  77.5988195
  35.1845927  33.9988048  84.9053298  35.0390508  34.3128352  85.7977579
  34.7071131  34.6172949  84.3524197  37.0442310  30.9890596  84.9534188
  37.0303879  30.0931690  84.6166485  37.7614738  30.9961260  85.5872474
  38.8968441  31.4227937  86.9987315  38.6386219  32.3445007  86.9971645
  38.3653481  31.0258371  87.6887779  43.8414630  44.5278724  79.7777400
  44.0151507  43.9625146  79.0251253  44.3343521  45.3279619  79.5956890
  36.4479206  29.8704977  80.2221758  36.5695117  28.9421623  80.4212645
  36.1581249  29.8843663  79.3100073  39.3170397  27.5559887  83.3588477
  39.3392094  27.6199220  82.4040457  39.7338456  26.7164396  83.5528984
  49.6954021  37.2915147  81.3967700  50.1385167  36.5422472  80.9986823
  48.8180531  37.2825283  81.0141432  44.8289802  43.8445488  76.8774299
  45.5240707  44.4652181  77.0961613  45.1712952  42.9940839  77.1526676
  46.7281225  41.2945194  78.4061629  47.2532550  41.6332466  77.6810949
  46.6403578  40.3592209  78.2224764  38.3901274  45.2079267  90.5351506
  38.6988401  44.9628414  91.4074206  39.1876756  45.4125906  90.0470376
  38.4121886  47.3617177  82.7656883  37.9726876  46.8693556  83.4589739
  39.1630003  46.8190145  82.5248958  30.8914225  43.5528718  82.7681511
  31.7172245  43.2532490  82.3880154  30.5408277  42.7836340  83.2171299
  35.8595758  42.9055186  84.8379184  35.2375768  42.2425891  84.5381412
  36.5300625  42.9316318  84.1552832  29.0922830  41.4715044  83.7270444
  28.2554739  41.0437219  83.5454445  29.0646476  41.6647488  84.6641235
  46.4175132  41.9278097  93.7112827  45.6270675  41.9102236  93.1717327
  46.1808486  42.4666391  94.4661864  46.5373007  38.7770564  91.0245556
  46.5871011  38.6120571  91.9661079  46.4286930  37.9097823  90.6343437
  35.4209265  41.4559109  78.3137645  35.5697386  42.1394574  77.6604318
  36.2275709  41.4364199  78.8287100  48.0391203  41.1967505  91.2687577
  47.7476012  41.5597486  92.1051038  47.4263335  40.4834514  91.0900909
  49.2386886  38.7620385  83.7890148  50.0733777  39.2010189  83.9527708
  49.3746015  38.2859038  82.9698393  46.2878392  36.3200120  89.7367635
  46.7632513  36.5127766  88.9286487  45.3643957  36.3759306  89.4911019
  33.1761898  37.4824287  79.3198714  32.9307940  36.5786617  79.5178924
  33.3457813  37.4841437  78.3778192  32.4457546  33.2152645  76.8184875
  31.7526791  33.2897000  76.1624911  32.2009298  32.4512988  77.3406392
  41.1171202  24.7748246  84.2224366  41.3972956  24.1071435  84.8484792
  41.9021809  24.9677342  83.7099030  38.9204671  43.9507240  75.7849392
  38.3478638  44.5697427  75.3319864  39.4937464  44.5006602  76.3189314
  44.9880061  33.1965880  87.9695941  45.9397484  33.2963978  87.9908165
  44.8183511  32.4044148  88.4794025  43.0094440  30.2821463  88.1555342
  42.4144372  30.5626476  87.4601831  42.7244137  30.7715364  88.9272083
  42.1401931  44.2344390  76.9157974  43.0732604  44.1689952  77.1190850
  42.0525143  45.0700657  76.4572507  44.7689947  43.5510260  73.8761922
  44.6903579  43.2170124  74.7697680  45.5899614  44.0432028  73.8753394
  47.4668138  36.4172000  87.0838241  47.4344459  35.4788000  87.2697924
  48.0768762  36.4956036  86.3504066  39.3051469  35.2868053  73.1265445
  40.2510574  35.1574261  73.1953863  38.9265714  34.5482715  73.6034873
  47.6162627  33.2083043  87.1296524  47.1001676  32.4241500  86.9426453
  48.5002575  32.8801760  87.2943043  45.2773354  26.9524059  83.0892336
  45.0798175  26.6439147  83.9735668  45.8873059  27.6785698  83.2190266
  53.2844688  37.4788006  86.2244277  54.0148077  37.2173295  86.7851981
  52.6751634  36.7416728  86.2646345  51.3659985  35.6195869  86.8218729
  50.6393149  35.4851834  86.2135220  50.9507272  35.9272698  87.6275447
  37.4894386  33.2118029  73.0620330  36.5825842  32.9151142  73.1383044
  37.7670367  32.9147847  72.1954616  28.4072327  34.5324392  83.5119376
  28.0875111  33.6789701  83.2193750  27.8605755  34.7472971  84.2677344
  32.1852234  37.2486833  87.2288883  32.4038244  38.1803941  87.2476917
  32.5978008  36.8894808  88.0143687  39.1056452  27.7554919  79.2164571
  38.2957180  27.4102004  79.5919817  39.7940869  27.4462462  79.8052183
  41.0347000  26.8332966  80.8388868  41.5878039  27.2528419  81.4978891
  41.2717087  25.9068714  80.8811824  36.2593171  30.0704964  73.2032309
  37.1212335  30.3959863  73.4628126  36.4443515  29.2836460  72.6905375
  28.2760587  38.1527304  85.4812498  27.5824058  37.7381257  84.9682452
  29.0233578  38.1947840  84.8845917  44.4125808  28.9433491  80.3467532
  43.8324477  29.6018295  79.9645585  44.1461740  28.1210835  79.9354950
  42.8629374  28.3438548  82.5488852  43.3629152  28.4555083  81.7403171
  43.5064982  28.0399601  83.1889661  30.1897329  38.0845558  83.3578513
  30.1668017  38.1833245  82.4060396  30.4997966  38.9310708  83.6795679
  32.8484707  40.1421713  87.4725127  33.8027961  40.1105655  87.4055059
  32.6497231  39.6812336  88.2875353  43.1950686  31.1033581  79.4023880
  42.3076541  31.3883232  79.1844075  43.6104675  30.9427344  78.5551157
  46.5465222  31.1280102  83.1178220  47.3225612  31.6176554  83.3902836
  45.8213356  31.5538156  83.5750089  48.9837780  31.8407721  84.1752160
  49.5782271  31.6003457  83.4645468  49.0564364  31.1214852  84.8025697
  31.2034936  45.6841332  84.4895325  31.0689404  44.9241733  83.9233323
  30.7866998  46.4082232  84.0224114  42.3393899  40.8678256  73.4971900
  43.0429749  41.0728258  74.1129556  41.6156548  41.4355018  73.7620984
  43.1691709  36.6188117  79.6174171  43.1126911  37.0756668  78.7781803
  43.7220052  35.8578802  79.4397013  46.9796515  32.4077849  80.4424290
  46.7233449  32.0074485  81.2732498  46.3549383  33.1221643  80.3174429
  51.2908853  35.1473922  82.9495581  50.7308411  35.2167111  83.7227143
  50.6852356  34.9714907  82.2295078  34.3604062  46.5810649  84.7013768
  34.2436446  47.5256082  84.5992458  33.5396508  46.2784211  85.0899567
  44.2480596  41.3060785  75.5470360  45.0826200  40.8741983  75.3647835
  44.0864939  41.1342799  76.4747255  43.9026489  37.8092898  76.9126700
  43.8475292  37.6437170  75.9715144  43.2772544  38.5168931  77.0688889
  37.2122614  27.3101007  76.4912018  37.2001284  28.2542847  76.6480289
  38.1046036  27.1271153  76.1971479  35.3858576  47.2338911  87.9169696
  36.2885823  47.2662521  88.2336191  35.1595946  46.3039362  87.9316032
  37.1412178  45.9869898  84.5779775  36.1907809  45.9871759  84.4644147
  37.4444664  45.2402632  84.0615809  41.0274734  23.9043784  80.7457955
  40.2607129  23.3502271  80.8914637  41.4385438  23.9765653  81.6072107
  52.8764872  51.8230436  85.6425537  53.5143281  51.7037183  84.9388877
  52.7585714  52.7711280  85.7013489  49.6854578  51.7757864  85.5787062
  49.3473089  51.6598929  84.6907597  50.5544346  51.3749029  85.5588068
  45.5441393  53.6293341  81.5683953  44.9806259  53.5383277  80.8000241
  45.4293789  52.8093245  82.0486445  43.0905825  55.1244532  84.4068173
  43.8827117  54.7835357  83.9914473  43.3302476  55.2339507  85.3270327
  51.1240952  57.2964308  76.8798418  50.4728932  57.8818389  76.4932431
  51.9185315  57.8270503  76.9393455  45.0496579  54.3853445  77.2785552
  45.8227455  53.8382432  77.1398428  45.4021978  55.2497695  77.4900013
  47.8137829  53.0906676  87.0753811  48.4101401  52.8662699  86.3610774
  47.8712800  52.3491422  87.6779259  47.3862857  50.5446112  74.9104002
  47.6388378  50.0227633  74.1487465  46.4487416  50.3812257  75.0130686
  52.4306140  49.5481890  82.7178745  53.2169229  49.1301313  82.3669162
  52.6944844  50.4527982  82.8860394  52.6016217  54.9854740  77.4167402
  51.9662050  55.0589367  78.1288307  52.2713624  55.5748339  76.7386481
  57.8314567  49.4857123  83.6211724  58.5639739  48.9156340  83.8549553
  57.0753923  49.0978724  84.0618229  47.1059146  52.4474217  77.1128377
  46.9895404  51.7719121  77.7809461  47.2161406  51.9606591  76.2960530
  49.4490687  51.9084365  80.8175066  49.0848894  51.3814986  81.5287988
  50.3057803  51.5182834  80.6441552  55.3539987  43.1978697  88.0806332
  55.0223312  44.0674108  87.8567547  54.7585601  42.8814981  88.7600363
  49.0896174  46.9374264  75.8136415  49.2570576  47.8054501  76.1806886
  48.8993343  47.1001546  74.8897704  51.8471507  55.3991243  87.4802245
  51.5472230  56.3016282  87.3718052  51.5022567  55.1323426  88.3323398
  45.2983988  51.8505040  83.5138949  44.3734485  51.7181254  83.7216641
  45.5468402  52.6299259  84.0108892  55.2468651  47.9173783  85.1599682
  54.3385528  47.8489192  84.8658443  55.1956247  48.3945728  85.9881508
  49.0685395  49.3931922  76.7983082  48.9485020  49.8388973  77.6368562
  48.3737983  49.7417239  76.2396620  42.6592800  51.4938314  84.3482739
  42.7885181  51.7472793  85.2622150  41.9790251  52.0866022  84.0287394
  46.8292287  62.1635564  80.4473213  46.7516317  63.1143389  80.5261693
  46.2253930  61.8181436  81.1048139  57.1130297  46.1190222  86.9377556
  56.4704677  46.4122755  86.2917351  56.6085226  46.0043142  87.7430753
  54.7670461  49.8653395  77.6263416  55.6788317  50.0980782  77.4511113
  54.2580108  50.4490439  77.0638494  49.4042299  49.2250630  88.6358265
  50.2503494  49.6490043  88.7792914  49.3440936  48.5684254  89.3296828
  53.3740043  54.8479213  85.0176997  52.7448906  55.0124928  84.3153065
  52.9865705  55.2620823  85.7887961  57.2529275  55.7833651  82.3721361
  56.5680313  56.1632553  81.8218394  57.3373124  56.3928978  83.1053309
  52.5541744  46.8854998  90.2939439  52.3102676  47.6397058  89.7573714
  52.8301674  47.2640346  91.1286686  52.1106436  46.0411431  85.8753276
  51.2490915  46.3392685  86.1670014  52.1368870  46.2581830  84.9434309
  48.9268005  54.5853622  82.2827082  49.3906351  54.8641324  81.4931705
  48.6624803  53.6837066  82.1000173  45.8192086  54.1325103  85.2206845
  46.3893443  54.5612371  84.5824330  46.4100198  53.8507688  85.9191031
  47.8636891  50.7076774  79.0916647  48.5660934  51.1597818  79.5590574
  47.5317520  50.0660593  79.7196540  46.3117253  49.2988530  93.4667857
  45.6815913  49.9804811  93.7003253  46.2053341  49.1871612  92.5220995
  41.6062225  48.9660327  84.3933781  40.8161279  49.2217855  83.9173891
  42.0973472  49.7808664  84.4985821  43.5576970  49.3304906  81.3517258
  42.7608134  49.4423600  81.8700753  43.3302563  49.6691558  80.4858148
  39.8899928  49.2190817  86.8248772  40.1407966  50.1037827  87.0906348
  40.4259476  49.0395419  86.0523863  63.7132028  52.6504314  83.4924033
  62.9595736  52.0811712  83.3368038  63.8479569  52.6166979  84.4394668
  49.1030656  57.5217716  79.1678752  48.9676331  58.3669252  79.5963600
  49.6440468  57.7236994  78.4044686  45.5897995  43.6009296  95.8293108
  45.1964941  43.0475495  96.5040752  46.4064136  43.9119875  96.2199625
  42.5560053  55.0393155  79.7406678  43.0684574  55.8336405  79.8912242
  43.2082766  54.3419445  79.6740279  44.3654938  58.1558911  81.8229431
  44.5421566  59.0776876  81.6350415  45.1611771  57.8417330  82.2523811
  48.5065956  45.0167175  93.4213364  49.2475670  45.6174329  93.3417827
  48.7383879  44.2744813  92.8631407  43.6507294  50.2023543  91.6991594
  43.5360810  49.3008800  91.9998693  42.7951812  50.4487239  91.3476410
  45.4886253  59.6737085  87.8239773  46.0393678  59.5454148  87.0516767
  44.6497729  59.9731974  87.4734666  52.4523119  41.0448278  87.6977646
  52.1087389  41.9349920  87.6216757  52.8202082  40.8549936  86.8347231
  40.5208970  53.3681809  80.5166248  41.3584192  53.7778817  80.2999956
  40.6987238  52.4281251  80.4866442  52.4173402  51.0356889  76.2050081
  51.9020025  51.8061494  76.4438468  52.1450710  50.3622026  76.8283142
  50.0020513  45.8806590  81.2635319  49.1462109  45.4913441  81.0840958
  50.4147465  45.9598551  80.4035105  51.5319660  43.4152934  85.6626879
  51.0284455  43.3783069  84.8494684  51.8250267  44.3245676  85.7223536
  47.7762546  43.4991663  84.6693061  48.6415542  43.3034472  84.3098950
  47.8440054  43.2702015  85.5962418  57.3907676  53.7889244  78.1403255
  56.6137119  53.4500404  77.6958417  58.0699157  53.7941867  77.4658220
  52.2059705  48.9083982  78.0309862  51.9009841  49.2230131  78.8820005
  53.1590147  48.9865401  78.0737195  50.6506137  55.0674205  79.6802816
  50.1227499  54.3326964  79.3676054  50.1493640  55.8448881  79.4342785
  55.6298983  53.2623225  84.7969863  54.9722657  53.9522487  84.8849991
  56.4339382  53.6519657  85.1403849  45.3824865  45.7293871  82.0409428
  45.9568617  45.5069053  81.3082621  45.9695847  45.7982566  82.7938029
  54.4404442  51.6167598  82.8473804  54.9536324  52.2497590  83.3495514
  55.0905666  51.0168794  82.4817164  45.7094452  47.7598332  76.0605313
  44.8731764  48.0973019  76.3814588  45.5699221  47.6247312  75.1232450
  47.6847532  42.6035120  80.7684497  47.0311945  42.2884137  80.1441112
  47.6428006  41.9810861  81.4944320  48.7958737  52.8854415  72.6837789
  47.8885799  52.6543669  72.8828938  49.2929769  52.0892034  72.8711771
  51.7026816  61.5951922  75.6034475  51.0288515  61.8983619  76.2119433
  52.0892638  62.3981003  75.2539932  50.9185273  49.0917054  85.0932145
  50.0007834  49.3132001  84.9353833  51.3345416  49.1663364  84.2343852
  51.7020320  50.4908469  80.2234825  52.4492139  51.0029867  79.9141947
  51.9711910  50.1692522  81.0839219  49.9746971  52.9867010  77.2061779
  49.0658190  52.7026043  77.3034249  50.0042054  53.4066089  76.3465086
  55.2066238  56.5973600  80.9752947  54.7528565  55.7564509  81.0318137
  54.5760205  57.2334998  81.3127727  54.1499158  47.5265586  82.2053614
  53.4121914  47.0142972  82.5363857  54.4025931  47.0865967  81.3936891
  53.6499177  58.4350096  81.9102765  53.9422152  58.9955153  81.1915131
  54.1597798  58.7278657  82.6655924  54.2510785  40.3041838  82.7995384
  54.5569662  39.4439201  82.5121299  54.9763390  40.8959458  82.5994378
  40.5435141  50.7072524  81.1876982  40.3459541  50.1141885  80.4628048
  39.9881805  50.4024734  81.9052920  48.5231865  50.5995631  83.3071575
  48.5780474  49.6469467  83.2314051  47.7123067  50.7555070  83.7912873
  49.6723058  54.5275754  74.5449858  49.2342488  53.8111613  74.0855495
  50.4133499  54.7551869  73.9834949  46.4624225  49.2172690  81.0661954
  45.6492090  49.5166861  81.4727146  46.9583219  48.8228379  81.7836436
  48.6132802  59.2130447  82.9996218  48.5708981  59.4391294  82.0704750
  49.5295501  58.9793822  83.1482019  52.0598436  49.6814515  89.8976847
  52.4147824  49.9085988  90.7571313  52.7070568  50.0132892  89.2754103
  57.7896173  52.8032951  80.6026176  57.6514072  52.9934547  79.6747366
  57.4332392  53.5652334  81.0594228  45.9538299  46.7891046  86.6823189
  46.5937679  46.6479805  85.9846152  45.1215830  46.5025559  86.3061790
  57.8165553  54.8709478  85.6137448  58.2502060  54.7784767  86.4620502
  58.5297134  54.8466978  84.9757464  46.7298603  56.0893476  82.7958181
  47.5239202  55.5943796  82.5940756  46.0190296  55.5611339  82.4325887
  43.0381367  50.2336558  78.8717934  42.1078955  50.1721014  79.0887896
  43.1338839  49.7112511  78.0754575  42.9566916  46.7591371  81.4596175
  43.2173733  47.6736704  81.3505336  43.7784088  46.2915813  81.6092788
  44.4291841  48.1729128  88.6295000  45.1014895  47.9646490  87.9807649
  43.6021628  47.9751214  88.1900232  50.3317413  44.7991069  90.6460661
  49.6845328  45.4981019  90.5525137  51.1018429  45.2327213  91.0136909
  50.5081547  52.6371834  88.7057480  51.4373607  52.7882993  88.5326448
  50.0872578  52.7255855  87.8506127  49.3069879  56.6622498  86.4756018
  49.1680965  56.2941283  87.3481956  48.5184476  57.1770138  86.3039976
  49.9018031  61.7631595  77.8181555  50.0769787  61.2919638  78.6327177
  49.2150819  62.3897361  78.0462815  50.8575094  56.0404101  83.8644856
  50.5224927  56.0004871  84.7602506  50.3579040  55.3748817  83.3915266
  44.8319338  51.4471731  89.3897437  44.6939136  50.7151970  89.9908976
  45.7424262  51.3580631  89.1081625  53.7934286  53.3860135  74.1381915
  53.1763457  52.6606964  74.0414968  53.3250775  54.1469496  73.7948990
  47.4601639  51.1591690  88.8781117  48.1701258  50.5184883  88.8367735
  47.4170947  51.4104585  89.8007297  46.1730573  48.1456908  90.6976756
  45.6367930  47.6947647  91.3498352  45.5847281  48.2802817  89.9547220
  44.4679117  64.9120958  84.5921415  44.7075715  65.5439482  85.2700433
  43.6248313  64.5608998  84.8786774  45.5832832  47.6045560  73.2603220
  44.7062298  47.4834360  72.8965466  46.0590585  46.8131638  73.0082108
  37.1034972  52.3922719  83.3544727  37.7906012  52.0784449  82.7665742
  36.9483101  53.2964084  83.0811978  41.9069694  47.2812916  87.7829751
  41.8227883  46.6738585  87.0480161  41.0852401  47.7721934  87.7839247
  48.7696758  59.9571850  80.5065740  47.9864280  60.4993530  80.6003965
  49.4689503  60.4745830  80.9059981  52.0793408  45.7666479  83.1499946
  52.5762108  45.0136442  82.8301016  51.3080390  45.8030796  82.5843155
  59.9323166  51.4706845  84.7918237  59.9213042  52.3531560  84.4212170
  59.0640545  51.1178396  84.5972774  53.1623189  54.5238167  80.7238369
  52.2279468  54.6439629  80.5543073  53.3399857  53.6210633  80.4598379
  48.6628377  47.9083862  82.8771630  48.2926164  47.3554903  83.5652536
  49.1587469  47.3041996  82.3246630  56.5495740  50.3655486  81.2588403
  57.0156192  51.1983478  81.1848706  57.0003241  49.9000468  81.9633662
  54.6171971  56.7099307  78.2574555  54.8931815  56.5955902  79.1668429
  53.7476470  56.3116792  78.2186728  54.5212403  42.7336073  85.2979305
  53.6075483  42.9640300  85.4661511  54.9505504  42.8174517  86.1493337
  54.2918861  50.9225965  87.7979199  53.6390312  51.1701872  87.1431651
  54.6699241  50.1090103  87.4641676  51.2526035  60.9585658  81.9007369
  51.4348430  60.1407314  82.3635121  52.0759021  61.1753350  81.4632259
  51.5868201  59.8853843  79.1622417  52.1155967  59.3746298  78.5492579
  51.8496420  59.5696373  80.0267950  42.0885294  57.9017713  86.9057751
  42.6738730  57.1561400  87.0385655  41.8910132  58.2121669  87.7894415
  44.9423949  60.9368960  81.9220193  44.2734324  61.4215088  81.4384233
  44.8036818  61.1838180  82.8363572  36.6802948  50.4723313  85.6262194
  36.7187048  49.9386903  86.4199312  36.1743241  49.9458518  85.0073171
  44.0593711  45.3187853  89.1224736  44.1235037  46.1802684  88.7102134
  43.9960831  44.7061855  88.3897095  43.5345983  47.3910986  92.7697771
  44.1618022  47.0088063  93.3835295  42.6773902  47.1725188  93.1353463
  40.3111526  49.1987415  78.7016125  40.6064967  48.2898093  78.6483179
  39.4099562  49.1775154  78.3797128  52.2197605  60.9194679  85.5066534
  52.0948744  60.1184419  84.9977479  52.8776696  61.4140872  85.0180504
  43.8405773  47.2743411  84.6843674  43.1192359  47.8879379  84.5451147
  44.6299029  47.8101176  84.6060320  46.6432086  44.6097838  90.9584326
  47.1666488  44.8560134  91.7210635  46.4244420  45.4417873  90.5387463
  42.0399367  46.8801513  78.8255451  41.7112074  45.9998891  78.6430556
  42.3938738  46.8249181  79.7131840  51.2878946  58.5156415  83.3350436
  51.1403909  57.5873123  83.5158006  52.1132440  58.5376506  82.8507511
  45.1541191  47.1674482  79.1930928  45.4937263  47.6960404  78.4709537
  45.6013311  47.5054888  79.9689495  54.8913068  59.3384974  84.4215309
  55.8159616  59.1327835  84.2839760  54.7228371  59.0901375  85.3304650
  47.8484631  45.5511533  88.6433996  47.5081452  44.7519346  89.0454676
  47.1423638  45.8513244  88.0710830  48.5001103  42.6360845  87.0961319
  49.3227173  42.1621324  86.9740210  48.7439167  43.4151329  87.5960006
  47.1409338  45.6649104  77.3924221  47.8617700  46.0430357  76.8887938
  46.5174642  46.3837981  77.4959199  51.2840461  46.3694253  78.3282553
  51.5004075  47.2518891  78.0271382  50.8034528  45.9780466  77.5988195
  46.0239682  49.3279966  84.9053298  45.8784263  49.6420269  85.7977579
  45.5464886  49.9464866  84.3524197  47.8836065  46.3182514  84.9534188
  47.8697634  45.4223607  84.6166485  48.6008493  46.3253178  85.5872474
  49.7362196  46.7519854  86.9987315  49.4779973  47.6736925  86.9971645
  49.2047236  46.3550289  87.6887779  54.6808384  59.8570641  79.7777400
  54.8545262  59.2917064  79.0251253  55.1737276  60.6571536  79.5956890
  40.4985344  51.8685311  87.8440959  39.9538812  52.6445118  87.9761233
  41.3764694  52.2156115  87.6860081  47.2872961  45.1996894  80.2221758
  47.4088872  44.2713541  80.4212645  46.9975003  45.2135580  79.3100073
  50.1564151  42.8851805  83.3588477  50.1785848  42.9491138  82.4040457
  50.5732210  42.0456313  83.5528984  60.5347776  52.6207064  81.3967700
  60.9778922  51.8714390  80.9986823  59.6574286  52.6117201  81.0141432
  55.6683557  59.1737406  76.8774299  56.3634461  59.7944099  77.0961613
  56.0106707  58.3232757  77.1526676  41.2851366  50.9955207  90.7371116
  40.5433102  51.1437842  91.3235746  40.9644110  51.2563472  89.8737865
  57.5674980  56.6237111  78.4061629  58.0926304  56.9624384  77.6810949
  57.4797332  55.6884127  78.2224764  49.2515641  62.6909095  82.7656883
  48.8120631  62.1985473  83.4589739  50.0023758  62.1482062  82.5248958
  41.7307980  58.8820636  82.7681511  42.5566000  58.5824407  82.3880154
  41.3802032  58.1128258  83.2171299  46.6989513  58.2347104  84.8379184
  46.0769522  57.5717809  84.5381412  47.3694380  58.2608236  84.1552832
  39.9316585  56.8006962  83.7270444  39.0948493  56.3729136  83.5454445
  39.9040230  56.9939405  84.6641235  46.7714040  46.7128892  94.4311690
  46.8202196  47.5891015  94.0489460  47.3136555  46.1706285  93.8583333
  46.2603020  56.7851027  78.3137645  46.4091140  57.4686491  77.6604318
  47.0669463  56.7656117  78.8287100  49.0013329  47.4660264  91.1858049
  48.1316638  47.7593830  90.9140637  49.2372809  48.0500709  91.9065313
  60.0780640  54.0912303  83.7890148  60.9127532  54.5302107  83.9527708
  60.2139769  53.6150956  82.9698393  44.0155653  52.8116205  79.3198714
  43.7701695  51.9078535  79.5178924  44.1851567  52.8133355  78.3778192
  51.7052363  43.6839881  88.7023469  52.2234306  44.4200908  88.3769958
  51.3507495  43.9903874  89.5370228  43.2851300  48.5444562  76.8184875
  42.5920545  48.6188917  76.1624911  43.0403052  47.7804906  77.3406392
  51.9564957  40.1040164  84.2224366  52.2366711  39.4363353  84.8484792
  52.7415564  40.2969259  83.7099030  49.7598425  59.2799158  75.7849392
  49.1872392  59.8989345  75.3319864  50.3331219  59.8298519  76.3189314
  55.8273815  48.5257798  87.9695941  56.7791238  48.6255895  87.9908165
  55.6577266  47.7336066  88.4794025  53.8488195  45.6113381  88.1555342
  53.2538127  45.8918394  87.4601831  53.5637891  46.1007282  88.9272083
  52.9795685  59.5636308  76.9157974  53.9126358  59.4981869  77.1190850
  52.8918898  60.3992575  76.4572507  55.6083702  58.8802178  73.8761922
  55.5297333  58.5462042  74.7697680  56.4293369  59.3723946  73.8753394
  58.3061893  51.7463917  87.0838241  58.2738213  50.8079918  87.2697924
  58.9162517  51.8247954  86.3504066  50.1445224  50.6159970  73.1265445
  51.0904328  50.4866178  73.1953863  49.7659469  49.8774632  73.6034873
  58.4556381  48.5374961  87.1296524  57.9395430  47.7533417  86.9426453
  59.3396330  48.2093677  87.2943043  56.1167108  42.2815976  83.0892336
  55.9191929  41.9731064  83.9735668  56.7266814  43.0077615  83.2190266
  48.3288141  48.5409947  73.0620330  47.4219596  48.2443059  73.1383044
  48.6064122  48.2439765  72.1954616  39.2466081  49.8616310  83.5119376
  38.9268866  49.0081618  83.2193750  38.6999509  50.0764888  84.2677344
  43.0245989  52.5778751  87.2288883  43.2431999  53.5095859  87.2476917
  43.4371763  52.2186725  88.0143687  49.9450207  43.0846836  79.2164571
  49.1350935  42.7393921  79.5919817  50.6334624  42.7754380  79.8052183
  51.8740755  42.1624883  80.8388868  52.4271794  42.5820337  81.4978891
  52.1110841  41.2360631  80.8811824  47.0986926  45.3996882  73.2032309
  47.9606090  45.7251780  73.4628126  47.2837270  44.6128378  72.6905375
  39.1154341  53.4819222  85.4812498  38.4217813  53.0673174  84.9682452
  39.8627332  53.5239758  84.8845917  55.2519562  44.2725408  80.3467532
  54.6718231  44.9310212  79.9645585  54.9855495  43.4502753  79.9354950
  53.7023128  43.6730466  82.5488852  54.2022907  43.7847001  81.7403171
  54.3458736  43.3691519  83.1889661  41.0291084  53.4137475  83.3578513
  41.0061772  53.5125163  82.4060396  41.3391720  54.2602626  83.6795679
  43.6878462  55.4713630  87.4725127  44.6421715  55.4397573  87.4055059
  43.4890985  55.0104254  88.2875353  44.2777844  54.0414746  90.0395925
  45.0970733  54.5358825  90.0630762  44.5514652  53.1246715  90.0113492
  54.0344440  46.4325499  79.4023880  53.1470295  46.7175149  79.1844075
  54.4498429  46.2719262  78.5551157  57.3858976  46.4572020  83.1178220
  58.1619366  46.9468472  83.3902836  56.6607110  46.8830074  83.5750089
  59.8231535  47.1699639  84.1752160  60.4176026  46.9295375  83.4645468
  59.8958119  46.4506769  84.8025697  42.0428691  61.0133250  84.4895325
  41.9083158  60.2533651  83.9233323  41.6260753  61.7374150  84.0224114
  53.1787654  56.1970173  73.4971900  53.8823504  56.4020176  74.1129556
  52.4550302  56.7646935  73.7620984  54.0085464  51.9480035  79.6174171
  53.9520665  52.4048586  78.7781803  54.5613806  51.1870719  79.4397013
  57.8190270  47.7369767  80.4424290  57.5627204  47.3366402  81.2732498
  57.1943138  48.4513560  80.3174429  62.1302608  50.4765840  82.9495581
  61.5702166  50.5459029  83.7227143  61.5246111  50.3006824  82.2295078
  45.1997816  61.9102567  84.7013768  45.0830201  62.8547999  84.5992458
  44.3790263  61.6076128  85.0899567  55.0874351  56.6352703  75.5470360
  55.9219955  56.2033901  75.3647835  54.9258694  56.4634716  76.4747255
  54.7420243  53.1384816  76.9126700  54.6869047  52.9729087  75.9715144
  54.1166298  53.8460849  77.0688889  39.5312758  48.3752880  90.7388122
  40.1771622  47.8651834  91.2275347  39.3229909  49.1121562  91.3131547
  48.0516369  42.6392925  76.4912018  48.0395038  43.5834765  76.6480289
  48.9439790  42.4563070  76.1971479  47.9805933  61.3161815  84.5779775
  47.0301564  61.3163677  84.4644147  48.2838419  60.5694550  84.0615809
  51.8668488  39.2335702  80.7457955  51.1000884  38.6794188  80.8914637
  52.2779193  39.3057570  81.6072107  43.8710249  45.5220497  94.8363136
  44.7341711  45.1657302  95.0466461  43.2975660  45.1834392  95.5238540
  55.8890334  69.7145363  77.2785552  56.6621210  69.1674350  77.1398428
  56.2415733  70.5789612  77.4900013  58.2256612  65.8738029  74.9104002
  58.4782132  65.3519550  74.1487465  57.2881171  65.7104175  75.0130686
  57.9452900  67.7766135  77.1128377  57.8289159  67.1011039  77.7809461
  58.0555160  67.2898509  76.2960530  59.9289928  62.2666182  75.8136415
  60.0964331  63.1346418  76.1806886  59.7387097  62.4293464  74.8897704
  59.9079149  64.7223839  76.7983082  59.7878774  65.1680890  77.6368562
  59.2131738  65.0709157  76.2396620  54.3970725  64.6596823  81.3517258
  53.6001888  64.7715518  81.8700753  54.1696317  64.9983476  80.4858148
  51.3602724  68.6973727  80.5166248  52.1977946  69.1070735  80.2999956
  51.5380992  67.7573169  80.4866442  63.2567157  66.3648807  76.2050081
  62.7413780  67.1353412  76.4438468  62.9844465  65.6913943  76.8283142
  60.8414268  61.2098508  81.2635319  59.9855864  60.8205358  81.0840958
  61.2541219  61.2890469  80.4035105  63.0453460  64.2375899  78.0309862
  62.7403595  64.5522048  78.8820005  63.9983902  64.3157319  78.0737195
  56.2218619  61.0585789  82.0409428  56.7962371  60.8360970  81.3082621
  56.8089602  61.1274483  82.7938029  56.5488206  63.0890250  76.0605313
  55.7125519  63.4264936  76.3814588  56.4092976  62.9539230  75.1232450
  58.5241287  57.9327038  80.7684497  57.8705699  57.6176055  80.1441112
  58.4821761  57.3102778  81.4944320  59.6352492  68.2146333  72.6837789
  58.7279553  67.9835586  72.8828938  60.1323524  67.4183952  72.8711771
  60.8140725  68.3158928  77.2061779  59.9051944  68.0317961  77.3034249
  60.8435809  68.7358006  76.3465086  65.0904539  55.6333755  82.7995384
  65.3963416  54.7731119  82.5121299  65.8157144  56.2251375  82.5994378
  51.3828896  66.0364442  81.1876982  51.1853295  65.4433803  80.4628048
  50.8275560  65.7316652  81.9052920  60.5116813  69.8567671  74.5449858
  60.0736243  69.1403530  74.0855495  61.2527254  70.0843786  73.9834949
  53.8775121  65.5628476  78.8717934  52.9472709  65.5012931  79.0887896
  53.9732593  65.0404428  78.0754575  53.7960670  62.0883289  81.4596175
  54.0567488  63.0028622  81.3505336  54.6177843  61.6207731  81.6092788
  64.6328041  68.7152053  74.1381915  64.0157211  67.9898881  74.0414968
  64.1644529  69.4761413  73.7948990  56.4226586  62.9337477  73.2603220
  55.5456053  62.8126278  72.8965466  56.8984340  62.1423556  73.0082108
  51.1505280  64.5279333  78.7016125  51.4458721  63.6190011  78.6483179
  50.2493316  64.5067072  78.3797128  52.8793122  62.2093430  78.8255451
  52.5505828  61.3290809  78.6430556  53.2332493  62.1541099  79.7131840
  55.9934945  62.4966400  79.1930928  56.3331018  63.0252321  78.4709537
  56.4407066  62.8346806  79.9689495  57.9803092  60.9941022  77.3924221
  58.7011455  61.3722274  76.8887938  57.3568396  61.7129898  77.4959199
  62.1234215  61.6986171  78.3282553  62.3397829  62.5810808  78.0271382
  61.6428282  61.3072384  77.5988195  58.1266715  60.5288812  80.2221758
  58.2482626  59.6005458  80.4212645  57.8368758  60.5427498  79.3100073
  60.9957906  58.2143723  83.3588477  61.0179602  58.2783056  82.4040457
  61.4125965  57.3748231  83.5528984  54.8549407  68.1408122  79.3198714
  54.6095449  67.2370452  79.5178924  55.0245322  68.1425273  78.3778192
  54.1245055  63.8736480  76.8184875  53.4314300  63.9480835  76.1624911
  53.8796807  63.1096824  77.3406392  60.9838978  65.9451888  73.1265445
  61.9298083  65.8158096  73.1953863  60.6053223  65.2066550  73.6034873
  59.1681895  63.8701864  73.0620330  58.2613351  63.5734977  73.1383044
  59.4457876  63.5731682  72.1954616  60.7843961  58.4138754  79.2164571
  59.9744689  58.0685839  79.5919817  61.4728378  58.1046298  79.8052183
  62.7134509  57.4916801  80.8388868  63.2665548  57.9112254  81.4978891
  62.9504596  56.5652549  80.8811824  57.9380680  60.7288800  73.2032309
  58.7999844  61.0543698  73.4628126  58.1231024  59.9420295  72.6905375
  66.0913317  59.6017326  80.3467532  65.5111986  60.2602130  79.9645585
  65.8249249  58.7794671  79.9354950  64.8738195  61.7617416  79.4023880
  63.9864050  62.0467067  79.1844075  65.2892184  61.6011180  78.5551157
  64.0181408  71.5262091  73.4971900  64.7217258  71.7312094  74.1129556
  63.2944057  72.0938853  73.7620984  58.8910123  57.9684843  76.4912018
  58.8788793  58.9126683  76.6480289  59.7833545  57.7854988  76.1971479
  62.7062243  54.5627619  80.7457955  61.9394638  54.0086106  80.8914637
  63.1172947  54.6349488  81.6072107  29.4453445   3.6442595  63.6043724
  28.7941424   4.2296676  63.2177738  30.2397807   4.1748790  63.6638762
  23.3709072   0.7331733  64.0030859  24.1439948   0.1860720  63.8643734
  23.7234471   1.5975982  64.2145320  25.7075349  -3.1075601  61.6349309
  25.9600870  -3.6294080  60.8732772  24.7699909  -3.2709456  61.7375992
  30.9228710   1.3333027  64.1412709  30.2874543   1.4067654  64.8533613
  30.5926116   1.9226626  63.4631788  25.1504779   8.5113851  67.1718519
  25.0728809   9.4621676  67.2507000  24.5466423   8.1659723  67.8293446
  33.0882953  -3.7868318  64.3508722  34.0000809  -3.5540931  64.1756420
  32.5792600  -3.2031274  63.7883801  35.5741767   2.1311939  69.0966667
  34.8892806   2.5110840  68.5463701  35.6585617   2.7407265  69.8298615
  42.0344520  -1.0017399  70.2169340  41.2808228  -1.5710000  70.0613344
  42.1692061  -1.0354734  71.1639974  27.4243148   3.8696004  65.8924059
  27.2888823   4.7147539  66.3208907  27.9652961   4.0715281  65.1289993
  30.7385894  -2.6164823  62.9295388  30.2232518  -1.8460219  63.1683775
  30.4663203  -3.2899687  63.5528449  35.7120168   0.1367531  64.8648561
  34.9349611  -0.2021309  64.4203723  36.3911649   0.1420155  64.1903526
  28.9718629   1.4152492  66.4048123  28.4439991   0.6805252  66.0921360
  28.4706132   2.1927168  66.1588091  27.1171229  -0.7667298  59.4083096
  26.2098291  -0.9978044  59.6074245  27.6142261  -1.5629678  59.5957077
  30.0239308   7.9430210  62.3279782  29.3501007   8.2461906  62.9364740
  30.4105130   8.7459290  61.9785239  28.2959463  -0.6654703  63.9307086
  27.3870682  -0.9495670  64.0279556  28.3254547  -0.2455624  63.0710393
  33.5278730   2.9451887  67.6998254  33.0741057   2.1042797  67.7563444
  32.8972697   3.5813285  68.0373034  31.9711670   4.7828383  68.6348072
  32.2634644   5.3433441  67.9160437  32.4810290   5.0756944  69.3901231
  27.9935551   0.8754041  61.2695165  27.5554981   0.1589900  60.8100802
  28.7345992   1.1030156  60.7080256  36.1108666  -0.8488762  67.3271483
  35.9726564  -0.6587166  66.3992672  35.7544884  -0.0869379  67.7839534
  28.2230524   8.1109882  64.5426861  28.3982279   7.6397925  65.3572484
  27.5363312   8.7375648  64.7708122  32.1146778  -0.2661577  60.8627222
  31.4975949  -0.9914749  60.7660275  31.6463267   0.4947783  60.5194296
  27.0909250   6.3050137  67.2311047  26.3076772   6.8471817  67.3249271
  27.7901995   6.8224117  67.6305288  31.4835681   0.8716454  67.4483676
  30.5491960   0.9917916  67.2788380  31.6612350  -0.0311079  67.1843686
  32.9384464   3.0577595  64.9819862  33.2144307   2.9434189  65.8913736
  32.0688962   2.6595079  64.9432035  29.5738528   7.3063945  68.6252675
  29.7560922   6.4885601  69.0880428  30.3971514   7.5231638  68.1877565
  29.9080693   6.2332130  65.8867724  30.4368459   5.7224585  65.2737886
  30.1708913   5.9174661  66.7513257  33.0020877   6.2048929  66.5022707
  33.1757754   5.6395351  65.7496559  33.4949768   7.0049824  66.3202197
  38.8560268  -1.0314648  68.1213007  39.2991414  -1.7807323  67.7232130
  37.9786778  -1.0404512  67.7386739  33.9896049   5.5215693  63.6019605
  34.6846954   6.1422386  63.8206920  34.3319199   4.6711044  63.8771983
  35.8887472   2.9715399  65.1306936  36.4138796   3.3102671  64.4056256
  35.8009825   2.0362414  64.9470071  27.5728133   9.0387382  69.4902189
  27.1333123   8.5463761  70.1835046  28.3236250   8.4960350  69.2494264
  24.5815512   3.1329314  65.0382951  24.7303632   3.8164779  64.3849624
  25.3881955   3.1134404  65.5532407  38.3993132   0.4390590  70.5135454
  39.2340024   0.8780394  70.6773015  38.5352261  -0.0370757  69.6943700
  28.0810918   5.6277445  62.5094699  27.5084885   6.2467632  62.0565171
  28.6543711   6.1776806  63.0434621  31.3008177   5.9114595  63.6403281
  32.2338850   5.8460157  63.8436157  31.2131390   6.7470862  63.1817814
  33.9296194   5.2280465  60.6007229  33.8509826   4.8940329  61.4942987
  34.7505861   5.7202233  60.5998701  28.4657716  -3.0361742  59.8510751
  29.4116821  -3.1655534  59.9199169  28.0871961  -3.7747081  60.3280179
  31.5000146   2.5448461  60.2217207  32.2035996   2.7498463  60.8374863
  30.7762795   3.1125223  60.4866291  32.3297956  -1.7041678  66.3419477
  32.2733157  -1.2473127  65.5027110  32.8826299  -2.4650993  66.1642320
  33.4086843   2.9830990  62.2715667  34.2432447   2.5512188  62.0893142
  33.2471186   2.8113004  63.1992562  33.0632735  -0.5136897  63.6372006
  33.0081539  -0.6792625  62.6960450  32.4378791   0.1939136  63.7934196
  42.0371118  13.5000641  72.3670844  42.6749528  13.3807388  71.6634184
  41.9191961  14.4481485  72.4258796  38.8460825  13.4528069  72.3032368
  38.5079336  13.3369134  71.4152903  39.7150593  13.0519234  72.2833375
  34.7047640  15.3063545  68.2929259  34.1412505  15.2153482  67.5245547
  34.5900035  14.4863450  68.7731752  32.2512072  16.8014737  71.1313480
  33.0433364  16.4605562  70.7159779  32.4908722  16.9109712  72.0515633
  40.2847199  18.9734513  63.6043724  39.6335179  19.5588594  63.2177738
  41.0791562  19.5040708  63.6638762  34.2102826  16.0623650  64.0030859
  34.9833702  15.5152637  63.8643734  34.5628225  16.9267900  64.2145320
  36.0487869  17.3900033  77.2097758  35.7577735  18.2945663  77.0944424
  36.6844853  17.4316560  77.9241828  36.9744076  14.7676881  73.7999118
  37.5707648  14.5432904  73.0856081  37.0319047  14.0261627  74.4024565
  36.5469104  12.2216316  61.6349309  36.7994625  11.6997838  60.8732772
  35.6093663  12.0582462  61.7375992  41.5912387  11.2252095  69.4424052
  42.3775476  10.8071518  69.0914469  41.8551091  12.1298187  69.6105700
  41.7622464  16.6624945  64.1412709  41.1268297  16.7359572  64.8533613
  41.4319871  17.2518544  63.4631788  46.9920814  11.1627328  70.3457030
  47.7245986  10.5926545  70.5794860  46.2360170  10.7748928  70.7863536
  36.2665393  14.1244422  63.8373684  36.1501651  13.4489326  64.5054768
  36.3767653  13.6376796  63.0205837  38.6096934  13.5854570  67.5420373
  38.2455141  13.0585190  68.2533294  39.4664050  13.1953039  67.3686858
  38.2502421   8.6144469  62.5381721  38.4176823   9.4824706  62.9052192
  38.0599590   8.7771751  61.6143011  41.0077754  17.0761448  74.2047552
  40.7078477  17.9786487  74.0963359  40.6628813  16.8093631  75.0568705
  34.4590235  13.5275245  70.2384256  33.5340732  13.3951459  70.4461948
  34.7074648  14.3069464  70.7354199  44.4074898   9.5943988  71.8844989
  43.4991775   9.5259397  71.5903750  44.3562493  10.0715933  72.7126814
  38.2291641  11.0702127  63.5228388  38.1091267  11.5159177  64.3613868
  37.5344230  11.4187444  62.9641926  31.8199046  13.1708518  71.0728045
  31.9491427  13.4242997  71.9867457  31.1396498  13.7636226  70.7532700
  35.9898534  23.8405768  67.1718519  35.9122563  24.7913594  67.2507000
  35.3860177  23.4951641  67.8293446  46.2736544   7.7960427  73.6622863
  45.6310924   8.0892960  73.0162658  45.7691472   7.6813347  74.4676060
  43.9276708  11.5423600  64.3508722  44.8394564  11.7750987  64.1756420
  43.4186355  12.1260644  63.7883801  42.2117475  15.9648228  77.9870015
  42.6200831  15.5230638  77.2424647  41.4894737  15.3900855  78.2404208
  38.5648545  10.9020834  75.3603572  39.4109741  11.3260248  75.5038221
  38.5047183  10.2454459  76.0542135  42.5346290  16.5249418  71.7422304
  41.9055152  16.6895132  71.0398372  42.1471952  16.9391028  72.5133268
  46.4135522  17.4603856  69.0966667  45.7286560  17.8402758  68.5463701
  46.4979371  18.0699183  69.8298615  43.6686453  15.1063815  75.6962011
  43.8803349  15.7495575  75.0196392  43.6216202  14.2726132  75.2283941
  41.2712682   7.7181636  72.5998583  40.4097161   8.0162889  72.8915321
  41.2975117   7.9352035  71.6679616  38.0874252  16.2623826  69.0072389
  38.5512597  16.5411529  68.2177011  37.8231050  15.3607271  68.8245479
  34.9798333  15.8095308  71.9452152  35.5499690  16.2382576  71.3069637
  35.5706445  15.5277893  72.6436338  37.0243138  12.3846979  65.8161954
  37.7267181  12.8368022  66.2835880  36.6923766  11.7430798  66.4441847
  30.7668472  10.6430531  71.1179087  29.9767526  10.8988060  70.6419198
  31.2579719  11.4578869  71.2231128  44.7832281  17.9835771  73.8684368
  45.6049725  17.5815958  73.5867050  44.7794684  17.8804005  74.8200484
  32.7183217  11.0075111  68.0762564  31.9214380  11.1193805  68.5946060
  32.4908809  11.3461763  67.2103455  38.5488885  17.5319814  76.0245079
  38.6133317  17.9940221  76.8603251  37.8399809  16.9017179  76.1527389
  52.8738274  14.3274519  70.2169340  52.1201983  13.7581917  70.0613344
  53.0085816  14.2937184  71.1639974  38.2636902  19.1987921  65.8924059
  38.1282577  20.0439457  66.3208907  38.8046715  19.4007199  65.1289993
  31.7166300  16.7163359  66.4651984  32.2290820  17.5106610  66.6157549
  32.3689013  16.0189650  66.3985586  33.5261185  19.8329116  68.5474737
  33.7027813  20.7547080  68.3595721  34.3218018  19.5187535  68.9769117
  39.8905379  19.8211488  80.0224401  39.4469233  19.0347866  79.7045306
  40.5522592  20.0090638  79.3568292  34.6492500  21.3507290  74.5485080
  35.1999925  21.2224353  73.7762074  33.8103976  21.6502179  74.1979972
  41.9886617  20.1014288  78.0505802  41.9705092  20.9223169  77.5586072
  42.9106537  19.9768363  78.2755944  38.4459671  17.6158417  78.8929311
  38.9788008  16.8546706  78.6628619  37.9173752  17.3232069  79.6353465
  29.6815217  15.0452014  67.2411555  30.5190439  15.4549022  67.0245262
  29.8593484  14.1051456  67.2111749  41.5779649  12.7127094  62.9295388
  41.0626272  13.4831699  63.1683775  41.3056957  12.0392231  63.5528449
  39.1626760   7.5576795  67.9880626  38.3068356   7.1683646  67.8086265
  39.5753712   7.6368756  67.1280412  40.6925906   5.0923138  72.3872186
  40.1890702   5.0553274  71.5739991  40.9856513   6.0015881  72.4468842
  36.9368792   5.1761868  71.3938368  37.8021789   4.9804677  71.0344257
  37.0046301   4.9472220  72.3207724  46.5513923  15.4659449  64.8648561
  45.7743366  15.1270609  64.4203723  47.2305404  15.4712072  64.1903526
  41.3665952  10.5854186  64.7555169  41.0616088  10.9000336  65.6065312
  42.3196394  10.6635606  64.7982502  39.8112384  16.7444410  66.4048123
  39.2833745  16.0097169  66.0921360  39.3099887  17.5219086  66.1588091
  44.7905230  14.9393430  71.5215169  44.1328904  15.6292692  71.6095298
  45.5945629  15.3289862  71.8649155  34.5431111   7.4064076  68.7654734
  35.1174863   7.1839258  68.0327927  35.1302094   7.4752771  69.5183336
  43.6010689  13.2937803  69.5719111  44.1142570  13.9267795  70.0740821
  44.2511913  12.6938998  69.2062471  34.8700699   9.4368537  62.7850620
  34.0338011   9.7743224  63.1059894  34.7305468   9.3017517  61.8477757
  36.8453779   4.2805325  67.4929804  36.1918191   3.9654342  66.8686419
  36.8034253   3.6581065  68.2189627  37.9564984  14.5624620  59.4083096
  37.0492046  14.3313874  59.6074245  38.4536016  13.7662239  59.5957077
  40.8633063  23.2722127  62.3279782  40.1894762  23.5753824  62.9364740
  41.2498885  24.0751208  61.9785239  40.0791519  10.7687259  71.8177451
  39.1614081  10.9902206  71.6599139  40.4951663  10.8433569  70.9589159
  40.8626567  12.1678674  66.9480132  41.6098386  12.6800071  66.6387254
  41.1318157  11.8462727  67.8084525  39.1353217  14.6637215  63.9307086
  38.2264437  14.3796248  64.0279556  39.1648301  15.0836294  63.0710393
  44.3672485  18.2743804  67.6998254  43.9134812  17.4334714  67.7563444
  43.7366452  18.9105203  68.0373034  43.3105404   9.2035790  68.9298921
  42.5728161   8.6913177  69.2609164  43.5632178   8.7636172  68.1182198
  42.8105424  20.1120301  68.6348072  43.1028398  20.6725358  67.9160437
  43.3204045  20.4048862  69.3901231  43.4117032   1.9812042  69.5240690
  43.7175909   1.1209406  69.2366605  44.1369637   2.5729663  69.3239684
  29.7041388  12.3842729  67.9122288  29.5065788  11.7912090  67.1873355
  29.1488052  12.0794939  68.6298227  37.6838111  12.2765836  70.0316881
  37.7386721  11.3239672  69.9559358  36.8729313  12.4325275  70.5158180
  38.8329305  16.2045959  61.2695165  38.3948735  15.4881818  60.8100802
  39.5739746  16.4322073  60.7080256  35.6230471  10.8942895  67.7907260
  34.8098337  11.1937066  68.1972452  36.1189466  10.4998584  68.5081742
  37.7739049  20.8900652  69.7241525  37.7315228  21.1161499  68.7950057
  38.6901748  20.6564027  69.8727326  41.2204683  11.3584720  76.6222154
  41.5754071  11.5856193  77.4816620  41.8676814  11.6903097  75.9999409
  46.9502420  14.4803156  67.3271483  46.8120319  14.6704752  66.3992672
  46.5938639  15.2422538  67.7839534  35.1144546   8.4661251  73.4068495
  35.7543925   8.3250010  72.7091458  34.2822077   8.1795764  73.0307097
  46.9771800  16.5479683  72.3382755  47.4108306  16.4554972  73.1865809
  47.6903380  16.5237183  71.7002771  35.8904850  17.7663681  69.5203488
  36.6845449  17.2714001  69.3186063  35.1796542  17.2381544  69.1571193
  40.7099695  20.1481777  73.8715855  40.7636717  20.7172713  74.6393571
  39.8414476  20.3183662  73.5069892  32.1987614  11.9106763  65.5963240
  31.2685202  11.8491218  65.8133202  32.2945086  11.3882716  64.7999882
  32.1173163   8.4361576  68.1841482  32.3779980   9.3506909  68.0750642
  32.9390335   7.9686018  68.3338095  47.8387349  16.5903383  74.8715640
  48.0323239  17.4949194  75.1174915  47.7387967  16.1310802  75.7054225
  42.9002458  16.7410126  80.4456521  42.7487964  16.5120678  79.5286604
  42.8907137  17.6980727  80.4587866  39.6687794  14.3142039  75.4302787
  40.5979854  14.4653198  75.2571754  39.2478824  14.4026060  74.5751434
  38.4676126  18.3392703  73.2001325  38.3287212  17.9711488  74.0727263
  37.6790722  18.8540343  73.0285282  39.0624278  23.4401800  64.5426861
  39.2376034  22.9689843  65.3572484  38.3757066  24.0667566  64.7708122
  40.0181341  17.7174306  70.5890162  39.6831174  17.6775076  71.4847812
  39.5185287  17.0519022  70.1160573  42.9540533  15.0630340  60.8627222
  42.3369703  14.3377168  60.7660275  42.4857021  15.8239701  60.5194296
  36.6207886  12.8361895  75.6026423  37.3307504  12.1955087  75.5613042
  36.5777194  13.0874790  76.5252604  44.6094664  19.7729249  78.5233002
  44.5507211  19.0888469  77.8563586  45.0114183  20.5148239  78.0713628
  33.6285363  26.5891162  71.3166721  33.8681962  27.2209687  71.9945740
  32.7854560  26.2379202  71.6032081  34.7439079   9.2815765  59.9848526
  33.8668545   9.1604565  59.6210773  35.2196832   8.4901843  59.7327415
  44.6112072  17.7368833  76.7546982  43.7238851  17.3994754  76.8773381
  45.1810623  17.0051864  76.9915748  26.2641219  14.0692924  70.0790034
  26.9512259  13.7554654  69.4911049  26.1089348  14.9734289  69.8057285
  38.1413225  22.3970285  73.7208225  38.0683397  23.2025256  74.2327530
  37.6990618  22.5962251  72.8956247  37.9303005  21.6342055  67.2311047
  37.1470527  22.1763735  67.3249271  38.6295750  22.1516035  67.6305288
  41.2399655   7.4436684  69.8745252  41.7368354   6.6906647  69.5546323
  40.4686636   7.4801001  69.3088462  49.0929412  13.1477050  71.5163544
  49.0819289  14.0301765  71.1457477  48.2246792  12.7948601  71.3218081
  40.6011909  22.2957119  75.8766384  41.3139881  22.9304584  75.8042285
  40.1101937  22.3920985  75.0606386  42.3229436  16.2008372  67.4483676
  41.3885714  16.3209834  67.2788380  42.5006104  15.2980838  67.1843686
  37.8234624   9.5854067  69.6016937  37.4532411   9.0325108  70.2897842
  38.3193716   8.9812201  69.0491937  45.7101987  12.0425691  67.9833710
  46.1762439  12.8753682  67.9094012  46.1609487  11.5770672  68.6878968
  35.6523822  20.0451562  76.6971955  36.3533282  20.6788045  76.8501349
  35.1818937  20.3866294  75.9367594  43.7778218  18.3869512  64.9819862
  44.0538062  18.2726107  65.8913736  42.9082717  17.9886997  64.9432035
  43.6818650   4.4106278  72.0224611  42.7681729   4.6410505  72.1906818
  44.1111751   4.4944722  72.8738644  43.4525108  12.5996170  74.5224505
  42.7996558  12.8472077  73.8676958  43.8305488  11.7860308  74.1886982
  40.4132282  22.6355863  68.6252675  40.5954677  21.8177519  69.0880428
  41.2365268  22.8523555  68.1877565  40.7474448  21.5624048  65.8867724
  41.2762214  21.0516503  65.2737886  41.0102667  21.2466578  66.7513257
  31.2491540  19.5787917  73.6303058  31.8344977  18.8331605  73.7630962
  31.0516379  19.8891874  74.5139721  34.1030195  22.6139165  68.6465500
  33.4340571  23.0985292  68.1629540  33.9643065  22.8608385  69.5608878
  38.2435464  24.6482908  75.2448158  38.7953772  24.8114530  76.0097244
  38.5841658  25.2387346  74.5728183  43.0946338  19.4744166  81.0996813
  43.6386242  20.0874124  80.6051768  42.5133183  20.0323744  81.6163826
  29.4717773  10.8757620  65.4261432  29.7671214   9.9668298  65.3728486
  28.5705808  10.8545359  65.1042434  41.3803851  22.5964884  72.2311840
  41.2554991  21.7954624  71.7222786  42.0382942  23.0911077  71.7425810
  33.0012020   8.9513616  71.4088981  32.2798605   9.5649584  71.2696454
  33.7905275   9.4871381  71.3305627  43.4438760  20.3973904  73.8591391
  42.4969095  20.2779255  73.7869717  43.7921533  19.5096402  73.9417652
  31.2005614   8.5571717  65.5500757  30.8718320   7.6769096  65.3675863
  31.5544985   8.5019386  66.4377146  40.4485193  20.1926620  70.0595743
  40.3010155  19.2643328  70.2403313  41.2738687  20.2146711  69.5752818
  34.3147437   8.8444687  65.9176235  34.6543510   9.3730609  65.1954843
  34.7619558   9.1825093  66.6934801  44.0519315  21.0155179  71.1460616
  44.9765862  20.8098040  71.0085067  43.8834618  20.7671580  72.0549957
  36.3015584   7.3419309  64.1169528  37.0223947   7.7200562  63.6133245
  35.6780889   8.0608186  64.2204506  40.4446707   8.0464458  65.0527860
  40.6610322   8.9289096  64.7516688  39.9640775   7.6550671  64.3233502
  35.1845929  11.0050171  71.6298605  35.0390509  11.3190474  72.5222886
  34.7071132  11.6235071  71.0769503  37.0442312   7.9952719  71.6779494
  37.0303880   7.0993812  71.3411792  37.7614740   8.0023383  72.3117780
  38.8968442   8.4290059  73.7232622  38.6386220   9.3507130  73.7216952
  38.3653483   8.0320494  74.4133086  43.8414631  21.5340846  66.5022707
  44.0151509  20.9687269  65.7496559  44.3343522  22.3341741  66.3202197
  36.4479208   6.8767099  66.9467064  36.5695119   5.9483745  67.1457952
  36.1581250   6.8905785  66.0345380  39.3170398   4.5622010  70.0833784
  39.3392095   4.6261343  69.1285764  39.7338457   3.7226518  70.2774290
  49.6954022  14.2977269  68.1213007  50.1385168  13.5484595  67.7232130
  48.8180533  14.2887406  67.7386739  44.8289804  20.8507611  63.6019605
  45.5240708  21.4714303  63.8206920  45.1712954  20.0002962  63.8771983
  46.7281227  18.3007316  65.1306936  47.2532551  18.6394589  64.4056256
  46.6403579  17.3654332  64.9470071  38.3901275  22.2141390  77.2596813
  38.6988402  21.9690537  78.1319512  39.1876757  22.4188028  76.7715683
  38.4121887  24.3679300  69.4902189  37.9726878  23.8755678  70.1835046
  39.1630004  23.8252267  69.2494264  30.8914226  20.5590840  69.4926817
  31.7172246  20.2594612  69.1125461  30.5408278  19.7898463  69.9416606
  35.8595760  19.9117309  71.5624491  35.2375769  19.2488014  71.2626719
  36.5300627  19.9378441  70.8798139  29.0922831  18.4777167  70.4515751
  28.2554740  18.0499341  70.2699752  29.0646477  18.6709610  71.3886542
  46.4175133  18.9340220  80.4358134  45.6270676  18.9164359  79.8962633
  46.1808487  19.4728514  81.1907171  46.5373008  15.7832686  77.7490863
  46.5871013  15.6182694  78.6906385  46.4286931  14.9159945  77.3588743
  35.4209267  18.4621232  65.0382951  35.5697387  19.1456696  64.3849624
  36.2275710  18.4426322  65.5532407  48.0391205  18.2029628  77.9932884
  47.7476013  18.5659608  78.8296345  47.4263336  17.4896636  77.8146216
  49.2386887  15.7682508  70.5135454  50.0733778  16.2072312  70.6773015
  49.3746016  15.2921161  69.6943700  46.2878393  13.3262242  76.4612942
  46.7632514  13.5189889  75.6531793  45.3643958  13.3821428  76.2156326
  33.1761899  14.4886410  66.0444020  32.9307941  13.5848740  66.2424230
  33.3457814  14.4903560  65.1023498  32.4457547  10.2214767  63.5430182
  31.7526792  10.2959122  62.8870218  32.2009299   9.4575111  64.0651699
  41.1171204   1.7810369  70.9469673  41.3972957   1.1133558  71.5730099
  41.9021810   1.9739464  70.4344336  38.9204672  20.9569362  62.5094699
  38.3478639  21.5759550  62.0565171  39.4937466  21.5068724  63.0434621
  44.9880062  10.2028003  74.6941248  45.9397485  10.3026100  74.7153472
  44.8183512   9.4106271  75.2039332  43.0094441   7.2883586  74.8800649
  42.4144373   7.5688598  74.1847137  42.7244138   7.7777487  75.6517390
  42.1401932  21.2406513  63.6403281  43.0732605  21.1752074  63.8436157
  42.0525145  22.0762779  63.1817814  44.7689948  20.5572383  60.6007229
  44.6903580  20.2232247  61.4942987  45.5899615  21.0494151  60.5998701
  47.4668140  13.4234122  73.8083547  47.4344460  12.4850123  73.9943231
  48.0768763  13.5018159  73.0749372  39.3051471  12.2930175  59.8510751
  40.2510575  12.1636383  59.9199169  38.9265715  11.5544837  60.3280179
  47.6162628  10.2145166  73.8541830  47.1001677   9.4303622  73.6671759
  48.5002577   9.8863882  74.0188350  45.2773355   3.9586181  69.8137643
  45.0798176   3.6501269  70.6980975  45.8873061   4.6847820  69.9435573
  53.2844690  14.4850129  72.9489584  54.0148078  14.2235417  73.5097287
  52.6751635  13.7478851  72.9891652  51.3659987  12.6257992  73.5464035
  50.6393150  12.4913957  72.9380527  50.9507274  12.9334820  74.3520753
  37.4894388  10.2180152  59.7865637  36.5825843   9.9213264  59.8628350
  37.7670369   9.9209970  58.9199923  28.4072328  11.5386515  70.2364683
  28.0875112  10.6851823  69.9439057  27.8605756  11.7535093  70.9922650
  32.1852236  14.2548956  73.9534189  32.4038245  15.1866064  73.9722223
  32.5978009  13.8956930  74.7388993  39.1056453   4.7617041  65.9409878
  38.2957182   4.4164126  66.3165124  39.7940870   4.4524585  66.5297489
  41.0347002   3.8395088  67.5634174  41.5878040   4.2590542  68.2224198
  41.2717088   2.9130836  67.6057130  36.2593172   7.0767087  59.9277616
  37.1212336   7.4021985  60.1873433  36.4443516   6.2898583  59.4150682
  28.2760588  15.1589426  72.2057805  27.5824060  14.7443379  71.6927759
  29.0233579  15.2009963  71.6091223  44.4125809   5.9495613  67.0712839
  43.8324478   6.6080417  66.6890891  44.1461741   5.1272958  66.6600256
  42.8629375   5.3500671  69.2734159  43.3629154   5.4617206  68.4648478
  43.5064983   5.0461724  69.9134968  30.1897331  15.0907680  70.0823819
  30.1668019  15.1895368  69.1305703  30.4997967  15.9372831  70.4040986
  32.8484708  17.1483835  74.1970434  33.8027962  17.1167778  74.1300365
  32.6497232  16.6874459  75.0120660  33.4384091  15.7184951  76.7641232
  34.2576980  16.2129030  76.7876069  33.7120898  14.8016919  76.7358799
  43.1950687   8.1095704  66.1269187  42.3076542   8.3945354  65.9089382
  43.6104676   7.9489467  65.2796464  46.5465223   8.1342225  69.8423526
  47.3225613   8.6238677  70.1148143  45.8213357   8.5600279  70.2995396
  48.9837782   8.8469844  70.8997467  49.5782272   8.6065580  70.1890775
  49.0564365   8.1276974  71.5271003  31.2034937  22.6903455  71.2140632
  31.0689405  21.9303856  70.6478630  30.7867000  23.4144355  70.7469421
  42.3393900  17.8740378  60.2217207  43.0429750  18.0790381  60.8374863
  41.6156549  18.4417140  60.4866291  43.1691711  13.6250240  66.3419477
  43.1126912  14.0818791  65.5027110  43.7220053  12.8640924  66.1642320
  46.9796516   9.4139971  67.1669597  46.7233451   9.0136607  67.9977804
  46.3549385  10.1283765  67.0419736  51.2908854  12.1536045  69.6740888
  50.7308412  12.2229234  70.4472450  50.6852358  11.9777029  68.9540384
  34.3604063  23.5872772  71.4259074  34.2436447  24.5318204  71.3237765
  33.5396509  23.2846333  71.8144874  44.2480598  18.3122908  62.2715667
  45.0826202  17.8804106  62.0893142  44.0864941  18.1404921  63.1992562
  43.9026490  14.8155021  63.6372006  43.8475294  14.6499292  62.6960450
  43.2772545  15.5231054  63.7934196  37.2122615   4.3163130  63.2157325
  37.2001285   5.2604970  63.3725596  38.1046037   4.1333275  62.9216786
  35.3858577  24.2401034  74.6415003  36.2885824  24.2724644  74.9581498
  35.1595947  23.3101485  74.6561339  37.1412179  22.9932020  71.3025081
  36.1907810  22.9933882  71.1889454  37.4444665  22.2464755  70.7861116
  41.0274735   0.9105906  67.4703262  40.2607131   0.3564393  67.6159944
  41.4385440   0.9827775  68.3317413  52.8764873  28.8292559  72.3670844
  53.5143283  28.7099306  71.6634184  52.7585716  29.7773403  72.4258796
  49.6854579  28.7819987  72.3032368  49.3473091  28.6661051  71.4152903
  50.5544347  28.3811152  72.2833375  45.5441395  30.6355463  68.2929259
  44.9806260  30.5445400  67.5245547  45.4293790  29.8155368  68.7731752
  50.1674362  29.9354838  78.2618574  50.1563003  29.5407637  77.3899078
  50.3295002  29.2020911  78.8552345  43.0905827  32.1306655  71.1313480
  43.8827119  31.7897479  70.7159779  43.3302477  32.2401630  72.0515633
  51.1240953  34.3026431  63.6043724  50.4728933  34.8880511  63.2177738
  51.9185316  34.8332626  63.6638762  45.0496581  31.3915568  64.0030859
  45.8227457  30.8444555  63.8643734  45.4021979  32.2559817  64.2145320
  46.8881623  32.7191950  77.2097758  46.5971489  33.6237581  77.0944424
  47.5238608  32.7608478  77.9241828  47.8137830  30.0968799  73.7999118
  48.4101402  29.8724821  73.0856081  47.8712802  29.3553544  74.4024565
  47.3862858  27.5508234  61.6349309  47.6388379  27.0289755  60.8732772
  46.4487418  27.3874380  61.7375992  52.4306141  26.5544012  69.4424052
  53.2169230  26.1363436  69.0914469  52.6944846  27.4590105  69.6105700
  52.6016219  31.9916863  64.1412709  51.9662052  32.0651489  64.8533613
  52.2713625  32.5810462  63.4631788  57.8314568  26.4919246  70.3457030
  58.5639740  25.9218462  70.5794860  57.0753924  26.1040846  70.7863536
  47.1059147  29.4536340  63.8373684  46.9895405  28.7781243  64.5054768
  47.2161407  28.9668714  63.0205837  49.4490688  28.9146487  67.5420373
  49.0848895  28.3877108  68.2533294  50.3057804  28.5244956  67.3686858
  55.3539989  20.2040820  74.8051639  55.0223314  21.0736231  74.5812854
  54.7585602  19.8877104  75.4845669  49.0896175  23.9436387  62.5381721
  49.2570577  24.8116623  62.9052192  48.8993344  24.1063669  61.6143011
  51.8471508  32.4053366  74.2047552  51.5472231  33.3078405  74.0963359
  51.5022568  32.1385549  75.0568705  45.2983990  28.8567163  70.2384256
  44.3734486  28.7243377  70.4461948  45.5468403  29.6361382  70.7354199
  55.2468652  24.9235906  71.8844989  54.3385529  24.8551314  71.5903750
  55.1956248  25.4007851  72.7126814  49.0685396  26.3994044  63.5228388
  48.9485021  26.8451095  64.3613868  48.3737984  26.7479362  62.9641926
  42.6592801  28.5000436  71.0728045  42.7885182  28.7534915  71.9867457
  41.9790252  29.0928144  70.7532700  46.8292288  39.1697686  67.1718519
  46.7516318  40.1205511  67.2507000  46.2253932  38.8243559  67.8293446
  49.3209518  26.3425552  79.8279886  48.5442852  26.9019472  79.8182751
  49.9600081  26.8282335  80.3494756  57.1130298  23.1252344  73.6622863
  56.4704679  23.4184878  73.0162658  56.6085227  23.0105265  74.4676060
  54.7670462  26.8715518  64.3508722  55.6788318  27.1042904  64.1756420
  54.2580109  27.4552562  63.7883801  47.5755890  29.1511005  79.3897853
  48.3170575  29.6896049  79.1132677  46.8692876  29.7777294  79.5469405
  53.0511230  31.2940145  77.9870015  53.4594586  30.8522556  77.2424647
  52.3288491  30.7192773  78.2404208  49.4042300  26.2312752  75.3603572
  50.2503495  26.6552166  75.5038221  49.3440938  25.5746376  76.0542135
  53.3740044  31.8541336  71.7422304  52.7448907  32.0187050  71.0398372
  52.9865707  32.2682946  72.5133268  57.2529276  32.7895774  69.0966667
  56.5680314  33.1694675  68.5463701  57.3373126  33.3991101  69.8298615
  52.5541745  23.8917121  77.0184745  52.3102677  24.6459181  76.4819021
  52.8301676  24.2702468  77.8531992  54.5080208  30.4355733  75.6962011
  54.7197103  31.0787493  75.0196392  54.4609956  29.6018049  75.2283941
  52.1106437  23.0473554  72.5998583  51.2490916  23.3454807  72.8915321
  52.1368872  23.2643952  71.6679616  48.9268006  31.5915744  69.0072389
  49.3906352  31.8703447  68.2177011  48.6624804  30.6899189  68.8245479
  45.8192087  31.1387226  71.9452152  46.3893444  31.5674494  71.3069637
  46.4100199  30.8569810  72.6436338  47.8636892  27.7138896  65.8161954
  48.5660936  28.1659940  66.2835880  47.5317521  27.0722715  66.4441847
  46.3117254  26.3050653  80.1913163  45.6815914  26.9866934  80.4248560
  46.2053342  26.1933735  79.2466302  41.6062226  25.9722449  71.1179087
  40.8161280  26.2279978  70.6419198  42.0973474  26.7870787  71.2231128
  55.6226036  33.3127688  73.8684368  56.4443480  32.9107876  73.5867050
  55.6188439  33.2095922  74.8200484  43.5576972  26.3367028  68.0762564
  42.7608135  26.4485723  68.5946060  43.3302564  26.6753681  67.2103455
  49.3882639  32.8611732  76.0245079  49.4527072  33.3232139  76.8603251
  48.6793563  32.2309097  76.1527389  39.8899929  26.2252940  73.5494078
  40.1407968  27.1099949  73.8151654  40.4259478  26.0457541  72.7769170
  63.7132029  29.6566437  70.2169340  62.9595737  29.0873835  70.0613344
  63.8479570  29.6229101  71.1639974  49.1030657  34.5279839  65.8924059
  48.9676332  35.3731375  66.3208907  49.6440469  34.7299117  65.1289993
  45.5897997  20.6071419  82.5538414  45.1964942  20.0537617  83.2286059
  46.4064137  20.9181997  82.9444932  42.5560054  32.0455277  66.4651984
  43.0684575  32.8398527  66.6157549  43.2082767  31.3481568  66.3985586
  44.3654939  35.1621033  68.5474737  44.5421567  36.0838998  68.3595721
  45.1611773  34.8479453  68.9769117  48.5065958  22.0229298  80.1458671
  49.2475671  22.6236451  80.0663133  48.7383880  21.2806936  79.5876713
  43.6507296  27.2085665  78.4236901  43.5360811  26.3070923  78.7243999
  42.7951813  27.4549362  78.0721717  50.7299133  35.1503406  80.0224401
  50.2862988  34.3639784  79.7045306  51.3916347  35.3382556  79.3568292
  45.4886255  36.6799207  74.5485080  46.0393680  36.5516271  73.7762074
  44.6497730  36.9794096  74.1979972  52.8280371  35.4306206  78.0505802
  52.8098847  36.2515087  77.5586072  53.7500291  35.3060281  78.2755944
  49.2853426  32.9450335  78.8929311  49.8181762  32.1838623  78.6628619
  48.7567507  32.6523987  79.6353465  52.4523121  18.0510401  74.4222953
  52.1087390  18.9412043  74.3462063  52.8202083  17.8612059  73.5592538
  40.5208971  30.3743931  67.2411555  41.3584193  30.7840940  67.0245262
  40.6987239  29.4343374  67.2111749  52.4173403  28.0419012  62.9295388
  51.9020027  28.8123617  63.1683775  52.1450712  27.3684148  63.5528449
  50.0020514  22.8868713  67.9880626  49.1462111  22.4975563  67.8086265
  50.4147466  22.9660674  67.1280412  51.5319661  20.4215056  72.3872186
  51.0284457  20.3845191  71.5739991  51.8250268  21.3307799  72.4468842
  47.7762547  20.5053786  71.3938368  48.6415544  20.3096595  71.0344257
  47.8440056  20.2764138  72.3207724  57.3907677  30.7951367  64.8648561
  56.6137120  30.4562526  64.4203723  58.0699158  30.8003990  64.1903526
  52.2059706  25.9146104  64.7555169  51.9009842  26.2292253  65.6065312
  53.1590149  25.9927524  64.7982502  50.6506138  32.0736327  66.4048123
  50.1227500  31.3389087  66.0921360  50.1493641  32.8511004  66.1588091
  55.6298984  30.2685348  71.5215169  54.9722659  30.9584609  71.6095298
  56.4339384  30.6581780  71.8649155  45.3824866  22.7355994  68.7654734
  45.9568618  22.5131175  68.0327927  45.9695848  22.8044688  69.5183336
  54.4404443  28.6229721  69.5719111  54.9536325  29.2559713  70.0740821
  55.0905667  28.0230916  69.2062471  45.7094453  24.7660455  62.7850620
  44.8731765  25.1035141  63.1059894  45.5699223  24.6309435  61.8477757
  47.6847534  19.6097243  67.4929804  47.0311946  19.2946260  66.8686419
  47.6428008  18.9872983  68.2189627  48.7958738  29.8916538  59.4083096
  47.8885800  29.6605791  59.6074245  49.2929770  29.0954157  59.5957077
  51.7026817  38.6014045  62.3279782  51.0288516  38.9045742  62.9364740
  52.0892639  39.4043125  61.9785239  50.9185274  26.0979176  71.8177451
  50.0007835  26.3194123  71.6599139  51.3345418  26.1725487  70.9589159
  51.7020322  27.4970592  66.9480132  52.4492141  28.0091989  66.6387254
  51.9711911  27.1754645  67.8084525  49.9746972  29.9929133  63.9307086
  49.0658191  29.7088165  64.0279556  50.0042056  30.4128211  63.0710393
  55.2066239  33.6035722  67.6998254  54.7528566  32.7626632  67.7563444
  54.5760206  34.2397120  68.0373034  54.1499159  24.5327708  68.9298921
  53.4121916  24.0205094  69.2609164  54.4025932  24.0928090  68.1182198
  53.6499179  35.4412219  68.6348072  53.9422153  36.0017276  67.9160437
  54.1597799  35.7340780  69.3901231  54.2510786  17.3103960  69.5240690
  54.5569663  16.4501324  69.2366605  54.9763391  17.9021580  69.3239684
  40.5435142  27.7134647  67.9122288  40.3459542  27.1204007  67.1873355
  39.9881806  27.4086857  68.6298227  48.5231866  27.6057753  70.0316881
  48.5780476  26.6531590  69.9559358  47.7123068  27.7617192  70.5158180
  49.6723060  31.5337876  61.2695165  49.2342490  30.8173735  60.8100802
  50.4133501  31.7613991  60.7080256  46.4624226  26.2234813  67.7907260
  45.6492091  26.5228984  68.1972452  46.9583220  25.8290502  68.5081742
  48.6132804  36.2192570  69.7241525  48.5708983  36.4453416  68.7950057
  49.5295503  35.9855944  69.8727326  52.0598438  26.6876637  76.6222154
  52.4147825  26.9148111  77.4816620  52.7070569  27.0195014  75.9999409
  57.7896174  29.8095073  67.3271483  57.6514073  29.9996669  66.3992672
  57.4332393  30.5714456  67.7839534  45.9538301  23.7953168  73.4068495
  46.5937680  23.6541928  72.7091458  45.1215831  23.5087682  73.0307097
  57.8165554  31.8771600  72.3382755  58.2502061  31.7846889  73.1865809
  58.5297135  31.8529101  71.7002771  46.7298605  33.0955599  69.5203488
  47.5239203  32.6005919  69.3186063  46.0190297  32.5673462  69.1571193
  51.5493449  35.4773694  73.8715855  51.6030471  36.0464631  74.6393571
  50.6808230  35.6475579  73.5069892  43.0381368  27.2398681  65.5963240
  42.1078956  27.1783136  65.8133202  43.1338840  26.7174633  64.7999882
  42.9566917  23.7653493  68.1841482  43.2173734  24.6798827  68.0750642
  43.7784089  23.2977936  68.3338095  44.4291842  25.1791251  75.3540306
  45.1014896  24.9708613  74.7052955  43.6021629  24.9813337  74.9145539
  58.6781104  31.9195301  74.8715640  58.8716994  32.8241111  75.1174915
  58.5781722  31.4602720  75.7054225  50.3317414  21.8053192  77.3705967
  49.6845329  22.5043141  77.2770444  51.1018430  22.2389335  77.7382216
  53.7396212  32.0702044  80.4456521  53.5881719  31.8412595  79.5286604
  53.7300892  33.0272645  80.4587866  50.5081549  29.6433956  75.4302787
  51.4373609  29.7945116  75.2571754  50.0872579  29.7317977  74.5751434
  49.3069881  33.6684621  73.2001325  49.1680966  33.3003405  74.0727263
  48.5184477  34.1832260  73.0285282  49.9018033  38.7693717  64.5426861
  50.0769788  38.2981761  65.3572484  49.2150821  39.3959484  64.7708122
  50.8575096  33.0466224  70.5890162  50.5224928  33.0066994  71.4847812
  50.3579041  32.3810940  70.1160573  44.8319340  28.4533854  76.1142744
  44.6939138  27.7214092  76.7154283  45.7424263  28.3642754  75.8326931
  53.7934287  30.3922258  60.8627222  53.1763458  29.6669086  60.7660275
  53.3250776  31.1531618  60.5194296  47.4601640  28.1653813  75.6026423
  48.1701259  27.5247005  75.5613042  47.4170948  28.4166708  76.5252604
  55.4488419  35.1021166  78.5233002  55.3900965  34.4180386  77.8563586
  55.8507937  35.8440156  78.0713628  46.1730574  25.1519031  77.4222063
  45.6367931  24.7009769  78.0743659  45.5847283  25.2864940  76.6792527
  44.4679118  41.9183080  71.3166721  44.7075716  42.5501604  71.9945740
  43.6248314  41.5671120  71.6032081  45.5832833  24.6107682  59.9848526
  44.7062300  24.4896483  59.6210773  46.0590586  23.8193761  59.7327415
  55.4505826  33.0660750  76.7546982  54.5632605  32.7286672  76.8773381
  56.0204377  32.3343781  76.9915748  37.1034973  29.3984842  70.0790034
  37.7906013  29.0846572  69.4911049  36.9483102  30.3026207  69.8057285
  41.9069696  24.2875039  74.5075057  41.8227884  23.6800708  73.7725467
  41.0852402  24.7784057  74.5084554  48.9806980  37.7262203  73.7208225
  48.9077151  38.5317174  74.2327530  48.5384373  37.9254168  72.8956247
  48.7696759  36.9633973  67.2311047  47.9864281  37.5055653  67.3249271
  49.4689504  37.4807952  67.6305288  52.0793409  22.7728602  69.8745252
  52.5762109  22.0198564  69.5546323  51.3080391  22.8092919  69.3088462
  59.9323167  28.4768968  71.5163544  59.9213043  29.3593683  71.1457477
  59.0640546  28.1240518  71.3218081  51.4405663  37.6249037  75.8766384
  52.1533635  38.2596501  75.8042285  50.9495692  37.7212903  75.0606386
  53.1623190  31.5300289  67.4483676  52.2279469  31.6501752  67.2788380
  53.3399859  30.6272756  67.1843686  48.6628378  24.9145985  69.6016937
  48.2926166  24.3617025  70.2897842  49.1587471  24.3104119  69.0491937
  56.5495741  27.3717609  67.9833710  57.0156194  28.2045600  67.9094012
  57.0003242  26.9062590  68.6878968  46.4917577  35.3743480  76.6971955
  47.1927036  36.0079963  76.8501349  46.0212692  35.7158212  75.9367594
  54.6171973  33.7161430  64.9819862  54.8931816  33.6018024  65.8913736
  53.7476471  33.3178915  64.9432035  54.5212404  19.7398196  72.0224611
  53.6075484  19.9702422  72.1906818  54.9505506  19.8236640  72.8738644
  54.2918863  27.9288088  74.5224505  53.6390313  28.1763995  73.8676958
  54.6699243  27.1152226  74.1886982  51.2526037  37.9647781  68.6252675
  51.4348431  37.1469437  69.0880428  52.0759023  38.1815473  68.1877565
  51.5868202  36.8915966  65.8867724  52.1155968  36.3808420  65.2737886
  51.8496422  36.5758496  66.7513257  50.3406436  28.6707899  81.0090542
  49.6647073  28.5702028  81.6792918  51.1634070  28.5147112  81.4726540
  42.0885295  34.9079835  73.6303058  42.6738732  34.1623523  73.7630962
  41.8910133  35.2183792  74.5139721  44.9423950  37.9431083  68.6465500
  44.2734325  38.4277210  68.1629540  44.8036820  38.1900303  69.5608878
  36.6802950  27.4785435  72.3507501  36.7187049  26.9449026  73.1444619
  36.1743242  26.9520641  71.7318478  49.0829219  39.9774826  75.2448158
  49.6347527  40.1406448  76.0097244  49.4235412  40.5679264  74.5728183
  44.0593712  22.3249976  75.8470043  44.1235038  23.1864807  75.4347441
  43.9960832  21.7123977  75.1142401  43.5345984  24.3973108  79.4943077
  44.1618023  24.0150186  80.1080602  42.6773903  24.1787310  79.8598770
  53.9340093  34.8036084  81.0996813  54.4779997  35.4166042  80.6051768
  53.3526938  35.3615662  81.6163826  40.3111527  26.2049537  65.4261432
  40.6064968  25.2960216  65.3728486  39.4099563  26.1837277  65.1042434
  52.2197606  37.9256802  72.2311840  52.0948745  37.1246541  71.7222786
  52.8776697  38.4202995  71.7425810  43.8405774  24.2805534  71.4088981
  43.1192360  24.8941502  71.2696454  44.6299030  24.8163299  71.3305627
  54.2832514  35.7265822  73.8591391  53.3362850  35.6071173  73.7869717
  54.6315287  34.8388320  73.9417652  46.6432088  21.6159961  77.6829632
  47.1666489  21.8622257  78.4455942  46.4244421  22.4479995  77.2632770
  42.0399369  23.8863635  65.5500757  41.7112075  23.0061014  65.3675863
  42.3938739  23.8311304  66.4377146  51.2878948  35.5218538  70.0595743
  51.1403910  34.5935245  70.2403313  52.1132441  35.5438629  69.5752818
  45.1541192  24.1736605  65.9176235  45.4937264  24.7022526  65.1954843
  45.6013312  24.5117011  66.6934801  54.8913069  36.3447097  71.1460616
  55.8159617  36.1389958  71.0085067  54.7228373  36.0963498  72.0549957
  47.8484633  22.5573656  75.3679303  47.5081453  21.7581469  75.7699983
  47.1423639  22.8575367  74.7956136  48.5001104  19.6422968  73.8206626
  49.3227174  19.1683446  73.6985516  48.7439168  20.4213452  74.3205312
  47.1409339  22.6711227  64.1169528  47.8617701  23.0492479  63.6133245
  46.5174643  23.3900103  64.2204506  51.2840462  23.3756376  65.0527860
  51.5004076  24.2581013  64.7516688  50.8034529  22.9842589  64.3233502
  46.0239683  26.3342089  71.6298605  45.8784264  26.6482392  72.5222886
  45.5464887  26.9526989  71.0769503  47.8836066  23.3244637  71.6779494
  47.8697635  22.4285730  71.3411792  48.6008494  23.3315300  72.3117780
  49.7362197  23.7581977  73.7232622  49.4779975  24.6799048  73.7216952
  49.2047237  23.3612411  74.4133086  54.6808386  36.8632764  66.5022707
  54.8545263  36.2979187  65.7496559  55.1737277  37.6633659  66.3202197
  40.4985345  28.8747433  74.5686266  39.9538813  29.6507241  74.7006540
  41.3764695  29.2218238  74.4105387  47.2872962  22.2059017  66.9467064
  47.4088873  21.2775663  67.1457952  46.9975004  22.2197703  66.0345380
  50.1564152  19.8913927  70.0833784  50.1785849  19.9553261  69.1285764
  50.5732211  19.0518436  70.2774290  60.5347777  29.6269187  68.1213007
  60.9778923  28.8776512  67.7232130  59.6574287  29.6179323  67.7386739
  55.6683558  36.1799528  63.6019605  56.3634463  36.8006221  63.8206920
  56.0106708  35.3294880  63.8771983  41.2851367  28.0017329  77.4616423
  40.5433103  28.1499965  78.0481053  40.9644112  28.2625595  76.5983172
  57.5674981  33.6299234  65.1306936  58.0926305  33.9686507  64.4056256
  57.4797334  32.6946249  64.9470071  49.2295030  37.5433308  77.2596813
  49.5382156  37.2982454  78.1319512  50.0270512  37.7479946  76.7715683
  49.2515642  39.6971217  69.4902189  48.8120632  39.2047596  70.1835046
  50.0023759  39.1544185  69.2494264  41.7307981  35.8882758  69.4926817
  42.5566001  35.5886530  69.1125461  41.3802033  35.1190381  69.9416606
  46.6989514  35.2409226  71.5624491  46.0769523  34.5779931  71.2626719
  47.3694381  35.2670358  70.8798139  39.9316586  33.8069085  70.4515751
  39.0948494  33.3791259  70.2699752  39.9040231  34.0001528  71.3886542
  46.7714042  23.7191014  81.1556997  46.8202197  24.5953137  80.7734766
  47.3136556  23.1768407  80.5828640  57.2568887  34.2632138  80.4358134
  56.4664431  34.2456276  79.8962633  57.0202242  34.8020431  81.1907171
  57.3766762  31.1124604  77.7490863  57.4264767  30.9474611  78.6906385
  57.2680686  30.2451863  77.3588743  46.2603021  33.7913150  65.0382951
  46.4091141  34.4748614  64.3849624  47.0669464  33.7718240  65.5532407
  54.6670525  27.0955532  79.0650169  55.5680387  26.9561997  78.7734167
  54.7418499  27.2609987  80.0048347  49.0013330  24.4722387  77.9103356
  48.1316639  24.7655953  77.6385944  49.2372810  25.0562832  78.6310619
  58.8784959  33.5321545  77.9932884  58.5869767  33.8951526  78.8296345
  58.2657090  32.8188554  77.8146216  60.0780641  31.0974425  70.5135454
  60.9127533  31.5364229  70.6773015  60.2139770  30.6213078  69.6943700
  57.1272147  28.6554160  76.4612942  57.6026269  28.8481806  75.6531793
  56.2037713  28.7113346  76.2156326  44.0155654  29.8178327  66.0444020
  43.7701696  28.9140657  66.2424230  44.1851569  29.8195478  65.1023498
  51.7052364  20.6902004  75.4268776  52.2234308  21.4263031  75.1015264
  51.3507497  20.9965997  76.2615535  43.2851302  25.5506685  63.5430182
  42.5920546  25.6251040  62.8870218  43.0403053  24.7867029  64.0651699
  51.9564958  17.1102286  70.9469673  52.2366712  16.4425475  71.5730099
  52.7415565  17.3031382  70.4344336  49.7598427  36.2861280  62.5094699
  49.1872394  36.9051467  62.0565171  50.3331220  36.8360642  63.0434621
  55.8273816  25.5319920  74.6941248  56.7791239  25.6318018  74.7153472
  55.6577267  24.7398189  75.2039332  53.8488196  22.6175503  74.8800649
  53.2538128  22.8980516  74.1847137  53.5637893  23.1069404  75.6517390
  52.9795686  36.5698430  63.6403281  53.9126359  36.5043992  63.8436157
  52.8918899  37.4054697  63.1817814  55.6083703  35.8864301  60.6007229
  55.5297335  35.5524164  61.4942987  56.4293370  36.3786069  60.5998701
  58.3061894  28.7526040  73.8083547  58.2738214  27.8142041  73.9943231
  58.9162518  28.8310077  73.0749372  50.1445225  27.6222093  59.8510751
  51.0904330  27.4928301  59.9199169  49.7659470  26.8836755  60.3280179
  58.4556383  25.5437083  73.8541830  57.9395431  24.7595540  73.6671759
  59.3396331  25.2155800  74.0188350  56.1167110  19.2878099  69.8137643
  55.9191931  18.9793187  70.6980975  56.7266815  20.0139738  69.9435573
  64.1238444  29.8142047  72.9489584  64.8541832  29.5527335  73.5097287
  63.5145389  29.0770769  72.9891652  62.2053741  27.9549909  73.5464035
  61.4786905  27.8205874  72.9380527  61.7901028  28.2626738  74.3520753
  50.0283918  31.6739839  81.3111408  50.9486927  31.8518438  81.5051455
  49.9933501  30.7295884  81.1591108  48.3288142  25.5472069  59.7865637
  47.4219598  25.2505182  59.8628350  48.6064123  25.2501887  58.9199923
  39.2466083  26.8678433  70.2364683  38.9268867  26.0143741  69.9439057
  38.6999511  27.0827011  70.9922650  43.0245990  29.5840874  73.9534189
  43.2432000  30.5157981  73.9722223  43.4371764  29.2248848  74.7388993
  49.9450208  20.0908959  65.9409878  49.1350936  19.7456044  66.3165124
  50.6334625  19.7816503  66.5297489  51.8740756  19.1687006  67.5634174
  52.4271795  19.5882459  68.2224198  52.1110843  18.2422754  67.6057130
  47.8973855  25.1574079  83.3436938  47.7970582  26.1068436  83.2749029
  47.6795397  24.8292318  82.4713008  47.0986927  22.4059004  59.9277616
  47.9606091  22.7313903  60.1873433  47.2837271  21.6190500  59.4150682
  39.1154343  30.4881344  72.2057805  38.4217814  30.0735297  71.6927759
  39.8627334  30.5301881  71.6091223  55.2519563  21.2787531  67.0712839
  54.6718232  21.9372335  66.6890891  54.9855496  20.4564876  66.6600256
  53.7023130  20.6792589  69.2734159  54.2022908  20.7909123  68.4648478
  54.3458738  20.3753641  69.9134968  47.7605125  28.5871218  82.1602000
  47.2772207  29.3871578  82.3665889  47.8466065  28.5979163  81.2069444
  41.0291085  30.4199598  70.0823819  41.0061773  30.5187285  69.1305703
  41.3391722  31.2664749  70.4040986  43.6878463  32.4775753  74.1970434
  44.6421717  32.4459695  74.1300365  43.4890987  32.0166377  75.0120660
  44.2777845  31.0476869  76.7641232  45.0970734  31.5420948  76.7876069
  44.5514653  30.1308837  76.7358799  54.0344441  23.4387621  66.1269187
  53.1470296  23.7237272  65.9089382  54.4498430  23.2781385  65.2796464
  57.3858977  23.4634142  69.8423526  58.1619368  23.9530595  70.1148143
  56.6607112  23.8892197  70.2995396  59.8231536  24.1761762  70.8997467
  60.4176027  23.9357497  70.1890775  59.8958120  23.4568892  71.5271003
  42.0428692  38.0195372  71.2140632  41.9083160  37.2595773  70.6478630
  41.6260754  38.7436272  70.7469421  53.1787655  33.2032296  60.2217207
  53.8823505  33.4082298  60.8374863  52.4550304  33.7709058  60.4866291
  54.0085465  28.9542157  66.3419477  53.9520666  29.4110709  65.5027110
  54.5613808  28.1932842  66.1642320  57.8190271  24.7431889  67.1669597
  57.5627205  24.3428525  67.9977804  57.1943139  25.4575683  67.0419736
  62.1302609  27.4827962  69.6740888  61.5702167  27.5521152  70.4472450
  61.5246112  27.3068947  68.9540384  45.1997818  38.9164689  71.4259074
  45.0830202  39.8610122  71.3237765  44.3790264  38.6138251  71.8144874
  55.0874352  33.6414825  62.2715667  55.9219956  33.2096024  62.0893142
  54.9258695  33.4696839  63.1992562  54.7420244  30.1446939  63.6372006
  54.6869048  29.9791210  62.6960450  54.1166300  30.8522971  63.7934196
  39.5312759  25.3815003  77.4633429  40.1771623  24.8713957  77.9520654
  39.3229910  26.1183685  78.0376854  52.0566152  32.4495850  82.9625569
  52.9257311  32.6236503  82.6012204  51.5772903  33.2690267  82.8401298
  48.0516370  19.6455048  63.2157325  48.0395040  20.5896887  63.3725596
  48.9439792  19.4625193  62.9216786  46.2252332  39.5692951  74.6415003
  47.1279578  39.6016562  74.9581498  45.9989702  38.6393402  74.6561339
  47.9805934  38.3223938  71.3025081  47.0301565  38.3225800  71.1889454
  48.2838420  37.5756672  70.7861116  51.8668489  16.2397824  67.4703262
  51.1000885  15.6856311  67.6159944  52.2779194  16.3119693  68.3317413
  43.8710250  22.5282620  81.5608443  44.7341712  22.1719425  81.7711767
  43.2975661  22.1896515  82.2483847  63.7158627  44.1584476  72.3670844
  64.3537037  44.0391224  71.6634184  63.5979470  45.1065320  72.4258796
  60.5248334  44.1111904  72.3032368  60.1866845  43.9952969  71.4152903
  61.3938102  43.7103070  72.2833375  56.3835149  45.9647381  68.2929259
  55.8200014  45.8737318  67.5245547  56.2687544  45.1447285  68.7731752
  61.0068117  45.2646756  78.2618574  60.9956757  44.8699554  77.3899078
  61.1688756  44.5312829  78.8552345  53.9299581  47.4598572  71.1313480
  54.7220873  47.1189397  70.7159779  54.1696231  47.5693547  72.0515633
  61.9634708  49.6318349  63.6043724  61.3122688  50.2172429  63.2177738
  62.7579071  50.1624543  63.6638762  55.8890335  46.7207486  64.0030859
  56.6621211  46.1736473  63.8643734  56.2415734  47.5851735  64.2145320
  57.7275378  48.0483868  77.2097758  57.4365244  48.9529499  77.0944424
  58.3632362  48.0900396  77.9241828  58.6531585  45.4260716  73.7999118
  59.2495157  45.2016739  73.0856081  58.7106556  44.6845462  74.4024565
  58.2256613  42.8800152  61.6349309  58.4782134  42.3581673  60.8732772
  57.2881172  42.7166297  61.7375992  63.2699896  41.8835930  69.4424052
  64.0562985  41.4655353  69.0914469  63.5338600  42.7882022  69.6105700
  63.4409973  47.3208780  64.1412709  62.8055806  47.3943407  64.8533613
  63.1107380  47.9102379  63.4631788  68.6708323  41.8211163  70.3457030
  69.4033495  41.2510380  70.5794860  67.9147679  41.4332764  70.7863536
  57.9452902  44.7828258  63.8373684  57.8289160  44.1073161  64.5054768
  58.0555162  44.2960632  63.0205837  60.2884443  44.2438405  67.5420373
  59.9242650  43.7169026  68.2533294  61.1451559  43.8536874  67.3686858
  66.1933743  35.5332737  74.8051639  65.8617068  36.4028148  74.5812854
  65.5979357  35.2169021  75.4845669  59.9289930  39.2728305  62.5381721
  60.0964332  40.1408541  62.9052192  59.7387099  39.4355586  61.6143011
  62.6865263  47.7345283  74.2047552  62.3865986  48.6370322  74.0963359
  62.3416322  47.4677467  75.0568705  56.1377744  44.1859080  70.2384256
  55.2128241  44.0535294  70.4461948  56.3862157  44.9653300  70.7354199
  66.0862407  40.2527824  71.8844989  65.1779284  40.1843232  71.5903750
  66.0350002  40.7299769  72.7126814  59.9079150  41.7285962  63.5228388
  59.7878776  42.1743013  64.3613868  59.2131739  42.0771280  62.9641926
  53.4986555  43.8292354  71.0728045  53.6278936  44.0826833  71.9867457
  52.8184007  44.4220062  70.7532700  57.6686043  54.4989604  67.1718519
  57.5910072  55.4497429  67.2507000  57.0647686  54.1535476  67.8293446
  60.1603272  41.6717469  79.8279886  59.3836606  42.2311389  79.8182751
  60.7993835  42.1574252  80.3494756  67.9524053  38.4544262  73.6622863
  67.3098433  38.7476795  73.0162658  67.4478981  38.3397182  74.4676060
  65.6064217  42.2007435  64.3508722  66.5182073  42.4334822  64.1756420
  65.0973864  42.7844479  63.7883801  58.4149645  44.4802923  79.3897853
  59.1564329  45.0187967  79.1132677  57.7086630  45.1069211  79.5469405
  63.8904984  46.6232063  77.9870015  64.2988340  46.1814474  77.2424647
  63.1682246  46.0484691  78.2404208  60.2436054  41.5604670  75.3603572
  61.0897250  41.9844083  75.5038221  60.1834692  40.9038294  76.0542135
  64.2133799  47.1833254  71.7422304  63.5842661  47.3478968  71.0398372
  63.8259461  47.5974863  72.5133268  68.0923031  48.1187692  69.0966667
  67.4074069  48.4986593  68.5463701  68.1766880  48.7283018  69.8298615
  63.3935500  39.2209038  77.0184745  63.1496432  39.9751099  76.4819021
  63.6695430  39.5994386  77.8531992  65.3473962  45.7647651  75.6962011
  65.5590858  46.4079410  75.0196392  65.3003711  44.9309967  75.2283941
  62.9500191  38.3765471  72.5998583  62.0884670  38.6746725  72.8915321
  62.9762626  38.5935870  71.6679616  59.7661761  46.9207662  69.0072389
  60.2300106  47.1995365  68.2177011  59.5018559  46.0191106  68.8245479
  56.6585842  46.4679143  71.9452152  57.2287199  46.8966412  71.3069637
  57.2493954  46.1861728  72.6436338  58.7030647  43.0430814  65.8161954
  59.4054690  43.4951858  66.2835880  58.3711275  42.4014633  66.4441847
  57.1511008  41.6342571  80.1913163  56.5209669  42.3158852  80.4248560
  57.0447096  41.5225652  79.2466302  52.4455981  41.3014367  71.1179087
  51.6555035  41.5571895  70.6419198  52.9367228  42.1162705  71.2231128
  66.4619790  48.6419606  73.8684368  67.2837234  48.2399793  73.5867050
  66.4582193  48.5387840  74.8200484  54.3970726  41.6658946  68.0762564
  53.6001889  41.7777640  68.5946060  54.1696318  42.0045598  67.2103455
  60.2276394  48.1903649  76.0245079  60.2920826  48.6524057  76.8603251
  59.5187318  47.5601014  76.1527389  50.7293684  41.5544857  73.5494078
  50.9801722  42.4391867  73.8151654  51.2653232  41.3749459  72.7769170
  74.5525783  44.9858354  70.2169340  73.7989492  44.4165753  70.0613344
  74.6873325  44.9521019  71.1639974  59.9424411  49.8571757  65.8924059
  59.8070086  50.7023292  66.3208907  60.4834224  50.0591034  65.1289993
  56.4291751  35.9363337  82.5538414  56.0358697  35.3829535  83.2286059
  57.2457891  36.2473915  82.9444932  53.3953809  47.3747195  66.4651984
  53.9078329  48.1690445  66.6157549  54.0476522  46.6773485  66.3985586
  55.2048694  50.4912951  68.5474737  55.3815322  51.4130916  68.3595721
  56.0005527  50.1771370  68.9769117  59.3459712  37.3521216  80.1458671
  60.0869425  37.9528369  80.0663133  59.5777635  36.6098853  79.5876713
  54.4901050  42.5377583  78.4236901  54.3754565  41.6362840  78.7243999
  53.6345568  42.7841280  78.0721717  61.5692888  50.4795323  80.0224401
  61.1256742  49.6931702  79.7045306  62.2310101  50.6674474  79.3568292
  56.3280009  52.0091125  74.5485080  56.8787434  51.8808188  73.7762074
  55.4891485  52.3086014  74.1979972  63.6674126  50.7598123  78.0505802
  63.6492601  51.5807004  77.5586072  64.5894046  50.6352198  78.2755944
  60.1247180  48.2742253  78.8929311  60.6575517  47.5130541  78.6628619
  59.5961261  47.9815904  79.6353465  63.2916875  33.3802319  74.4222953
  62.9481144  34.2703960  74.3462063  63.6595838  33.1903976  73.5592538
  51.3602726  45.7035849  67.2411555  52.1977948  46.1132857  67.0245262
  51.5380993  44.7635291  67.2111749  63.2567158  43.3710930  62.9295388
  62.7413781  44.1415534  63.1683775  62.9844466  42.6976066  63.5528449
  60.8414269  38.2160631  67.9880626  59.9855865  37.8267481  67.8086265
  61.2541221  38.2952591  67.1280412  62.3713415  35.7506974  72.3872186
  61.8678211  35.7137109  71.5739991  62.6644022  36.6599717  72.4468842
  58.6156301  35.8345704  71.3938368  59.4809298  35.6388512  71.0344257
  58.6833810  35.6056055  72.3207724  68.2301432  46.1243284  64.8648561
  67.4530875  45.7854444  64.4203723  68.9092913  46.1295908  64.1903526
  63.0453461  41.2438022  64.7555169  62.7403597  41.5584171  65.6065312
  63.9983903  41.3219442  64.7982502  61.4899893  47.4028245  66.4048123
  60.9621254  46.6681005  66.0921360  60.9887396  48.1802922  66.1588091
  66.4692739  45.5977266  71.5215169  65.8116413  46.2876527  71.6095298
  67.2733138  45.9873698  71.8649155  56.2218620  38.0647911  68.7654734
  56.7962372  37.8423093  68.0327927  56.8089603  38.1336606  69.5183336
  65.2798198  43.9521638  69.5719111  65.7930079  44.5851630  70.0740821
  65.9299421  43.3522834  69.2062471  56.5488208  40.0952372  62.7850620
  55.7125520  40.4327059  63.1059894  56.4092977  39.9601352  61.8477757
  58.5241288  34.9389160  67.4929804  57.8705700  34.6238178  66.8686419
  58.4821762  34.3164901  68.2189627  59.6352493  45.2208455  59.4083096
  58.7279555  44.9897709  59.6074245  60.1323525  44.4246075  59.5957077
  62.5420572  53.9305963  62.3279782  61.8682271  54.2337659  62.9364740
  62.9286394  54.7335043  61.9785239  61.7579028  41.4271094  71.8177451
  60.8401590  41.6486041  71.6599139  62.1739172  41.5017404  70.9589159
  62.5414076  42.8262510  66.9480132  63.2885895  43.3383907  66.6387254
  62.8105666  42.5046562  67.8084525  60.8140726  45.3221050  63.9307086
  59.9051946  45.0380083  64.0279556  60.8435810  45.7420129  63.0710393
  66.0459994  48.9327640  67.6998254  65.5922321  48.0918550  67.7563444
  65.4153961  49.5689038  68.0373034  64.9892913  39.8619626  68.9298921
  64.2515670  39.3497012  69.2609164  65.2419687  39.4220007  68.1182198
  64.4892933  50.7704136  68.6348072  64.7815907  51.3309194  67.9160437
  64.9991554  51.0632697  69.3901231  65.0904541  32.6395878  69.5240690
  65.3963418  31.7793241  69.2366605  65.8157146  33.2313498  69.3239684
  51.3828897  43.0426564  67.9122288  51.1853297  42.4495925  67.1873355
  50.8275561  42.7378775  68.6298227  59.3625620  42.9349671  70.0316881
  59.4174230  41.9823507  69.9559358  58.5516822  43.0909110  70.5158180
  60.5116814  46.8629794  61.2695165  60.0736244  46.1465653  60.8100802
  61.2527255  47.0905909  60.7080256  57.3017980  41.5526731  67.7907260
  56.4885846  41.8520901  68.1972452  57.7976975  41.1582419  68.5081742
  59.4526558  51.5484488  69.7241525  59.4102737  51.7745334  68.7950057
  60.3689257  51.3147862  69.8727326  62.8992192  42.0168555  76.6222154
  63.2541580  42.2440028  77.4816620  63.5464323  42.3486932  75.9999409
  68.6289929  45.1386991  67.3271483  68.4907828  45.3288587  66.3992672
  68.2726148  45.9006374  67.7839534  56.7932055  39.1245086  73.4068495
  57.4331434  38.9833845  72.7091458  55.9609586  38.8379600  73.0307097
  68.6559309  47.2063518  72.3382755  69.0895815  47.1138807  73.1865809
  69.3690889  47.1821018  71.7002771  57.5692359  48.4247517  69.5203488
  58.3632958  47.9297837  69.3186063  56.8584051  47.8965380  69.1571193
  62.3887203  50.8065612  73.8715855  62.4424226  51.3756548  74.6393571
  61.5201985  50.9767497  73.5069892  53.8775122  42.5690598  65.5963240
  52.9472711  42.5075054  65.8133202  53.9732594  42.0466551  64.7999882
  53.7960672  39.0945411  68.1841482  54.0567489  40.0090744  68.0750642
  54.6177844  38.6269854  68.3338095  55.2685597  40.5083168  75.3540306
  55.9408650  40.3000530  74.7052955  54.4415383  40.3105254  74.9145539
  69.5174858  47.2487219  74.8715640  69.7110748  48.1533029  75.1174915
  69.4175476  46.7894638  75.7054225  61.1711169  37.1345109  77.3705967
  60.5239084  37.8335059  77.2770444  61.9412184  37.5681253  77.7382216
  64.5789967  47.3993961  80.4456521  64.4275473  47.1704513  79.5286604
  64.5694646  48.3564563  80.4587866  61.3475303  44.9725874  75.4302787
  62.2767363  45.1237034  75.2571754  60.9266333  45.0609895  74.5751434
  60.1463635  48.9976539  73.2001325  60.0074721  48.6295323  74.0727263
  59.3578231  49.5124178  73.0285282  60.7411787  54.0985635  64.5426861
  60.9163543  53.6273678  65.3572484  60.0544575  54.7251401  64.7708122
  61.6968850  48.3758141  70.5890162  61.3618683  48.3358911  71.4847812
  61.1972796  47.7102857  70.1160573  55.6713094  43.7825771  76.1142744
  55.5332892  43.0506010  76.7154283  56.5818018  43.6934671  75.8326931
  64.6328042  45.7214176  60.8627222  64.0157212  44.9961004  60.7660275
  64.1644530  46.4823536  60.5194296  58.2995395  43.4945731  75.6026423
  59.0095013  42.8538923  75.5613042  58.2564703  43.7458625  76.5252604
  66.2882173  50.4313084  78.5233002  66.2294720  49.7472304  77.8563586
  66.6901692  51.1732074  78.0713628  57.0124329  40.4810949  77.4222063
  56.4761686  40.0301687  78.0743659  56.4241037  40.6156857  76.6792527
  55.3072872  57.2474998  71.3166721  55.5469471  57.8793522  71.9945740
  54.4642069  56.8963038  71.6032081  56.4226588  39.9399600  59.9848526
  55.5456054  39.8188401  59.6210773  56.8984341  39.1485678  59.7327415
  66.2899581  48.3952668  76.7546982  65.4026360  48.0578590  76.8773381
  66.8598132  47.6635699  76.9915748  47.9428728  44.7276760  70.0790034
  48.6299768  44.4138490  69.4911049  47.7876857  45.6318124  69.8057285
  52.7463450  39.6166956  74.5075057  52.6621639  39.0092626  73.7725467
  51.9246156  40.1075975  74.5084554  59.8200734  53.0554120  73.7208225
  59.7470906  53.8609092  74.2327530  59.3778127  53.2546086  72.8956247
  59.6090514  52.2925890  67.2311047  58.8258036  52.8347570  67.3249271
  60.3083259  52.8099870  67.6305288  62.9187164  38.1020520  69.8745252
  63.4155863  37.3490482  69.5546323  62.1474145  38.1384836  69.3088462
  70.7716921  43.8060885  71.5163544  70.7606798  44.6885601  71.1457477
  69.9034301  43.4532436  71.3218081  62.2799418  52.9540954  75.8766384
  62.9927390  53.5888419  75.8042285  61.7889446  53.0504820  75.0606386
  64.0016945  46.8592207  67.4483676  63.0673223  46.9793669  67.2788380
  64.1793613  45.9564674  67.1843686  59.5022133  40.2437903  69.6016937
  59.1319920  39.6908943  70.2897842  59.9981225  39.6396036  69.0491937
  67.3889496  42.7009526  67.9833710  67.8549948  43.5337518  67.9094012
  67.8396996  42.2354508  68.6878968  57.3311331  50.7035398  76.6971955
  58.0320791  51.3371881  76.8501349  56.8606446  51.0450129  75.9367594
  65.4565727  49.0453348  64.9819862  65.7325571  48.9309942  65.8913736
  64.5870226  48.6470832  64.9432035  65.3606159  35.0690113  72.0224611
  64.4469238  35.2994340  72.1906818  65.7899260  35.1528557  72.8738644
  65.1312617  43.2580005  74.5224505  64.4784067  43.5055913  73.8676958
  65.5092997  42.4444143  74.1886982  62.0919791  53.2939698  68.6252675
  62.2742186  52.4761354  69.0880428  62.9152777  53.5107391  68.1877565
  62.4261957  52.2207884  65.8867724  62.9549723  51.7100338  65.2737886
  62.6890176  51.9050414  66.7513257  61.1800190  43.9999816  81.0090542
  60.5040827  43.8993946  81.6792918  62.0027824  43.8439030  81.4726540
  52.9279049  50.2371753  73.6303058  53.5132486  49.4915441  73.7630962
  52.7303888  50.5475710  74.5139721  55.7817704  53.2723000  68.6465500
  55.1128080  53.7569128  68.1629540  55.6430574  53.5192221  69.5608878
  47.5196704  42.8077353  72.3507501  47.5580804  42.2740944  73.1444619
  47.0136997  42.2812559  71.7318478  59.9222973  55.3066744  75.2448158
  60.4741281  55.4698365  76.0097244  60.2629167  55.8971182  74.5728183
  54.8987466  37.6541894  75.8470043  54.9628793  38.5156724  75.4347441
  54.8354587  37.0415895  75.1142401  54.3739739  39.7265026  79.4943077
  55.0011778  39.3442103  80.1080602  53.5167658  39.5079228  79.8598770
  64.7733847  50.1328001  81.0996813  65.3173751  50.7457959  80.6051768
  64.1920692  50.6907580  81.6163826  51.1505282  41.5341455  65.4261432
  51.4458723  40.6252134  65.3728486  50.2493317  41.5129195  65.1042434
  63.0591360  53.2548719  72.2311840  62.9342500  52.4538459  71.7222786
  63.7170451  53.7494913  71.7425810  54.6799529  39.6097452  71.4088981
  53.9586114  40.2233419  71.2696454  55.4692784  40.1455217  71.3305627
  65.1226269  51.0557739  73.8591391  64.1756604  50.9363091  73.7869717
  65.4709042  50.1680237  73.9417652  57.4825842  36.9451878  77.6829632
  58.0060244  37.1914175  78.4455942  57.2638175  37.7771913  77.2632770
  52.8793123  39.2155553  65.5500757  52.5505829  38.3352932  65.3675863
  53.2332494  39.1603222  66.4377146  62.1272702  50.8510456  70.0595743
  61.9797664  49.9227163  70.2403313  62.9526196  50.8730546  69.5752818
  55.9934946  39.5028523  65.9176235  56.3331019  40.0314444  65.1954843
  56.4407067  39.8408929  66.6934801  65.7306824  51.6739014  71.1460616
  66.6553371  51.4681876  71.0085067  65.5622127  51.4255415  72.0549957
  59.3394859  34.9714886  73.8206626  60.1620928  34.4975364  73.6985516
  59.5832922  35.7505370  74.3205312  57.9803093  38.0003144  64.1169528
  58.7011456  38.3784397  63.6133245  57.3568398  38.7192021  64.2204506
  62.1234216  38.7048293  65.0527860  62.3397831  39.5872931  64.7516688
  61.6428283  38.3134507  64.3233502  56.8633438  41.6634006  71.6298605
  56.7178018  41.9774309  72.5222886  56.3858641  42.2818907  71.0769503
  58.7229821  38.6536554  71.6779494  58.7091389  37.7577648  71.3411792
  59.4402249  38.6607218  72.3117780  60.5755951  39.0873895  73.7232622
  60.3173729  40.0090965  73.7216952  60.0440992  38.6904329  74.4133086
  65.5202140  52.1924682  66.5022707  65.6939018  51.6271104  65.7496559
  66.0131031  52.9925577  66.3202197  51.3379100  44.2039351  74.5686266
  50.7932568  44.9799159  74.7006540  52.2158450  44.5510155  74.4105387
  58.1266717  37.5350935  66.9467064  58.2482628  36.6067581  67.1457952
  57.8368759  37.5489621  66.0345380  60.9957907  35.2205845  70.0833784
  61.0179604  35.2845178  69.1285764  61.4125966  34.3810354  70.2774290
  71.3741531  44.9561105  68.1213007  71.8172677  44.2068430  67.7232130
  70.4968042  44.9471241  67.7386739  66.5077313  51.5091446  63.6019605
  67.2028217  52.1298139  63.8206920  66.8500463  50.6586797  63.8771983
  52.1245122  43.3309247  77.4616423  51.3826858  43.4791882  78.0481053
  51.8037866  43.5917513  76.5983172  68.4068736  48.9591152  65.1306936
  68.9320060  49.2978424  64.4056256  68.3191088  48.0238167  64.9470071
  60.0688784  52.8725225  77.2596813  60.3775911  52.6274372  78.1319512
  60.8664266  53.0771864  76.7715683  60.0909396  55.0263135  69.4902189
  59.6514387  54.5339514  70.1835046  60.8417513  54.4836103  69.2494264
  52.5701735  51.2174676  69.4926817  53.3959755  50.9178448  69.1125461
  52.2195787  50.4482298  69.9416606  57.5383269  50.5701144  71.5624491
  56.9163278  49.9071849  71.2626719  58.2088135  50.5962276  70.8798139
  50.7710340  49.1361002  70.4515751  49.9342249  48.7083177  70.2699752
  50.7433986  49.3293446  71.3886542  57.6107796  39.0482932  81.1556997
  57.6595952  39.9245055  80.7734766  58.1530310  38.5060325  80.5828640
  68.0962642  49.5924055  80.4358134  67.3058185  49.5748194  79.8962633
  67.8595996  50.1312349  81.1907171  68.2160517  46.4416522  77.7490863
  68.2658522  46.2766529  78.6906385  68.1074440  45.5743781  77.3588743
  57.0996775  49.1205067  65.0382951  57.2484896  49.8040532  64.3849624
  57.9063219  49.1010157  65.5532407  65.5064279  42.4247450  79.0650169
  66.4074142  42.2853915  78.7734167  65.5812254  42.5901905  80.0048347
  59.8407085  39.8014304  77.9103356  58.9710394  40.0947870  77.6385944
  60.0766565  40.3854749  78.6310619  69.7178714  48.8613463  77.9932884
  69.4263522  49.2243444  78.8296345  69.1050845  48.1480471  77.8146216
  70.9174396  46.4266343  70.5135454  71.7521287  46.8656147  70.6773015
  71.0533525  45.9504996  69.6943700  67.9665902  43.9846078  76.4612942
  68.4420023  44.1773724  75.6531793  67.0431467  44.0405264  76.2156326
  54.8549408  45.1470245  66.0444020  54.6095450  44.2432575  66.2424230
  55.0245323  45.1487395  65.1023498  62.5446118  36.0193921  75.4268776
  63.0628062  36.7554948  75.1015264  62.1901251  36.3257915  76.2615535
  54.1245056  40.8798603  63.5430182  53.4314301  40.9542958  62.8870218
  53.8796808  40.1158946  64.0651699  62.7958713  32.4394204  70.9469673
  63.0760466  31.7717393  71.5730099  63.5809319  32.6323300  70.4344336
  66.6667571  40.8611838  74.6941248  67.6184994  40.9609936  74.7153472
  66.4971021  40.0690106  75.2039332  64.6881950  37.9467421  74.8800649
  64.0931882  38.2272434  74.1847137  64.4031647  38.4361322  75.6517390
  63.8189441  51.8990348  63.6403281  64.7520114  51.8335910  63.8436157
  63.7312654  52.7346615  63.1817814  66.4477457  51.2156218  60.6007229
  66.3691089  50.8816082  61.4942987  67.2687124  51.7077986  60.5998701
  69.1455649  44.0817958  73.8083547  69.1131969  43.1433958  73.9943231
  69.7556272  44.1601994  73.0749372  60.9838980  42.9514011  59.8510751
  61.9298084  42.8220219  59.9199169  60.6053224  42.2128672  60.3280179
  69.2950137  40.8729001  73.8541830  68.7789186  40.0887458  73.6671759
  70.1790086  40.5447718  74.0188350  66.9560864  34.6170017  69.8137643
  66.7585685  34.3085105  70.6980975  67.5660570  35.3431655  69.9435573
  74.9632199  45.1433964  72.9489584  75.6935587  44.8819253  73.5097287
  74.3539144  44.4062686  72.9891652  73.0447496  43.2841827  73.5464035
  72.3180659  43.1497792  72.9380527  72.6294783  43.5918656  74.3520753
  60.8677672  47.0031757  81.3111408  61.7880682  47.1810356  81.5051455
  60.8327255  46.0587802  81.1591108  59.1681897  40.8763987  59.7865637
  58.2613352  40.5797100  59.8628350  59.4457878  40.5793805  58.9199923
  50.0859837  42.1970350  70.2364683  49.7662621  41.3435659  69.9439057
  49.5393265  42.4118928  70.9922650  53.8639745  44.9132791  73.9534189
  54.0825754  45.8449899  73.9722223  54.2765518  44.5540766  74.7388993
  60.7843962  35.4200877  65.9409878  59.9744691  35.0747962  66.3165124
  61.4728379  35.1108420  66.5297489  62.7134511  34.4978923  67.5634174
  63.2665549  34.9174377  68.2224198  62.9504597  33.5714672  67.6057130
  58.7367610  40.4865997  83.3436938  58.6364337  41.4360354  83.2749029
  58.5189152  40.1584236  82.4713008  57.9380681  37.7350922  59.9277616
  58.7999845  38.0605820  60.1873433  58.1231025  36.9482418  59.4150682
  49.9548097  45.8173262  72.2057805  49.2611568  45.4027215  71.6927759
  50.7021088  45.8593798  71.6091223  66.0913318  36.6079449  67.0712839
  65.5111987  37.2664253  66.6890891  65.8249250  35.7856793  66.6600256
  64.5416884  36.0084506  69.2734159  65.0416663  36.1201041  68.4648478
  65.1852492  35.7045559  69.9134968  58.5998880  43.9163136  82.1602000
  58.1165962  44.7163496  82.3665889  58.6859819  43.9271081  81.2069444
  51.8684840  45.7491516  70.0823819  51.8455528  45.8479203  69.1305703
  52.1785476  46.5956666  70.4040986  54.5272217  47.8067671  74.1970434
  55.4815471  47.7751613  74.1300365  54.3284741  47.3458294  75.0120660
  55.1171600  46.3768787  76.7641232  55.9364489  46.8712865  76.7876069
  55.3908407  45.4600755  76.7358799  64.8738196  38.7679539  66.1269187
  63.9864051  39.0529190  65.9089382  65.2892185  38.6073302  65.2796464
  68.2252732  38.7926060  69.8423526  69.0013122  39.2822512  70.1148143
  67.5000866  39.2184114  70.2995396  70.6625291  39.5053679  70.8997467
  71.2569781  39.2649415  70.1890775  70.7351874  38.7860810  71.5271003
  52.8822446  53.3487290  71.2140632  52.7476914  52.5887691  70.6478630
  52.4654509  54.0728190  70.7469421  64.0181409  48.5324214  60.2217207
  64.7217259  48.7374216  60.8374863  63.2944058  49.1000976  60.4866291
  64.8479220  44.2834075  66.3419477  64.7914421  44.7402626  65.5027110
  65.4007562  43.5224760  66.1642320  68.6584025  40.0723807  67.1669597
  68.4020960  39.6720442  67.9977804  68.0336893  40.7867601  67.0419736
  72.9696363  42.8119880  69.6740888  72.4095921  42.8813069  70.4472450
  72.3639867  42.6360865  68.9540384  56.0391572  54.2456607  71.4259074
  55.9223956  55.1902040  71.3237765  55.2184018  53.9430169  71.8144874
  65.9268107  48.9706743  62.2715667  66.7613711  48.5387941  62.0893142
  65.7652450  48.7988757  63.1992562  65.5813999  45.4738856  63.6372006
  65.5262803  45.3083128  62.6960450  64.9560054  46.1814889  63.7934196
  50.3706514  40.7106921  77.4633429  51.0165377  40.2005875  77.9520654
  50.1623665  41.4475602  78.0376854  62.8959906  47.7787768  82.9625569
  63.7651066  47.9528420  82.6012204  62.4166658  48.5982185  82.8401298
  58.8910124  34.9746965  63.2157325  58.8788794  35.9188805  63.3725596
  59.7833546  34.7917111  62.9216786  57.0646086  54.8984869  74.6415003
  57.9673333  54.9308479  74.9581498  56.8383456  53.9685320  74.6561339
  58.8199688  53.6515856  71.3025081  57.8695319  53.6517717  71.1889454
  59.1232174  52.9048590  70.7861116  62.7062244  31.5689742  67.4703262
  61.9394640  31.0148229  67.6159944  63.1172949  31.6411611  68.3317413
  54.7104005  37.8574538  81.5608443  55.5735466  37.5011342  81.7711767
  54.1369415  37.5188432  82.2483847  74.5552382  59.4876394  72.3670844
  75.1930792  59.3683141  71.6634184  74.4373225  60.4357238  72.4258796
  71.3642088  59.4403822  72.3032368  71.0260600  59.3244887  71.4152903
  72.2331856  59.0394987  72.2833375  67.2228904  61.2939299  68.2929259
  66.6593769  61.2029235  67.5245547  67.1081299  60.4739203  68.7731752
  64.7693336  62.7890490  71.1313480  65.5614628  62.4481315  70.7159779
  65.0089986  62.8985465  72.0515633  72.8028462  64.9610266  63.6043724
  72.1516442  65.5464347  63.2177738  73.5972825  65.4916461  63.6638762
  66.7284090  62.0499403  64.0030859  67.5014966  61.5028390  63.8643734
  67.0809488  62.9143653  64.2145320  69.4925339  60.7552634  73.7999118
  70.0888911  60.5308657  73.0856081  69.5500311  60.0137380  74.4024565
  69.0650367  58.2092069  61.6349309  69.3175888  57.6873591  60.8732772
  68.1274927  58.0458215  61.7375992  74.1093650  57.2127848  69.4424052
  74.8956739  56.7947271  69.0914469  74.3732355  58.1173940  69.6105700
  74.2803728  62.6500698  64.1412709  73.6449561  62.7235325  64.8533613
  73.9501134  63.2394297  63.4631788  79.5102077  57.1503081  70.3457030
  80.2427249  56.5802298  70.5794860  78.7541433  56.7624681  70.7863536
  68.7846656  60.1120175  63.8373684  68.6682914  59.4365079  64.5054768
  68.8948916  59.6252549  63.0205837  71.1278197  59.5730323  67.5420373
  70.7636404  59.0460944  68.2533294  71.9845313  59.1828792  67.3686858
  77.0327498  50.8624655  74.8051639  76.7010823  51.7320066  74.5812854
  76.4373111  50.5460939  75.4845669  70.7683684  54.6020222  62.5381721
  70.9358086  55.4700459  62.9052192  70.5780853  54.7647504  61.6143011
  73.5259017  63.0637201  74.2047552  73.2259740  63.9662240  74.0963359
  73.1810077  62.7969384  75.0568705  66.9771499  59.5150998  70.2384256
  66.0521995  59.3827212  70.4461948  67.2255912  60.2945217  70.7354199
  76.9256161  55.5819741  71.8844989  76.0173038  55.5135150  71.5903750
  76.8743757  56.0591686  72.7126814  70.7472905  57.0577880  63.5228388
  70.6272530  57.5034930  64.3613868  70.0525493  57.4063197  62.9641926
  64.3380310  59.1584272  71.0728045  64.4672691  59.4118750  71.9867457
  63.6577761  59.7511980  70.7532700  68.5079797  69.8281521  67.1718519
  68.4303827  70.7789347  67.2507000  67.9041441  69.4827394  67.8293446
  78.7917807  53.7836180  73.6622863  78.1492188  54.0768713  73.0162658
  78.2872736  53.6689100  74.4676060  76.4457971  57.5299353  64.3508722
  77.3575827  57.7626740  64.1756420  75.9367618  58.1136397  63.7883801
  71.0829809  56.8896588  75.3603572  71.9291004  57.3136001  75.5038221
  71.0228446  56.2330212  76.0542135  75.0527553  62.5125171  71.7422304
  74.4236416  62.6770885  71.0398372  74.6653215  62.9266781  72.5133268
  78.9316785  63.4479609  69.0966667  78.2467823  63.8278511  68.5463701
  79.0160635  64.0574936  69.8298615  74.2329254  54.5500956  77.0184745
  73.9890186  55.3043016  76.4819021  74.5089185  54.9286303  77.8531992
  73.7893946  53.7057389  72.5998583  72.9278425  54.0038642  72.8915321
  73.8156381  53.9227788  71.6679616  70.6055515  62.2499579  69.0072389
  71.0693861  62.5287282  68.2177011  70.3412313  61.3483024  68.8245479
  67.4979596  61.7971061  71.9452152  68.0680953  62.2258329  71.3069637
  68.0887708  61.5153646  72.6436338  69.5424401  58.3722732  65.8161954
  70.2448445  58.8243775  66.2835880  69.2105030  57.7306551  66.4441847
  67.9904763  56.9634488  80.1913163  67.3603423  57.6450769  80.4248560
  67.8840851  56.8517570  79.2466302  63.2849735  56.6306284  71.1179087
  62.4948789  56.8863813  70.6419198  63.7760983  57.4454622  71.2231128
  65.2364481  56.9950864  68.0762564  64.4395644  57.1069558  68.5946060
  65.0090073  57.3337516  67.2103455  61.5687438  56.8836775  73.5494078
  61.8195477  57.7683785  73.8151654  62.1046987  56.7041376  72.7769170
  85.3919538  60.3150272  70.2169340  84.6383246  59.7457670  70.0613344
  85.5267079  60.2812937  71.1639974  70.7818166  65.1863674  65.8924059
  70.6463841  66.0315210  66.3208907  71.3227978  65.3882952  65.1289993
  67.2685506  51.2655254  82.5538414  66.8752451  50.7121453  83.2286059
  68.0851646  51.5765833  82.9444932  64.2347563  62.7039112  66.4651984
  64.7472084  63.4982363  66.6157549  64.8870276  62.0065403  66.3985586
  66.0442448  65.8204869  68.5474737  66.2209076  66.7422833  68.3595721
  66.8399282  65.5063288  68.9769117  70.1853467  52.6813133  80.1458671
  70.9263180  53.2820287  80.0663133  70.4171389  51.9390771  79.5876713
  65.3294805  57.8669501  78.4236901  65.2148320  56.9654758  78.7243999
  64.4739322  58.1133197  78.0721717  67.1673764  67.3383043  74.5485080
  67.7181189  67.2100106  73.7762074  66.3285239  67.6377932  74.1979972
  74.1310630  48.7094236  74.4222953  73.7874899  49.5995878  74.3462063
  74.4989592  48.5195894  73.5592538  62.1996480  61.0327767  67.2411555
  63.0371702  61.4424775  67.0245262  62.3774748  60.0927209  67.2111749
  74.0960912  58.7002847  62.9295388  73.5807536  59.4707452  63.1683775
  73.8238221  58.0267984  63.5528449  71.6808023  53.5452548  67.9880626
  70.8249620  53.1559399  67.8086265  72.0934975  53.6244509  67.1280412
  73.2107170  51.0798891  72.3872186  72.7071966  51.0429027  71.5739991
  73.5037777  51.9891634  72.4468842  69.4550056  51.1637621  71.3938368
  70.3203053  50.9680430  71.0344257  69.5227565  50.9347973  72.3207724
  79.0695186  61.4535202  64.8648561  78.2924629  61.1146362  64.4203723
  79.7486667  61.4587825  64.1903526  73.8847215  56.5729940  64.7555169
  73.5797351  56.8876089  65.6065312  74.8377658  56.6511359  64.7982502
  72.3293647  62.7320163  66.4048123  71.8015009  61.9972922  66.0921360
  71.8281150  63.5094839  66.1588091  77.3086493  60.9269183  71.5215169
  76.6510168  61.6168445  71.6095298  78.1126893  61.3165615  71.8649155
  67.0612375  53.3939829  68.7654734  67.6356127  53.1715011  68.0327927
  67.6483357  53.4628524  69.5183336  76.1191952  59.2813556  69.5719111
  76.6323834  59.9143548  70.0740821  76.7693176  58.6814752  69.2062471
  67.3881962  55.4244290  62.7850620  66.5519274  55.7618977  63.1059894
  67.2486732  55.2893270  61.8477757  69.3635043  50.2681078  67.4929804
  68.7099455  49.9530095  66.8686419  69.3215517  49.6456818  68.2189627
  70.4746247  60.5500373  59.4083096  69.5673309  60.3189627  59.6074245
  70.9717279  59.7537992  59.5957077  73.3814326  69.2597880  62.3279782
  72.7076025  69.5629577  62.9364740  73.7680148  70.0626961  61.9785239
  72.5972783  56.7563012  71.8177451  71.6795344  56.9777959  71.6599139
  73.0132927  56.8309322  70.9589159  73.3807831  58.1554427  66.9480132
  74.1279650  58.6675824  66.6387254  73.6499420  57.8338480  67.8084525
  71.6534481  60.6512968  63.9307086  70.7445700  60.3672001  64.0279556
  71.6829565  61.0712047  63.0710393  76.8853748  64.2619557  67.6998254
  76.4316075  63.4210467  67.7563444  76.2547715  64.8980956  68.0373034
  75.8286668  55.1911544  68.9298921  75.0909425  54.6788930  69.2609164
  76.0813441  54.7511925  68.1182198  75.3286688  66.0996054  68.6348072
  75.6209662  66.6601111  67.9160437  75.8385308  66.3924615  69.3901231
  75.9298295  47.9687796  69.5240690  76.2357172  47.1085159  69.2366605
  76.6550900  48.5605416  69.3239684  62.2222651  58.3718482  67.9122288
  62.0247051  57.7787843  67.1873355  61.6669315  58.0670692  68.6298227
  70.2019375  58.2641589  70.0316881  70.2567985  57.3115425  69.9559358
  69.3910577  58.4201028  70.5158180  71.3510569  62.1921712  61.2695165
  70.9129999  61.4757571  60.8100802  72.0921010  62.4197826  60.7080256
  68.1411735  56.8818648  67.7907260  67.3279600  57.1812819  68.1972452
  68.6370729  56.4874337  68.5081742  70.2920313  66.8776405  69.7241525
  70.2496492  67.1037252  68.7950057  71.2083012  66.6439780  69.8727326
  73.7385947  57.3460473  76.6222154  74.0935334  57.5731946  77.4816620
  74.3858078  57.6778850  75.9999409  79.4683683  60.4678909  67.3271483
  79.3301582  60.6580505  66.3992672  79.1119902  61.2298291  67.7839534
  67.6325810  54.4537004  73.4068495  68.2725189  54.3125763  72.7091458
  66.8003340  54.1671517  73.0307097  79.4953063  62.5355436  72.3382755
  79.9289570  62.4430725  73.1865809  80.2084644  62.5112936  71.7002771
  68.4086114  63.7539434  69.5203488  69.2026712  63.2589754  69.3186063
  67.6977806  63.2257297  69.1571193  64.7168877  57.8982516  65.5963240
  63.7866465  57.8366971  65.8133202  64.8126349  57.3758469  64.7999882
  64.6354426  54.4237329  68.1841482  64.8961243  55.3382662  68.0750642
  65.4571598  53.9561771  68.3338095  66.1079351  55.8375086  75.3540306
  66.7802405  55.6292448  74.7052955  65.2809138  55.6397172  74.9145539
  72.0104923  52.4637027  77.3705967  71.3632838  53.1626977  77.2770444
  72.7805939  52.8973171  77.7382216  72.1869058  60.3017792  75.4302787
  73.1161118  60.4528951  75.2571754  71.7660088  60.3901813  74.5751434
  70.9857390  64.3268456  73.2001325  70.8468475  63.9587241  74.0727263
  70.1971986  64.8416096  73.0285282  71.5805541  69.4277553  64.5426861
  71.7557297  68.9565596  65.3572484  70.8938330  70.0543319  64.7708122
  72.5362605  63.7050059  70.5890162  72.2012437  63.6650829  71.4847812
  72.0366550  63.0394775  70.1160573  66.5106849  59.1117689  76.1142744
  66.3726647  58.3797928  76.7154283  67.4211772  59.0226589  75.8326931
  75.4721796  61.0506093  60.8627222  74.8550967  60.3252921  60.7660275
  75.0038285  61.8115454  60.5194296  69.1389149  58.8237648  75.6026423
  69.8488768  58.1830840  75.5613042  69.0958457  59.0750543  76.5252604
  67.8518083  55.8102866  77.4222063  67.3155440  55.3593605  78.0743659
  67.2634792  55.9448775  76.6792527  66.1466627  72.5766915  71.3166721
  66.3863225  73.2085440  71.9945740  65.3035823  72.2254956  71.6032081
  67.2620342  55.2691518  59.9848526  66.3849809  55.1480318  59.6210773
  67.7378095  54.4777596  59.7327415  58.7822482  60.0568677  70.0790034
  59.4693522  59.7430407  69.4911049  58.6270611  60.9610042  69.8057285
  63.5857204  54.9458874  74.5075057  63.5015393  54.3384543  73.7725467
  62.7639911  55.4367892  74.5084554  70.4484268  67.6217808  67.2311047
  69.6651790  68.1639488  67.3249271  71.1477013  68.1391788  67.6305288
  73.7580918  53.4312437  69.8745252  74.2549618  52.6782400  69.5546323
  72.9867900  53.4676754  69.3088462  81.6110676  59.1352803  71.5163544
  81.6000552  60.0177518  71.1457477  80.7428055  58.7824354  71.3218081
  74.8410699  62.1884125  67.4483676  73.9066978  62.3085587  67.2788380
  75.0187368  61.2856591  67.1843686  70.3415887  55.5729820  69.6016937
  69.9713675  55.0200861  70.2897842  70.8374980  54.9687954  69.0491937
  78.2283250  58.0301444  67.9833710  78.6943703  58.8629436  67.9094012
  78.6790751  57.5646425  68.6878968  76.2959482  64.3745265  64.9819862
  76.5719325  64.2601860  65.8913736  75.4263980  63.9762750  64.9432035
  76.1999913  50.3982031  72.0224611  75.2862993  50.6286258  72.1906818
  76.6293015  50.4820475  72.8738644  75.9706372  58.5871923  74.5224505
  75.3177822  58.8347830  73.8676958  76.3486752  57.7736061  74.1886982
  72.9313546  68.6231616  68.6252675  73.1135940  67.8053272  69.0880428
  73.7546532  68.8399308  68.1877565  73.2655711  67.5499801  65.8867724
  73.7943477  67.0392256  65.2737886  73.5283931  67.2342331  66.7513257
  63.7672804  65.5663670  73.6303058  64.3526241  64.8207358  73.7630962
  63.5697642  65.8767627  74.5139721  66.6211459  68.6014918  68.6465500
  65.9521834  69.0861045  68.1629540  66.4824329  68.8484138  69.5608878
  58.3590458  58.1369271  72.3507501  58.3974558  57.6032861  73.1444619
  57.8530751  57.6104476  71.7318478  65.7381221  52.9833811  75.8470043
  65.8022547  53.8448642  75.4347441  65.6748341  52.3707813  75.1142401
  65.2133493  55.0556944  79.4943077  65.8405532  54.6734021  80.1080602
  64.3561412  54.8371146  79.8598770  61.9899036  56.8633373  65.4261432
  62.2852477  55.9544051  65.3728486  61.0887072  56.8421112  65.1042434
  73.8985115  68.5840637  72.2311840  73.7736254  67.7830377  71.7222786
  74.5564206  69.0786830  71.7425810  65.5193283  54.9389369  71.4088981
  64.7979869  55.5525337  71.2696454  66.3086539  55.4747134  71.3305627
  68.3219597  52.2743796  77.6829632  68.8453998  52.5206092  78.4455942
  68.1031930  53.1063831  77.2632770  63.7186878  54.5447470  65.5500757
  63.3899584  53.6644849  65.3675863  64.0726248  54.4895139  66.4377146
  72.9666457  66.1802373  70.0595743  72.8191419  65.2519081  70.2403313
  73.7919950  66.2022464  69.5752818  66.8328701  54.8320440  65.9176235
  67.1724773  55.3606362  65.1954843  67.2800821  55.1700846  66.6934801
  76.5700578  67.0030932  71.1460616  77.4947126  66.7973793  71.0085067
  76.4015882  66.7547333  72.0549957  69.5272142  53.2157491  75.3679303
  69.1868962  52.4165304  75.7699983  68.8211148  53.5159202  74.7956136
  70.1788613  50.3006803  73.8206626  71.0014683  49.8267282  73.6985516
  70.4226677  51.0797287  74.3205312  68.8196848  53.3295062  64.1169528
  69.5405210  53.7076315  63.6133245  68.1962152  54.0483939  64.2204506
  72.9627971  54.0340211  65.0527860  73.1791585  54.9164849  64.7516688
  72.4822038  53.6426424  64.3233502  67.7027192  56.9925924  71.6298605
  67.5571773  57.3066227  72.5222886  67.2252396  57.6110824  71.0769503
  69.5623575  53.9828472  71.6779494  69.5485144  53.0869565  71.3411792
  70.2796003  53.9899136  72.3117780  71.4149706  54.4165812  73.7232622
  71.1567484  55.3382883  73.7216952  70.8834746  54.0196247  74.4133086
  76.3595895  67.5216599  66.5022707  76.5332772  66.9563022  65.7496559
  76.8524786  68.3217494  66.3202197  68.9660471  52.8642852  66.9467064
  69.0876382  51.9359499  67.1457952  68.6762513  52.8781538  66.0345380
  71.8351661  50.5497763  70.0833784  71.8573358  50.6137096  69.1285764
  72.2519720  49.7102271  70.2774290  82.2135286  60.2853022  68.1213007
  82.6566432  59.5360348  67.7232130  81.3361796  60.2763159  67.7386739
  77.3471067  66.8383364  63.6019605  78.0421972  67.4590056  63.8206920
  77.6894217  65.9878715  63.8771983  62.9638876  58.6601165  77.4616423
  62.2220612  58.8083800  78.0481053  62.6431621  58.9209430  76.5983172
  79.2462490  64.2883069  65.1306936  79.7713814  64.6270342  64.4056256
  79.1584843  63.3530085  64.9470071  70.9303151  70.3555053  69.4902189
  70.4908141  69.8631431  70.1835046  71.6811268  69.8128020  69.2494264
  63.4095490  66.5466593  69.4926817  64.2353510  66.2470365  69.1125461
  63.0589542  65.7774216  69.9416606  68.3777023  65.8993062  71.5624491
  67.7557032  65.2363767  71.2626719  69.0481890  65.9254194  70.8798139
  61.6104095  64.4652920  70.4515751  60.7736003  64.0375094  70.2699752
  61.5827740  64.6585363  71.3886542  68.4501551  54.3774850  81.1556997
  68.4989706  55.2536973  80.7734766  68.9924065  53.8352243  80.5828640
  67.9390530  64.4496985  65.0382951  68.0878650  65.1332449  64.3849624
  68.7456973  64.4302075  65.5532407  70.6800839  55.1306222  77.9103356
  69.8104148  55.4239788  77.6385944  70.9160319  55.7146667  78.6310619
  81.7568150  61.7558261  70.5135454  82.5915042  62.1948065  70.6773015
  81.8927279  61.2796914  69.6943700  65.6943163  60.4762163  66.0444020
  65.4489205  59.5724493  66.2424230  65.8639078  60.4779313  65.1023498
  73.3839873  51.3485839  75.4268776  73.9021817  52.0846866  75.1015264
  73.0295006  51.6549832  76.2615535  64.9638810  56.2090520  63.5430182
  64.2708055  56.2834875  62.8870218  64.7190562  55.4450864  64.0651699
  73.6352467  47.7686122  70.9469673  73.9154221  47.1009311  71.5730099
  74.4203074  47.9615217  70.4344336  71.4385936  66.9445115  62.5094699
  70.8659903  67.5635303  62.0565171  72.0118729  67.4944477  63.0434621
  77.5061325  56.1903756  74.6941248  78.4578748  56.2901853  74.7153472
  77.3364776  55.3982024  75.2039332  75.5275705  53.2759339  74.8800649
  74.9325637  53.5564351  74.1847137  75.2425402  53.7653240  75.6517390
  74.6583195  67.2282266  63.6403281  75.5913868  67.1627827  63.8436157
  74.5706408  68.0638532  63.1817814  77.2871212  66.5448136  60.6007229
  77.2084843  66.2108000  61.4942987  78.1080879  67.0369904  60.5998701
  79.9849403  59.4109875  73.8083547  79.9525723  58.4725876  73.9943231
  80.5950027  59.4893912  73.0749372  71.8232734  58.2805928  59.8510751
  72.7691839  58.1512136  59.9199169  71.4446979  57.5420590  60.3280179
  80.1343892  56.2020919  73.8541830  79.6182940  55.4179375  73.6671759
  81.0183840  55.8739635  74.0188350  77.7954619  49.9461934  69.8137643
  77.5979440  49.6377022  70.6980975  78.4054324  50.6723573  69.9435573
  70.0075651  56.2055905  59.7865637  69.1007107  55.9089017  59.8628350
  70.2851632  55.9085723  58.9199923  60.9253592  57.5262268  70.2364683
  60.6056376  56.6727576  69.9439057  60.3787020  57.7410846  70.9922650
  64.7033499  60.2424709  73.9534189  64.9219509  61.1741817  73.9722223
  65.1159273  59.8832683  74.7388993  71.6237717  50.7492794  65.9409878
  70.8138445  50.4039879  66.3165124  72.3122134  50.4400338  66.5297489
  73.5528265  49.8270841  67.5634174  74.1059304  50.2466295  68.2224198
  73.7898352  48.9006589  67.6057130  68.7774436  53.0642840  59.9277616
  69.6393600  53.3897738  60.1873433  68.9624780  52.2774336  59.4150682
  60.7941852  61.1465180  72.2057805  60.1005323  60.7319132  71.6927759
  61.5414843  61.1885716  71.6091223  76.9307072  51.9371366  67.0712839
  76.3505741  52.5956170  66.6890891  76.6643005  51.1148711  66.6600256
  75.3810639  51.3376424  69.2734159  75.8810417  51.4492959  68.4648478
  76.0246247  51.0337477  69.9134968  62.7078594  61.0783433  70.0823819
  62.6849282  61.1771121  69.1305703  63.0179231  61.9248584  70.4040986
  65.3665972  63.1359588  74.1970434  66.3209225  63.1043531  74.1300365
  65.1678496  62.6750212  75.0120660  65.9565354  61.7060704  76.7641232
  66.7758243  62.2004783  76.7876069  66.2302162  60.7892673  76.7358799
  75.7131950  54.0971457  66.1269187  74.8257805  54.3821107  65.9089382
  76.1285939  53.9365220  65.2796464  79.0646486  54.1217978  69.8423526
  79.8406877  54.6114430  70.1148143  78.3394621  54.5476032  70.2995396
  81.5019045  54.8345597  70.8997467  82.0963536  54.5941333  70.1890775
  81.5745629  54.1152727  71.5271003  63.7216201  68.6779208  71.2140632
  63.5870669  67.9179609  70.6478630  63.3048263  69.4020108  70.7469421
  74.8575164  63.8616131  60.2217207  75.5611014  64.0666134  60.8374863
  74.1337813  64.4292893  60.4866291  75.6872974  59.6125993  66.3419477
  75.6308175  60.0694544  65.5027110  76.2401316  58.8516677  66.1642320
  79.4977780  55.4015724  67.1669597  79.2414714  55.0012360  67.9977804
  78.8730648  56.1159518  67.0419736  83.8090118  58.1411798  69.6740888
  83.2489676  58.2104987  70.4472450  83.2033621  57.9652782  68.9540384
  66.8785327  69.5748525  71.4259074  66.7617711  70.5193957  71.3237765
  66.0577773  69.2722086  71.8144874  76.7661861  64.2998661  62.2715667
  77.6007465  63.8679859  62.0893142  76.6046204  64.1280674  63.1992562
  76.4207753  60.8030774  63.6372006  76.3656557  60.6375045  62.6960450
  75.7953809  61.5106807  63.7934196  61.2100268  56.0398838  77.4633429
  61.8559132  55.5297792  77.9520654  61.0017419  56.7767520  78.0376854
  69.7303879  50.3038883  63.2157325  69.7182549  51.2480723  63.3725596
  70.6227301  50.1209028  62.9216786  69.6593443  68.9807773  71.3025081
  68.7089074  68.9809635  71.1889454  69.9625929  68.2340508  70.7861116
  73.5455998  46.8981659  67.4703262  72.7788394  46.3440146  67.6159944
  73.9566703  46.9703528  68.3317413  65.5497759  53.1866455  81.5608443
  66.4129221  52.8303260  81.7711767  64.9763170  52.8480350  82.2483847
  77.5677844  77.3791321  64.0030859  78.3408720  76.8320308  63.8643734
  77.9203243  78.2435570  64.2145320  79.9044122  73.5383987  61.6349309
  80.1569643  73.0165508  60.8732772  78.9668681  73.3750133  61.7375992
  79.6240411  75.4412093  63.8373684  79.5076669  74.7656996  64.5054768
  79.7342671  74.9544467  63.0205837  81.6077439  69.9312140  62.5381721
  81.7751841  70.7992376  62.9052192  81.4174608  70.0939422  61.6143011
  81.5866659  72.3869797  63.5228388  81.4666285  72.8326848  64.3613868
  80.8919248  72.7355115  62.9641926  76.0758235  72.3242781  68.0762564
  75.2789398  72.4361476  68.5946060  75.8483827  72.6629434  67.2103455
  73.0390235  76.3619684  67.2411555  73.8765457  76.7716693  67.0245262
  73.2168502  75.4219127  67.2111749  84.9354667  74.0294765  62.9295388
  84.4201290  74.7999370  63.1683775  84.6631975  73.3559901  63.5528449
  82.5201778  68.8744466  67.9880626  81.6643374  68.4851316  67.8086265
  82.9328730  68.9536427  67.1280412  84.7240970  71.9021857  64.7555169
  84.4191105  72.2168006  65.6065312  85.6771412  71.9803277  64.7982502
  77.9006129  68.7231747  68.7654734  78.4749881  68.5006928  68.0327927
  78.4877112  68.7920441  69.5183336  78.2275716  70.7536208  62.7850620
  77.3913029  71.0910894  63.1059894  78.0880486  70.6185188  61.8477757
  80.2028797  65.5972996  67.4929804  79.5493209  65.2822013  66.8686419
  80.1609271  64.9748736  68.2189627  81.3140002  75.8792291  59.4083096
  80.4067064  75.6481544  59.6074245  81.8111034  75.0829910  59.5957077
  82.4928235  75.9804886  63.9307086  81.5839455  75.6963918  64.0279556
  82.5223319  76.4003964  63.0710393  86.7692050  63.2979713  69.5240690
  87.0750926  62.4377077  69.2366605  87.4944654  63.8897333  69.3239684
  73.0616406  73.7010400  67.9122288  72.8640806  73.1079760  67.1873355
  72.5063070  73.3962610  68.6298227  82.1904323  77.5213629  61.2695165
  81.7523753  76.8049488  60.8100802  82.9314764  77.7489744  60.7080256
  75.5562631  73.2274434  65.5963240  74.6260220  73.1658889  65.8133202
  75.6520103  72.7050386  64.7999882  75.4748181  69.7529247  68.1841482
  75.7354998  70.6674580  68.0750642  76.2965353  69.2853689  68.3338095
  86.3115551  76.3798011  60.8627222  85.6944721  75.6544839  60.7660275
  85.8432039  77.1407371  60.5194296  78.1014097  70.5983435  59.9848526
  77.2243563  70.4772236  59.6210773  78.5771850  69.8069514  59.7327415
  72.8292791  72.1925291  65.4261432  73.1246232  71.2835969  65.3728486
  71.9280826  72.1713030  65.1042434  74.5580632  69.8739388  65.5500757
  74.2293338  68.9936767  65.3675863  74.9120003  69.8187057  66.4377146
  77.6722455  70.1612358  65.9176235  78.0118528  70.6898279  65.1954843
  78.1194576  70.4992764  66.6934801  79.6590602  68.6586980  64.1169528
  80.3798965  69.0368232  63.6133245  79.0355907  69.3775856  64.2204506
  83.8021725  69.3632129  65.0527860  84.0185340  70.2456766  64.7516688
  83.3215792  68.9718342  64.3233502  79.8054226  68.1934770  66.9467064
  79.9270137  67.2651416  67.1457952  79.5156268  68.2073456  66.0345380
  82.6745416  65.8789680  70.0833784  82.6967113  65.9429014  69.1285764
  83.0913475  65.0394189  70.2774290  76.5336917  75.8054080  66.0444020
  76.2882959  74.9016410  66.2424230  76.7032832  75.8071231  65.1023498
  75.8032565  71.5382438  63.5430182  75.1101810  71.6126793  62.8870218
  75.5584317  70.7742782  64.0651699  82.6626488  73.6097846  59.8510751
  83.6085593  73.4804054  59.9199169  82.2840733  72.8712508  60.3280179
  80.8469406  71.5347822  59.7865637  79.9400861  71.2380935  59.8628350
  81.1245387  71.2377640  58.9199923  82.4631471  66.0784712  65.9409878
  81.6532200  65.7331797  66.3165124  83.1515888  65.7692256  66.5297489
  84.3922020  65.1562759  67.5634174  84.9453058  65.5758212  68.2224198
  84.6292106  64.2298507  67.6057130  79.6168190  68.3934758  59.9277616
  80.4787354  68.7189656  60.1873433  79.8018534  67.6066253  59.4150682
  87.7700827  67.2663284  67.0712839  87.1899496  67.9248088  66.6890891
  87.5036759  66.4440629  66.6600256  86.5525705  69.4263374  66.1269187
  85.6651560  69.7113025  65.9089382  86.9679694  69.2657138  65.2796464
  80.5697633  65.6330801  63.2157325  80.5576303  66.5772640  63.3725596
  81.4621055  65.4500946  62.9216786  84.3849753  62.2273577  67.4703262
  83.6182149  61.6732064  67.6159944  84.7960458  62.2995446  68.3317413
  35.9898535   0.8467891  53.8963826  35.9122565   1.7975716  53.9752307
  35.3860178   0.5013764  54.5538752  38.2636904  -3.7949956  52.6169366
  38.1282579  -2.9498420  53.0454214  38.8046716  -3.5930678  51.8535300
  33.5261186  -3.1608762  55.2720044  33.7027814  -2.2390797  55.0841028
  34.3218019  -3.4750342  55.7014424  39.8905380  -3.1726389  66.7469708
  39.4469234  -3.9590011  66.4290612  40.5522594  -2.9847239  66.0813599
  34.6492501  -1.6430588  61.2730386  35.1999926  -1.7713525  60.5007380
  33.8103977  -1.3435699  60.9225279  40.8633064   0.2784250  49.0525089
  40.1894763   0.5815947  49.6610046  41.2498886   1.0813330  48.7030546
  42.8105425  -2.8817576  55.3593378  43.1028400  -2.3212519  54.6405744
  43.3204046  -2.5889015  56.1146537  37.7739051  -2.1037225  56.4486832
  37.7315229  -1.8776379  55.5195364  38.6901749  -2.3373851  56.5972633
  40.7099696  -2.8456101  60.5961162  40.7636718  -2.2765164  61.3638878
  39.8414477  -2.6754216  60.2315199  39.0624279   0.4463922  51.2672168
  39.2376035  -0.0248035  52.0817791  38.3757067   1.0729688  51.4953429
  33.6285365   3.5953285  58.0412028  33.8681963   4.2271809  58.7191047
  32.7854561   3.2441325  58.3277387  38.1413226  -0.5967593  60.4453532
  38.0683398   0.2087379  60.9572837  37.6990620  -0.3975627  59.6201553
  37.9303006  -1.3595822  53.9556354  37.1470528  -0.8174142  54.0494578
  38.6295751  -0.8421843  54.3550595  40.6011910  -0.6980758  62.6011691
  41.3139882  -0.0633294  62.5287592  40.1101939  -0.6016892  61.7851692
  35.6523823  -2.9486315  63.4217261  36.3533283  -2.3149832  63.5746656
  35.1818938  -2.6071583  62.6612901  40.4132283  -0.3582014  55.3497982
  40.5954678  -1.1760358  55.8125734  41.2365269  -0.1414322  54.9122872
  40.7474449  -1.4313829  52.6113031  41.2762215  -1.9421375  51.9983193
  41.0102668  -1.7471299  53.4758564  31.2491542  -3.4149960  60.3548364
  31.8344978  -4.1606272  60.4876268  31.0516380  -3.1046003  61.2385028
  34.1030197  -0.3798713  55.3710807  33.4340572   0.1047415  54.8874847
  33.9643066  -0.1329492  56.2854185  38.2435465   1.6545031  61.9693465
  38.7953773   1.8176652  62.7342550  38.5841659   2.2449469  61.2973490
  41.3803853  -0.3972994  58.9557147  41.2554992  -1.1983254  58.4468093
  42.0382944   0.0973200  58.4671117  40.4485194  -2.8011257  56.7841049
  40.3010157  -3.7294550  56.9648619  41.2738688  -2.7791167  56.2998125
  44.0519316  -1.9782699  57.8705922  44.9765864  -2.1839837  57.7330373
  43.8834620  -2.2266297  58.7795264  43.8414632  -1.4597031  53.2268014
  44.0151510  -2.0250609  52.4741866  44.3343524  -0.6596136  53.0447504
  38.3901277  -0.7796487  63.9842119  38.6988403  -1.0247341  64.8564819
  39.1876759  -0.5749849  63.4960990  38.4121889   1.3741422  56.2147496
  37.9726879   0.8817801  56.9080353  39.1630006   0.8314390  55.9739571
  30.8914228  -2.4347037  56.2172124  31.7172248  -2.7343265  55.8370767
  30.5408280  -3.2039415  56.6661913  35.8595761  -3.0820569  58.2869798
  35.2375770  -3.7449864  57.9872025  36.5300628  -3.0559437  57.6043445
  29.0922833  -4.5160711  57.1761058  28.2554741  -4.9438536  56.9945059
  29.0646478  -4.3228267  58.1131849  35.4209268  -4.5316645  51.7628258
  35.5697388  -3.8481181  51.1094931  36.2275711  -4.5511555  52.2777714
  38.9204673  -2.0368515  49.2340005  38.3478640  -1.4178328  48.7810477
  39.4937467  -1.4869153  49.7679927  42.1401933  -1.7531365  50.3648588
  43.0732606  -1.8185803  50.5681463  42.0525146  -0.9175098  49.9063120
  32.8484710  -5.8454042  60.9215740  33.8027963  -5.8770100  60.8545672
  32.6497233  -6.3063418  61.7365966  31.2034939  -0.3034423  57.9385938
  31.0689406  -1.0634022  57.3723936  30.7867001   0.4206477  57.4714727
  34.3604064   0.5934894  58.1504381  34.2436449   1.5380327  58.0483071
  33.5396511   0.2908456  58.5390180  35.3858579   1.2463156  61.3660309
  36.2885825   1.2786767  61.6826804  35.1595949   0.3163607  61.3806645
  37.1412181  -0.0005857  58.0270388  36.1907812  -0.0003996  57.9134760
  37.4444667  -0.7473123  57.5106423  52.8764874   5.8354681  59.0916150
  53.5143284   5.7161429  58.3879491  52.7585717   6.7835525  59.1504103
  49.6854580   5.7882109  59.0277675  49.3473092   5.6723174  58.1398210
  50.5544349   5.3873274  59.0078681  45.5441396   7.6417586  55.0174566
  44.9806261   7.5507523  54.2490854  45.4293791   6.8217490  55.4977059
  50.1674363   6.9416961  64.9863881  50.1563004   6.5469759  64.1144384
  50.3295003   6.2083034  65.5797652  43.0905828   9.1368777  57.8558787
  43.8827120   8.7959602  57.4405086  43.3302478   9.2463752  58.7760940
  51.1240955  11.3088553  50.3289031  50.4728934  11.8942634  49.9423045
  51.9185318  11.8394748  50.3884068  45.0496582   8.3977691  50.7276165
  45.8227458   7.8506678  50.5889041  45.4021981   9.2621940  50.9390627
  46.8881624   9.7254073  63.9343065  46.5971490  10.6299704  63.8189731
  47.5238609   9.7670600  64.6487134  47.8137831   7.1030921  60.5244424
  48.4101404   6.8786944  59.8101387  47.8712803   6.3615667  61.1269872
  47.3862860   4.5570357  48.3594615  47.6388380   4.0351878  47.5978078
  46.4487419   4.3936502  48.4621299  52.4306143   3.5606135  56.1669358
  53.2169232   3.1425558  55.8159775  52.6944847   4.4652227  56.3351007
  52.6016220   8.9978985  50.8658015  51.9662053   9.0713612  51.5778920
  52.2713626   9.5872584  50.1877095  57.8314570   3.4981368  57.0702337
  58.5639742   2.9280585  57.3040166  57.0753925   3.1102969  57.5108843
  47.1059148   6.4598463  50.5618990  46.9895407   5.7843366  51.2300075
  47.2161408   5.9730837  49.7451143  49.4490689   5.9208610  54.2665679
  49.0848897   5.3939231  54.9778601  50.3057805   5.5307079  54.0932165
  49.0896176   0.9498509  49.2627028  49.2570579   1.8178746  49.6297499
  48.8993345   1.1125791  48.3388317  51.8471510   9.4115488  60.9292858
  51.5472233  10.3140527  60.8208666  51.5022569   9.1447672  61.7814011
  45.2983991   5.8629285  56.9629563  44.3734487   5.7305499  57.1707255
  45.5468404   6.6423504  57.4599505  55.2468653   1.9298029  58.6090296
  54.3385531   1.8613437  58.3149057  55.1956249   2.4069973  59.4372121
  49.0685397   3.4056167  50.2473695  48.9485022   3.8513218  51.0859175
  48.3737986   3.7541485  49.6887233  42.6592802   5.5062559  57.7973352
  42.7885183   5.7597038  58.7112764  41.9790253   6.0990267  57.4778007
  46.8292289  16.1759809  53.8963826  46.7516319  17.1267634  53.9752307
  46.2253933  15.8305681  54.5538752  49.3209519   3.3487674  66.5525193
  48.5442853   3.9081594  66.5428058  49.9600082   3.8344457  67.0740063
  54.7670463   3.8777640  51.0754029  55.6788319   4.1105027  50.9001726
  54.2580110   4.4614684  50.5129107  47.5755891   6.1573128  66.1143160
  48.3170576   6.6958171  65.8377984  46.8692877   6.7839416  66.2714712
  53.0511231   8.3002268  64.7115321  53.4594587   7.8584678  63.9669954
  52.3288493   7.7254895  64.9649514  49.4042301   3.2374875  62.0848878
  50.2503496   3.6614288  62.2283527  49.3440939   2.5808499  62.7787441
  53.3740046   8.8603459  58.4667610  52.7448908   9.0249173  57.7643678
  52.9865708   9.2745068  59.2378574  57.2529278   9.7957896  55.8211974
  56.5680316  10.1756798  55.2709007  57.3373127  10.4053223  56.5543922
  52.5541746   0.8979243  63.7430052  52.3102678   1.6521304  63.2064328
  52.8301677   1.2764591  64.5777299  54.5080209   7.4417855  62.4207318
  54.7197104   8.0849615  61.7441699  54.4609957   6.6080172  61.9529248
  48.9268008   8.5977867  55.7317695  49.3906353   8.8765570  54.9422318
  48.6624806   7.6961311  55.5490786  45.8192089   8.1449348  58.6697459
  46.3893446   8.5736617  58.0314943  46.4100200   7.8631933  59.3681644
  47.8636894   4.7201019  52.5407261  48.5660937   5.1722063  53.0081187
  47.5317522   4.0784838  53.1687154  46.3117255   3.3112776  66.9158470
  45.6815916   3.9929057  67.1493867  46.2053343   3.1995857  65.9711608
  41.6062228   2.9784572  57.8424394  40.8161282   3.2342100  57.3664505
  42.0973475   3.7932910  57.9476435  55.6226037  10.3189811  60.5929675
  56.4443481   9.9169998  60.3112357  55.6188440  10.2158045  61.5445791
  43.5576973   3.3429151  54.8007871  42.7608136   3.4547845  55.3191366
  43.3302565   3.6815803  53.9348761  49.3882641   9.8673854  62.7490385
  49.4527073  10.3294261  63.5848557  48.6793564   9.2371219  62.8772695
  39.8899931   3.2315062  60.2739385  40.1407969   4.1162072  60.5396961
  40.4259479   3.0519664  59.5014477  63.7132030   6.6628559  56.9414646
  62.9595739   6.0935957  56.7858651  63.8479571   6.6291224  57.8885281
  49.1030658  11.5341962  52.6169366  48.9676333  12.3793497  53.0454214
  49.6440471  11.7361239  51.8535300  42.5560056   9.0517400  53.1897291
  43.0684576   9.8460650  53.3402856  43.2082768   8.3543690  53.1230892
  44.3654940  12.1683156  55.2720044  44.5421569  13.0901121  55.0841028
  45.1611774  11.8541575  55.7014424  43.6507297   4.2147788  65.1482207
  43.5360812   3.3133045  65.4489306  42.7951815   4.4611485  64.7967024
  50.7299135  12.1565528  66.7469708  50.2862989  11.3701907  66.4290612
  51.3916348  12.3444679  66.0813599  45.4886256  13.6861330  61.2730386
  46.0393681  13.5578393  60.5007380  44.6497732  13.9856219  60.9225279
  52.8280373  12.4368328  64.7751109  52.8098848  13.2577209  64.2831378
  53.7500293  12.3122403  65.0001250  49.2853427   9.9512458  65.6174617
  49.8181764   9.1900746  65.3873925  48.7567508   9.6586109  66.3598772
  40.5208972   7.3806054  53.9656861  41.3584194   7.7903062  53.7490569
  40.6987240   6.4405496  53.9357055  52.4173405   5.0481135  49.6540694
  51.9020028   5.8185739  49.8929082  52.1450713   4.3746271  50.2773756
  50.0020516  -0.1069165  54.7125933  49.1462112  -0.4962314  54.5331571
  50.4147467  -0.0277204  53.8525718  57.3907679   7.8013489  51.5893868
  56.6137121   7.4624649  51.1449030  58.0699160   7.8066112  50.9148833
  52.2059708   2.9208227  51.4800475  51.9009843   3.2354376  52.3310619
  53.1590150   2.9989647  51.5227808  50.6506140   9.0798450  53.1293429
  50.1227501   8.3451210  52.8166667  50.1493642   9.8573126  52.8833398
  55.6298986   7.2747471  58.2460476  54.9722660   7.9646732  58.3340604
  56.4339385   7.6643903  58.5894462  45.3824867  -0.2581884  55.4900041
  45.9568619  -0.4806702  54.7573234  45.9695850  -0.1893189  56.2428642
  54.4404444   5.6291843  56.2964418  54.9536326   6.2621835  56.7986127
  55.0905668   5.0293039  55.9307778  45.7094454   1.7722577  49.5095926
  44.8731767   2.1097264  49.8305201  45.5699224   1.6371557  48.5723063
  48.7958740   6.8978660  46.1328402  47.8885801   6.6667914  46.3319551
  49.2929772   6.1016280  46.3202384  51.7026819  15.6076168  49.0525089
  51.0288517  15.9107864  49.6610046  52.0892641  16.4105248  48.7030546
  50.9185275   3.1041299  58.5422758  50.0007837   3.3256246  58.3844446
  51.3345419   3.1787609  57.6834465  51.7020323   4.5032714  53.6725438
  52.4492142   5.0154112  53.3632560  51.9711913   4.1816767  54.5329832
  49.9746973   6.9991255  50.6552393  49.0658192   6.7150288  50.7524862
  50.0042057   7.4190334  49.7955699  55.2066241  10.6097845  54.4243560
  54.7528568   9.7688755  54.4808751  54.5760207  11.2459243  54.7618340
  53.6499180  12.4474341  55.3593378  53.9422154  13.0079399  54.6405744
  54.1597800  12.7402902  56.1146537  40.5435144   4.7196769  54.6367595
  40.3459543   4.1266130  53.9118661  39.9881808   4.4148980  55.3543534
  48.5231867   4.6119876  56.7562188  48.5780477   3.6593712  56.6804665
  47.7123069   4.7679315  57.2403486  49.6723061   8.5399999  47.9940471
  49.2342491   7.8235858  47.5346109  50.4133502   8.7676114  47.4325563
  46.4624227   3.2296936  54.5152567  45.6492093   3.5291106  54.9217759
  46.9583221   2.8352624  55.2327049  48.6132805  13.2254692  56.4486832
  48.5708984  13.4515539  55.5195364  49.5295504  12.9918067  56.5972633
  52.0598439   3.6938760  63.3467461  52.4147827   3.9210233  64.2061926
  52.7070570   4.0257137  62.7244716  57.7896176   6.8157196  54.0516790
  57.6514074   7.0058792  53.1237979  57.4332395   7.5776579  54.5084841
  45.9538302   0.8015291  60.1313802  46.5937681   0.6604050  59.4336765
  45.1215832   0.5149804  59.7552404  57.8165555   8.8833723  59.0628061
  58.2502062   8.7909012  59.9111115  58.5297136   8.8591223  58.4248077
  46.7298606  10.1017722  56.2448794  47.5239204   9.6068042  56.0431369
  46.0190298   9.5735585  55.8816500  51.5493450  12.4835817  60.5961162
  51.6030473  13.0526753  61.3638878  50.6808232  12.6537702  60.2315199
  43.0381369   4.2460803  52.3208547  42.1078957   4.1845259  52.5378509
  43.1338841   3.7236756  51.5245188  42.9566918   0.7715616  54.9086789
  43.2173736   1.6860949  54.7995949  43.7784091   0.3040059  55.0583401
  44.4291844   2.1853373  62.0785613  45.1014897   1.9770735  61.4298262
  43.6021630   1.9875459  61.6390845  58.6781105   8.9257424  61.5960947
  58.8716995   9.8303234  61.8420222  58.5781723   8.4664843  62.4299532
  53.7396214   9.0764166  67.1701827  53.5881720   8.8474718  66.2531911
  53.7300893  10.0334768  67.1833172  50.5081550   6.6496079  62.1548094
  51.4373610   6.8007239  61.9817061  50.0872580   6.7380100  61.2996740
  49.3069882  10.6746743  59.9246631  49.1680967  10.3065528  60.7972569
  48.5184478  11.1894383  59.7530589  49.9018034  15.7755840  51.2672168
  50.0769789  15.3043883  52.0817791  49.2150822  16.4021606  51.4953429
  50.8575097  10.0528346  57.3135469  50.5224930  10.0129116  58.2093119
  50.3579043   9.3873062  56.8405879  44.8319341   5.4595976  62.8388050
  44.6939139   4.7276215  63.4399589  45.7424264   5.3704876  62.5572238
  53.7934289   7.3984381  47.5872529  53.1763459   6.6731209  47.4905581
  53.3250777   8.1593741  47.2439603  47.4601642   5.1715936  62.3271730
  48.1701260   4.5309128  62.2858348  47.4170950   5.4228830  63.2497911
  55.4488420  12.1083289  65.2478309  55.3900966  11.4242509  64.5808892
  55.8507939  12.8502279  64.7958935  46.1730576   2.1581153  64.1467369
  45.6367933   1.7071892  64.7988966  45.5847284   2.2927062  63.4037834
  44.4679119  18.9245203  58.0412028  44.7075717  19.5563727  58.7191047
  43.6248316  18.5733243  58.3277387  45.5832834   1.6169805  46.7093833
  44.7062301   1.4958606  46.3456080  46.0590588   0.8255883  46.4572722
  55.4505828  10.0722873  63.4792289  54.5632606   9.7348795  63.6018688
  56.0204379   9.3405904  63.7161054  37.1034975   6.4046965  56.8035340
  37.7906014   6.0908695  56.2156355  36.9483103   7.3088329  56.5302592
  41.9069697   1.2937161  61.2320364  41.8227886   0.6862831  60.4970774
  41.0852403   1.7846179  61.2329860  48.9806981  14.7324325  60.4453532
  48.9077152  15.5379297  60.9572837  48.5384374  14.9316291  59.6201553
  48.7696761  13.9696095  53.9556354  47.9864282  14.5117775  54.0494578
  49.4689506  14.4870075  54.3550595  59.9323168   5.4831090  58.2408850
  59.9213044   6.3655806  57.8702784  59.0640547   5.1302641  58.0463387
  51.4405664  14.6311159  62.6011691  52.1533637  15.2658624  62.5287592
  50.9495693  14.7275025  61.7851692  53.1623191   8.5362412  54.1728982
  52.2279470   8.6563874  54.0033687  53.3399860   7.6334879  53.9088992
  48.6628379   1.9208108  56.3262244  48.2926167   1.3679148  57.0143149
  49.1587472   1.3166241  55.7737244  56.5495743   4.3779731  54.7079016
  57.0156195   5.2107723  54.6339319  57.0003243   3.9124713  55.4124275
  46.4917578  12.3805603  63.4217261  47.1927037  13.0142086  63.5746656
  46.0212693  12.7220334  62.6612901  54.6171974  10.7223552  51.7065169
  54.8931818  10.6080147  52.6159043  53.7476473  10.3241037  51.6677342
  54.2918864   4.9350210  61.2469812  53.6390314   5.1826118  60.5922265
  54.6699244   4.1214348  60.9132289  51.2526038  14.9709903  55.3497982
  51.4348432  14.1531559  55.8125734  52.0759024  15.1877596  54.9122872
  51.5868203  13.8978088  52.6113031  52.1155970  13.3870543  51.9983193
  51.8496423  13.5820619  53.4758564  50.3406437   5.6770021  67.7335849
  49.6647074   5.5764150  68.4038224  51.1634071   5.5209235  68.1971846
  42.0885296  11.9141958  60.3548364  42.6738733  11.1685646  60.4876268
  41.8910134  12.2245914  61.2385028  44.9423951  14.9493205  55.3710807
  44.2734327  15.4339333  54.8874847  44.8036821  15.1962426  56.2854185
  36.6802951   4.4847558  59.0752807  36.7187050   3.9511149  59.8689925
  36.1743244   3.9582763  58.4563784  49.0829220  16.9836949  61.9693465
  49.6347528  17.1468570  62.7342550  49.4235413  17.5741386  61.2973490
  44.0593713  -0.6687902  62.5715350  44.1235040   0.1926929  62.1592747
  43.9960833  -1.2813900  61.8387708  43.5345986   1.4035231  66.2188384
  44.1618024   1.0212308  66.8325908  42.6773904   1.1849433  66.5844076
  53.9340094  11.8098206  67.8242119  54.4779998  12.4228164  67.3297074
  53.3526939  12.3677785  68.3409132  40.3111528   3.2111660  52.1506739
  40.6064969   2.3022338  52.0973792  39.4099564   3.1899400  51.8287741
  52.2197607  14.9318924  58.9557147  52.0948747  14.1308664  58.4468093
  52.8776698  15.4265118  58.4671117  43.8405775   1.2867657  58.1334287
  43.1192361   1.9003624  57.9941761  44.6299031   1.8225421  58.0550933
  54.2832515  12.7327944  60.5836697  53.3362851  12.6133295  60.5115024
  54.6315289  11.8450442  60.6662959  46.6432089  -1.3777917  64.4074939
  47.1666491  -1.1315620  65.1701248  46.4244422  -0.5457882  63.9878076
  42.0399370   0.8925758  52.2746064  41.7112076   0.0123137  52.0921170
  42.3938741   0.8373426  53.1622453  51.2878949  12.5280660  56.7841049
  51.1403911  11.5997368  56.9648619  52.1132442  12.5500751  56.2998125
  45.1541193   1.1798728  52.6421542  45.4937266   1.7084649  51.9200150
  45.6013314   1.5179134  53.4180108  54.8913071  13.3509219  57.8705922
  55.8159618  13.1452081  57.7330373  54.7228374  13.1025620  58.7795264
  47.8484634  -0.4364222  62.0924610  47.5081454  -1.2356409  62.4945289
  47.1423640  -0.1362511  61.5201443  47.1409340  -0.3226651  50.8414834
  47.8617703   0.0554602  50.3378551  46.5174644   0.3962226  50.9449812
  51.2840463   0.3818498  51.7773167  51.5004077   1.2643136  51.4761995
  50.8034530  -0.0095288  51.0478809  46.0239684   3.3404211  58.3543911
  45.8784265   3.6544514  59.2468193  45.5464888   3.9589112  57.8014810
  47.8836067   0.3306759  58.4024801  47.8697636  -0.5652147  58.0657099
  48.6008495   0.3377423  59.0363087  49.7362198   0.7644100  60.4477928
  49.4779976   1.6861170  60.4462259  49.2047238   0.3674534  61.1378392
  54.6808387  13.8694887  53.2268014  54.8545264  13.3041309  52.4741866
  55.1737278  14.6695782  53.0447504  40.4985347   5.8809556  61.2931572
  39.9538815   6.6569364  61.4251847  41.3764697   6.2280360  61.1350694
  60.5347778   6.6331310  54.8458313  60.9778924   5.8838635  54.4477437
  59.6574288   6.6241446  54.4632045  55.6683559  13.1861651  50.3264912
  56.3634464  13.8068344  50.5452227  56.0106709  12.3357002  50.6017290
  41.2851369   5.0079452  64.1861729  40.5433105   5.1562087  64.7726360
  40.9644113   5.2687718  63.3228479  57.5674982  10.6361357  51.8552243
  58.0926307  10.9748629  51.1301563  57.4797335   9.7008372  51.6715377
  49.2295031  14.5495430  63.9842119  49.5382158  14.3044577  64.8564819
  50.0270513  14.7542069  63.4960990  49.2515643  16.7033340  56.2147496
  48.8120633  16.2109719  56.9080353  50.0023760  16.1606308  55.9739571
  41.7307982  12.8944881  56.2172124  42.5566002  12.5948653  55.8370767
  41.3802034  12.1252503  56.6661913  46.6989515  12.2471349  58.2869798
  46.0769525  11.5842054  57.9872025  47.3694382  12.2732481  57.6043445
  39.9316587  10.8131207  57.1761058  39.0948496  10.3853382  56.9945059
  39.9040233  11.0063651  58.1131849  46.7714043   0.7253137  67.8802304
  46.8202198   1.6015260  67.4980073  47.3136557   0.1830530  67.3073947
  57.2568889  11.2694260  67.1603441  56.4664432  11.2518399  66.6207940
  57.0202243  11.8082554  67.9152477  57.3766764   8.1186727  64.4736169
  57.4264769   7.9536734  65.4151692  57.2680687   7.2513986  64.0834050
  46.2603022  10.7975272  51.7628258  46.4091143  11.4810737  51.1094931
  47.0669466  10.7780362  52.2777714  54.6670526   4.1017655  65.7895476
  55.5680389   3.9624119  65.4979474  54.7418500   4.2672109  66.7293653
  49.0013331   1.4784509  64.6348662  48.1316641   1.7718075  64.3631251
  49.2372812   2.0624954  65.3555926  58.8784960  10.5383668  64.7178191
  58.5869769  10.9013649  65.5541652  58.2657092   9.8250676  64.5391523
  60.0780643   8.1036548  57.2380761  60.9127534   8.5426352  57.4018321
  60.2139772   7.6275201  56.4189007  57.1272149   5.6616283  63.1858249
  57.6026270   5.8543929  62.3777100  56.2037714   5.7175469  62.9401632
  44.0155655   6.8240450  52.7689327  43.7701697   5.9202780  52.9669537
  44.1851570   6.8257600  51.8268805  43.2851303   2.5568807  50.2675488
  42.5920548   2.6313162  49.6115524  43.0403055   1.7929151  50.7897005
  49.7598428  13.2923403  49.2340005  49.1872395  13.9113590  48.7810477
  50.3331221  13.8422764  49.7679927  55.8273818   2.5382043  61.4186554
  56.7791241   2.6380140  61.4398778  55.6577268   1.7460311  61.9284639
  52.9795688  13.5760553  50.3648588  53.9126361  13.5106115  50.5681463
  52.8918900  14.4116820  49.9063120  55.6083704  12.8926423  47.3252535
  55.5297336  12.5586287  48.2188293  56.4293371  13.3848191  47.3244008
  58.3061895   5.7588163  60.5328854  58.2738216   4.8204163  60.7188538
  58.9162519   5.8372199  59.7994679  50.1445226   4.6284215  46.5756058
  51.0904331   4.4990424  46.6444476  49.7659471   3.8898877  47.0525486
  64.1238445   6.8204169  59.6734891  64.8541834   6.5589457  60.2342594
  63.5145391   6.0832891  59.7136959  62.2053742   4.9612032  60.2709342
  61.4786906   4.8267997  59.6625834  61.7901029   5.2688861  61.0766060
  50.0283919   8.6801962  68.0356715  50.9486928   8.8580561  68.2296761
  49.9933502   7.7358007  67.8836414  48.3288143   2.5534192  46.5110943
  47.4219599   2.2567305  46.5873657  48.6064124   2.2564010  45.6445229
  39.2466084   3.8740555  56.9609990  38.9268868   3.0205863  56.6684364
  38.6999512   4.0889133  57.7167957  43.0245991   6.5902996  60.6779496
  43.2432001   7.5220104  60.6967530  43.4371765   6.2310971  61.4634300
  47.8973857   2.1636202  70.0682245  47.7970584   3.1130559  69.9994336
  47.6795399   1.8354441  69.1958315  47.0986928  -0.5878873  46.6522922
  47.9606092  -0.2623975  46.9118740  47.2837272  -1.3747377  46.1395988
  39.1154344   7.4943467  58.9303111  38.4217815   7.0797420  58.4173066
  39.8627335   7.5364003  58.3336530  47.7605127   5.5933341  68.8847307
  47.2772208   6.3933701  69.0911196  47.8466066   5.6041286  67.9314751
  41.0291086   7.4261721  56.8069126  41.0061774   7.5249408  55.8551009
  41.3391723   8.2726871  57.1286292  43.6878464   9.4837876  60.9215740
  44.6421718   9.4521818  60.8545672  43.4890988   9.0228499  61.7365966
  44.2777846   8.0538992  63.4886538  45.0970735   8.5483070  63.5121375
  44.5514654   7.1370960  63.4604106  42.0428693  15.0257495  57.9385938
  41.9083161  14.2657896  57.3723936  41.6260755  15.7498395  57.4714727
  53.1787656  10.2094419  46.9462514  53.8823506  10.4144421  47.5620169
  52.4550305  10.7771180  47.2111597  54.0085466   5.9604280  53.0664784
  53.9520668   6.4172831  52.2272416  54.5613809   5.1994964  52.8887627
  62.1302610   4.4890085  56.3986195  61.5702168   4.5583274  57.1717757
  61.5246113   4.3131070  55.6785691  45.1997819  15.9226812  58.1504381
  45.0830203  16.8672245  58.0483071  44.3790265  15.6200374  58.5390180
  55.0874353  10.6476948  48.9960974  55.9219957  10.2158146  48.8138448
  54.9258696  10.4758961  49.9237868  54.7420246   7.1509061  50.3617313
  54.6869049   6.9853333  49.4205757  54.1166301   7.8585094  50.5179503
  39.5312761   2.3877125  64.1878735  40.1771624   1.8776079  64.6765960
  39.3229912   3.1245807  64.7622160  52.0566153   9.4557973  69.6870876
  52.9257312   9.6298625  69.3257511  51.5772904  10.2752390  69.5646605
  46.2252333  16.5755074  61.3660309  47.1279580  16.6078684  61.6826804
  45.9989703  15.6455525  61.3806645  47.9805935  15.3286061  58.0270388
  47.0301566  15.3287922  57.9134760  48.2838421  14.5818795  57.5106423
  43.8710252  -0.4655257  68.2853749  44.7341713  -0.8218453  68.4957074
  43.2975662  -0.8041363  68.9729154  63.7158629  21.1646599  59.0916150
  64.3537038  21.0453346  58.3879491  63.5979471  22.1127443  59.1504103
  60.5248335  21.1174027  59.0277675  60.1866846  21.0015092  58.1398210
  61.3938103  20.7165192  59.0078681  56.3835150  22.9709503  55.0174566
  55.8200016  22.8799440  54.2490854  56.2687546  22.1509408  55.4977059
  61.0068118  22.2708879  64.9863881  60.9956759  21.8761677  64.1144384
  61.1688757  21.5374951  65.5797652  53.9299582  24.4660695  57.8558787
  54.7220874  24.1251520  57.4405086  54.1696233  24.5755670  58.7760940
  55.8890336  23.7269608  50.7276165  56.6621212  23.1798595  50.5889041
  56.2415735  24.5913858  50.9390627  57.7275379  25.0545991  63.9343065
  57.4365245  25.9591621  63.8189731  58.3632363  25.0962518  64.6487134
  58.6531586  22.4322839  60.5244424  59.2495158  22.2078861  59.8101387
  58.7106557  21.6907585  61.1269872  58.2256614  19.8862274  48.3594615
  58.4782135  19.3643796  47.5978078  57.2881173  19.7228420  48.4621299
  63.2699897  18.8898053  56.1669358  64.0562986  18.4717476  55.8159775
  63.5338601  19.7944145  56.3351007  63.4409974  24.3270903  50.8658015
  62.8055807  24.4005530  51.5778920  63.1107381  24.9164502  50.1877095
  68.6708324  18.8273286  57.0702337  69.4033496  18.2572503  57.3040166
  67.9147680  18.4394886  57.5108843  57.9452903  21.7890380  50.5618990
  57.8289161  21.1135284  51.2300075  58.0555163  21.3022754  49.7451143
  60.2884444  21.2500527  54.2665679  59.9242651  20.7231148  54.9778601
  61.1451560  20.8598997  54.0932165  66.1933744  12.5394860  61.5296946
  65.8617069  13.4090271  61.3058161  65.5979358  12.2231144  62.2090976
  59.9289931  16.2790427  49.2627028  60.0964333  17.1470664  49.6297499
  59.7387100  16.4417709  48.3388317  62.6865264  24.7407406  60.9292858
  62.3865987  25.6432445  60.8208666  62.3416324  24.4739589  61.7814011
  56.1377745  21.1921203  56.9629563  55.2128242  21.0597417  57.1707255
  56.3862159  21.9715422  57.4599505  66.0862408  17.2589946  58.6090296
  65.1779285  17.1905355  58.3149057  66.0350004  17.7361891  59.4372121
  59.9079152  18.7348085  50.2473695  59.7878777  19.1805135  51.0859175
  59.2131740  19.0833402  49.6887233  53.4986557  20.8354476  57.7973352
  53.6278938  21.0888955  58.7112764  52.8184008  21.4282184  57.4778007
  57.6686044  31.5051726  53.8963826  57.5910074  32.4559551  53.9752307
  57.0647687  31.1597599  54.5538752  60.1603274  18.6779592  66.5525193
  59.3836608  19.2373512  66.5428058  60.7993837  19.1636375  67.0740063
  67.9524054  15.4606385  60.3868170  67.3098434  15.7538918  59.7407964
  67.4478983  15.3459305  61.1921366  65.6064218  19.2069558  51.0754029
  66.5182074  19.4396945  50.9001726  65.0973865  19.7906602  50.5129107
  58.4149646  21.4865045  66.1143160  59.1564330  22.0250089  65.8377984
  57.7086631  22.1131334  66.2714712  63.8904986  23.6294186  64.7115321
  64.2988342  23.1876596  63.9669954  63.1682247  23.0546813  64.9649514
  60.2436056  18.5666792  62.0848878  61.0897251  18.9906206  62.2283527
  60.1834693  17.9100417  62.7787441  64.2133800  24.1895376  58.4667610
  63.5842663  24.3541090  57.7643678  63.8259462  24.6036986  59.2378574
  68.0923032  25.1249814  55.8211974  67.4074070  25.5048715  55.2709007
  68.1766881  25.7345141  56.5543922  63.3935501  16.2271161  63.7430052
  63.1496433  16.9813221  63.2064328  63.6695431  16.6056508  64.5777299
  65.3473964  22.7709773  62.4207318  65.5590859  23.4141533  61.7441699
  65.3003712  21.9372090  61.9529248  62.9500193  15.3827594  59.3243890
  62.0884672  15.6808847  59.6160627  62.9762627  15.5997993  58.3924922
  59.7661762  23.9269784  55.7317695  60.2300108  24.2057487  54.9422318
  59.5018560  23.0253229  55.5490786  56.6585843  23.4741266  58.6697459
  57.2287200  23.9028534  58.0314943  57.2493955  23.1923851  59.3681644
  58.7030648  20.0492937  52.5407261  59.4054691  20.5013980  53.0081187
  58.3711277  19.4076756  53.1687154  57.1511010  18.6404693  66.9158470
  56.5209670  19.3220974  67.1493867  57.0447098  18.5287775  65.9711608
  52.4455982  18.3076489  57.8424394  51.6555036  18.5634018  57.3664505
  52.9367229  19.1224827  57.9476435  66.4619792  25.6481729  60.5929675
  67.2837235  25.2461916  60.3112357  66.4582194  25.5449963  61.5445791
  54.3970727  18.6721069  54.8007871  53.6001891  18.7839763  55.3191366
  54.1696320  19.0107721  53.9348761  60.2276395  25.1965772  62.7490385
  60.2920828  25.6586179  63.5848557  59.5187319  24.5663137  62.8772695
  50.7293685  18.5606980  60.2739385  50.9801723  19.4453990  60.5396961
  51.2653233  18.3811581  59.5014477  74.5525785  21.9920477  56.9414646
  73.7989493  21.4227875  56.7858651  74.6873326  21.9583142  57.8885281
  59.9424413  26.8633879  52.6169366  59.8070088  27.7085415  53.0454214
  60.4834225  27.0653157  51.8535300  56.4291752  12.9425459  69.2783721
  56.0358698  12.3891658  69.9531365  57.2457893  13.2536038  69.6690238
  53.3953810  24.3809317  53.1897291  53.9078331  25.1752568  53.3402856
  54.0476523  23.6835608  53.1230892  55.2048695  27.4975074  55.2720044
  55.3815323  28.4193038  55.0841028  56.0005528  27.1833493  55.7014424
  59.3459713  14.3583338  66.8703978  60.0869427  14.9590491  66.7908440
  59.5777636  13.6160976  66.3122020  54.4901051  19.5439706  65.1482207
  54.3754567  18.6424963  65.4489306  53.6345569  19.7903402  64.7967024
  61.5692889  27.4857446  66.7469708  61.1256743  26.6993824  66.4290612
  62.2310103  27.6736596  66.0813599  56.3280010  29.0153247  61.2730386
  56.8787435  28.8870311  60.5007380  55.4891486  29.3148136  60.9225279
  63.6674127  27.7660246  64.7751109  63.6492603  28.5869127  64.2831378
  64.5894047  27.6414321  65.0001250  60.1247181  25.2804375  65.6174617
  60.6575518  24.5192663  65.3873925  59.5961262  24.9878027  66.3598772
  63.2916876  10.3864441  61.1468259  62.9481146  11.2766083  61.0707370
  63.6595839  10.1966099  60.2837844  51.3602727  22.7097972  53.9656861
  52.1977949  23.1194980  53.7490569  51.5380995  21.7697414  53.9357055
  63.2567159  20.3773052  49.6540694  62.7413782  21.1477657  49.8929082
  62.9844467  19.7038189  50.2773756  60.8414270  15.2222753  54.7125933
  59.9855866  14.8329604  54.5331571  61.2541222  15.3014714  53.8525718
  62.3713417  12.7569096  59.1117492  61.8678212  12.7199232  58.2985298
  62.6644024  13.6661839  59.1714149  58.6156303  12.8407826  58.1183674
  59.4809299  12.6450635  57.7589564  58.6833811  12.6118178  59.0453031
  68.2301433  23.1305407  51.5893868  67.4530876  22.7916566  51.1449030
  68.9092914  23.1358030  50.9148833  63.0453462  18.2500144  51.4800475
  62.7403598  18.5646294  52.3310619  63.9983904  18.3281564  51.5227808
  61.4899894  24.4090368  53.1293429  60.9621256  23.6743127  52.8166667
  60.9887397  25.1865044  52.8833398  66.4692740  22.6039388  58.2460476
  65.8116414  23.2938650  58.3340604  67.2733139  22.9935820  58.5894462
  56.2218622  15.0710034  55.4900041  56.7962374  14.8485216  54.7573234
  56.8089604  15.1398729  56.2428642  65.2798199  20.9583761  56.2964418
  65.7930081  21.5913753  56.7986127  65.9299423  20.3584956  55.9307778
  56.5488209  17.1014495  49.5095926  55.7125521  17.4389182  49.8305201
  56.4092978  16.9663475  48.5723063  58.5241289  11.9451283  54.2175110
  57.8705702  11.6300300  53.5931725  58.4821764  11.3227023  54.9434933
  59.6352494  22.2270578  46.1328402  58.7279556  21.9959831  46.3319551
  60.1323526  21.4308197  46.3202384  61.7579030  18.4333216  58.5422758
  60.8401591  18.6548163  58.3844446  62.1739173  18.5079527  57.6834465
  62.5414077  19.8324632  53.6725438  63.2885896  20.3446029  53.3632560
  62.8105667  19.5108685  54.5329832  60.8140728  22.3283173  50.6552393
  59.9051947  22.0442206  50.7524862  60.8435811  22.7482251  49.7955699
  66.0459995  25.9389762  54.4243560  65.5922322  25.0980672  54.4808751
  65.4153962  26.5751161  54.7618340  64.9892915  16.8681748  55.6544228
  64.2515671  16.3559135  55.9854470  65.2419688  16.4282130  54.8427504
  64.4892934  27.7766259  55.3593378  64.7815909  28.3371316  54.6405744
  64.9991555  28.0694820  56.1146537  65.0904542   9.6458000  56.2485997
  65.3963419   8.7855364  55.9611912  65.8157147  10.2375621  56.0484991
  51.3828898  20.0488687  54.6367595  51.1853298  19.4558048  53.9118661
  50.8275562  19.7440897  55.3543534  59.3625622  19.9411793  56.7562188
  59.4174231  18.9885630  56.6804665  58.5516824  20.0971233  57.2403486
  60.5116815  23.8691917  47.9940471  60.0736245  23.1527775  47.5346109
  61.2527256  24.0968031  47.4325563  57.3017982  18.5588853  54.5152567
  56.4885847  18.8583024  54.9217759  57.7976976  18.1644542  55.2327049
  59.4526560  28.5546610  56.4486832  59.4102738  28.7807456  55.5195364
  60.3689258  28.3209985  56.5972633  62.8992193  19.0230678  63.3467461
  63.2541581  19.2502151  64.2061926  63.5464325  19.3549054  62.7244716
  68.6289930  22.1449114  54.0516790  68.4907829  22.3350710  53.1237979
  68.2726149  22.9068496  54.5084841  56.7932056  16.1307209  60.1313802
  57.4331436  15.9895968  59.4336765  55.9609587  15.8441722  59.7552404
  68.6559310  24.2125641  59.0628061  69.0895817  24.1200930  59.9111115
  69.3690891  24.1883141  58.4248077  57.5692360  25.4309639  56.2448794
  58.3632959  24.9359959  56.0431369  56.8584053  24.9027502  55.8816500
  62.3887205  27.8127735  60.5961162  62.4424227  28.3818671  61.3638878
  61.5201986  27.9829620  60.2315199  53.8775124  19.5752721  52.3208547
  52.9472712  19.5137176  52.5378509  53.9732596  19.0528674  51.5245188
  53.7960673  16.1007534  54.9086789  54.0567490  17.0152867  54.7995949
  54.6177845  15.6331976  55.0583401  55.2685598  17.5145291  62.0785613
  55.9408652  17.3062653  61.4298262  54.4415385  17.3167377  61.6390845
  69.5174859  24.2549341  61.5960947  69.7110749  25.1595152  61.8420222
  69.4175478  23.7956760  62.4299532  61.1711170  14.1407232  64.0951274
  60.5239085  14.8397181  64.0015750  61.9412186  14.5743376  64.4627522
  64.5789968  24.4056084  67.1701827  64.4275474  24.1766636  66.2531911
  64.5694648  25.3626685  67.1833172  61.3475304  21.9787997  62.1548094
  62.2767364  22.1299156  61.9817061  60.9266335  22.0672018  61.2996740
  60.1463636  26.0038661  59.9246631  60.0074722  25.6357446  60.7972569
  59.3578233  26.5186301  59.7530589  60.7411788  31.1047758  51.2672168
  60.9163544  30.6335801  52.0817791  60.0544576  31.7313524  51.4953429
  61.6968851  25.3820264  57.3135469  61.3618684  25.3421034  58.2093119
  61.1972797  24.7164980  56.8405879  55.6713095  20.7887894  62.8388050
  55.5332893  20.0568133  63.4399589  56.5818019  20.6996794  62.5572238
  64.6328043  22.7276298  47.5872529  64.0157214  22.0023126  47.4905581
  64.1644532  23.4885658  47.2439603  58.2995396  20.5007853  62.3271730
  59.0095015  19.8601045  62.2858348  58.2564704  20.7520748  63.2497911
  66.2882175  27.4375207  65.2478309  66.2294721  26.7534427  64.5808892
  66.6901693  28.1794197  64.7958935  57.0124330  17.4873071  64.1467369
  56.4761687  17.0363810  64.7988966  56.4241038  17.6218980  63.4037834
  55.3072874  34.2537120  58.0412028  55.5469472  34.8855645  58.7191047
  54.4642070  33.9025160  58.3277387  56.4226589  16.9461723  46.7093833
  55.5456055  16.8250523  46.3456080  56.8984342  16.1547801  46.4572722
  66.2899582  25.4014790  63.4792289  65.4026361  25.0640712  63.6018688
  66.8598133  24.6697822  63.7161054  47.9428729  21.7338882  56.8035340
  48.6299769  21.4200612  56.2156355  47.7876858  22.6380247  56.5302592
  52.7463451  16.6229079  61.2320364  52.6621640  16.0154748  60.4970774
  51.9246158  17.1138097  61.2329860  59.8200735  30.0616243  60.4453532
  59.7470907  30.8671214  60.9572837  59.3778129  30.2608209  59.6201553
  59.6090515  29.2988013  53.9556354  58.8258037  29.8409693  54.0494578
  60.3083260  29.8161993  54.3550595  62.9187165  15.1082642  56.5990559
  63.4155865  14.3552605  56.2791629  62.1474147  15.1446959  56.0333768
  70.7716923  20.8123008  58.2408850  70.7606799  21.6947723  57.8702784
  69.9034302  20.4594559  58.0463387  62.2799419  29.9603077  62.6011691
  62.9927391  30.5950542  62.5287592  61.7889448  30.0566943  61.7851692
  64.0016946  23.8654330  54.1728982  63.0673225  23.9855792  54.0033687
  64.1793614  22.9626796  53.9088992  59.5022134  17.2500025  56.3262244
  59.1319921  16.6971066  57.0143149  59.9981226  16.6458159  55.7737244
  67.3889497  19.7071649  54.7079016  67.8549949  20.5399640  54.6339319
  67.8396998  19.2416630  55.4124275  57.3311332  27.7097520  63.4217261
  58.0320792  28.3434003  63.5746656  56.8606447  28.0512252  62.6612901
  65.4565728  26.0515470  51.7065169  65.7325572  25.9372065  52.6159043
  64.5870227  25.6532955  51.6677342  65.3606160  12.0752236  58.7469918
  64.4469240  12.3056463  58.9152125  65.7899261  12.1590680  59.5983950
  65.1312618  20.2642128  61.2469812  64.4784069  20.5118035  60.5922265
  65.5092998  19.4506266  60.9132289  62.0919792  30.3001821  55.3497982
  62.2742187  29.4823477  55.8125734  62.9152778  30.5169513  54.9122872
  62.4261958  29.2270006  52.6113031  62.9549724  28.7162461  51.9983193
  62.6890177  28.9112536  53.4758564  61.1800191  21.0061939  67.7335849
  60.5040828  20.9056068  68.4038224  62.0027825  20.8501153  68.1971846
  52.9279051  27.2433875  60.3548364  53.5132487  26.4977563  60.4876268
  52.7303889  27.5537832  61.2385028  55.7817706  30.2785123  55.3710807
  55.1128081  30.7631250  54.8874847  55.6430575  30.5254343  56.2854185
  47.5196705  19.8139476  59.0752807  47.5580805  19.2803066  59.8689925
  47.0136998  19.2874681  58.4563784  59.9222974  32.3128866  61.9693465
  60.4741282  32.4760488  62.7342550  60.2629168  32.9033304  61.2973490
  54.8987468  14.6604016  62.5715350  54.9628794  15.5218847  62.1592747
  54.8354588  14.0478018  61.8387708  54.3739740  16.7327149  66.2188384
  55.0011779  16.3504226  66.8325908  53.5167659  16.5141351  66.5844076
  64.7733849  27.1390124  67.8242119  65.3173753  27.7520082  67.3297074
  64.1920693  27.6969702  68.3409132  51.1505283  18.5403578  52.1506739
  51.4458724  17.6314256  52.0973792  50.2493319  18.5191317  51.8287741
  63.0591362  30.2610842  58.9557147  62.9342501  29.4600582  58.4468093
  63.7170453  30.7557035  58.4671117  54.6799530  16.6159574  58.1334287
  53.9586116  17.2295542  57.9941761  55.4692786  17.1517339  58.0550933
  65.1226270  28.0619862  60.5836697  64.1756606  27.9425213  60.5115024
  65.4709043  27.1742360  60.6662959  57.4825843  13.9514001  64.4074939
  58.0060245  14.1976297  65.1701248  57.2638177  14.7834036  63.9878076
  52.8793124  16.2217675  52.2746064  52.5505831  15.3415054  52.0921170
  53.2332495  16.1665344  53.1622453  62.1272703  27.8572578  56.7841049
  61.9797666  26.9289286  56.9648619  62.9526197  27.8792669  56.2998125
  55.9934948  16.5090645  52.6421542  56.3331020  17.0376566  51.9200150
  56.4407068  16.8471051  53.4180108  65.7306825  28.6801137  57.8705922
  66.6553373  28.4743998  57.7330373  65.5622129  28.4317538  58.7795264
  58.6878388  14.8927696  62.0924610  58.3475209  14.0935509  62.4945289
  57.9817395  15.1929407  61.5201443  59.3394860  11.9777008  60.5451933
  60.1620930  11.5037487  60.4230823  59.5832924  12.7567492  61.0450619
  57.9803095  15.0065267  50.8414834  58.7011457  15.3846520  50.3378551
  57.3568399  15.7254144  50.9449812  62.1234218  15.7110416  51.7773167
  62.3397832  16.5935054  51.4761995  61.6428285  15.3196629  51.0478809
  56.8633439  18.6696129  58.3543911  56.7178020  18.9836432  59.2468193
  56.3858643  19.2881029  57.8014810  58.7229822  15.6598677  58.4024801
  58.7091391  14.7639770  58.0657099  59.4402250  15.6669341  59.0363087
  60.5755953  16.0936017  60.4477928  60.3173730  17.0153088  60.4462259
  60.0440993  15.6966452  61.1378392  65.5202141  29.1986804  53.2268014
  65.6939019  28.6333227  52.4741866  66.0131033  29.9987699  53.0447504
  51.3379101  21.2101473  61.2931572  50.7932569  21.9861281  61.4251847
  52.2158451  21.5572278  61.1350694  58.1266718  14.5413057  53.6712371
  58.2482629  13.6129703  53.8703258  57.8368760  14.5551743  52.7590686
  60.9957908  12.2267968  56.8079091  61.0179605  12.2907301  55.8531070
  61.4125967  11.3872476  57.0019597  71.3741533  21.9623227  54.8458313
  71.8172679  21.2130552  54.4477437  70.4968043  21.9533364  54.4632045
  52.1245123  20.3371370  64.1861729  51.3826859  20.4854005  64.7726360
  51.8037867  20.5979635  63.3228479  68.4068737  25.9653274  51.8552243
  68.9320061  26.3040547  51.1301563  68.3191090  25.0300290  51.6715377
  60.0688786  29.8787348  63.9842119  60.3775912  29.6336495  64.8564819
  60.8664268  30.0833986  63.4960990  60.0909398  32.0325258  56.2147496
  59.6514388  31.5401636  56.9080353  60.8417515  31.4898225  55.9739571
  52.5701737  28.2236798  56.2172124  53.3959757  27.9240570  55.8370767
  52.2195789  27.4544421  56.6661913  57.5383270  27.5763267  58.2869798
  56.9163279  26.9133972  57.9872025  58.2088137  27.6024398  57.6043445
  50.7710342  26.1423125  57.1761058  49.9342250  25.7145299  56.9945059
  50.7433987  26.3355568  58.1131849  57.6107797  16.0545055  67.8802304
  57.6595953  16.9307177  67.4980073  58.1530312  15.5122448  67.3073947
  68.0962643  26.5986178  67.1603441  67.3058187  26.5810317  66.6207940
  67.8595998  27.1374472  67.9152477  68.2160518  23.4478644  64.4736169
  68.2658523  23.2828652  65.4151692  68.1074441  22.5805903  64.0834050
  57.0996777  26.1267190  51.7628258  57.2484897  26.8102654  51.1094931
  57.9063220  26.1072280  52.2777714  65.5064280  19.4309572  65.7895476
  66.4074143  19.2916037  65.4979474  65.5812255  19.5964027  66.7293653
  59.8407086  16.8076427  64.6348662  58.9710395  17.1009993  64.3631251
  60.0766566  17.3916872  65.3555926  69.7178715  25.8675586  64.7178191
  69.4263523  26.2305566  65.5541652  69.1050846  25.1542594  64.5391523
  70.9174397  23.4328466  57.2380761  71.7521289  23.8718270  57.4018321
  71.0533526  22.9567119  56.4189007  67.9665903  20.9908200  63.1858249
  68.4420025  21.1835847  62.3777100  67.0431469  21.0467386  62.9401632
  54.8549410  22.1532368  52.7689327  54.6095452  21.2494698  52.9669537
  55.0245324  22.1549518  51.8268805  62.5446120  13.0256044  62.1514083
  63.0628063  13.7617071  61.8260571  62.1901252  13.3320037  62.9860842
  54.1245057  17.8860725  50.2675488  53.4314302  17.9605080  49.6115524
  53.8796809  17.1221069  50.7897005  62.7958714   9.4456326  57.6714979
  63.0760468   8.7779516  58.2975406  63.5809321   9.6385422  57.1589643
  66.6667572  17.8673960  61.4186554  67.6184995  17.9672058  61.4398778
  66.4971023  17.0752229  61.9284639  64.6881952  14.9529544  61.6045955
  64.0931884  15.2334556  60.9092444  64.4031648  15.4423445  62.3762696
  69.1455650  21.0880080  60.5328854  69.1131970  20.1496081  60.7188538
  69.7556274  21.1664117  59.7994679  60.9838981  19.9576133  46.5756058
  61.9298086  19.8282341  46.6444476  60.6053226  19.2190795  47.0525486
  69.2950138  17.8791124  60.5787137  68.7789187  17.0949580  60.3917066
  70.1790087  17.5509840  60.7433657  66.9560865  11.6232139  56.5382950
  66.7585686  11.3147227  57.4226282  67.5660571  12.3493778  56.6680880
  74.9632200  22.1496087  59.6734891  75.6935588  21.8881375  60.2342594
  74.3539145  21.4124809  59.7136959  73.0447497  20.2903950  60.2709342
  72.3180660  20.1559915  59.6625834  72.6294784  20.5980778  61.0766060
  60.8677673  24.0093879  68.0356715  61.7880683  24.1872478  68.2296761
  60.8327256  23.0649925  67.8836414  59.1681898  17.8826110  46.5110943
  58.2613353  17.5859222  46.5873657  59.4457879  17.5855928  45.6445229
  50.0859838  19.2032473  56.9609990  49.7662623  18.3497781  56.6684364
  49.5393266  19.4181051  57.7167957  53.8639746  21.9194914  60.6779496
  54.0825756  22.8512022  60.6967530  54.2765520  21.5602888  61.4634300
  60.7843964  12.4262999  52.6655184  59.9744692  12.0810084  53.0410431
  61.4728381  12.1170543  53.2542796  62.7134512  11.5041046  54.2879481
  63.2665551  11.9236499  54.9469504  62.9504598  10.5776794  54.3302437
  58.7367611  17.4928120  70.0682245  58.6364338  18.4422477  69.9994336
  58.5189153  17.1646359  69.1958315  57.9380683  14.7413045  46.6522922
  58.7999847  15.0667943  46.9118740  58.1231027  13.9544541  46.1395988
  49.9548098  22.8235384  58.9303111  49.2611570  22.4089337  58.4173066
  50.7021089  22.8655921  58.3336530  66.0913319  13.6141571  53.7958145
  65.5111988  14.2726375  53.4136198  65.8249252  12.7918916  53.3845563
  64.5416885  13.0146629  55.9979466  65.0416664  13.1263163  55.1893785
  65.1852493  12.7107682  56.6380274  58.5998881  20.9225259  68.8847307
  58.1165963  21.7225619  69.0911196  58.6859820  20.9333203  67.9314751
  51.8684841  22.7553638  56.8069126  51.8455529  22.8541325  55.8551009
  52.1785477  23.6018789  57.1286292  54.5272219  24.8129793  60.9215740
  55.4815472  24.7813736  60.8545672  54.3284742  24.3520417  61.7365966
  55.1171601  23.3830909  63.4886538  55.9364490  23.8774988  63.5121375
  55.3908409  22.4662877  63.4604106  64.8738197  15.7741662  52.8514494
  63.9864052  16.0591312  52.6334688  65.2892186  15.6135425  52.0041771
  68.2252733  15.7988183  56.5668833  69.0013123  16.2884635  56.8393450
  67.5000867  16.2246237  57.0240702  70.6625292  16.5115802  57.6242774
  71.2569783  16.2711538  56.9136082  70.7351876  15.7922932  58.2516310
  52.8822448  30.3549413  57.9385938  52.7476915  29.5949814  57.3723936
  52.4654510  31.0790313  57.4714727  64.0181411  25.5386336  46.9462514
  64.7217261  25.7436339  47.5620169  63.2944059  26.1063098  47.2111597
  64.8479221  21.2896198  53.0664784  64.7914422  21.7464749  52.2272416
  65.4007563  20.5286882  52.8887627  68.6584027  17.0785929  53.8914903
  68.4020961  16.6782565  54.7223111  68.0336895  17.7929723  53.7665042
  72.9696365  19.8182003  56.3986195  72.4095923  19.8875192  57.1717757
  72.3639868  19.6422987  55.6785691  56.0391573  31.2518730  58.1504381
  55.9223958  32.1964162  58.0483071  55.2184020  30.9492291  58.5390180
  65.5814000  22.4800979  50.3617313  65.5262804  22.3145250  49.4205757
  64.9560055  23.1877012  50.5179503  50.3706515  17.7169043  64.1878735
  51.0165379  17.2067997  64.6765960  50.1623666  18.4537725  64.7622160
  62.8959907  24.7849891  69.6870876  63.7651067  24.9590543  69.3257511
  62.4166659  25.6044307  69.5646605  58.8910126  11.9809088  49.9402631
  58.8788795  12.9250928  50.0970902  59.7833547  11.7979233  49.6462093
  57.0646088  31.9046992  61.3660309  57.9673334  31.9370602  61.6826804
  56.8383458  30.9747443  61.3806645  58.8199690  30.6577978  58.0270388
  57.8695321  30.6579840  57.9134760  59.1232176  29.9110713  57.5106423
  62.7062245   8.5751864  54.1948568  61.9394641   8.0210351  54.3405251
  63.1172950   8.6473733  55.0562720  54.7104006  14.8636660  68.2853749
  55.5735468  14.5073465  68.4957074  54.1369417  14.5250555  68.9729154
  74.5552383  36.4938517  59.0916150  75.1930793  36.3745264  58.3879491
  74.4373226  37.4419361  59.1504103  71.3642089  36.4465945  59.0277675
  71.0260601  36.3307009  58.1398210  72.2331857  36.0457110  59.0078681
  67.2228905  38.3001421  55.0174566  66.6593770  38.2091358  54.2490854
  67.1081300  37.4801326  55.4977059  71.8461872  37.6000796  64.9863881
  71.8350513  37.2053595  64.1144384  72.0082512  36.8666869  65.5797652
  64.7693337  39.7952613  57.8558787  65.5614629  39.4543437  57.4405086
  65.0089987  39.9047588  58.7760940  72.8028464  41.9672389  50.3289031
  72.1516443  42.5526469  49.9423045  73.5972827  42.4978584  50.3884068
  68.5669133  40.3837908  63.9343065  68.2758999  41.2883539  63.8189731
  69.2026118  40.4254436  64.6487134  69.4925340  37.7614757  60.5244424
  70.0888913  37.5370779  59.8101387  69.5500312  37.0199502  61.1269872
  74.1093651  34.2189970  56.1669358  74.8956741  33.8009394  55.8159775
  74.3732356  35.1236063  56.3351007  74.2803729  39.6562821  50.8658015
  73.6449562  39.7297447  51.5778920  73.9501135  40.2456420  50.1877095
  79.5102079  34.1565204  57.0702337  80.2427251  33.5864420  57.3040166
  78.7541434  33.7686804  57.5108843  71.1278198  36.5792445  54.2665679
  70.7636406  36.0523066  54.9778601  71.9845314  36.1890914  54.0932165
  77.0327499  27.8686778  61.5296946  76.7010824  28.7382189  61.3058161
  76.4373112  27.5523062  62.2090976  73.5259019  40.0699324  60.9292858
  73.2259742  40.9724363  60.8208666  73.1810078  39.8031507  61.7814011
  66.9771500  36.5213121  56.9629563  66.0521996  36.3889335  57.1707255
  67.2255913  37.3007340  57.4599505  76.9256162  32.5881864  58.6090296
  76.0173040  32.5197272  58.3149057  76.8743758  33.0653809  59.4372121
  64.3380311  36.1646394  57.7973352  64.4672692  36.4180873  58.7112764
  63.6577762  36.7574102  57.4778007  68.5079798  46.8343644  53.8963826
  68.4303828  47.7851469  53.9752307  67.9041442  46.4889517  54.5538752
  70.9997028  34.0071510  66.5525193  70.2230362  34.5665430  66.5428058
  71.6387591  34.4928292  67.0740063  78.7917809  30.7898302  60.3868170
  78.1492189  31.0830835  59.7407964  78.2872737  30.6751223  61.1921366
  76.4457972  34.5361476  51.0754029  77.3575828  34.7688862  50.9001726
  75.9367619  35.1198520  50.5129107  69.2543400  36.8156963  66.1143160
  69.9958085  37.3542007  65.8377984  68.5480386  37.4423252  66.2714712
  74.7298740  38.9586103  64.7115321  75.1382096  38.5168514  63.9669954
  74.0076002  38.3838731  64.9649514  71.0829810  33.8958710  62.0848878
  71.9291005  34.3198124  62.2283527  71.0228448  33.2392334  62.7787441
  75.0527555  39.5187294  58.4667610  74.4236417  39.6833008  57.7643678
  74.6653217  39.9328904  59.2378574  78.9316787  40.4541732  55.8211974
  78.2467825  40.8340633  55.2709007  79.0160636  41.0637058  56.5543922
  74.2329255  31.5563078  63.7430052  73.9890187  32.3105139  63.2064328
  74.5089186  31.9348426  64.5777299  76.1867718  38.1001691  62.4207318
  76.3984613  38.7433451  61.7441699  76.1397466  37.2664007  61.9529248
  73.7893947  30.7119511  59.3243890  72.9278426  31.0100765  59.6160627
  73.8156382  30.9289910  58.3924922  70.6055517  39.2561702  55.7317695
  71.0693862  39.5349405  54.9422318  70.3412315  38.3545147  55.5490786
  67.4979598  38.8033184  58.6697459  68.0680955  39.2320452  58.0314943
  68.0887709  38.5215768  59.3681644  67.9904764  33.9696611  66.9158470
  67.3603425  34.6512892  67.1493867  67.8840852  33.8579693  65.9711608
  63.2849737  33.6368407  57.8424394  62.4948791  33.8925936  57.3664505
  63.7760984  34.4516745  57.9476435  77.3013546  40.9773646  60.5929675
  78.1230990  40.5753834  60.3112357  77.2975949  40.8741880  61.5445791
  65.2364482  34.0012986  54.8007871  64.4395645  34.1131681  55.3191366
  65.0090074  34.3399639  53.9348761  71.0670150  40.5257690  62.7490385
  71.1314582  40.9878097  63.5848557  70.3581073  39.8955054  62.8772695
  61.5687440  33.8898898  60.2739385  61.8195478  34.7745907  60.5396961
  62.1046988  33.7103499  59.5014477  85.3919539  37.3212395  56.9414646
  84.6383248  36.7519793  56.7858651  85.5267080  37.2875059  57.8885281
  70.7818167  42.1925797  52.6169366  70.6463842  43.0377333  53.0454214
  71.3227980  42.3945075  51.8535300  67.2685507  28.2717377  69.2783721
  66.8752452  27.7183575  69.9531365  68.0851647  28.5827955  69.6690238
  64.2347565  39.7101235  53.1897291  64.7472085  40.5044485  53.3402856
  64.8870277  39.0127526  53.1230892  70.1853468  29.6875256  66.8703978
  70.9263181  30.2882409  66.7908440  70.4171391  28.9452894  66.3122020
  65.3294806  34.8731623  65.1482207  65.2148321  33.9716880  65.4489306
  64.4739324  35.1195320  64.7967024  72.4086644  42.8149364  66.7469708
  71.9650498  42.0285742  66.4290612  73.0703857  43.0028514  66.0813599
  67.1673765  44.3445165  61.2730386  67.7181190  44.2162228  60.5007380
  66.3285241  44.6440054  60.9225279  74.5067882  43.0952163  64.7751109
  74.4886357  43.9161045  64.2831378  75.4287802  42.9706239  65.0001250
  70.9640936  40.6096293  65.6174617  71.4969273  39.8484581  65.3873925
  70.4355017  40.3169945  66.3598772  74.1310631  25.7156359  61.1468259
  73.7874900  26.6058001  61.0707370  74.4989593  25.5258017  60.2837844
  62.1996481  38.0389889  53.9656861  63.0371703  38.4486898  53.7490569
  62.3774749  37.0989332  53.9357055  74.0960914  35.7064970  49.6540694
  73.5807537  36.4769575  49.8929082  73.8238222  35.0330106  50.2773756
  71.6808025  30.5514671  54.7125933  70.8249621  30.1621521  54.5331571
  72.0934976  30.6306632  53.8525718  73.2107171  28.0861014  59.1117492
  72.7071967  28.0491149  58.2985298  73.5037778  28.9953757  59.1714149
  69.4550057  28.1699744  58.1183674  70.3203054  27.9742552  57.7589564
  69.5227566  27.9410096  59.0453031  79.0695188  38.4597325  51.5893868
  78.2924630  38.1208484  51.1449030  79.7486669  38.4649948  50.9148833
  73.8847217  33.5792062  51.4800475  73.5797352  33.8938211  52.3310619
  74.8377659  33.6573482  51.5227808  72.3293649  39.7382285  53.1293429
  71.8015010  39.0035045  52.8166667  71.8281151  40.5156962  52.8833398
  77.3086495  37.9331306  58.2460476  76.6510169  38.6230567  58.3340604
  78.1126894  38.3227738  58.5894462  67.0612376  30.4001952  55.4900041
  67.6356128  30.1777133  54.7573234  67.6483359  30.4690646  56.2428642
  76.1191953  36.2875679  56.2964418  76.6323835  36.9205670  56.7986127
  76.7693177  35.6876874  55.9307778  69.3635044  27.2743201  54.2175110
  68.7099456  26.9592218  53.5931725  69.3215518  26.6518941  54.9434933
  73.3814328  46.2660003  49.0525089  72.7076026  46.5691700  49.6610046
  73.7680150  47.0689083  48.7030546  72.5972784  33.7625134  58.5422758
  71.6795346  33.9840081  58.3844446  73.0132928  33.8371445  57.6834465
  73.3807832  35.1616550  53.6725438  74.1279651  35.6737947  53.3632560
  73.6499422  34.8400603  54.5329832  71.6534482  37.6575091  50.6552393
  70.7445701  37.3734123  50.7524862  71.6829566  38.0774169  49.7955699
  76.8853750  41.2681680  54.4243560  76.4316077  40.4272590  54.4808751
  76.2547716  41.9043078  54.7618340  75.8286669  32.1973666  55.6544228
  75.0909426  31.6851052  55.9854470  76.0813443  31.7574048  54.8427504
  75.3286689  43.1058177  55.3593378  75.6209663  43.6663234  54.6405744
  75.8385309  43.3986738  56.1146537  75.9298296  24.9749918  56.2485997
  76.2357173  24.1147282  55.9611912  76.6550901  25.5667538  56.0484991
  62.2222653  35.3780605  54.6367595  62.0247052  34.7849965  53.9118661
  61.6669317  35.0732815  55.3543534  70.2019376  35.2703711  56.7562188
  70.2567986  34.3177548  56.6804665  69.3910578  35.4263150  57.2403486
  71.3510570  39.1983834  47.9940471  70.9130000  38.4819693  47.5346109
  72.0921011  39.4259949  47.4325563  68.1411736  33.8880771  54.5152567
  67.3279602  34.1874941  54.9217759  68.6370730  33.4936460  55.2327049
  70.2920314  43.8838528  56.4486832  70.2496493  44.1099374  55.5195364
  71.2083013  43.6501902  56.5972633  73.7385948  34.3522595  63.3467461
  74.0935336  34.5794069  64.2061926  74.3858079  34.6840972  62.7244716
  79.4683685  37.4741031  54.0516790  79.3301583  37.6642627  53.1237979
  79.1119904  38.2360414  54.5084841  67.6325811  31.4599126  60.1313802
  68.2725190  31.3187886  59.4336765  66.8003341  31.1733640  59.7552404
  79.4953064  39.5417558  59.0628061  79.9289571  39.4492847  59.9111115
  80.2084645  39.5175059  58.4248077  68.4086115  40.7601557  56.2448794
  69.2026713  40.2651877  56.0431369  67.6977807  40.2319420  55.8816500
  73.2280959  43.1419652  60.5961162  73.2817982  43.7110589  61.3638878
  72.3595741  43.3121537  60.2315199  64.6354427  31.4299451  54.9086789
  64.8961245  32.3444785  54.7995949  65.4571600  30.9623894  55.0583401
  66.1079353  32.8437209  62.0785613  66.7802406  32.6354571  61.4298262
  65.2809139  32.6459295  61.6390845  80.3568614  39.5841259  61.5960947
  80.5504504  40.4887069  61.8420222  80.2569232  39.1248678  62.4299532
  72.0104925  29.4699150  64.0951274  71.3632840  30.1689099  64.0015750
  72.7805940  29.9035293  64.4627522  75.4183723  39.7348002  67.1701827
  75.2669229  39.5058553  66.2531911  75.4088402  40.6918603  67.1833172
  72.1869059  37.3079914  62.1548094  73.1161119  37.4591074  61.9817061
  71.7660089  37.3963935  61.2996740  70.9857391  41.3330579  59.9246631
  70.8468476  40.9649363  60.7972569  70.1971987  41.8478218  59.7530589
  71.5805543  46.4339675  51.2672168  71.7557298  45.9627719  52.0817791
  70.8938331  47.0605442  51.4953429  72.5362606  40.7112182  57.3135469
  72.2012439  40.6712952  58.2093119  72.0366552  40.0456897  56.8405879
  66.5106850  36.1179812  62.8388050  66.3726648  35.3860050  63.4399589
  67.4211773  36.0288712  62.5572238  75.4721798  38.0568216  47.5872529
  74.8550968  37.3315044  47.4905581  75.0038286  38.8177576  47.2439603
  69.1389151  35.8299771  62.3271730  69.8488769  35.1892963  62.2858348
  69.0958459  36.0812666  63.2497911  77.1275929  42.7667124  65.2478309
  77.0688475  42.0826344  64.5808892  77.5295448  43.5086114  64.7958935
  67.8518085  32.8164989  64.1467369  67.3155442  32.3655727  64.7988966
  67.2634793  32.9510898  63.4037834  66.1466628  49.5829038  58.0412028
  66.3863226  50.2147562  58.7191047  65.3035825  49.2317078  58.3277387
  77.1293337  40.7306708  63.4792289  76.2420115  40.3932630  63.6018688
  77.6991888  39.9989739  63.7161054  58.7822484  37.0630800  56.8035340
  59.4693523  36.7492530  56.2156355  58.6270612  37.9672165  56.5302592
  63.5857206  31.9520996  61.2320364  63.5015394  31.3446666  60.4970774
  62.7639912  32.4430015  61.2329860  70.6594490  45.3908161  60.4453532
  70.5864661  46.1963132  60.9572837  70.2171883  45.5900126  59.6201553
  70.4484270  44.6279931  53.9556354  69.6651791  45.1701611  54.0494578
  71.1477015  45.1453910  54.3550595  73.7580920  30.4374560  56.5990559
  74.2549619  29.6844522  56.2791629  72.9867901  30.4738877  56.0333768
  81.6110677  36.1414926  58.2408850  81.6000553  37.0239641  57.8702784
  80.7428056  35.7886476  58.0463387  73.1193173  45.2894995  62.6011691
  73.8321146  45.9242459  62.5287592  72.6283202  45.3858861  61.7851692
  74.8410700  39.1946247  54.1728982  73.9066979  39.3147710  54.0033687
  75.0187369  38.2918714  53.9088992  70.3415888  32.5791943  56.3262244
  69.9713676  32.0262983  57.0143149  70.8374981  31.9750076  55.7737244
  78.2283252  35.0363567  54.7079016  78.6943704  35.8691558  54.6339319
  78.6790752  34.5708548  55.4124275  68.1705087  43.0389438  63.4217261
  68.8714546  43.6725921  63.5746656  67.7000202  43.3804170  62.6612901
  76.2959483  41.3807388  51.7065169  76.5719327  41.2663982  52.6159043
  75.4263982  40.9824873  51.6677342  76.1999914  27.4044153  58.7469918
  75.2862994  27.6348380  58.9152125  76.6293016  27.4882598  59.5983950
  75.9706373  35.5934045  61.2469812  75.3177823  35.8409953  60.5922265
  76.3486753  34.7798184  60.9132289  72.9313547  45.6293739  55.3497982
  73.1135941  44.8115395  55.8125734  73.7546533  45.8461431  54.9122872
  73.2655712  44.5561924  52.6113031  73.7943479  44.0454378  51.9983193
  73.5283932  44.2404454  53.4758564  72.0193946  36.3353857  67.7335849
  71.3434583  36.2347986  68.4038224  72.8421580  36.1793070  68.1971846
  63.7672805  42.5725793  60.3548364  64.3526242  41.8269481  60.4876268
  63.5697643  42.8829750  61.2385028  66.6211460  45.6077040  55.3710807
  65.9521835  46.0923168  54.8874847  66.4824330  45.8546261  56.2854185
  58.3590460  35.1431393  59.0752807  58.3974559  34.6094984  59.8689925
  57.8530753  34.6166599  58.4563784  70.7616729  47.6420784  61.9693465
  71.3135037  47.8052405  62.7342550  71.1022922  48.2325222  61.2973490
  65.7381222  29.9895934  62.5715350  65.8022549  30.8510765  62.1592747
  65.6748342  29.3769935  61.8387708  65.2133495  32.0619066  66.2188384
  65.8405533  31.6796144  66.8325908  64.3561413  31.8433268  66.5844076
  75.6127603  42.4682041  67.8242119  76.1567507  43.0812000  67.3297074
  75.0314448  43.0261620  68.3409132  61.9899037  33.8695495  52.1506739
  62.2852478  32.9606174  52.0973792  61.0887073  33.8483235  51.8287741
  73.8985116  45.5902759  58.9557147  73.7736256  44.7892499  58.4468093
  74.5564207  46.0848953  58.4671117  65.5193284  31.9451492  58.1334287
  64.7979870  32.5587460  57.9941761  66.3086540  32.4809257  58.0550933
  75.9620024  43.3911780  60.5836697  75.0150360  43.2717131  60.5115024
  76.3102798  42.5034278  60.6662959  68.3219598  29.2805919  64.4074939
  68.8454000  29.5268215  65.1701248  68.1031931  30.1125953  63.9878076
  72.9666458  43.1864496  56.7841049  72.8191420  42.2581203  56.9648619
  73.7919951  43.2084587  56.2998125  76.5700580  44.0093055  57.8705922
  77.4947127  43.8035916  57.7330373  76.4015883  43.7609456  58.7795264
  69.5272143  30.2219614  62.0924610  69.1868963  29.4227427  62.4945289
  68.8211149  30.5221324  61.5201443  70.1788615  27.3068926  60.5451933
  71.0014684  26.8329404  60.4230823  70.4226678  28.0859410  61.0450619
  72.9627972  31.0402333  51.7773167  73.1791586  31.9226971  51.4761995
  72.4822039  30.6488547  51.0478809  67.7027193  33.9988047  58.3543911
  67.5571774  34.3128350  59.2468193  67.2252397  34.6172947  57.8014810
  69.5623576  30.9890595  58.4024801  69.5485145  30.0931688  58.0657099
  70.2796004  30.9961258  59.0363087  71.4149707  31.4227935  60.4477928
  71.1567485  32.3445006  60.4462259  70.8834747  31.0258369  61.1378392
  76.3595896  44.5278722  53.2268014  76.5332773  43.9625144  52.4741866
  76.8524787  45.3279617  53.0447504  62.1772856  36.5393391  61.2931572
  61.6326324  37.3153199  61.4251847  63.0552205  36.8864196  61.1350694
  68.9660472  29.8704975  53.6712371  69.0876383  28.9421621  53.8703258
  68.6762515  29.8843661  52.7590686  71.8351663  27.5559885  56.8079091
  71.8573359  27.6199218  55.8531070  72.2519722  26.7164394  57.0019597
  82.2135287  37.2915145  54.8458313  82.6566433  36.5422470  54.4477437
  81.3361797  37.2825281  54.4632045  77.3471068  43.8445486  50.3264912
  78.0421973  44.4652179  50.5452227  77.6894218  42.9940838  50.6017290
  62.9638877  35.6663287  64.1861729  62.2220614  35.8145923  64.7726360
  62.6431622  35.9271553  63.3228479  79.2462491  41.2945192  51.8552243
  79.7713816  41.6332465  51.1301563  79.1584844  40.3592207  51.6715377
  70.9082540  45.2079266  63.9842119  71.2169667  44.9628412  64.8564819
  71.7058022  45.4125904  63.4960990  70.9303152  47.3617175  56.2147496
  70.4908142  46.8693554  56.9080353  71.6811269  46.8190143  55.9739571
  63.4095491  43.5528716  56.2172124  64.2353511  43.2532488  55.8370767
  63.0589543  42.7836338  56.6661913  68.3777024  42.9055184  58.2869798
  67.7557034  42.2425889  57.9872025  69.0481891  42.9316316  57.6043445
  61.6104096  41.4715043  57.1761058  60.7736005  41.0437217  56.9945059
  61.5827742  41.6647486  58.1131849  68.4501552  31.3836972  67.8802304
  68.4989707  32.2599095  67.4980073  68.9924066  30.8414365  67.3073947
  78.9356398  41.9278096  67.1603441  78.1451941  41.9102234  66.6207940
  78.6989752  42.4666389  67.9152477  79.0554273  38.7770562  64.4736169
  79.1052277  38.6120569  65.4151692  78.9468196  37.9097821  64.0834050
  67.9390531  41.4559108  51.7628258  68.0878652  42.1394572  51.1094931
  68.7456975  41.4364198  52.2777714  76.3458035  34.7601490  65.7895476
  77.2467898  34.6207955  65.4979474  76.4206009  34.9255945  66.7293653
  70.6800840  32.1368345  64.6348662  69.8104150  32.4301911  64.3631251
  70.9160321  32.7208790  65.3555926  80.5572469  41.1967503  64.7178191
  80.2657278  41.5597484  65.5541652  79.9444601  40.4834512  64.5391523
  81.7568152  38.7620383  57.2380761  82.5915043  39.2010187  57.4018321
  81.8927280  38.2859036  56.4189007  78.8059658  36.3200118  63.1858249
  79.2813779  36.5127764  62.3777100  77.8825223  36.3759304  62.9401632
  65.6943164  37.4824285  52.7689327  65.4489206  36.5786615  52.9669537
  65.8639079  37.4841436  51.8268805  73.3839874  28.3547962  62.1514083
  73.9021818  29.0908989  61.8260571  73.0295007  28.6611955  62.9860842
  73.6352468  24.7748244  57.6714979  73.9154222  24.1071433  58.2975406
  74.4203075  24.9677340  57.1589643  71.4385937  43.9507238  49.2340005
  70.8659904  44.5697425  48.7810477  72.0118730  44.5006600  49.7679927
  77.5061327  33.1965878  61.4186554  78.4578750  33.2963976  61.4398778
  77.3364777  32.4044147  61.9284639  75.5275706  30.2821461  61.6045955
  74.9325638  30.5626474  60.9092444  75.2425403  30.7715362  62.3762696
  74.6583197  44.2344388  50.3648588  75.5913870  44.1689950  50.5681463
  74.5706409  45.0700655  49.9063120  77.2871213  43.5510259  47.3252535
  77.2084845  43.2170122  48.2188293  78.1080880  44.0432026  47.3244008
  79.9849404  36.4171998  60.5328854  79.9525725  35.4787999  60.7188538
  80.5950028  36.4956035  59.7994679  80.1343893  33.2083041  60.5787137
  79.6182942  32.4241498  60.3917066  81.0183841  32.8801758  60.7433657
  77.7954620  26.9524057  56.5382950  77.5979441  26.6439145  57.4226282
  78.4054325  27.6785696  56.6680880  85.8025954  37.4788005  59.6734891
  86.5329343  37.2173293  60.2342594  85.1932900  36.7416727  59.7136959
  83.8841251  35.6195867  60.2709342  83.1574415  35.4851832  59.6625834
  83.4688538  35.9272696  61.0766060  71.7071428  39.3385797  68.0356715
  72.6274437  39.5164396  68.2296761  71.6721011  38.3941842  67.8836414
  60.9253593  34.5324391  56.9609990  60.6056377  33.6789699  56.6684364
  60.3787021  34.7472969  57.7167957  64.7033500  37.2486832  60.6779496
  64.9219510  38.1803939  60.6967530  65.1159274  36.8894806  61.4634300
  71.6237718  27.7554917  52.6655184  70.8138446  27.4102002  53.0410431
  72.3122135  27.4462461  53.2542796  73.5528266  26.8332964  54.2879481
  74.1059305  27.2528417  54.9469504  73.7898353  25.9068712  54.3302437
  69.5761366  32.8220037  70.0682245  69.4758093  33.7714394  69.9994336
  69.3582908  32.4938276  69.1958315  60.7941853  38.1527302  58.9303111
  60.1005324  37.7381255  58.4173066  61.5414844  38.1947839  58.3336530
  76.9307074  28.9433489  53.7958145  76.3505743  29.6018293  53.4136198
  76.6643006  28.1210833  53.3845563  75.3810640  28.3438547  55.9979466
  75.8810418  28.4555081  55.1893785  76.0246248  28.0399599  56.6380274
  69.4392636  36.2517176  68.8847307  68.9559717  37.0517536  69.0911196
  69.5253575  36.2625121  67.9314751  62.7078595  38.0845556  56.8069126
  62.6849283  38.1833243  55.8551009  63.0179232  38.9310707  57.1286292
  65.3665973  40.1421711  60.9215740  66.3209227  40.1105653  60.8545672
  65.1678497  39.6812335  61.7365966  65.9565355  38.7122827  63.4886538
  66.7758244  39.2066906  63.5121375  66.2302163  37.7954795  63.4604106
  75.7131952  31.1033579  52.8514494  74.8257807  31.3883230  52.6334688
  76.1285941  30.9427343  52.0041771  79.0646488  31.1280100  56.5668833
  79.8406878  31.6176553  56.8393450  78.3394622  31.5538154  57.0240702
  81.5019046  31.8407719  57.6242774  82.0963537  31.6003455  56.9136082
  81.5745630  31.1214850  58.2516310  63.7216202  45.6841330  57.9385938
  63.5870670  44.9241731  57.3723936  63.3048264  46.4082230  57.4714727
  74.8575165  40.8678254  46.9462514  75.5611015  41.0728256  47.5620169
  74.1337814  41.4355016  47.2111597  75.6872975  36.6188115  53.0664784
  75.6308177  37.0756667  52.2272416  76.2401318  35.8578800  52.8887627
  79.4977781  32.4077847  53.8914903  79.2414715  32.0074483  54.7223111
  78.8730649  33.1221641  53.7665042  83.8090119  35.1473920  56.3986195
  83.2489677  35.2167110  57.1717757  83.2033622  34.9714905  55.6785691
  66.8785328  46.5810647  58.1504381  66.7617712  47.5256080  58.0483071
  66.0577774  46.2784209  58.5390180  76.7661862  41.3060783  48.9960974
  77.6007466  40.8741982  48.8138448  76.6046205  41.1342797  49.9237868
  76.4207755  37.8092896  50.3617313  76.3656558  37.6437168  49.4205757
  75.7953810  38.5168929  50.5179503  61.2100270  33.0460961  64.1878735
  61.8559133  32.5359915  64.6765960  61.0017421  33.7829642  64.7622160
  73.7353662  40.1141808  69.6870876  74.6044821  40.2882461  69.3257511
  73.2560413  40.9336225  69.5646605  69.7303880  27.3101005  49.9402631
  69.7182550  28.2542845  50.0970902  70.6227302  27.1271151  49.6462093
  67.9039842  47.2338909  61.3660309  68.8067089  47.2662520  61.6826804
  67.6777212  46.3039360  61.3806645  69.6593444  45.9869896  58.0270388
  68.7089075  45.9871757  57.9134760  69.9625930  45.2402630  57.5106423
  73.5456000  23.9043782  54.1948568  72.7788395  23.3502269  54.3405251
  73.9566704  23.9765651  55.0562720  65.5497761  30.1928578  68.2853749
  66.4129222  29.8365383  68.4957074  64.9763171  29.8542473  68.9729154
  85.3946138  51.8230434  59.0916150  86.0324547  51.7037182  58.3879491
  85.2766980  52.7711278  59.1504103  82.2035844  51.7757862  59.0277675
  81.8654355  51.6598927  58.1398210  83.0725612  51.3749027  59.0078681
  78.0622659  53.6293339  55.0174566  77.4987525  53.5383276  54.2490854
  77.9475055  52.8093243  55.4977059  82.6855627  52.9292714  64.9863881
  82.6744268  52.5345512  64.1144384  82.8476266  52.1958787  65.5797652
  75.6087091  55.1244530  57.8558787  76.4008383  54.7835355  57.4405086
  75.8483742  55.2339505  58.7760940  83.6422218  57.2964306  50.3289031
  82.9910198  57.8818387  49.9423045  84.4366581  57.8270501  50.3884068
  77.5677845  54.3853444  50.7276165  78.3408721  53.8382431  50.5889041
  77.9203244  55.2497693  50.9390627  79.4062888  55.7129826  63.9343065
  79.1152754  56.6175457  63.8189731  80.0419872  55.7546354  64.6487134
  80.3319095  53.0906674  60.5244424  80.9282667  52.8662697  59.8101387
  80.3894066  52.3491420  61.1269872  79.9044123  50.5446110  48.3594615
  80.1569644  50.0227631  47.5978078  78.9668682  50.3812255  48.4621299
  84.9487406  49.5481888  56.1669358  85.7350495  49.1301311  55.8159775
  85.2126110  50.4527980  56.3351007  85.1197483  54.9854738  50.8658015
  84.4843316  55.0589365  51.5778920  84.7894890  55.5748337  50.1877095
  79.6240412  52.4474216  50.5618990  79.5076670  51.7719119  51.2300075
  79.7342672  51.9606590  49.7451143  81.9671953  51.9084363  54.2665679
  81.6030160  51.3814984  54.9778601  82.8239069  51.5182832  54.0932165
  87.8721253  43.1978695  61.5296946  87.5404578  44.0674106  61.3058161
  87.2766867  42.8814979  62.2090976  81.6077440  46.9374262  49.2627028
  81.7751842  47.8054499  49.6297499  81.4174609  47.1001544  48.3388317
  84.3652773  55.3991241  60.9292858  84.0653496  56.3016280  60.8208666
  84.0203833  55.1323425  61.7814011  77.8165254  51.8505038  56.9629563
  76.8915751  51.7181252  57.1707255  78.0649668  52.6299257  57.4599505
  87.7649917  47.9173782  58.6090296  86.8566794  47.8489190  58.3149057
  87.7137513  48.3945727  59.4372121  81.5866661  49.3931920  50.2473695
  81.4666286  49.8388971  51.0859175  80.8919249  49.7417238  49.6887233
  75.1774066  51.4938312  57.7973352  75.3066447  51.7472791  58.7112764
  74.4971517  52.0866020  57.4778007  79.3473553  62.1635562  53.8963826
  79.2697582  63.1143387  53.9752307  78.7435196  61.8181434  54.5538752
  81.8390783  49.3363427  66.5525193  81.0624117  49.8957347  66.5428058
  82.4781346  49.8220210  67.0740063  87.2851727  49.8653393  51.0754029
  88.1969583  50.0980780  50.9001726  86.7761374  50.4490437  50.5129107
  80.0937155  52.1448881  66.1143160  80.8351839  52.6833925  65.8377984
  79.3874140  52.7715169  66.2714712  85.5692495  54.2878021  64.7115321
  85.9775851  53.8460432  63.9669954  84.8469756  53.7130649  64.9649514
  81.9223565  49.2250628  62.0848878  82.7684760  49.6490041  62.2283527
  81.8622202  48.5684252  62.7787441  85.8921309  54.8479212  58.4667610
  85.2630172  55.0124926  57.7643678  85.5046971  55.2620821  59.2378574
  85.0723010  46.8854996  63.7430052  84.8283942  47.6397057  63.2064328
  85.3482940  47.2640344  64.5777299  87.0261473  53.4293609  62.4207318
  87.2378368  54.0725368  61.7441699  86.9791221  52.5955925  61.9529248
  84.6287702  46.0411429  59.3243890  83.7672181  46.3392683  59.6160627
  84.6550136  46.2581828  58.3924922  81.4449271  54.5853620  55.7317695
  81.9087617  54.8641323  54.9422318  81.1806069  53.6837064  55.5490786
  78.3373352  54.1325101  58.6697459  78.9074709  54.5612370  58.0314943
  78.9281464  53.8507686  59.3681644  80.3818157  50.7076772  52.5407261
  81.0842200  51.1597816  53.0081187  80.0498786  50.0660591  53.1687154
  78.8298519  49.2988529  66.9158470  78.1997179  49.9804810  67.1493867
  78.7234607  49.1871610  65.9711608  74.1243491  48.9660325  57.8424394
  73.3342545  49.2217853  57.3664505  74.6154738  49.7808663  57.9476435
  76.0758236  49.3304904  54.8007871  75.2789400  49.4423598  55.3191366
  75.8483829  49.6691556  53.9348761  81.9063904  55.8549607  62.7490385
  81.9708337  56.3170014  63.5848557  81.1974828  55.2246972  62.8772695
  72.4081194  49.2190815  60.2739385  72.6589232  50.1037825  60.5396961
  72.9440742  49.0395417  59.5014477  81.6211922  57.5217715  52.6169366
  81.4857596  58.3669250  53.0454214  82.1621734  57.7236992  51.8535300
  78.1079261  43.6009295  69.2783721  77.7146207  43.0475493  69.9531365
  78.9245402  43.9119873  69.6690238  75.0741319  55.0393153  53.1897291
  75.5865840  55.8336403  53.3402856  75.7264032  54.3419443  53.1230892
  76.8836204  58.1558909  55.2720044  77.0602832  59.0776874  55.0841028
  77.6793037  57.8417328  55.7014424  81.0247222  45.0167174  66.8703978
  81.7656936  45.6174327  66.7908440  81.2565145  44.2744811  66.3122020
  76.1688560  50.2023541  65.1482207  76.0542075  49.3008798  65.4489306
  75.3133078  50.4487238  64.7967024  83.2480398  58.1441281  66.7469708
  82.8044252  57.3577660  66.4290612  83.9097612  58.3320432  66.0813599
  78.0067519  59.6737083  61.2730386  78.5574944  59.5454146  60.5007380
  77.1678995  59.9731972  60.9225279  85.3461636  58.4244081  64.7751109
  85.3280112  59.2452962  64.2831378  86.2681556  58.2998156  65.0001250
  81.8034690  55.9388211  65.6174617  82.3363027  55.1776499  65.3873925
  81.2748771  55.6461862  66.3598772  84.9704385  41.0448277  61.1468259
  84.6268655  41.9349918  61.0707370  85.3383348  40.8549934  60.2837844
  73.0390236  53.3681807  53.9656861  73.8765458  53.7778815  53.7490569
  73.2168504  52.4281249  53.9357055  84.9354668  51.0356888  49.6540694
  84.4201291  51.8061492  49.8929082  84.6631976  50.3622024  50.2773756
  82.5201779  45.8806588  54.7125933  81.6643375  45.4913439  54.5331571
  82.9328731  45.9598549  53.8525718  84.0500926  43.4152932  59.1117492
  83.5465721  43.3783067  58.2985298  84.3431533  44.3245674  59.1714149
  80.2943812  43.4991661  58.1183674  81.1596808  43.3034470  57.7589564
  80.3621320  43.2702013  59.0453031  84.7240971  48.9083980  51.4800475
  84.4191107  49.2230129  52.3310619  85.6771413  48.9865400  51.5227808
  83.1687403  55.0674203  53.1293429  82.6408765  54.3326963  52.8166667
  82.6674906  55.8448879  52.8833398  77.9006131  45.7293869  55.4900041
  78.4749883  45.5069051  54.7573234  78.4877113  45.7982564  56.2428642
  86.9585708  51.6167596  56.2964418  87.4717590  52.2497588  56.7986127
  87.6086932  51.0168792  55.9307778  78.2275718  47.7598330  49.5095926
  77.3913030  48.0973017  49.8305201  78.0880487  47.6247310  48.5723063
  80.2028798  42.6035118  54.2175110  79.5493211  42.2884135  53.5931725
  80.1609272  41.9810859  54.9434933  81.3140003  52.8854413  46.1328402
  80.4067065  52.6543667  46.3319551  81.8111035  52.0892033  46.3202384
  84.2208082  61.5951921  49.0525089  83.5469781  61.8983617  49.6610046
  84.6073904  62.3981001  48.7030546  83.4366539  49.0917052  58.5422758
  82.5189100  49.3131999  58.3844446  83.8526682  49.1663362  57.6834465
  84.2201586  50.4908468  53.6725438  84.9673405  51.0029865  53.3632560
  84.4893176  50.1692520  54.5329832  82.4928237  52.9867008  50.6552393
  81.5839456  52.7026041  50.7524862  82.5223320  53.4066087  49.7955699
  87.7247504  56.5973598  54.4243560  87.2709831  55.7564508  54.4808751
  87.0941471  57.2334996  54.7618340  86.6680424  47.5265584  55.6544228
  85.9303180  47.0142970  55.9854470  86.9207197  47.0865965  54.8427504
  86.1680443  58.4350094  55.3593378  86.4603418  58.9955152  54.6405744
  86.6779064  58.7278655  56.1146537  86.7692051  40.3041836  56.2485997
  87.0750928  39.4439199  55.9611912  87.4944656  40.8959456  56.0484991
  73.0616407  50.7072522  54.6367595  72.8640807  50.1141883  53.9118661
  72.5063071  50.4024733  55.3543534  81.0413131  50.5995629  56.7562188
  81.0961740  49.6469465  56.6804665  80.2304333  50.7555068  57.2403486
  82.1904324  54.5275752  47.9940471  81.7523754  53.8111611  47.5346109
  82.9314765  54.7551867  47.4325563  78.9805491  49.2172689  54.5152567
  78.1673356  49.5166859  54.9217759  79.4764485  48.8228377  55.2327049
  81.1314068  59.2130446  56.4486832  81.0890247  59.4391292  55.5195364
  82.0476767  58.9793820  56.5972633  84.5779702  49.6814513  63.3467461
  84.9329090  49.9085986  64.2061926  85.2251834  50.0132890  62.7244716
  78.4719565  46.7891044  60.1313802  79.1118945  46.6479803  59.4336765
  77.6397096  46.5025558  59.7552404  79.2479869  56.0893475  56.2448794
  80.0420468  55.5943795  56.0431369  78.5371562  55.5611338  55.8816500
  84.0674714  58.4711570  60.5961162  84.1211736  59.0402506  61.3638878
  83.1989495  58.6413455  60.2315199  75.5562633  50.2336556  52.3208547
  74.6260221  50.1721012  52.5378509  75.6520105  49.7112509  51.5245188
  75.4748182  46.7591369  54.9086789  75.7354999  47.6736702  54.7995949
  76.2965354  46.2915812  55.0583401  76.9473107  48.1729126  62.0785613
  77.6196161  47.9646488  61.4298262  76.1202894  47.9751212  61.6390845
  82.8498679  44.7991067  64.0951274  82.2026594  45.4981017  64.0015750
  83.6199695  45.2327211  64.4627522  86.2577477  55.0639919  67.1701827
  86.1062983  54.8350471  66.2531911  86.2482157  56.0210521  67.1833172
  83.0262813  52.6371832  62.1548094  83.9554873  52.7882992  61.9817061
  82.6053843  52.7255853  61.2996740  81.8251145  56.6622497  59.9246631
  81.6862231  56.2941281  60.7972569  81.0365741  57.1770136  59.7530589
  82.4199297  61.7631593  51.2672168  82.5951053  61.2919636  52.0817791
  81.7332085  62.3897359  51.4953429  83.3756360  56.0404099  57.3135469
  83.0406193  56.0004869  58.2093119  82.8760306  55.3748815  56.8405879
  77.3500604  51.4471729  62.8388050  77.2120402  50.7151968  63.4399589
  78.2605528  51.3580629  62.5572238  86.3115552  53.3860134  47.5872529
  85.6944723  52.6606962  47.4905581  85.8432041  54.1469494  47.2439603
  79.9782905  51.1591689  62.3271730  80.6882524  50.5184881  62.2858348
  79.9352213  51.4104583  63.2497911  87.9669684  58.0959042  65.2478309
  87.9082230  57.4118262  64.5808892  88.3689202  58.8378032  64.7958935
  78.6911839  48.1456906  64.1467369  78.1549196  47.6947645  64.7988966
  78.1028547  48.2802815  63.4037834  76.9860383  64.9120956  58.0412028
  77.2256981  65.5439480  58.7191047  76.1429579  64.5608996  58.3277387
  78.1014098  47.6045558  46.7093833  77.2243564  47.4834359  46.3456080
  78.5771851  46.8131636  46.4572722  69.6216238  52.3922718  56.8035340
  70.3087278  52.0784448  56.2156355  69.4664367  53.2964082  56.5302592
  74.4250960  47.2812914  61.2320364  74.3409149  46.6738584  60.4970774
  73.6033667  47.7721932  61.2329860  81.4988244  60.7200078  60.4453532
  81.4258416  61.5255050  60.9572837  81.0565637  60.9192044  59.6201553
  81.2878024  59.9571848  53.9556354  80.5045546  60.4993528  54.0494578
  81.9870769  60.4745828  54.3550595  84.5974674  45.7666478  56.5990559
  85.0943374  45.0136440  56.2791629  83.8261656  45.8030794  56.0333768
  83.9586928  60.6186912  62.6011691  84.6714900  61.2534377  62.5287592
  83.4676957  60.7150778  61.7851692  85.6804455  54.5238165  54.1728982
  84.7460734  54.6439627  54.0033687  85.8581123  53.6210632  53.9088992
  81.1809643  47.9083861  56.3262244  80.8107430  47.3554901  57.0143149
  81.6768735  47.3041994  55.7737244  79.0098841  58.3681356  63.4217261
  79.7108301  59.0017839  63.5746656  78.5393956  58.7096087  62.6612901
  87.1353237  56.7099305  51.7065169  87.4113081  56.5955900  52.6159043
  86.2657736  56.3116790  51.6677342  87.0393669  42.7336071  58.7469918
  86.1256749  42.9640298  58.9152125  87.4686770  42.8174515  59.5983950
  86.8100127  50.9225963  61.2469812  86.1571578  51.1701871  60.5922265
  87.1880507  50.1090101  60.9132289  83.7707301  60.9585656  55.3497982
  83.9529696  60.1407312  55.8125734  84.5940287  61.1753349  54.9122872
  84.1049467  59.8853841  52.6113031  84.6337233  59.3746296  51.9983193
  84.3677686  59.5696372  53.4758564  82.8587700  51.6645774  67.7335849
  82.1828337  51.5639904  68.4038224  83.6815334  51.5084988  68.1971846
  74.6066559  57.9017711  60.3548364  75.1919996  57.1561399  60.4876268
  74.4091398  58.2121667  61.2385028  77.4605215  60.9368958  55.3710807
  76.7915590  61.4215086  54.8874847  77.3218084  61.1838179  56.2854185
  69.1984214  50.4723311  59.0752807  69.2368314  49.9386902  59.8689925
  68.6924507  49.9458516  58.4563784  81.6010483  62.9712702  61.9693465
  82.1528791  63.1344323  62.7342550  81.9416677  63.5617139  61.2973490
  76.5774977  45.3187851  62.5715350  76.6416303  46.1802682  62.1592747
  76.5142097  44.7061853  61.8387708  76.0527249  47.3910984  66.2188384
  76.6799288  47.0088061  66.8325908  75.1955168  47.1725186  66.5844076
  86.4521358  57.7973959  67.8242119  86.9961262  58.4103917  67.3297074
  85.8708202  58.3553538  68.3409132  72.8292792  49.1987413  52.1506739
  73.1246233  48.2898092  52.0973792  71.9280828  49.1775153  51.8287741
  84.7378871  60.9194677  58.9557147  84.6130010  60.1184417  58.4468093
  85.3957962  61.4140871  58.4671117  76.3587039  47.2743410  58.1334287
  75.6373625  47.8879377  57.9941761  77.1480295  47.8101175  58.0550933
  86.8013779  58.7203697  60.5836697  85.8544114  58.6009048  60.5115024
  87.1496552  57.8326195  60.6662959  79.1613352  44.6097836  64.4074939
  79.6847754  44.8560133  65.1701248  78.9425686  45.4417871  63.9878076
  74.5580633  46.8801511  52.2746064  74.2293340  45.9998890  52.0921170
  74.9120004  46.8249179  53.1622453  83.8060212  58.5156413  56.7841049
  83.6585175  57.5873121  56.9648619  84.6313706  58.5376504  56.2998125
  77.6722457  47.1674481  52.6421542  78.0118529  47.6960402  51.9200150
  78.1194577  47.5054887  53.4180108  87.4094334  59.3384972  57.8705922
  88.3340882  59.1327834  57.7330373  87.2409637  59.0901373  58.7795264
  80.3665897  45.5511531  62.0924610  80.0262718  44.7519344  62.4945289
  79.6604904  45.8513242  61.5201443  81.0182369  42.6360844  60.5451933
  81.8408439  42.1621322  60.4230823  81.2620433  43.4151327  61.0450619
  79.6590604  45.6649102  50.8414834  80.3798966  46.0430355  50.3378551
  79.0355908  46.3837979  50.9449812  83.8021727  46.3694251  51.7773167
  84.0185341  47.2518889  51.4761995  83.3215794  45.9780465  51.0478809
  78.5420948  49.3279964  58.3543911  78.3965529  49.6420267  59.2468193
  78.0646152  49.9464865  57.8014810  80.4017331  46.3182512  58.4024801
  80.3878900  45.4223606  58.0657099  81.1189759  46.3253176  59.0363087
  82.2543462  46.7519853  60.4477928  81.9961239  47.6736923  60.4462259
  81.7228502  46.3550287  61.1378392  87.1989650  59.8570640  53.2268014
  87.3726528  59.2917062  52.4741866  87.6918542  60.6571535  53.0447504
  73.0166610  51.8685309  61.2931572  72.4720078  52.6445117  61.4251847
  73.8945960  52.2156113  61.1350694  79.8054227  45.1996893  53.6712371
  79.9270138  44.2713539  53.8703258  79.5156269  45.2135579  52.7590686
  82.6745417  42.8851803  56.8079091  82.6967114  42.9491136  55.8531070
  83.0913476  42.0456312  57.0019597  73.8032632  50.9955205  64.1861729
  73.0614368  51.1437840  64.7726360  73.4825376  51.2563471  63.3228479
  81.7476295  60.5371183  63.9842119  82.0563421  60.2920330  64.8564819
  82.5451777  60.7417822  63.4960990  81.7696907  62.6909093  56.2147496
  81.3301897  62.1985472  56.9080353  82.5205024  62.1482061  55.9739571
  74.2489246  58.8820634  56.2172124  75.0747266  58.5824406  55.8370767
  73.8983298  58.1128256  56.6661913  79.2170779  58.2347102  58.2869798
  78.5950788  57.5717807  57.9872025  79.8875646  58.2608234  57.6043445
  72.4497851  56.8006960  57.1761058  71.6129759  56.3729135  56.9945059
  72.4221496  56.9939404  58.1131849  79.2895306  46.7128890  67.8802304
  79.3383462  47.5891013  67.4980073  79.8317821  46.1706283  67.3073947
  78.7784286  56.7851025  51.7628258  78.9272406  57.4686490  51.1094931
  79.5850729  56.7656115  52.2777714  87.1851789  50.0893408  65.7895476
  88.0861652  49.9499872  65.4979474  87.2599764  50.2547862  66.7293653
  81.5194595  47.4660262  64.6348662  80.6497904  47.7593828  64.3631251
  81.7554075  48.0500707  65.3555926  76.5336919  52.8116203  52.7689327
  76.2882961  51.9078533  52.9669537  76.7032833  52.8133353  51.8268805
  84.2233629  43.6839879  62.1514083  84.7415572  44.4200906  61.8260571
  83.8688761  43.9903873  62.9860842  75.8032566  48.5444561  50.2675488
  75.1101811  48.6188915  49.6115524  75.5584318  47.7804904  50.7897005
  84.4746223  40.1040162  57.6714979  84.7547977  39.4363351  58.2975406
  85.2596830  40.2969257  57.1589643  82.2779691  59.2799156  49.2340005
  81.7053658  59.8989343  48.7810477  82.8512485  59.8298517  49.7679927
  86.3669461  45.6113379  61.6045955  85.7719393  45.8918392  60.9092444
  86.0819157  46.1007280  62.3762696  85.4976951  59.5636306  50.3648588
  86.4307624  59.4981868  50.5681463  85.4100164  60.3992573  49.9063120
  82.6626490  50.6159969  46.5756058  83.6085594  50.4866177  46.6444476
  82.2840735  49.8774630  47.0525486  82.5465182  54.6677715  68.0356715
  83.4668192  54.8456314  68.2296761  82.5114765  53.7233760  67.8836414
  80.8469407  48.5409945  46.5110943  79.9400862  48.2443058  46.5873657
  81.1245388  48.2439763  45.6445229  71.7647347  49.8616308  56.9609990
  71.4450132  49.0081616  56.6684364  71.2180775  50.0764886  57.7167957
  75.5427255  52.5778749  60.6779496  75.7613265  53.5095857  60.6967530
  75.9553029  52.2186724  61.4634300  82.4631473  43.0846835  52.6655184
  81.6532201  42.7393920  53.0410431  83.1515890  42.7754378  53.2542796
  84.3922021  42.1624881  54.2879481  84.9453060  42.5820335  54.9469504
  84.6292107  41.2360630  54.3302437  80.4155120  48.1511955  70.0682245
  80.3151847  49.1006312  69.9994336  80.1976662  47.8230194  69.1958315
  79.6168192  45.3996880  46.6522922  80.4787356  45.7251778  46.9118740
  79.8018536  44.6128376  46.1395988  71.6335607  53.4819220  58.9303111
  70.9399079  53.0673173  58.4173066  72.3808598  53.5239756  58.3336530
  87.7700828  44.2725407  53.7958145  87.1899497  44.9310211  53.4136198
  87.5036761  43.4502751  53.3845563  86.2204394  43.6730464  55.9979466
  86.7204173  43.7846999  55.1893785  86.8640002  43.3691517  56.6380274
  80.2786390  51.5809094  68.8847307  79.7953472  52.3809454  69.0911196
  80.3647329  51.5917039  67.9314751  73.5472350  53.4137474  56.8069126
  73.5243038  53.5125161  55.8551009  73.8572986  54.2602624  57.1286292
  76.2059728  55.4713629  60.9215740  77.1602981  55.4397571  60.8545672
  76.0072251  55.0104252  61.7365966  76.7959110  54.0414745  63.4886538
  77.6151999  54.5358823  63.5121375  77.0695918  53.1246713  63.4604106
  86.5525706  46.4325497  52.8514494  85.6651561  46.7175148  52.6334688
  86.9679695  46.2719260  52.0041771  74.5609956  61.0133248  57.9385938
  74.4264424  60.2533649  57.3723936  74.1442019  61.7374148  57.4714727
  85.6968919  56.1970172  46.9462514  86.4004770  56.4020174  47.5620169
  84.9731568  56.7646934  47.2111597  86.5266730  51.9480033  53.0664784
  86.4701931  52.4048584  52.2272416  87.0795072  51.1870717  52.8887627
  77.7179082  61.9102565  58.1504381  77.6011467  62.8547998  58.0483071
  76.8971529  61.6076127  58.5390180  87.6055617  56.6352701  48.9960974
  88.4401221  56.2033899  48.8138448  87.4439960  56.4634715  49.9237868
  87.2601509  53.1384814  50.3617313  87.2050313  52.9729086  49.4205757
  86.6347564  53.8460847  50.5179503  72.0494024  48.3752879  64.1878735
  72.6952888  47.8651832  64.6765960  71.8411175  49.1121560  64.7622160
  84.5747416  55.4433726  69.6870876  85.4438576  55.6174378  69.3257511
  84.0954168  56.2628143  69.5646605  80.5697635  42.6392923  49.9402631
  80.5576304  43.5834763  50.0970902  81.4621056  42.4563069  49.6462093
  78.7433596  62.5630827  61.3660309  79.6460843  62.5954437  61.6826804
  78.5170967  61.6331278  61.3806645  80.4987199  61.3161814  58.0270388
  79.5482830  61.3163675  57.9134760  80.8019685  60.5694548  57.5106423
  84.3849754  39.2335700  54.1948568  83.6182150  38.6794186  54.3405251
  84.7960459  39.3057569  55.0562720  76.3891515  45.5220496  68.2853749
  77.2522977  45.1657300  68.4957074  75.8156926  45.1834390  68.9729154
  86.4480846  70.4536448  57.8558787  87.2402138  70.1127273  57.4405086
  86.6877496  70.5631423  58.7760940  86.0167820  66.8230229  57.7973352
  86.1460201  67.0764708  58.7112764  85.3365271  67.4157937  57.4778007
  84.9637246  64.2952242  57.8424394  84.1736300  64.5509771  57.3664505
  85.4548493  65.1100580  57.9476435  86.9151991  64.6596822  54.8007871
  86.1183154  64.7715516  55.3191366  86.6877583  64.9983474  53.9348761
  83.2474949  64.5482733  60.2739385  83.4982987  65.4329743  60.5396961
  83.7834497  64.3687334  59.5014477  85.9135074  70.3685070  53.1897291
  86.4259594  71.1628321  53.3402856  86.5657786  69.6711361  53.1230892
  87.0082315  65.5315459  65.1482207  86.8935830  64.6300716  65.4489306
  86.1526833  65.7779155  64.7967024  83.8783990  68.6973725  53.9656861
  84.7159212  69.1070733  53.7490569  84.0562258  67.7573167  53.9357055
  83.9010162  66.0364440  54.6367595  83.7034561  65.4433801  53.9118661
  83.3456826  65.7316650  55.3543534  86.3956387  65.5628474  52.3208547
  85.4653975  65.5012929  52.5378509  86.4913859  65.0404427  51.5245188
  86.3141936  62.0883287  54.9086789  86.5748754  63.0028620  54.7995949
  87.1359109  61.6207729  55.0583401  87.7866862  63.5021044  62.0785613
  88.4589915  63.2938406  61.4298262  86.9596648  63.3043130  61.6390845
  80.4609993  67.7214635  56.8035340  81.1481032  67.4076365  56.2156355
  80.3058121  68.6256000  56.5302592  85.2644715  62.6104832  61.2320364
  85.1802903  62.0030501  60.4970774  84.4427421  63.1013850  61.2329860
  85.4460314  73.2309628  60.3548364  86.0313751  72.4853316  60.4876268
  85.2485152  73.5413585  61.2385028  80.0377969  65.8015229  59.0752807
  80.0762068  65.2678819  59.8689925  79.5318262  65.2750434  58.4563784
  87.4168731  60.6479769  62.5715350  87.4810058  61.5094600  62.1592747
  87.3535851  60.0353771  61.8387708  86.8921004  62.7202902  66.2188384
  87.5193042  62.3379979  66.8325908  86.0348922  62.5017104  66.5844076
  83.6686546  64.5279331  52.1506739  83.9639987  63.6190009  52.0973792
  82.7674582  64.5067070  51.8287741  87.1980793  62.6035327  58.1334287
  86.4767379  63.2171295  57.9941761  87.9874049  63.1393092  58.0550933
  85.3974388  62.2093428  52.2746064  85.0687094  61.3290807  52.0921170
  85.7513759  62.1541097  53.1622453  83.8560365  67.1977226  61.2931572
  83.3113833  67.9737034  61.4251847  84.7339714  67.5448031  61.1350694
  84.6426386  66.3247123  64.1861729  83.9008123  66.4729758  64.7726360
  84.3219131  66.5855388  63.3228479  85.0883000  74.2112551  56.2172124
  85.9141020  73.9116323  55.8370767  84.7377052  73.4420174  56.6661913
  83.2891605  72.1298878  57.1761058  82.4523514  71.7021052  56.9945059
  83.2615251  72.3231321  58.1131849  87.3730673  68.1408121  52.7689327
  87.1276715  67.2370451  52.9669537  87.5426588  68.1425271  51.8268805
  86.6426321  63.8736478  50.2675488  85.9495566  63.9480833  49.6115524
  86.3978073  63.1096822  50.7897005  82.6041102  65.1908226  56.9609990
  82.2843886  64.3373534  56.6684364  82.0574530  65.4056804  57.7167957
  86.3821009  67.9070667  60.6779496  86.6007019  68.8387775  60.6967530
  86.7946783  67.5478641  61.4634300  82.4729362  68.8111137  58.9303111
  81.7792833  68.3965090  58.4173066  83.2202353  68.8531674  58.3336530
  84.3866104  68.7429391  56.8069126  84.3636792  68.8417079  55.8551009
  84.6966741  69.5894542  57.1286292  87.0453482  70.8005546  60.9215740
  87.9996736  70.7689489  60.8545672  86.8466006  70.3396170  61.7365966
  87.6352864  69.3706662  63.4886538  88.4545753  69.8650741  63.5121375
  87.9089672  68.4538630  63.4604106  85.4003711  76.3425166  57.9385938
  85.2658179  75.5825567  57.3723936  84.9835773  77.0666066  57.4714727
  82.8887779  63.7044796  64.1878735  83.5346642  63.1943750  64.6765960
  82.6804930  64.4413478  64.7622160  87.2285270  60.8512413  68.2853749
  88.0916731  60.4949218  68.4957074  86.6550680  60.5126308  68.9729154
  57.6686045   8.5113849  40.6209133  57.5910075   9.4621674  40.6997613
  57.0647689   8.1659721  41.2784059  59.9424414   3.8696002  39.3414672
  59.8070089   4.7147538  39.7699520  60.4834226   4.0715280  38.5780606
  55.2048696   4.5037196  41.9965351  55.3815324   5.4255161  41.8086335
  56.0005530   4.1895615  42.4259730  61.5692890   4.4919568  53.4715014
  61.1256745   3.7055947  53.1535919  62.2310104   4.6798719  52.8058905
  56.3280012   6.0215370  47.9975693  56.8787437   5.8932433  47.2252687
  55.4891487   6.3210259  47.6470586  62.5420574   7.9430208  35.7770395
  61.8682273   8.2461905  36.3855353  62.9286396   8.7459288  35.4275852
  64.4892936   4.7828382  42.0838685  64.7815910   5.3433439  41.3651051
  64.9991556   5.0756943  42.8391844  59.4526561   5.5608733  43.1732138
  59.4102740   5.7869579  42.2440670  60.3689260   5.3272107  43.3217939
  62.3887206   4.8189857  47.3206468  62.4424228   5.3880794  48.0884184
  61.5201987   4.9891742  46.9560506  60.7411790   8.1109880  37.9917474
  60.9163545   7.6397923  38.8063097  60.0544578   8.7375646  38.2198735
  55.3072875  11.2599243  44.7657335  55.5469473  11.8917767  45.4436353
  54.4642071  10.9087283  45.0522694  59.8200737   7.0678365  47.1698839
  59.7470908   7.8733337  47.6818143  59.3778130   7.2670331  46.3446860
  59.6090516   6.3050135  40.6801660  58.8258038   6.8471816  40.7739885
  60.3083261   6.8224115  41.0795901  62.2799420   6.9665199  49.3256997
  62.9927392   7.6012664  49.2532899  61.7889449   7.0629065  48.5096999
  57.3311334   4.7159643  50.1462568  58.0320793   5.3496126  50.2991962
  56.8606449   5.0574374  49.3858207  62.0919794   7.3063944  42.0743289
  62.2742188   6.4885599  42.5371041  62.9152780   7.5231636  41.6368179
  62.4261959   6.2332129  39.3358337  62.9549725   5.7224583  38.7228499
  62.6890179   5.9174659  40.2003870  52.9279052   4.2495998  47.0793671
  53.5132489   3.5039686  47.2121575  52.7303890   4.5599955  47.9630335
  55.7817707   7.2847245  42.0956113  55.1128082   7.7693373  41.6120153
  55.6430577   7.5316466  43.0099492  59.9222976   9.3190989  48.6938772
  60.4741284   9.4822610  49.4587857  60.2629169   9.9095427  48.0218796
  63.0591363   7.2672964  45.6802454  62.9342502   6.4662704  45.1713399
  63.7170454   7.7619158  45.1916424  62.1272705   4.8634701  43.5086356
  61.9797667   3.9351408  43.6893926  62.9526198   4.8854791  43.0243431
  65.7306826   5.6863259  44.5951229  66.6553374   5.4806121  44.4575680
  65.5622130   5.4379661  45.5040570  65.5202143   6.2048927  39.9513320
  65.6939020   5.6395349  39.1987173  66.0131034   7.0049822  39.7692810
  60.0688787   6.8849470  50.7087426  60.3775913   6.6398617  51.5810126
  60.8664269   7.0896109  50.2206296  60.0909399   9.0387380  42.9392802
  59.6514389   8.5463759  43.6325659  60.8417516   8.4960348  42.6984878
  52.5701738   5.2298921  42.9417431  53.3959758   4.9302693  42.5616074
  52.2195790   4.4606543  43.3907219  57.5383271   4.5825389  45.0115104
  56.9163280   3.9196094  44.7117332  58.2088138   4.6086521  44.3288752
  50.7710343   3.1485247  43.9006364  49.9342251   2.7207422  43.7190365
  50.7433988   3.3417691  44.8377155  57.0996778   3.1329313  38.4873565
  57.2484898   3.8164777  37.8340237  57.9063221   3.1134403  39.0023020
  60.5992184   5.6277443  35.9585312  60.0266151   6.2467630  35.5055784
  61.1724977   6.1776805  36.4925234  63.8189443   5.9114593  37.0893894
  64.7520116   5.8460155  37.2926770  63.7312656   6.7470860  36.6308427
  49.9548100  -0.1702493  45.6548418  49.2611571  -0.5848540  45.1418372
  50.7021091  -0.1281956  45.0581837  54.5272220   1.8191916  47.6461047
  55.4815474   1.7875858  47.5790979  54.3284744   1.3582540  48.4611273
  52.8822449   7.3611535  44.6631245  52.7476917   6.6011936  44.0969243
  52.4654511   8.0852435  44.1960034  56.0391575   8.2580852  44.8749688
  55.9223959   9.2026285  44.7728378  55.2184021   7.9554414  45.2635487
  57.0646089   8.9109114  48.0905616  57.9673335   8.9432725  48.4072111
  56.8383459   7.9809565  48.1051952  58.8199691   7.6640101  44.7515695
  57.8695322   7.6641962  44.6380067  59.1232177   6.9172835  44.2351729
  74.5552384  13.5000639  45.8161457  75.1930794  13.3807387  45.1124797
  74.4373227  14.4481483  45.8749409  71.3642091  13.4528067  45.7522982
  71.0260602  13.3369132  44.8643517  72.2331859  13.0519232  45.7323988
  67.2228906  15.3063544  41.7419873  66.6593771  15.2153481  40.9736160
  67.1081301  14.4863448  42.2222365  71.8461874  14.6062919  51.7109187
  71.8350514  14.2115717  50.8389691  72.0082513  13.8728992  52.3042959
  64.7693338  16.8014735  44.5804093  65.5614630  16.4605560  44.1650392
  65.0089988  16.9109710  45.5006246  72.8028465  18.9734511  37.0534338
  72.1516445  19.5588592  36.6668351  73.5972828  19.5040706  37.1129375
  66.7284092  16.0623649  37.4521472  67.5014968  15.5152636  37.3134348
  67.0809491  16.9267898  37.6635933  68.5669135  17.3900031  50.6588371
  68.2759001  18.2945662  50.5435038  69.2026119  17.4316558  51.3732441
  69.4925342  14.7676879  47.2489731  70.0888914  14.5432902  46.5346694
  69.5500313  14.0261625  47.8515179  69.0650370  12.2216315  35.0839922
  69.3175891  11.6997836  34.3223385  68.1274929  12.0582460  35.1866605
  74.1093653  11.2252093  42.8914665  74.8956742  10.8071516  42.5405082
  74.3732357  12.1298185  43.0596313  74.2803730  16.6624943  37.5903322
  73.6449563  16.7359570  38.3024227  73.9501137  17.2518542  36.9122401
  79.5102080  11.1627326  43.7947644  80.2427252  10.5926543  44.0285473
  78.7541436  10.7748927  44.2354149  68.7846659  14.1244421  37.2864297
  68.6682917  13.4489324  37.9545381  68.8948919  13.6376795  36.4696450
  71.1278200  13.5854568  40.9910986  70.7636407  13.0585189  41.7023908
  71.9845316  13.1953037  40.8177471  70.7683687   8.6144467  35.9872335
  70.9358089   9.4824704  36.3542806  70.5780856   8.7771749  35.0633624
  73.5259020  17.0761446  47.6538165  73.2259743  17.9786485  47.5453972
  73.1810079  16.8093630  48.5059318  66.9771501  13.5275243  43.6874869
  66.0521998  13.3951457  43.8952561  67.2255914  14.3069462  44.1844812
  76.9256164   9.5943987  45.3335602  76.0173041   9.5259395  45.0394363
  76.8743759  10.0715931  46.1617428  70.7472907  11.0702125  36.9719001
  70.6272533  11.5159176  37.8104482  70.0525496  11.4187443  36.4132540
  64.3380312  13.1708517  44.5218658  64.4672693  13.4242996  45.4358070
  63.6577764  13.7636225  44.2023314  68.5079800  23.8405767  40.6209133
  68.4303829  24.7913592  40.6997613  67.9041443  23.4951639  41.2784059
  70.9997029  11.0133632  53.2770500  70.2230363  11.5727552  53.2673364
  71.6387592  11.4990415  53.7985370  76.4457974  11.5423598  37.7999335
  77.3575830  11.7750985  37.6247033  75.9367621  12.1260642  37.2374414
  69.2543402  13.8219085  52.8388467  69.9958086  14.3604129  52.5623290
  68.5480387  14.4485374  52.9960018  74.7298741  15.9648226  51.4360628
  75.1382097  15.5230636  50.6915260  74.0076003  15.3900853  51.6894821
  71.0829811  10.9020833  48.8094185  71.9291007  11.3260246  48.9528834
  71.0228449  10.2454457  49.5032748  75.0527556  16.5249417  45.1912917
  74.4236418  16.6895131  44.4888985  74.6653218  16.9391026  45.9623881
  78.9316788  17.4603854  42.5457281  78.2467826  17.8402756  41.9954314
  79.0160637  18.0699181  43.2789228  74.2329257   8.5625201  50.4675359
  73.9890189   9.3167262  49.9309634  74.5089187   8.9410549  51.3022606
  76.1867719  15.1063813  49.1452624  76.3984615  15.7495573  48.4687005
  76.1397468  14.2726130  48.6774554  70.6055518  16.2623825  42.4563002
  71.0693863  16.5411528  41.6667625  70.3412316  15.3607269  42.2736093
  67.4979599  15.8095306  45.3942765  68.0680956  16.2382575  44.7560250
  68.0887711  15.5277891  46.0926951  69.5424404  12.3846977  39.2652567
  70.2448447  12.8368021  39.7326494  69.2105032  11.7430796  39.8932460
  67.9904765  10.9758734  53.6403777  67.3603426  11.6575014  53.8739173
  67.8840853  10.8641815  52.6956915  63.2849738  10.6430530  44.5669701
  62.4948792  10.8988058  44.0909811  63.7760985  11.4578868  44.6721741
  77.3013547  17.9835769  47.3174982  78.1230991  17.5815956  47.0357663
  77.2975950  17.8804003  48.2691097  65.2364483  11.0075109  41.5253177
  64.4395646  11.1193803  42.0436673  65.0090075  11.3461761  40.6594068
  71.0670151  17.5319812  49.4735692  71.1314583  17.9940219  50.3093864
  70.3581075  16.9017177  49.6018002  61.5687441  10.8961020  46.9984692
  61.8195479  11.7808030  47.2642267  62.1046989  10.7165622  46.2259783
  85.3919540  14.3274517  43.6659953  84.6383249  13.7581915  43.5103957
  85.5267082  14.2937182  44.6130588  70.7818168  19.1987920  39.3414672
  70.6463843  20.0439455  39.7699520  71.3227981  19.4007197  38.5780606
  64.2347566  16.7163358  39.9142597  64.7472086  17.5106608  40.0648162
  64.8870279  16.0189648  39.8476199  66.0442451  19.8329114  41.9965351
  66.2209079  20.7547079  41.8086335  66.8399284  19.5187533  42.4259730
  65.3294807  11.8793746  51.8727514  65.2148322  10.9779003  52.1734613
  64.4739325  12.1257443  51.5212330  72.4086645  19.8211486  53.4715014
  71.9650499  19.0347865  53.1535919  73.0703858  20.0090637  52.8058905
  67.1673766  21.3507288  47.9975693  67.7181191  21.2224351  47.2252687
  66.3285242  21.6502177  47.6470586  74.5067883  20.1014286  51.4996416
  74.4886358  20.9223167  51.0076685  75.4287803  19.9768361  51.7246557
  70.9640937  17.6158416  52.3419924  71.4969274  16.8546704  52.1119232
  70.4355018  17.3232067  53.0844079  62.1996483  15.0452012  40.6902168
  63.0371705  15.4549020  40.4735876  62.3774750  14.1051454  40.6602362
  74.0960915  12.7127093  36.3786001  73.5807538  13.4831697  36.6174388
  73.8238223  12.0392229  37.0019062  71.6808026   7.5576793  41.4371239
  70.8249622   7.1683644  41.2576878  72.0934978   7.6368754  40.5771025
  79.0695189  15.4659447  38.3139174  78.2924632  15.1270607  37.8694337
  79.7486670  15.4712070  37.6394139  73.8847218  10.5854185  38.2045782
  73.5797354  10.9000334  39.0555925  74.8377660  10.6635605  38.2473115
  72.3293650  16.7444408  39.8538736  71.8015011  16.0097168  39.5411974
  71.8281153  17.5219084  39.6078704  77.3086496  14.9393429  44.9705782
  76.6510170  15.6292690  45.0585911  78.1126895  15.3289860  45.3139769
  67.0612377   7.4064074  42.2145348  67.6356129   7.1839256  41.4818541
  67.6483360   7.4752769  42.9673949  76.1191955  13.2937801  43.0209724
  76.6323836  13.9267793  43.5231434  76.7693178  12.6938997  42.6553084
  67.3881965   9.4368535  36.2341233  66.5519277   9.7743222  36.5550508
  67.2486734   9.3017515  35.2968370  70.4746250  14.5624618  32.8573709
  69.5673312  14.3313872  33.0564858  70.9717282  13.7662238  33.0447691
  73.3814329  23.2722125  35.7770395  72.7076028  23.5753822  36.3855353
  73.7680151  24.0751206  35.4275852  72.5972785  10.7687257  45.2668065
  71.6795347  10.9902204  45.1089753  73.0132929  10.8433567  44.4079772
  73.3807833  12.1678672  40.3970745  74.1279652  12.6800070  40.0877867
  73.6499423  11.8462725  41.2575139  71.6534483  14.6637213  37.3797699
  70.7445703  14.3796246  37.4770169  71.6829567  15.0836292  36.5201006
  76.8853751  18.2743803  41.1488867  76.4316078  17.4334713  41.2054057
  76.2547718  18.9105201  41.4863647  75.3286690  20.1120299  42.0838685
  75.6209664  20.6725356  41.3651051  75.8385311  20.4048860  42.8391844
  62.2222654  12.3842727  41.3612901  62.0247054  11.7912088  40.6363968
  61.6669318  12.0794937  42.0788840  70.2019377  12.2765834  43.4807495
  70.2567987  11.3239670  43.4049971  69.3910579  12.4325273  43.9648793
  71.3510571  16.2045957  34.7185778  70.9130001  15.4881816  34.2591415
  72.0921012  16.4322072  34.1570869  68.1411737  10.8942894  41.2397873
  67.3279603  11.1937064  41.6463066  68.6370732  10.4998582  41.9572356
  70.2920315  20.8900650  43.1732138  70.2496494  21.1161497  42.2440670
  71.2083014  20.6564025  43.3217939  73.7385949  11.3584718  50.0712767
  74.0935337  11.5856191  50.9307233  74.3858080  11.6903095  49.4490023
  79.4683686  14.4803154  40.7762096  79.3301585  14.6704750  39.8483286
  79.1119905  15.2422537  41.2330148  67.6325812   8.4661249  46.8559108
  68.2725191   8.3250008  46.1582072  66.8003343   8.1795762  46.4797710
  79.4953066  16.5479681  45.7873368  79.9289572  16.4554970  46.6356422
  80.2084646  16.5237181  45.1493384  68.4086116  17.7663679  42.9694101
  69.2026715  17.2714000  42.7676676  67.6977808  17.2381543  42.6061806
  73.2280961  20.1481775  47.3206468  73.2817983  20.7172711  48.0884184
  72.3595742  20.3183660  46.9560506  64.7168879  11.9106761  39.0453854
  63.7866468  11.8491217  39.2623816  64.8126351  11.3882714  38.2490495
  64.6354429   8.4361574  41.6332095  64.8961246   9.3506907  41.5241256
  65.4571601   7.9686017  41.7828708  66.1079354   9.8499331  48.8030920
  66.7802407   9.6416693  48.1543569  65.2809140   9.6521417  48.3636152
  80.3568615  16.5903382  48.3206253  80.5504505  17.4949192  48.5665528
  80.2569233  16.1310801  49.1544838  75.4183724  16.7410124  53.8947134
  75.2669230  16.5120676  52.9777218  75.4088403  17.6980726  53.9078479
  72.1869060  14.3142037  48.8793400  73.1161120  14.4653197  48.7062368
  71.7660090  14.4026058  48.0242047  70.9857392  18.3392701  46.6491938
  70.8468478  17.9711486  47.5217876  70.1971988  18.8540341  46.4775896
  71.5805544  23.4401798  37.9917474  71.7557300  22.9689841  38.8063097
  70.8938332  24.0667564  38.2198735  72.5362607  17.7174304  44.0380776
  72.2012440  17.6775074  44.9338426  72.0366553  17.0519020  43.5651186
  66.5106851  13.1241934  49.5633357  66.3726649  12.3922173  50.1644896
  67.4211775  13.0350834  49.2817545  75.4721799  15.0630338  34.3117835
  74.8550969  14.3377167  34.2150888  75.0038287  15.8239699  33.9684910
  69.1389152  12.8361893  49.0517037  69.8488770  12.1955086  49.0103655
  69.0958460  13.0874788  49.9743217  77.1275930  19.7729247  51.9723616
  77.0688477  19.0888467  51.3054199  77.5295449  20.5148237  51.5204242
  67.8518086   9.8227111  50.8712676  67.3155443   9.3717850  51.5234272
  67.2634794   9.9573020  50.1283140  67.2620345   9.2815763  33.4339140
  66.3849811   9.1604564  33.0701386  67.7378098   8.4901841  33.1818028
  77.1293338  17.7368831  50.2037595  76.2420117  17.3994753  50.3263994
  77.6991889  17.0051862  50.4406361  58.7822485  14.0692923  43.5280647
  59.4693525  13.7554653  42.9401662  58.6270614  14.9734287  43.2547898
  63.5857207   8.9583119  47.9565671  63.5015396   8.3508789  47.2216080
  62.7639913   9.4492137  47.9575167  70.6594491  22.3970283  47.1698839
  70.5864663  23.2025255  47.6818143  70.2171884  22.5962249  46.3446860
  70.4484271  21.6342053  40.6801660  69.6651793  22.1763733  40.7739885
  71.1477016  22.1516033  41.0795901  81.6110678  13.1477048  44.9654157
  81.6000555  14.0301764  44.5948090  80.7428058  12.7948599  44.7708694
  73.1193175  22.2957117  49.3256997  73.8321147  22.9304582  49.2532899
  72.6283203  22.3920983  48.5096999  74.8410702  16.2008370  40.8974289
  73.9066980  16.3209832  40.7278993  75.0187370  15.2980837  40.6334299
  70.3415890   9.5854066  43.0507550  69.9713677   9.0325106  43.7388456
  70.8374982   8.9812199  42.4982550  78.2283253  12.0425689  41.4324323
  78.6943705  12.8753681  41.3584626  78.6790753  11.5770671  42.1369582
  68.1705088  20.0451561  50.1462568  68.8714548  20.6788044  50.2991962
  67.7000203  20.3866292  49.3858207  76.2959484  18.3869510  38.4310475
  76.5719328  18.2726105  39.3404349  75.4263983  17.9886995  38.3922648
  75.9706374  12.5996168  47.9715118  75.3177824  12.8472076  47.3167571
  76.3486754  11.7860306  47.6377596  72.9313548  22.6355861  42.0743289
  73.1135943  21.8177517  42.5371041  73.7546534  22.8523553  41.6368179
  73.2655714  21.5624046  39.3358337  73.7943480  21.0516501  38.7228499
  73.5283933  21.2466577  40.2003870  72.0193947  13.3415979  54.4581156
  71.3434584  13.2410108  55.1283531  72.8421581  13.1855193  54.9217153
  63.7672806  19.5787916  47.0793671  64.3526243  18.8331604  47.2121575
  63.5697645  19.8891872  47.9630335  66.6211461  22.6139163  42.0956113
  65.9521837  23.0985291  41.6120153  66.4824331  22.8608383  43.0099492
  58.3590461  12.1493516  45.7998114  58.3974561  11.6157107  46.5935232
  57.8530754  11.6228721  45.1809091  70.7616730  24.6482907  48.6938772
  71.3135038  24.8114528  49.4587857  71.1022924  25.2387344  48.0218796
  65.7381223   6.9958056  49.2960656  65.8022550   7.8572887  48.8838054
  65.6748344   6.3832058  48.5633015  65.2133496   9.0681189  52.9433691
  65.8405535   8.6858266  53.5571215  64.3561415   8.8495391  53.3089383
  75.6127604  19.4744164  54.5487426  76.1567508  20.0874122  54.0542381
  75.0314449  20.0323742  55.0654439  61.9899039  10.8757618  38.8752045
  62.2852480   9.9668296  38.8219099  61.0887074  10.8545357  38.5533048
  73.8985117  22.5964882  45.6802454  73.7736257  21.7954622  45.1713399
  74.5564208  23.0911075  45.1916424  65.5193286   8.9513615  44.8579594
  64.7979871   9.5649582  44.7187067  66.3086541   9.4871379  44.7796240
  75.9620026  20.3973902  47.3082004  75.0150361  20.2779253  47.2360331
  76.3102799  19.5096400  47.3908265  68.3219599   6.2868041  51.1320246
  68.8454001   6.5330338  51.8946555  68.1031932   7.1188076  50.7123383
  63.7186880   8.5571716  38.9991370  63.3899586   7.6769095  38.8166476
  64.0726251   8.5019384  39.8867760  72.9666459  20.1926618  43.5086356
  72.8191421  19.2643326  43.6893926  73.7919953  20.2146709  43.0243431
  66.8328703   8.8444685  39.3666848  67.1724776   9.3730607  38.6445457
  67.2800824   9.1825092  40.1425415  76.5700581  21.0155177  44.5951229
  77.4947128  20.8098038  44.4575680  76.4015884  20.7671578  45.5040570
  69.5272144   7.2281736  48.8169916  69.1868965   6.4289549  49.2190596
  68.8211150   7.5283447  48.2446749  68.8196850   7.3419307  37.5660141
  69.5405213   7.7200560  37.0623858  68.1962155   8.0608184  37.6695119
  72.9627973   8.0464456  38.5018473  73.1791588   8.9289094  38.2007301
  72.4822040   7.6550669  37.7724115  67.7027195  11.0050169  45.0789218
  67.5571775  11.3190472  45.9713499  67.2252398  11.6235070  44.5260117
  69.5623578   7.9952717  45.1270107  69.5485146   7.0993811  44.7902405
  70.2796006   8.0023381  45.7608393  71.4149708   8.4290057  47.1723235
  71.1567486   9.3507128  47.1707565  70.8834749   8.0320492  47.8623699
  76.3595897  21.5340845  39.9513320  76.5332775  20.9687267  39.1987173
  76.8524788  22.3341739  39.7692810  62.1772857  13.5455514  48.0176879
  61.6326325  14.3215322  48.1497153  63.0552207  13.8926318  47.8596000
  82.2135288  14.2977268  41.5703620  82.6566434  13.5484593  41.1722743
  81.3361799  14.2887404  41.1877352  77.3471070  20.8507609  37.0510219
  78.0421974  21.4714302  37.2697533  77.6894220  20.0002960  37.3262596
  62.9638879  12.6725410  50.9107036  62.2220615  12.8208045  51.4971666
  62.6431623  12.9333676  50.0473785  79.2462493  18.3007315  38.5797549
  79.7713817  18.6394587  37.8546869  79.1584845  17.3654330  38.3960684
  70.9082541  22.2141388  50.7087426  71.2169668  21.9690535  51.5810126
  71.7058023  22.4188027  50.2206296  70.9303153  24.3679298  42.9392802
  70.4908144  23.8755676  43.6325659  71.6811270  23.8252265  42.6984878
  63.4095492  20.5590839  42.9417431  64.2353512  20.2594611  42.5616074
  63.0589544  19.7898461  43.3907219  68.3777026  19.9117307  45.0115104
  67.7557035  19.2488012  44.7117332  69.0481892  19.9378439  44.3288752
  61.6104097  18.4777165  43.9006364  60.7736006  18.0499339  43.7190365
  61.5827743  18.6709608  44.8377155  68.4501553   8.3899095  54.6047610
  68.4989709   9.2661218  54.2225380  68.9924067   7.8476488  54.0319253
  78.9356399  18.9340218  53.8848747  78.1451942  18.9164357  53.3453247
  78.6989753  19.4728512  54.6397784  79.0554274  15.7832685  51.1981476
  79.1052279  15.6182692  52.1396999  78.9468197  14.9159944  50.8079357
  67.9390532  18.4621230  38.4873565  68.0878653  19.1456695  37.8340237
  68.7456976  18.4426320  39.0023020  76.3458036  11.7663613  52.5140782
  77.2467899  11.6270077  52.2224780  76.4206011  11.9318067  53.4538960
  70.6800842   9.1430467  51.3593969  69.8104151   9.4364033  51.0876557
  70.9160322   9.7270912  52.0801232  80.5572471  18.2029626  51.4423497
  80.2657279  18.5659607  52.2786958  79.9444602  17.4896634  51.2636829
  81.7568153  15.7682506  43.9626068  82.5915044  16.2072310  44.1263628
  81.8927282  15.2921159  43.1434313  78.8059659  13.3262241  49.9103555
  79.2813780  13.5189887  49.1022407  77.8825224  13.3821426  49.6646939
  65.6943165  14.4886408  39.4934634  65.4489207  13.5848738  39.6914844
  65.8639080  14.4903558  38.5514112  64.9638813  10.2214765  36.9920795
  64.2708058  10.2959120  36.3360831  64.7190565   9.4575109  37.5142312
  71.4385938  20.9569361  35.9585312  70.8659905  21.5759548  35.5055784
  72.0118732  21.5068722  36.4925234  77.5061328  10.2028001  48.1431861
  78.4578751  10.3026098  48.1644085  77.3364778   9.4106269  48.6529945
  74.6583198  21.2406511  37.0893894  75.5913871  21.1752072  37.2926770
  74.5706411  22.0762778  36.6308427  77.2871214  20.5572381  34.0497842
  77.2084846  20.2232245  34.9433600  78.1080881  21.0494149  34.0489314
  79.9849406  13.4234120  47.2574161  79.9525726  12.4850121  47.4433844
  80.5950029  13.5018157  46.5239985  71.8232737  12.2930173  33.3001365
  72.7691841  12.1636382  33.3689783  71.4446981  11.5544835  33.7770793
  85.8025956  14.4850127  46.3980197  86.5329344  14.2235415  46.9587901
  85.1932901  13.7478849  46.4382265  83.8841253  12.6257990  46.9954649
  83.1574416  12.4913955  46.3871140  83.4688540  12.9334818  47.8011367
  71.7071429  16.3447920  54.7602022  72.6274439  16.5226519  54.9542068
  71.6721012  15.4003965  54.6081721  70.0075654  10.2180150  33.2356250
  69.1007109   9.9213263  33.3118963  70.2851635   9.9209968  32.3690536
  60.9253594  11.5386513  43.6855296  60.6056378  10.6851821  43.3929670
  60.3787022  11.7535091  44.4413264  64.7033502  14.2548954  47.4024803
  64.9219511  15.1866062  47.4212837  65.1159275  13.8956929  48.1879607
  69.5761367   9.8282160  56.7927552  69.4758094  10.7776517  56.7239643
  69.3582909   9.5000399  55.9203622  68.7774438   7.0767085  33.3768229
  69.6393602   7.4021983  33.6364046  68.9624782   6.2898581  32.8641295
  60.7941854  15.1589425  45.6548418  60.1005325  14.7443378  45.1418372
  61.5414845  15.2009961  45.0581837  69.4392637  13.2579299  55.6092613
  68.9559719  14.0579659  55.8156502  69.5253576  13.2687244  54.6560057
  62.7078597  15.0907678  43.5314433  62.6849285  15.1895366  42.5796316
  63.0179233  15.9372829  43.8531599  65.3665974  17.1483834  47.6461047
  66.3209228  17.1167776  47.5790979  65.1678498  16.6874457  48.4611273
  65.9565357  15.7184950  50.2131845  66.7758246  16.2129028  50.2366682
  66.2302164  14.8016918  50.1849412  63.7216203  22.6903453  44.6631245
  63.5870671  21.9303854  44.0969243  63.3048266  23.4144353  44.1960034
  74.8575166  17.8740377  33.6707820  75.5611016  18.0790379  34.2865476
  74.1337815  18.4417138  33.9356904  75.6872977  13.6250238  39.7910090
  75.6308178  14.0818789  38.9517723  76.2401319  12.8640922  39.6132933
  83.8090120  12.1536043  43.1231501  83.2489678  12.2229232  43.8963063
  83.2033624  11.9777028  42.4030998  66.8785329  23.5872770  44.8749688
  66.7617713  24.5318203  44.7728378  66.0577775  23.2846332  45.2635487
  76.7661864  18.3122906  35.7206280  77.6007468  17.8804104  35.5383755
  76.6046207  18.1404919  36.6483175  76.4207756  14.8155019  37.0862620
  76.3656560  14.6499290  36.1451064  75.7953811  15.5231052  37.2424809
  61.2100271  10.0523083  50.9124042  61.8559134   9.5422037  51.4011267
  61.0017422  10.7891765  51.4867467  73.7353663  17.1203931  56.4116182
  74.6044823  17.2944583  56.0502817  73.2560415  17.9398348  56.2891912
  67.9039843  24.2401032  48.0905616  68.8067090  24.2724642  48.4072111
  67.6777213  23.3101483  48.1051952  69.6593445  22.9932018  44.7515695
  68.7089076  22.9933880  44.6380067  69.9625931  22.2464753  44.2351729
  65.5497762   7.1990701  55.0099056  66.4129223   6.8427505  55.2202381
  64.9763172   6.8604595  55.6974460  85.3946139  28.8292557  45.8161457
  86.0324549  28.7099304  45.1124797  85.2766982  29.7773401  45.8749409
  82.2035845  28.7819985  45.7522982  81.8654357  28.6661050  44.8643517
  83.0725613  28.3811150  45.7323988  78.0622661  30.6355461  41.7419873
  77.4987526  30.5445398  40.9736160  77.9475056  29.8155366  42.2222365
  82.6855628  29.9354837  51.7109187  82.6744269  29.5407635  50.8389691
  82.8476268  29.2020909  52.3042959  75.6087093  32.1306653  44.5804093
  76.4008385  31.7897478  44.1650392  75.8483743  32.2401628  45.5006246
  83.6422219  34.3026429  37.0534338  82.9910199  34.8880509  36.6668351
  84.4366582  34.8332624  37.1129375  77.5677847  31.3915566  37.4521472
  78.3408723  30.8444553  37.3134348  77.9203245  32.2559816  37.6635933
  79.4062889  32.7191948  50.6588371  79.1152755  33.6237579  50.5435038
  80.0419874  32.7608476  51.3732441  80.3319096  30.0968797  47.2489731
  80.9282668  29.8724819  46.5346694  80.3894068  29.3553542  47.8515179
  79.9044124  27.5508232  35.0839922  80.1569645  27.0289754  34.3223385
  78.9668684  27.3874378  35.1866605  84.9487407  26.5544011  42.8914665
  85.7350496  26.1363434  42.5405082  85.2126112  27.4590103  43.0596313
  85.1197485  31.9916861  37.5903322  84.4843318  32.0651488  38.3024227
  84.7894891  32.5810460  36.9122401  79.6240413  29.4536338  37.2864297
  79.5076671  28.7781242  37.9545381  79.7342673  28.9668712  36.4696450
  81.9671954  28.9146485  40.9910986  81.6030161  28.3877106  41.7023908
  82.8239070  28.5244954  40.8177471  87.8721255  20.2040818  48.2542252
  87.5404580  21.0736229  48.0303467  87.2766868  19.8877102  48.9336283
  81.6077441  23.9436385  35.9872335  81.7751843  24.8116622  36.3542806
  81.4174610  24.1063667  35.0633624  84.3652774  32.4053364  47.6538165
  84.0653497  33.3078403  47.5453972  84.0203834  32.1385547  48.5059318
  77.8165256  28.8567161  43.6874869  76.8915752  28.7243375  43.8952561
  78.0649669  29.6361380  44.1844812  87.7649918  24.9235904  45.3335602
  86.8566795  24.8551313  45.0394363  87.7137514  25.4007849  46.1617428
  81.5866662  26.3994043  36.9719001  81.4666287  26.8451093  37.8104482
  80.8919250  26.7479360  36.4132540  75.1774067  28.5000434  44.5218658
  75.3066448  28.7534913  45.4358070  74.4971518  29.0928142  44.2023314
  79.3473554  39.1697684  40.6209133  79.2697584  40.1205509  40.6997613
  78.7435198  38.8243557  41.2784059  81.8390784  26.3425550  53.2770500
  81.0624118  26.9019470  53.2673364  82.4781347  26.8282333  53.7985370
  87.2851728  26.8715516  37.7999335  88.1969584  27.1042903  37.6247033
  86.7761375  27.4552560  37.2374414  80.0937156  29.1511003  52.8388467
  80.8351841  29.6896047  52.5623290  79.3874142  29.7777292  52.9960018
  85.5692496  31.2940144  51.4360628  85.9775852  30.8522554  50.6915260
  84.8469757  30.7192771  51.6894821  81.9223566  26.2312750  48.8094185
  82.7684761  26.6552164  48.9528834  81.8622203  25.5746375  49.5032748
  85.8921310  31.8541334  45.1912917  85.2630173  32.0187048  44.4888985
  85.5046973  32.2682944  45.9623881  85.0723011  23.8917119  50.4675359
  84.8283943  24.6459179  49.9309634  85.3482942  24.2702466  51.3022606
  87.0261474  30.4355731  49.1452624  87.2378369  31.0787491  48.4687005
  86.9791222  29.6018048  48.6774554  84.6287703  23.0473552  46.0489196
  83.7672182  23.3454805  46.3405934  84.6550138  23.2643951  45.1170229
  81.4449272  31.5915742  42.4563002  81.9087618  31.8703445  41.6667625
  81.1806070  30.6899187  42.2736093  78.3373353  31.1387224  45.3942765
  78.9074710  31.5674492  44.7560250  78.9281465  30.8569809  46.0926951
  80.3818158  27.7138895  39.2652567  81.0842202  28.1659938  39.7326494
  80.0498787  27.0722714  39.8932460  78.8298520  26.3050651  53.6403777
  78.1997180  26.9866932  53.8739173  78.7234608  26.1933733  52.6956915
  74.1243492  25.9722447  44.5669701  73.3342546  26.2279976  44.0909811
  74.6154740  26.7870785  44.6721741  76.0758238  26.3367027  41.5253177
  75.2789401  26.4485721  42.0436673  75.8483830  26.6753679  40.6594068
  81.9063905  32.8611730  49.4735692  81.9708338  33.3232137  50.3093864
  81.1974829  32.2309095  49.6018002  72.4081195  26.2252938  46.9984692
  72.6589234  27.1099948  47.2642267  72.9440744  26.0457539  46.2259783
  81.6211923  34.5279837  39.3414672  81.4857598  35.3731373  39.7699520
  82.1621735  34.7299115  38.5780606  78.1079263  20.6071417  56.0029028
  77.7146208  20.0537616  56.6776672  78.9245403  20.9181996  56.3935545
  75.0741320  32.0455275  39.9142597  75.5865841  32.8398526  40.0648162
  75.7264033  31.3481566  39.8476199  76.8836205  35.1621032  41.9965351
  77.0602833  36.0838996  41.8086335  77.6793039  34.8479451  42.4259730
  81.0247224  22.0229296  53.5949284  81.7656937  22.6236449  53.5153747
  81.2565146  21.2806934  53.0367327  76.1688562  27.2085664  51.8727514
  76.0542077  26.3070921  52.1734613  75.3133079  27.4549360  51.5212330
  83.2480399  35.1503404  53.4715014  82.8044254  34.3639782  53.1535919
  83.9097613  35.3382554  52.8058905  78.0067521  36.6799205  47.9975693
  78.5574946  36.5516269  47.2252687  77.1678996  36.9794094  47.6470586
  85.3461637  35.4306204  51.4996416  85.3280113  36.2515085  51.0076685
  86.2681557  35.3060279  51.7246557  81.8034692  32.9450333  52.3419924
  82.3363028  32.1838621  52.1119232  81.2748773  32.6523985  53.0844079
  84.9704387  18.0510399  47.8713566  84.6268656  18.9412041  47.7952676
  85.3383349  17.8612057  47.0083151  73.0390237  30.3743930  40.6902168
  73.8765459  30.7840938  40.4735876  73.2168505  29.4343372  40.6602362
  84.9354669  28.0419010  36.3786001  84.4201293  28.8123615  36.6174388
  84.6631978  27.3684146  37.0019062  82.5201780  22.8868711  41.4371239
  81.6643377  22.4975561  41.2576878  82.9328732  22.9660672  40.5771025
  84.0500927  20.4215054  45.8362799  83.5465723  20.3845190  45.0230604
  84.3431534  21.3307797  45.8959456  80.2943813  20.5053784  44.8428981
  81.1596810  20.3096593  44.4834870  80.3621322  20.2764136  45.7698338
  84.7240972  25.9146102  38.2045782  84.4191108  26.2292252  39.0555925
  85.6771415  25.9927522  38.2473115  83.1687404  32.0736326  39.8538736
  82.6408766  31.3389085  39.5411974  82.6674907  32.8511002  39.6078704
  77.9006132  22.7355992  42.2145348  78.4749884  22.5131173  41.4818541
  78.4877114  22.8044686  42.9673949  86.9585709  28.6229719  43.0209724
  87.4717591  29.2559711  43.5231434  87.6086933  28.0230914  42.6553084
  78.2275719  24.7660453  36.2341233  77.3913031  25.1035140  36.5550508
  78.0880489  24.6309433  35.2968370  80.2028800  19.6097241  40.9420417
  79.5493212  19.2946258  40.3177032  80.1609274  18.9872981  41.6680240
  81.3140004  29.8916536  32.8573709  80.4067066  29.6605789  33.0564858
  81.8111036  29.0954155  33.0447691  84.2208083  38.6014043  35.7770395
  83.5469782  38.9045740  36.3855353  84.6073905  39.4043124  35.4275852
  83.4366540  26.0979174  45.2668065  82.5189101  26.3194121  45.1089753
  83.8526684  26.1725485  44.4079772  84.2201588  27.4970590  40.3970745
  84.9673407  28.0091987  40.0877867  84.4893177  27.1754643  41.2575139
  82.4928238  29.9929131  37.3797699  81.5839457  29.7088164  37.4770169
  82.5223322  30.4128209  36.5201006  87.7247505  33.6035720  41.1488867
  87.2709832  32.7626630  41.2054057  87.0941472  34.2397119  41.4863647
  86.6680425  24.5327706  42.3789534  85.9303182  24.0205093  42.7099777
  86.9207198  24.0928088  41.5672811  86.1680445  35.4412217  42.0838685
  86.4603419  36.0017274  41.3651051  86.6779065  35.7340778  42.8391844
  86.7692052  17.3103958  42.9731304  87.0750929  16.4501322  42.6857219
  87.4944657  17.9021579  42.7730297  73.0616408  27.7134645  41.3612901
  72.8640808  27.1204006  40.6363968  72.5063072  27.4086855  42.0788840
  81.0413132  27.6057751  43.4807495  81.0961742  26.6531588  43.4049971
  80.2304334  27.7617191  43.9648793  82.1904326  31.5337875  34.7185778
  81.7523756  30.8173733  34.2591415  82.9314767  31.7613989  34.1570869
  78.9805492  26.2234811  41.2397873  78.1673357  26.5228982  41.6463066
  79.4764486  25.8290500  41.9572356  81.1314070  36.2192568  43.1732138
  81.0890249  36.4453414  42.2440670  82.0476769  35.9855943  43.3217939
  84.5779704  26.6876636  50.0712767  84.9329091  26.9148109  50.9307233
  85.2251835  27.0195012  49.4490023  78.4719567  23.7953167  46.8559108
  79.1118946  23.6541926  46.1582072  77.6397097  23.5087680  46.4797710
  79.2479871  33.0955597  42.9694101  80.0420469  32.6005917  42.7676676
  78.5371563  32.5673460  42.6061806  84.0674715  35.4773693  47.3206468
  84.1211737  36.0464629  48.0884184  83.1989496  35.6475578  46.9560506
  75.5562634  27.2398679  39.0453854  74.6260222  27.1783134  39.2623816
  75.6520106  26.7174632  38.2490495  75.4748183  23.7653492  41.6332095
  75.7355000  24.6798825  41.5241256  76.2965355  23.2977934  41.7828708
  76.9473108  25.1791249  48.8030920  77.6196162  24.9708611  48.1543569
  76.1202895  24.9813335  48.3636152  82.8498680  21.8053190  50.8196581
  82.2026595  22.5043139  50.7261057  83.6199696  22.2389334  51.1872829
  86.2577478  32.0702042  53.8947134  86.1062985  31.8412594  52.9777218
  86.2482158  33.0272643  53.9078479  83.0262815  29.6433955  48.8793400
  83.9554875  29.7945114  48.7062368  82.6053845  29.7317975  48.0242047
  81.8251147  33.6684619  46.6491938  81.6862232  33.3003404  47.5217876
  81.0365743  34.1832259  46.4775896  82.4199298  38.7693716  37.9917474
  82.5951054  38.2981759  38.8063097  81.7332087  39.3959482  38.2198735
  83.3756362  33.0466222  44.0380776  83.0406194  33.0066992  44.9338426
  82.8760307  32.3810938  43.5651186  77.3500606  28.4533852  49.5633357
  77.2120404  27.7214091  50.1644896  78.2605529  28.3642752  49.2817545
  86.3115553  30.3922256  34.3117835  85.6944724  29.6669084  34.2150888
  85.8432042  31.1531616  33.9684910  79.9782906  28.1653811  49.0517037
  80.6882525  27.5247003  49.0103655  79.9352214  28.4166706  49.9743217
  87.9669685  35.1021165  51.9723616  87.9082231  34.4180385  51.3054199
  88.3689203  35.8440155  51.5204242  78.6911840  25.1519029  50.8712676
  78.1549197  24.7009768  51.5234272  78.1028549  25.2864938  50.1283140
  76.9860384  41.9183078  44.7657335  77.2256982  42.5501603  45.4436353
  76.1429580  41.5671118  45.0522694  78.1014099  24.6107680  33.4339140
  77.2243566  24.4896481  33.0701386  78.5771852  23.8193759  33.1818028
  69.6216239  29.3984840  43.5280647  70.3087279  29.0846570  42.9401662
  69.4664368  30.3026205  43.2547898  74.4250962  24.2875037  47.9565671
  74.3409150  23.6800706  47.2216080  73.6033668  24.7784055  47.9575167
  81.4988246  37.7262201  47.1698839  81.4258417  38.5317172  47.6818143
  81.0565639  37.9254167  46.3446860  81.2878025  36.9633971  40.6801660
  80.5045547  37.5055651  40.7739885  81.9870770  37.4807950  41.0795901
  84.5974675  22.7728600  43.3235866  85.0943375  22.0198563  43.0036936
  83.8261657  22.8092917  42.7579075  83.9586929  37.6249035  49.3256997
  84.6714901  38.2596500  49.2532899  83.4676958  37.7212901  48.5096999
  85.6804456  31.5300288  40.8974289  84.7460735  31.6501750  40.7278993
  85.8581125  30.6272754  40.6334299  81.1809644  24.9145983  43.0507550
  80.8107432  24.3617024  43.7388456  81.6768737  24.3104117  42.4982550
  79.0098843  35.3743478  50.1462568  79.7108302  36.0079961  50.2991962
  78.5393958  35.7158210  49.3858207  87.1353239  33.7161428  38.4310475
  87.4113082  33.6018023  39.3404349  86.2657737  33.3178913  38.3922648
  87.0393670  19.7398194  45.4715224  86.1256750  19.9702421  45.6397431
  87.4686772  19.8236638  46.3229257  86.8100129  27.9288086  47.9715118
  86.1571579  28.1763993  47.3167571  87.1880509  27.1152224  47.6377596
  83.7707303  37.9647779  42.0743289  83.9529697  37.1469435  42.5371041
  84.5940289  38.1815471  41.6368179  84.1049468  36.8915964  39.3358337
  84.6337234  36.3808419  38.7228499  84.3677688  36.5758494  40.2003870
  82.8587702  28.6707897  54.4581156  82.1828339  28.5702026  55.1283531
  83.6815336  28.5147111  54.9217153  74.6066561  34.9079833  47.0793671
  75.1919998  34.1623521  47.2121575  74.4091399  35.2183790  47.9630335
  77.4605216  37.9431081  42.0956113  76.7915591  38.4277208  41.6120153
  77.3218086  38.1900301  43.0099492  69.1984215  27.4785434  45.7998114
  69.2368315  26.9449024  46.5935232  68.6924508  26.9520639  45.1809091
  81.6010485  39.9774824  48.6938772  82.1528793  40.1406446  49.4587857
  81.9416678  40.5679262  48.0218796  76.5774978  22.3249974  49.2960656
  76.6416304  23.1864805  48.8838054  76.5142098  21.7123976  48.5633015
  76.0527250  24.3973107  52.9433691  76.6799289  24.0150184  53.5571215
  75.1955169  24.1787309  53.3089383  86.4521359  34.8036082  54.5487426
  86.9961263  35.4166040  54.0542381  85.8708204  35.3615660  55.0654439
  72.8292793  26.2049536  38.8752045  73.1246234  25.2960214  38.8219099
  71.9280829  26.1837275  38.5533048  84.7378872  37.9256800  45.6802454
  84.6130011  37.1246540  45.1713399  85.3957963  38.4202993  45.1916424
  76.3587040  24.2805532  44.8579594  75.6373626  24.8941500  44.7187067
  77.1480296  24.8163297  44.7796240  86.8013780  35.7265820  47.3082004
  85.8544116  35.6071171  47.2360331  87.1496553  34.8388318  47.3908265
  79.1613354  21.6159959  51.1320246  79.6847755  21.8622255  51.8946555
  78.9425687  22.4479994  50.7123383  74.5580635  23.8863633  38.9991370
  74.2293341  23.0061012  38.8166476  74.9120005  23.8311302  39.8867760
  83.8060214  35.5218536  43.5086356  83.6585176  34.5935243  43.6893926
  84.6313707  35.5438627  43.0243431  77.6722458  24.1736603  39.3666848
  78.0118530  24.7022524  38.6445457  78.1194578  24.5117009  40.1425415
  87.4094335  36.3447095  44.5951229  88.3340883  36.1389956  44.4575680
  87.2409639  36.0963496  45.5040570  80.3665899  22.5573654  48.8169916
  80.0262719  21.7581467  49.2190596  79.6604905  22.8575365  48.2446749
  81.0182370  19.6422966  47.2697239  81.8408440  19.1683444  47.1476130
  81.2620434  20.4213450  47.7695926  79.6590605  22.6711225  37.5660141
  80.3798967  23.0492478  37.0623858  79.0355909  23.3900102  37.6695119
  83.8021728  23.3756374  38.5018473  84.0185342  24.2581012  38.2007301
  83.3215795  22.9842587  37.7724115  78.5420949  26.3342087  45.0789218
  78.3965530  26.6482390  45.9713499  78.0646153  26.9526987  44.5260117
  80.4017332  23.3244635  45.1270107  80.3878901  22.4285728  44.7902405
  81.1189760  23.3315299  45.7608393  82.2543463  23.7581975  47.1723235
  81.9961241  24.6799046  47.1707565  81.7228503  23.3612410  47.8623699
  87.1989652  36.8632762  39.9513320  87.3726529  36.2979185  39.1987173
  87.6918543  37.6633657  39.7692810  73.0166611  28.8747431  48.0176879
  72.4720079  29.6507239  48.1497153  73.8945961  29.2218236  47.8596000
  79.8054228  22.2059015  40.3957678  79.9270139  21.2775661  40.5948565
  79.5156270  22.2197701  39.4835993  82.6745418  19.8913926  43.5324397
  82.6967115  19.9553259  42.5776377  83.0913477  19.0518434  43.7264904
  73.8032633  28.0017328  50.9107036  73.0614369  28.1499963  51.4971666
  73.4825378  28.2625593  50.0473785  81.7476296  37.5433306  50.7087426
  82.0563422  37.2982453  51.5810126  82.5451778  37.7479944  50.2206296
  81.7696908  39.6971215  42.9392802  81.3301898  39.2047594  43.6325659
  82.5205025  39.1544183  42.6984878  74.2489247  35.8882756  42.9417431
  75.0747267  35.5886528  42.5616074  73.8983299  35.1190379  43.3907219
  79.2170780  35.2409225  45.0115104  78.5950789  34.5779930  44.7117332
  79.8875647  35.2670356  44.3288752  79.2895308  23.7191013  54.6047610
  79.3383463  24.5953135  54.2225380  79.8317822  23.1768406  54.0319253
  78.7784287  33.7913148  38.4873565  78.9272407  34.4748612  37.8340237
  79.5850730  33.7718238  39.0023020  87.1851791  27.0955530  52.5140782
  88.0861653  26.9561995  52.2224780  87.2599765  27.2609985  53.4538960
  81.5194596  24.4722385  51.3593969  80.6497905  24.7655951  51.0876557
  81.7554076  25.0562830  52.0801232  76.5336920  29.8178326  39.4934634
  76.2882962  28.9140656  39.6914844  76.7032835  29.8195476  38.5514112
  84.2233630  20.6902002  48.8759389  84.7415574  21.4263029  48.5505878
  83.8688763  20.9965995  49.7106148  75.8032568  25.5506683  36.9920795
  75.1101812  25.6251038  36.3360831  75.5584319  24.7867027  37.5142312
  84.4746224  17.1102284  44.3960286  84.7547978  16.4425474  45.0220712
  85.2596831  17.3031380  43.8834950  82.2779693  36.2861278  35.9585312
  81.7053660  36.9051465  35.5055784  82.8512486  36.8360640  36.4925234
  86.3669462  22.6175502  48.3291262  85.7719394  22.8980514  47.6337750
  86.0819159  23.1069403  49.1008003  85.4976952  36.5698428  37.0893894
  86.4307625  36.5043990  37.2926770  85.4100165  37.4054695  36.6308427
  82.6626491  27.6222091  33.3001365  83.6085596  27.4928299  33.3689783
  82.2840736  26.8836753  33.7770793  82.5465184  31.6739837  54.7602022
  83.4668193  31.8518436  54.9542068  82.5114767  30.7295883  54.6081721
  80.8469408  25.5472067  33.2356250  79.9400864  25.2505180  33.3118963
  81.1245389  25.2501886  32.3690536  71.7647349  26.8678431  43.6855296
  71.4450133  26.0143739  43.3929670  71.2180777  27.0827009  44.4413264
  75.5427256  29.5840872  47.4024803  75.7613266  30.5157980  47.4212837
  75.9553030  29.2248846  48.1879607  82.4631474  20.0908957  39.3900491
  81.6532202  19.7456042  39.7655737  83.1515891  19.7816501  39.9788103
  84.3922022  19.1687004  41.0124788  84.9453061  19.5882457  41.6714811
  84.6292109  18.2422752  41.0547744  80.4155121  25.1574078  56.7927552
  80.3151848  26.1068435  56.7239643  80.1976663  24.8292317  55.9203622
  79.6168193  22.4059003  33.3768229  80.4787357  22.7313901  33.6364046
  79.8018537  21.6190499  32.8641295  87.7700829  21.2787529  40.5203452
  87.1899498  21.9372333  40.1381504  87.5036762  20.4564874  40.1090870
  86.2204396  20.6792587  42.7224772  86.7204174  20.7909121  41.9139091
  86.8640004  20.3753640  43.3625581  80.2786391  28.5871216  55.6092613
  79.7953473  29.3871577  55.8156502  80.3647331  28.5979161  54.6560057
  73.5472351  30.4199596  43.5314433  73.5243039  30.5187283  42.5796316
  73.8572988  31.2664747  43.8531599  76.2059729  32.4775751  47.6461047
  77.1602983  32.4459694  47.5790979  76.0072253  32.0166375  48.4611273
  76.7959111  31.0476867  50.2131845  77.6152000  31.5420946  50.2366682
  77.0695919  30.1308835  50.1849412  86.5525707  23.4387620  39.5759800
  85.6651562  23.7237270  39.3579995  86.9679696  23.2781383  38.7287077
  74.5609958  38.0195371  44.6631245  74.4264426  37.2595772  44.0969243
  74.1442020  38.7436271  44.1960034  85.6968921  33.2032294  33.6707820
  86.4004771  33.4082297  34.2865476  84.9731570  33.7709056  33.9356904
  86.5266731  28.9542155  39.7910090  86.4701932  29.4110707  38.9517723
  87.0795073  28.1932840  39.6132933  77.7179084  38.9164688  44.8749688
  77.6011468  39.8610120  44.7728378  76.8971530  38.6138249  45.2635487
  87.6055618  33.6414823  35.7206280  88.4401222  33.2096022  35.5383755
  87.4439961  33.4696837  36.6483175  87.2601510  30.1446937  37.0862620
  87.2050314  29.9791208  36.1451064  86.6347566  30.8522970  37.2424809
  72.0494025  25.3815001  50.9124042  72.6952889  24.8713955  51.4011267
  71.8411176  26.1183683  51.4867467  84.5747418  32.4495849  56.4116182
  85.4438577  32.6236501  56.0502817  84.0954169  33.2690265  56.2891912
  80.5697636  19.6455046  36.6647938  80.5576306  20.5896886  36.8216209
  81.4621058  19.4625191  36.3707399  78.7433598  39.5692950  48.0905616
  79.6460844  39.6016560  48.4072111  78.5170968  38.6393401  48.1051952
  80.4987200  38.3223936  44.7515695  79.5482831  38.3225798  44.6380067
  80.8019686  37.5756671  44.2351729  84.3849755  16.2397822  40.9193875
  83.6182151  15.6856309  41.0650557  84.7960460  16.3119691  41.7808026
  76.3891516  22.5282618  55.0099056  77.2522978  22.1719423  55.2202381
  75.8156927  22.1896513  55.6974460  86.4480847  47.4598571  44.5804093
  87.2402139  47.1189395  44.1650392  86.6877497  47.5693546  45.5006246
  86.0167821  43.8292352  44.5218658  86.1460202  44.0826831  45.4358070
  85.3365273  44.4220060  44.2023314  84.9637247  41.3014365  44.5669701
  84.1736301  41.5571894  44.0909811  85.4548494  42.1162703  44.6721741
  86.9151992  41.6658944  41.5253177  86.1183155  41.7777639  42.0436673
  86.6877584  42.0045596  40.6594068  83.2474950  41.5544855  46.9984692
  83.4982988  42.4391865  47.2642267  83.7834498  41.3749457  46.2259783
  85.9135075  47.3747193  39.9142597  86.4259595  48.1690443  40.0648162
  86.5657788  46.6773483  39.8476199  87.0082316  42.5377581  51.8727514
  86.8935831  41.6362838  52.1734613  86.1526834  42.7841278  51.5212330
  83.8783992  45.7035847  40.6902168  84.7159214  46.1132856  40.4735876
  84.0562259  44.7635289  40.6602362  83.9010163  43.0426563  41.3612901
  83.7034563  42.4495923  40.6363968  83.3456827  42.7378773  42.0788840
  86.3956388  42.5690597  39.0453854  85.4653977  42.5075052  39.2623816
  86.4913860  42.0466549  38.2490495  86.3141938  39.0945409  41.6332095
  86.5748755  40.0090743  41.5241256  87.1359110  38.6269852  41.7828708
  87.7866863  40.5083167  48.8030920  88.4589916  40.3000529  48.1543569
  86.9596649  40.3105253  48.3636152  87.8254138  57.2474996  44.7657335
  88.0650736  57.8793520  45.4436353  86.9823335  56.8963036  45.0522694
  80.4609994  44.7276758  43.5280647  81.1481034  44.4138488  42.9401662
  80.3058123  45.6318123  43.2547898  85.2644716  39.6166954  47.9565671
  85.1802905  39.0092624  47.2216080  84.4427422  40.1075973  47.9575167
  85.4460315  50.2371751  47.0793671  86.0313752  49.4915439  47.2121575
  85.2485154  50.5475708  47.9630335  88.2998970  53.2722998  42.0956113
  87.6309346  53.7569126  41.6120153  88.1611840  53.5192219  43.0099492
  80.0377970  42.8077351  45.7998114  80.0762069  42.2740942  46.5935232
  79.5318263  42.2812557  45.1809091  87.4168732  37.6541892  49.2960656
  87.4810059  38.5156723  48.8838054  87.3535853  37.0415893  48.5633015
  86.8921005  39.7265024  52.9433691  87.5193044  39.3442102  53.5571215
  86.0348924  39.5079226  53.3089383  83.6686548  41.5341453  38.8752045
  83.9639989  40.6252132  38.8219099  82.7674583  41.5129193  38.5533048
  87.1980795  39.6097450  44.8579594  86.4767380  40.2233418  44.7187067
  87.9874050  40.1455215  44.7796240  85.3974389  39.2155551  38.9991370
  85.0687095  38.3352930  38.8166476  85.7513760  39.1603220  39.8867760
  83.8560366  44.2039349  48.0176879  83.3113834  44.9799157  48.1497153
  84.7339716  44.5510153  47.8596000  84.6426388  43.3309245  50.9107036
  83.9008124  43.4791881  51.4971666  84.3219132  43.5917511  50.0473785
  85.0883001  51.2174674  42.9417431  85.9141021  50.9178446  42.5616074
  84.7377053  50.4482296  43.3907219  83.2891606  49.1361000  43.9006364
  82.4523515  48.7083175  43.7190365  83.2615252  49.3293444  44.8377155
  87.3730674  45.1470243  39.4934634  87.1276716  44.2432573  39.6914844
  87.5426589  45.1487394  38.5514112  86.6426322  40.8798601  36.9920795
  85.9495567  40.9542956  36.3360831  86.3978074  40.1158944  37.5142312
  82.6041103  42.1970349  43.6855296  82.2843887  41.3435657  43.3929670
  82.0574531  42.4118927  44.4413264  86.3821011  44.9132790  47.4024803
  86.6007020  45.8449897  47.4212837  86.7946784  44.5540764  48.1879607
  82.4729363  45.8173260  45.6548418  81.7792834  45.4027213  45.1418372
  83.2202354  45.8593797  45.0581837  84.3866106  45.7491514  43.5314433
  84.3636794  45.8479201  42.5796316  84.6966742  46.5956665  43.8531599
  87.0453483  47.8067669  47.6461047  87.9996737  47.7751611  47.5790979
  86.8466007  47.3458293  48.4611273  87.6352866  46.3768785  50.2131845
  88.4545755  46.8712864  50.2366682  87.9089673  45.4600753  50.1849412
  85.4003712  53.3487288  44.6631245  85.2658180  52.5887689  44.0969243
  84.9835774  54.0728188  44.1960034  82.8887780  40.7106919  50.9124042
  83.5346643  40.2005873  51.4011267  82.6804931  41.4475600  51.4867467
  87.2285271  37.8574536  55.0099056  88.0916732  37.5011341  55.2202381
  86.6550681  37.5188431  55.6974460  79.3473555  16.1759807  27.3454439
  79.2697585  17.1267632  27.4242920  78.7435199  15.8305679  28.0029366
  81.6211924  11.5341960  26.0659979  81.4857599  12.3793496  26.4944827
  82.1621737  11.7361238  25.3025913  76.8836206  12.1683154  28.7210657
  77.0602835  13.0901119  28.5331641  77.6793040  11.8541573  29.1505037
  83.2480401  12.1565526  40.1960321  82.8044255  11.3701905  39.8781226
  83.9097614  12.3444677  39.5304212  78.0067522  13.6861328  34.7221000
  78.5574947  13.5578391  33.9497994  77.1678998  13.9856217  34.3715892
  84.2208085  15.6076166  22.5015702  83.5469783  15.9107863  23.1100660
  84.6073907  16.4105246  22.1521159  86.1680446  12.4474340  28.8083992
  86.4603420  13.0079397  28.0896357  86.6779066  12.7402901  29.5637151
  81.1314071  13.2254691  29.8977445  81.0890250  13.4515537  28.9685977
  82.0476770  12.9918065  30.0463246  84.0674716  12.4835815  34.0451775
  84.1211739  13.0526752  34.8129491  83.1989498  12.6537700  33.6805812
  82.4199300  15.7755838  24.7162781  82.5951055  15.3043881  25.5308404
  81.7332088  16.4021604  24.9444042  76.9860385  18.9245201  31.4902641
  77.2256983  19.5563725  32.1681660  76.1429582  18.5733241  31.7768001
  81.4988247  14.7324323  33.8944145  81.4258418  15.5379295  34.4063450
  81.0565640  14.9316289  33.0692167  81.2878027  13.9696093  27.4046967
  80.5045548  14.5117774  27.4985191  81.9870772  14.4870073  27.8041208
  83.9586930  14.6311157  36.0502304  84.6714903  15.2658622  35.9778205
  83.4676959  14.7275023  35.2342306  79.0098844  12.3805601  36.8707875
  79.7108303  13.0142084  37.0237269  78.5393959  12.7220332  36.1103514
  83.7707304  14.9709902  28.7988595  83.9529698  14.1531557  29.2616348
  84.5940290  15.1877594  28.3613485  84.1049469  13.8978087  26.0603644
  84.6337236  13.3870541  25.4473806  84.3677689  13.5820617  26.9249177
  74.6066562  11.9141956  33.8038977  75.1919999  11.1685644  33.9366882
  74.4091400  12.2245913  34.6875641  77.4605217  14.9493203  28.8201420
  76.7915592  15.4339331  28.3365460  77.3218087  15.1962424  29.7344798
  81.6010486  16.9836947  35.4184078  82.1528794  17.1468568  36.1833163
  81.9416679  17.5741385  34.7464103  84.7378873  14.9318922  32.4047760
  84.6130013  14.1308662  31.8958706  85.3957964  15.4265116  31.9161730
  83.8060215  12.5280659  30.2331663  83.6585177  11.5997366  30.4139233
  84.6313708  12.5500749  29.7488738  87.4094337  13.3509217  31.3196535
  88.3340884  13.1452079  31.1820987  87.2409640  13.1025619  32.2285877
  87.1989653  13.8694885  26.6758627  87.3726530  13.3041307  25.9232479
  87.6918544  14.6695780  26.4938117  81.7476297  14.5495428  37.4332733
  82.0563424  14.3044575  38.3055432  82.5451779  14.7542067  36.9451603
  81.7696909  16.7033338  29.6638109  81.3301899  16.2109717  30.3570966
  82.5205026  16.1606306  29.4230184  74.2489248  12.8944879  29.6662737
  75.0747268  12.5948651  29.2861381  73.8983300  12.1252501  30.1152526
  79.2170781  12.2471347  31.7360411  78.5950791  11.5842052  31.4362639
  79.8875648  12.2732479  31.0534059  72.4497853  10.8131205  30.6251671
  71.6129762  10.3853380  30.4435672  72.4221499  11.0063649  31.5622462
  78.7784288  10.7975270  25.2118871  78.9272409  11.4810735  24.5585544
  79.5850732  10.7780361  25.7268327  82.2779694  13.2923401  22.6830619
  81.7053661  13.9113588  22.2301091  82.8512487  13.8422763  23.2170541
  71.6335610   7.4943465  32.3793724  70.9399081   7.0797418  31.8663679
  72.3808601   7.5364001  31.7827143  76.2059730   9.4837874  34.3706354
  77.1602984   9.4521816  34.3036285  76.0072254   9.0228498  35.1856580
  74.5609959  15.0257493  31.3876552  74.4264427  14.2657894  30.8214550
  74.1442021  15.7498393  30.9205340  77.7179085  15.9226810  31.5994994
  77.6011469  16.8672243  31.4973685  76.8971531  15.6200372  31.9880793
  78.7433599  16.5755072  34.8150923  79.6460846  16.6078682  35.1317418
  78.5170969  15.6455523  34.8297258  80.4987201  15.3286059  31.4761001
  79.5482832  15.3287920  31.3625374  80.8019687  14.5818793  30.9597036
  86.4480848  24.4660693  31.3049400  87.2402140  24.1251518  30.8895699
  86.6877499  24.5755668  32.2251553  86.0167823  20.8354475  31.2463965
  86.1460204  21.0888954  32.1603377  85.3365274  21.4282183  30.9268620
  84.9637248  18.3076488  31.2915007  84.1736302  18.5634016  30.8155118
  85.4548495  19.1224825  31.3967048  86.9151993  18.6721067  28.2498484
  86.1183157  18.7839761  28.7681980  86.6877586  19.0107719  27.3839375
  83.2474951  18.5606978  33.7229998  83.4982989  19.4453988  33.9887574
  83.7834499  18.3811580  32.9505090  85.9135076  24.3809316  26.6387904
  86.4259597  25.1752566  26.7893469  86.5657789  23.6835606  26.5721506
  87.0082317  19.5439704  38.5972820  86.8935832  18.6424961  38.8979919
  86.1526835  19.7903401  38.2457637  83.8783993  22.7097970  27.4147475
  84.7159215  23.1194978  27.1981182  84.0562261  21.7697412  27.3847669
  83.9010164  20.0488685  28.0858208  83.7034564  19.4558046  27.3609275
  83.3456828  19.7440895  28.8034147  86.3956390  19.5752719  25.7699160
  85.4653978  19.5137175  25.9869122  86.4913862  19.0528672  24.9735801
  86.3141939  16.1007532  28.3577402  86.5748756  17.0152865  28.2486562
  87.1359111  15.6331975  28.5074015  87.7866864  17.5145289  35.5276226
  88.4589918  17.3062651  34.8788875  86.9596651  17.3167375  35.0881459
  87.8254140  34.2537119  31.4902641  88.0650738  34.8855643  32.1681660
  86.9823336  33.9025159  31.7768001  80.4609995  21.7338880  30.2525953
  81.1481035  21.4200610  29.6646969  80.3058124  22.6380245  29.9793205
  85.2644717  16.6229077  34.6810977  85.1802906  16.0154747  33.9461387
  84.4427424  17.1138095  34.6820473  85.4460316  27.2433874  33.8038977
  86.0313753  26.4977562  33.9366882  85.2485155  27.5537830  34.6875641
  88.2998972  30.2785121  28.8201420  87.6309347  30.7631249  28.3365460
  88.1611841  30.5254341  29.7344798  80.0377971  19.8139474  32.5243421
  80.0762071  19.2803065  33.3180539  79.5318264  19.2874679  31.9054398
  87.4168734  14.6604014  36.0205963  87.4810060  15.5218845  35.6083361
  87.3535854  14.0478016  35.2878321  86.8921006  16.7327147  39.6678997
  87.5193045  16.3504224  40.2816521  86.0348925  16.5141349  40.0334690
  83.6686549  18.5403576  25.5997352  83.9639990  17.6314254  25.5464406
  82.7674585  18.5191315  25.2778354  87.1980796  16.6159573  31.5824901
  86.4767382  17.2295540  31.4432374  87.9874052  17.1517337  31.5041547
  85.3974390  16.2217674  25.7236677  85.0687097  15.3415053  25.5411783
  85.7513761  16.1665342  26.6113066  83.8560367  21.2101472  34.7422186
  83.3113835  21.9861280  34.8742460  84.7339717  21.5572276  34.5841307
  84.6426389  20.3371368  37.6352343  83.9008125  20.4854003  38.2216973
  84.3219133  20.5979633  36.7719092  85.0883003  28.2236797  29.6662737
  85.9141023  27.9240568  29.2861381  84.7377055  27.4544419  30.1152526
  83.2891608  26.1423123  30.6251671  82.4523516  25.7145297  30.4435672
  83.2615253  26.3355566  31.5622462  87.3730676  22.1532366  26.2179940
  87.1276718  21.2494696  26.4160150  87.5426590  22.1549516  25.2759418
  86.6426323  17.8860723  23.7166102  85.9495568  17.9605078  23.0606138
  86.3978075  17.1221067  24.2387619  82.6041104  19.2032471  30.4100603
  82.2843889  18.3497779  30.1174977  82.0574532  19.4181049  31.1658570
  86.3821012  21.9194912  34.1270109  86.6007022  22.8512020  34.1458143
  86.7946786  21.5602887  34.9124913  82.4729364  22.8235383  32.3793724
  81.7792836  22.4089335  31.8663679  83.2202355  22.8655919  31.7827143
  84.3866107  22.7553636  30.2559739  84.3636795  22.8541324  29.3041622
  84.6966743  23.6018787  30.5776905  87.0453485  24.8129791  34.3706354
  87.9996738  24.7813734  34.3036285  86.8466008  24.3520415  35.1856580
  87.6352867  23.3830908  36.9377151  88.4545756  23.8774986  36.9611989
  87.9089675  22.4662876  36.9094719  85.4003713  30.3549411  31.3876552
  85.2658181  29.5949812  30.8214550  84.9835776  31.0790311  30.9205340
  82.8887781  17.7169041  37.6369348  83.5346645  17.2067995  38.1256574
  82.6804932  18.4537723  38.2112774  87.2285272  14.8636658  41.7344363
  88.0916734  14.5073463  41.9447687  86.6550683  14.5250553  42.4219767
   7.7665934  41.9672391  76.8798415   7.1153914  42.5526471  76.4932428
   8.5610297  42.4978585  76.9393452   1.6921561  39.0561528  77.2785549
   2.4652437  38.5090515  77.1398425   2.0446960  39.9205777  77.4900010
   4.0287839  35.2154194  74.9103999   4.2813360  34.6935715  74.1487462
   3.0912398  35.0520339  75.0130682   9.2441199  39.6562823  77.4167399
   8.6087032  39.7297449  78.1288304   8.9138606  40.2456421  76.7386478
  11.4095443  34.5361477  77.6263412  12.3213299  34.7688864  77.4511110
  10.9005090  35.1198521  77.0638491  13.8954257  40.4541734  82.3721358
  13.2105295  40.8340635  81.8218391  13.9798106  41.0637060  83.1053305
  20.3557010  37.3212397  83.4924030  19.6020718  36.7519795  83.3368034
  20.4904551  37.2875061  84.4394665   5.7455638  42.1925799  79.1678749
   5.6101313  43.0377335  79.5963597   6.2865450  42.3945076  78.4044683
   9.0598384  35.7064972  76.2050078   8.5445007  36.4769576  76.4438465
   8.7875693  35.0330108  76.8283139  14.0332658  38.4597326  78.1403251
  13.2562101  38.1208486  77.6958414  14.7124139  38.4649950  77.4658216
   7.2931119  39.7382287  79.6802813   6.7652481  39.0035047  79.3676051
   6.7918622  40.5156964  79.4342781   5.4383719  37.5562497  72.6837786
   4.5310781  37.3251751  72.8828935   5.9354751  36.7600117  72.8711768
   8.3451798  46.2660005  75.6034472   7.6713497  46.5691701  76.2119430
   8.7317620  47.0689085  75.2539929   6.6171953  37.6575092  77.2061776
   5.7083172  37.3734125  77.3034246   6.6467037  38.0774171  76.3465083
  11.8491220  41.2681682  80.9752944  11.3953547  40.4272592  81.0318134
  11.2185187  41.9043080  81.3127724  10.2924159  43.1058179  81.9102762
  10.5847134  43.6663236  81.1915128  10.8022780  43.3986740  82.6655921
   6.3148040  39.1983836  74.5449855   5.8767470  38.4819695  74.0855492
   7.0558481  39.4259951  73.9834946  14.4321155  37.4741033  80.6026173
  14.2939054  37.6642629  79.6747363  14.0757374  38.2360416  81.0594225
   6.5443013  46.4339677  77.8181551   6.7194769  45.9627720  78.6327174
   5.8575801  47.0605443  78.0462812  10.4359268  38.0568218  74.1381912
   9.8188439  37.3315046  74.0414965   9.9675757  38.8177578  73.7948987
   2.2257814  32.2753642  73.2603217   1.3487280  32.1542443  72.8965463
   2.7015567  31.4839720  73.0082105   5.4121740  44.6279932  80.5065737
   4.6289262  45.1701613  80.6003962   6.1114485  45.1453912  80.9059978
   9.8048171  39.1946249  80.7238366   8.8704450  39.3147711  80.5543070
   9.9824839  38.2918716  80.4598376  11.2596953  41.3807390  78.2574552
  11.5356797  41.2663984  79.1668426  10.3901452  40.9824874  78.2186725
   7.8951017  45.6293740  81.9007366   8.0773412  44.8115396  82.3635118
   8.7184003  45.8461433  81.4632256   8.2293183  44.5561926  79.1622414
   8.7580949  44.0454380  78.5492576   8.4921402  44.2404456  80.0267947
  11.3233366  44.5278724  79.7777397  11.4970244  43.9625146  79.0251250
  11.8162258  45.3279619  79.5956887  17.1772758  37.2915147  81.3967697
  17.6203904  36.5422472  80.9986820  16.2999268  37.2825283  81.0141429
  12.3108539  43.8445488  76.8774296  13.0059443  44.4652181  77.0961610
  12.6531689  42.9940839  77.1526673  14.2099962  41.2945194  78.4061626
  14.7351286  41.6332466  77.6810946  14.1222315  40.3592209  78.2224761
   2.9028002  41.4559109  78.3137642   3.0516122  42.1394574  77.6604314
   3.7094445  41.4364199  78.8287097  16.7205622  38.7620385  83.7890145
  17.5552514  39.2010189  83.9527705  16.8564751  38.2859038  82.9698390
   6.4023407  43.9507240  75.7849389   5.8297374  44.5697427  75.3319861
   6.9756201  44.5006602  76.3189311   9.6220667  44.2344390  76.9157971
  10.5551340  44.1689952  77.1190847   9.5343880  45.0700657  76.4572504
  12.2508684  43.5510260  73.8761919  12.1722315  43.2170124  74.7697677
  13.0718351  44.0432028  73.8753391   6.7870206  35.2868053  73.1265442
   7.7329311  35.1574261  73.1953860   6.4084451  34.5482715  73.6034870
   4.9713123  33.2118029  73.0620327   4.0644578  32.9151142  73.1383040
   5.2489104  32.9147847  72.1954613   3.7411908  30.0704964  73.2032306
   4.6031072  30.3959863  73.4628123   3.9262252  29.2836460  72.6905372
   9.8212636  40.8678256  73.4971897  10.5248486  41.0728258  74.1129553
   9.0975284  41.4355018  73.7620981  10.6510446  36.6188117  79.6174167
  10.5945647  37.0756668  78.7781800  11.2038788  35.8578802  79.4397010
  11.7299333  41.3060785  75.5470357  12.5644937  40.8741983  75.3647832
  11.5683676  41.1342799  76.4747252  11.3845225  37.8092898  76.9126697
  11.3294029  37.6437170  75.9715141  10.7591280  38.5168931  77.0688886
  20.3583608  51.8230436  85.6425534  20.9962018  51.7037183  84.9388874
  20.2404451  52.7711280  85.7013486  17.1673314  51.7757864  85.5787059
  16.8291826  51.6598929  84.6907594  18.0363083  51.3749029  85.5588065
  13.0260130  53.6293341  81.5683950  12.4624995  53.5383277  80.8000237
  12.9112525  52.8093245  82.0486442  18.6059689  57.2964308  76.8798415
  17.9547669  57.8818389  76.4932428  19.4004052  57.8270503  76.9393452
  12.5315316  54.3853445  77.2785549  13.3046192  53.8382432  77.1398425
  12.8840715  55.2497695  77.4900010  15.2956565  53.0906676  87.0753808
  15.8920138  52.8662699  86.3610771  15.3531537  52.3491422  87.6779256
  14.8681594  50.5446112  74.9103999  15.1207114  50.0227633  74.1487462
  13.9306153  50.3812257  75.0130682  19.9124877  49.5481890  82.7178742
  20.6987966  49.1301313  82.3669159  20.1763581  50.4527982  82.8860391
  20.0834954  54.9854740  77.4167399  19.4480787  55.0589367  78.1288304
  19.7532360  55.5748339  76.7386478  25.3133304  49.4857123  83.6211721
  26.0458476  48.9156340  83.8549550  24.5572659  49.0978724  84.0618226
  14.5877882  52.4474217  77.1128374  14.4714141  51.7719121  77.7809458
  14.6980142  51.9606591  76.2960527  16.9309423  51.9084365  80.8175063
  16.5667631  51.3814986  81.5287985  17.7876539  51.5182834  80.6441548
  16.5714910  46.9374264  75.8136412  16.7389313  47.8054501  76.1806883
  16.3812079  47.1001546  74.8897701  19.3290244  55.3991243  87.4802242
  19.0290967  56.3016282  87.3718049  18.9841303  55.1323426  88.3323395
  12.7802725  51.8505040  83.5138946  11.8553221  51.7181254  83.7216638
  13.0287138  52.6299259  84.0108889  22.7287387  47.9173783  85.1599679
  21.8204265  47.8489192  84.8658440  22.6774983  48.3945728  85.9881505
  16.5504131  49.3931922  76.7983078  16.4303756  49.8388973  77.6368559
  15.8556720  49.7417239  76.2396617  24.5949034  46.1190222  86.9377553
  23.9523414  46.4122755  86.2917348  24.0903962  46.0043142  87.7430750
  22.2489197  49.8653395  77.6263412  23.1607054  50.0980782  77.4511110
  21.7398844  50.4490439  77.0638491  16.8861035  49.2250630  88.6358262
  17.7322230  49.6490043  88.7792911  16.8259673  48.5684254  89.3296825
  20.8558780  54.8479213  85.0176994  20.2267642  55.0124928  84.3153062
  20.4684442  55.2620823  85.7887958  24.7348012  55.7833651  82.3721358
  24.0499050  56.1632553  81.8218391  24.8191861  56.3928978  83.1053305
  21.9898943  53.4293610  88.9716701  22.2015838  54.0725370  88.2951082
  21.9428691  52.5955927  88.5038631  19.5925172  46.0411431  85.8753273
  18.7309651  46.3392685  86.1670011  19.6187607  46.2581830  84.9434306
  16.4086742  54.5853622  82.2827079  16.8725087  54.8641324  81.4931702
  16.1443540  53.6837066  82.1000170  15.3455628  50.7076774  79.0916644
  16.0479671  51.1597818  79.5590571  15.0136256  50.0660593  79.7196537
  23.1044771  56.3065566  87.1439059  23.9262215  55.9045753  86.8621740
  23.1007174  56.2033800  88.0955174  11.0395707  49.3304906  81.3517254
  10.2426870  49.4423600  81.8700750  10.8121299  49.6691558  80.4858145
  31.1950764  52.6504314  83.4924030  30.4414473  52.0811712  83.3368034
  31.3298305  52.6166979  84.4394665  16.5849392  57.5217716  79.1678749
  16.4495067  58.3669252  79.5963597  17.1259205  57.7236994  78.4044683
  10.0378790  55.0393155  79.7406674  10.5503310  55.8336405  79.8912239
  10.6901502  54.3419445  79.6740276   8.0027706  53.3681809  80.5166245
   8.8402928  53.7778817  80.2999953   8.1805974  52.4281251  80.4866439
  19.8992139  51.0356889  76.2050078  19.3838762  51.8061494  76.4438465
  19.6269447  50.3622026  76.8283139  17.4839250  45.8806590  81.2635316
  16.6280846  45.4913441  81.0840955  17.8966201  45.9598551  80.4035102
  19.0138396  43.4152934  85.6626876  18.5103192  43.3783069  84.8494681
  19.3069003  44.3245676  85.7223533  15.2581282  43.4991663  84.6693058
  16.1234279  43.3034472  84.3098947  15.3258791  43.2702015  85.5962415
  24.8726413  53.7889244  78.1403251  24.0955855  53.4500404  77.6958414
  25.5517894  53.7941867  77.4658216  19.6878442  48.9083982  78.0309859
  19.3828577  49.2230131  78.8820002  20.6408884  48.9865401  78.0737192
  18.1324874  55.0674205  79.6802813  17.6046235  54.3326964  79.3676051
  17.6312376  55.8448881  79.4342781  23.1117720  53.2623225  84.7969859
  22.4541394  53.9522487  84.8849988  23.9158119  53.6519657  85.1403846
  12.8643601  45.7293871  82.0409425  13.4387353  45.5069053  81.3082618
  13.4514584  45.7982566  82.7938026  21.9223178  51.6167598  82.8473801
  22.4355060  52.2497590  83.3495511  22.5724402  51.0168794  82.4817161
  13.1913188  47.7598332  76.0605310  12.3550501  48.0973019  76.3814585
  13.0517958  47.6247312  75.1232447  15.1666269  42.6035120  80.7684494
  14.5130681  42.2884137  80.1441109  15.1246743  41.9810861  81.4944317
  16.2777474  52.8854415  72.6837786  15.3704535  52.6543669  72.8828935
  16.7748506  52.0892034  72.8711768  19.1845553  61.5951922  75.6034472
  18.5107251  61.8983619  76.2119430  19.5711375  62.3981003  75.2539929
  18.4004009  49.0917054  85.0932142  17.4826571  49.3132001  84.9353830
  18.8164153  49.1663364  84.2343849  19.1839057  50.4908469  80.2234822
  19.9310876  51.0029867  79.9141944  19.4530647  50.1692522  81.0839216
  17.4565707  52.9867010  77.2061776  16.5476926  52.7026043  77.3034246
  17.4860791  53.4066089  76.3465083  22.6884975  56.5973600  80.9752944
  22.2347302  55.7564509  81.0318134  22.0578941  57.2334998  81.3127724
  21.6317894  47.5265586  82.2053611  20.8940651  47.0142972  82.5363854
  21.8844668  47.0865967  81.3936888  21.1317914  58.4350096  81.9102762
  21.4240888  58.9955153  81.1915128  21.6416534  58.7278657  82.6655921
  21.7329521  40.3041838  82.7995381  22.0388398  39.4439201  82.5121296
  22.4582126  40.8959458  82.5994374   8.0253878  50.7072524  81.1876978
   7.8278277  50.1141885  80.4628045   7.4700542  50.4024734  81.9052917
  16.0050601  50.5995631  83.3071572  16.0599211  49.6469467  83.2314048
  15.1941803  50.7555070  83.7912870  17.1541795  54.5275754  74.5449855
  16.7161225  53.8111613  74.0855492  17.8952236  54.7551869  73.9834946
  13.9442961  49.2172690  81.0661950  13.1310827  49.5166861  81.4727143
  14.4401955  48.8228379  81.7836433  16.0951539  59.2130447  82.9996215
  16.0527718  59.4391294  82.0704747  17.0114238  58.9793822  83.1482016
  19.5417173  49.6814515  89.8976844  19.8966561  49.9085988  90.7571310
  20.1889304  50.0132892  89.2754100  25.2714910  52.8032951  80.6026173
  25.1332808  52.9934547  79.6747363  24.9151129  53.5652334  81.0594225
  13.4357036  46.7891046  86.6823185  14.0756415  46.6479805  85.9846149
  12.6034566  46.5025559  86.3061787  25.2984289  54.8709478  85.6137445
  25.7320796  54.7784767  86.4620499  26.0115870  54.8466978  84.9757461
  14.2117340  56.0893476  82.7958178  15.0057938  55.5943796  82.5940753
  13.5009032  55.5611339  82.4325883  10.5200103  50.2336558  78.8717931
   9.5897691  50.1721014  79.0887893  10.6157575  49.7112511  78.0754572
  10.4385652  46.7591371  81.4596172  10.6992470  47.6736704  81.3505333
  11.2602825  46.2915813  81.6092785  26.1599839  54.9133178  88.1470330
  26.3535729  55.8178989  88.3929605  26.0600457  54.4540597  88.9808915
  17.9900284  52.6371834  88.7057477  18.9192344  52.7882993  88.5326445
  17.5691314  52.7255855  87.8506124  17.3836768  61.7631595  77.8181551
  17.5588523  61.2919638  78.6327174  16.6969556  62.3897361  78.0462812
  18.3393831  56.0404101  83.8644853  18.0043664  56.0004871  84.7602503
  17.8397777  55.3748817  83.3915263  21.2753023  53.3860135  74.1381912
  20.6582193  52.6606964  74.0414965  20.8069511  54.1469496  73.7948987
  13.0651569  47.6045560  73.2603217  12.1881035  47.4834360  72.8965463
  13.5409322  46.8131638  73.0082105  22.9324562  56.0598628  90.0301672
  22.0451340  55.7224549  90.1528071  23.5023113  55.3281659  90.2670438
  16.2515495  59.9571850  80.5065737  15.4683016  60.4993530  80.6003962
  16.9508240  60.4745830  80.9059978  19.5612145  45.7666479  83.1499943
  20.0580844  45.0136442  82.8301013  18.7899126  45.8030796  82.5843152
  27.4141902  51.4706845  84.7918234  27.4031778  52.3531560  84.4212167
  26.5459281  51.1178396  84.5972771  20.6441925  54.5238167  80.7238366
  19.7098204  54.6439629  80.5543070  20.8218594  53.6210633  80.4598376
  16.1447113  47.9083862  82.8771627  15.7744901  47.3554903  83.5652533
  16.6406206  47.3041996  82.3246627  24.0314477  50.3655486  81.2588400
  24.4974929  51.1983478  81.1848703  24.4821977  49.9000468  81.9633659
  22.0990708  56.7099307  78.2574552  22.3750552  56.5955902  79.1668426
  21.2295207  56.3116792  78.2186725  22.0031139  42.7336073  85.2979301
  21.0894219  42.9640300  85.4661508  22.4324241  42.8174517  86.1493334
  21.7737598  50.9225965  87.7979195  21.1209048  51.1701872  87.1431648
  22.1517978  50.1090103  87.4641673  18.7344772  60.9585658  81.9007366
  18.9167166  60.1407314  82.3635118  19.5577758  61.1753350  81.4632256
  19.0686937  59.8853843  79.1622414  19.5974704  59.3746298  78.5492576
  19.3315157  59.5696373  80.0267947   7.7930262  49.1987415  78.7016122
   8.0883703  48.2898093  78.6483176   6.8918298  49.1775154  78.3797125
  19.7016341  60.9194679  85.5066531  19.5767481  60.1184419  84.9977476
  20.3595432  61.4140872  85.0180501  11.3224509  47.2743411  84.6843671
  10.6011095  47.8879379  84.5451144  12.1117765  47.8101176  84.6060317
  21.7651250  58.7203699  87.1346081  20.8181585  58.6009050  87.0624408
  22.1134023  57.8326197  87.2172342   9.5218104  46.8801513  78.8255448
   9.1930810  45.9998891  78.6430553   9.8757475  46.8249181  79.7131837
  18.7697683  58.5156415  83.3350433  18.6222645  57.5873123  83.5158003
  19.5951176  58.5376506  82.8507508  12.6359927  47.1674482  79.1930925
  12.9756000  47.6960404  78.4709534  13.0832048  47.5054888  79.9689492
  22.3731805  59.3384974  84.4215306  23.2978352  59.1327835  84.2839757
  22.2047108  59.0901375  85.3304647  14.6228074  45.6649104  77.3924218
  15.3436437  46.0430357  76.8887935  13.9993378  46.3837981  77.4959196
  18.7659197  46.3694253  78.3282550  18.9822812  47.2518891  78.0271378
  18.2853264  45.9780466  77.5988192  13.5058419  49.3279966  84.9053295
  13.3602999  49.6420269  85.7977576  13.0283622  49.9464866  84.3524194
  15.3654801  46.3182514  84.9534184  15.3516370  45.4223607  84.6166482
  16.0827229  46.3253178  85.5872470  17.2180932  46.7519854  86.9987312
  16.9598710  47.6736925  86.9971642  16.6865972  46.3550289  87.6887776
  22.1627121  59.8570641  79.7777397  22.3363998  59.2917064  79.0251250
  22.6556012  60.6571536  79.5956887  14.7691697  45.1996894  80.2221755
  14.8907609  44.2713541  80.4212642  14.4793740  45.2135580  79.3100070
  17.6382888  42.8851805  83.3588474  17.6604585  42.9491138  82.4040454
  18.0550947  42.0456313  83.5528981  28.0166512  52.6207064  81.3967697
  28.4597658  51.8714390  80.9986820  27.1393022  52.6117201  81.0141429
  23.1502293  59.1737406  76.8774296  23.8453198  59.7944099  77.0961610
  23.4925443  58.3232757  77.1526673  25.0493716  56.6237111  78.4061626
  25.5745041  56.9624384  77.6810946  24.9616069  55.6884127  78.2224761
  24.8585498  54.1062481  91.0245553  24.9083503  53.9412489  91.9661076
  24.7499421  53.2389740  90.6343434  13.7421756  56.7851027  78.3137642
  13.8909877  57.4686491  77.6604314  14.5488200  56.7656117  78.8287097
  26.3603694  56.5259423  91.2687574  26.0688503  56.8889403  92.1051035
  25.7475826  55.8126431  91.0900906  27.5599377  54.0912303  83.7890145
  28.3946268  54.5302107  83.9527705  27.6958506  53.6150956  82.9698390
  24.6090883  51.6492038  89.7367632  25.0845004  51.8419684  88.9286484
  23.6856448  51.7051223  89.4911016  11.4974389  52.8116205  79.3198711
  11.2520431  51.9078535  79.5178921  11.6670304  52.8133355  78.3778189
  10.7670037  48.5444562  76.8184872  10.0739282  48.6188917  76.1624908
  10.5221789  47.7804906  77.3406389  19.4383693  40.1040164  84.2224363
  19.7185447  39.4363353  84.8484789  20.2234300  40.2969259  83.7099027
  17.2417162  59.2799158  75.7849389  16.6691129  59.8989345  75.3319861
  17.8149955  59.8298519  76.3189311  23.3092552  48.5257798  87.9695938
  24.2609975  48.6255895  87.9908162  23.1396002  47.7336066  88.4794022
  21.3306931  45.6113381  88.1555339  20.7356863  45.8918394  87.4601827
  21.0456628  46.1007282  88.9272080  20.4614422  59.5636308  76.9157971
  21.3945095  59.4981869  77.1190847  20.3737634  60.3992575  76.4572504
  23.0902438  58.8802178  73.8761919  23.0116070  58.5462042  74.7697677
  23.9112105  59.3723946  73.8753391  25.7880629  51.7463917  87.0838238
  25.7556950  50.8079918  87.2697921  26.3981253  51.8247954  86.3504062
  17.6263960  50.6159970  73.1265442  18.5723065  50.4866178  73.1953860
  17.2478205  49.8774632  73.6034870  25.9375118  48.5374961  87.1296521
  25.4214167  47.7533417  86.9426450  26.8215066  48.2093677  87.2943040
  23.5985845  42.2815976  83.0892333  23.4010666  41.9731064  83.9735665
  24.2085550  43.0077615  83.2190263  31.6057179  52.8079924  86.2244274
  32.3360568  52.5465212  86.7851978  30.9964125  52.0708646  86.2646342
  29.6872476  50.9487787  86.8218726  28.9605640  50.8143752  86.2135217
  29.2719763  51.2564615  87.6275444  15.8106877  48.5409947  73.0620327
  14.9038333  48.2443059  73.1383040  16.0882858  48.2439765  72.1954613
  17.4268943  43.0846836  79.2164568  16.6169671  42.7393921  79.5919814
  18.1153360  42.7754380  79.8052180  19.3559491  42.1624883  80.8388865
  19.9090530  42.5820337  81.4978888  19.5929578  41.2360631  80.8811821
  14.5805662  45.3996882  73.2032306  15.4424826  45.7251780  73.4628123
  14.7656006  44.6128378  72.6905372  22.7338299  44.2725408  80.3467529
  22.1536968  44.9310212  79.9645581  22.4674231  43.4502753  79.9354947
  21.1841865  43.6730466  82.5488849  21.6841643  43.7847001  81.7403168
  21.8277473  43.3691519  83.1889658  21.5163177  46.4325499  79.4023877
  20.6289032  46.7175149  79.1844072  21.9317166  46.2719262  78.5551154
  24.8677713  46.4572020  83.1178217  25.6438103  46.9468472  83.3902833
  24.1425847  46.8830074  83.5750086  27.3050271  47.1699639  84.1752157
  27.8994762  46.9295375  83.4645465  27.3776855  46.4506769  84.8025693
  20.6606390  56.1970173  73.4971897  21.3642240  56.4020176  74.1129553
  19.9369039  56.7646935  73.7620981  21.4904200  51.9480035  79.6174167
  21.4339402  52.4048586  78.7781800  22.0432543  51.1870719  79.4397010
  25.3009006  47.7369767  80.4424287  25.0445940  47.3366402  81.2732495
  24.6761874  48.4513560  80.3174426  29.6121344  50.4765840  82.9495578
  29.0520902  50.5459029  83.7227140  29.0064847  50.3006824  82.2295075
  22.5693087  56.6352703  75.5470357  23.4038691  56.2033901  75.3647832
  22.4077430  56.4634716  76.4747252  22.2238980  53.1384816  76.9126697
  22.1687783  52.9729087  75.9715141  21.5985035  53.8460849  77.0688886
  15.5335105  42.6392925  76.4912015  15.5213775  43.5834765  76.6480286
  16.4258527  42.4563070  76.1971476  19.3487225  39.2335702  80.7457952
  18.5819620  38.6794188  80.8914634  19.7597930  39.3057570  81.6072103
  31.1977363  67.1522354  85.6425534  31.8355772  67.0329101  84.9388874
  31.0798205  68.1003198  85.7013486  28.0067069  67.1049782  85.5787059
  27.6685580  66.9890847  84.6907594  28.8756837  66.7040947  85.5588065
  23.8653885  68.9585258  81.5683950  23.3018750  68.8675195  80.8000237
  23.7506280  68.1385163  82.0486442  29.4453443  72.6256226  76.8798415
  28.7941423  73.2110306  76.4932428  30.2397806  73.1562421  76.9393452
  23.3709070  69.7145363  77.2785549  24.1439946  69.1674350  77.1398425
  23.7234469  70.5789612  77.4900010  26.1350320  68.4198594  87.0753808
  26.7313892  68.1954616  86.3610771  26.1925291  67.6783339  87.6779256
  25.7075348  65.8738029  74.9103999  25.9600869  65.3519550  74.1487462
  24.7699907  65.7104175  75.0130682  30.7518631  64.8773808  82.7178742
  31.5381720  64.4593231  82.3669159  31.0157335  65.7819900  82.8860391
  30.9228708  70.3146658  77.4167399  30.2874541  70.3881284  78.1288304
  30.5926115  70.9040257  76.7386478  36.1527058  64.8149041  83.6211721
  36.8852230  64.2448258  83.8549550  35.3966414  64.4270641  84.0618226
  25.4271637  67.7766135  77.1128374  25.3107895  67.1011039  77.7809458
  25.5373897  67.2898509  76.2960527  27.7703178  67.2376282  80.8175063
  27.4061385  66.7106903  81.5287985  28.6270294  66.8474751  80.6441548
  33.6752478  58.5270615  88.0806329  33.3435803  59.3966026  87.8567544
  33.0798092  58.2106899  88.7600360  27.4108665  62.2666182  75.8136412
  27.5783067  63.1346418  76.1806883  27.2205834  62.4293464  74.8897701
  30.1683998  70.7283161  87.4802242  29.8684721  71.6308200  87.3718049
  29.8235058  70.4615344  88.3323395  23.6196480  67.1796958  83.5138946
  22.6946976  67.0473172  83.7216638  23.8680893  67.9591177  84.0108889
  33.5681142  63.2465701  85.1599679  32.6598019  63.1781109  84.8658440
  33.5168738  63.7237646  85.9881505  27.3897886  64.7223839  76.7983078
  27.2697511  65.1680890  77.6368559  26.6950474  65.0709157  76.2396617
  35.4342788  61.4482139  86.9377553  34.7917168  61.7414673  86.2917348
  34.9297717  61.3335060  87.7430750  33.0882952  65.1945313  77.6263412
  34.0000808  65.4272699  77.4511110  32.5792599  65.7782357  77.0638491
  27.7254790  64.5542547  88.6358262  28.5715985  64.9781961  88.7792911
  27.6653427  63.8976172  89.3296825  31.6952534  70.1771131  85.0176994
  31.0661397  70.3416845  84.3153062  31.3078196  70.5912741  85.7887958
  35.5741766  71.1125569  82.3721358  34.8892804  71.4924470  81.8218391
  35.6585615  71.7220896  83.1053305  30.8754235  62.2146916  90.2939436
  30.6315167  62.9688976  89.7573711  31.1514165  62.5932263  91.1286683
  30.4318927  61.3703349  85.8753273  29.5703406  61.6684602  86.1670011
  30.4581361  61.5873748  84.9434306  27.2480496  69.9145539  82.2827079
  27.7118842  70.1933242  81.4931702  26.9837294  69.0128984  82.1000170
  26.1849382  66.0368692  79.0916644  26.8873425  66.4889735  79.5590571
  25.8530011  65.3952510  79.7196537  21.8789461  64.6596823  81.3517254
  21.0820625  64.7715518  81.8700750  21.6515054  64.9983476  80.4858145
  42.0344519  67.9796232  83.4924030  41.2808227  67.4103630  83.3368034
  42.1692060  67.9458896  84.4394665  27.4243147  72.8509634  79.1678749
  27.2888822  73.6961170  79.5963597  27.9652959  73.0528912  78.4044683
  20.8772544  70.3685072  79.7406674  21.3897065  71.1628322  79.8912239
  21.5295257  69.6711363  79.6740276  30.7735610  56.3740196  87.6977643
  30.4299880  57.2641838  87.6216753  31.1414573  56.1841854  86.8347228
  18.8421461  68.6973727  80.5166245  19.6796683  69.1070735  80.2999953
  19.0199729  67.7573169  80.4866439  30.7385893  66.3648807  76.2050078
  30.2232516  67.1353412  76.4438465  30.4663201  65.6913943  76.8283139
  28.3233004  61.2098508  81.2635316  27.4674600  60.8205358  81.0840955
  28.7359956  61.2890469  80.4035102  29.8532151  58.7444851  85.6626876
  29.3496946  58.7074986  84.8494681  30.1462758  59.6537594  85.7223533
  26.0975037  58.8283581  84.6693058  26.9628033  58.6326390  84.3098947
  26.1652545  58.5993933  85.5962415  35.7120167  69.1181162  78.1403251
  34.9349610  68.7792321  77.6958414  36.3911648  69.1233785  77.4658216
  30.5272196  64.2375899  78.0309859  30.2222332  64.5522048  78.8820002
  31.4802638  64.3157319  78.0737192  28.9718628  70.3966123  79.6802813
  28.4439990  69.6618882  79.3676051  28.4706131  71.1740799  79.4342781
  33.9511474  68.5915143  84.7969859  33.2935149  69.2814404  84.8849988
  34.7551873  68.9811575  85.1403846  23.7037356  61.0585789  82.0409425
  24.2781108  60.8360970  81.3082618  24.2908338  61.1274483  82.7938026
  32.7616933  66.9459516  82.8473801  33.2748815  67.5789508  83.3495511
  33.4118157  66.3460711  82.4817161  24.0306943  63.0890250  76.0605310
  23.1944255  63.4264936  76.3814585  23.8911712  62.9539230  75.1232447
  26.0060023  57.9327038  80.7684494  25.3524436  57.6176055  80.1441109
  25.9640498  57.3102778  81.4944317  27.1171228  68.2146333  72.6837786
  26.2098290  67.9835586  72.8828935  27.6142260  67.4183952  72.8711768
  30.0239307  76.9243840  75.6034472  29.3501006  77.2275537  76.2119430
  30.4105129  77.7272920  75.2539929  29.2397764  64.4208971  85.0932142
  28.3220325  64.6423918  84.9353830  29.6557907  64.4955282  84.2343849
  30.0232811  65.8200387  80.2234822  30.7704630  66.3321784  79.9141944
  30.2924401  65.4984440  81.0839216  28.2959462  68.3158928  77.2061776
  27.3870681  68.0317961  77.3034246  28.3254545  68.7358006  76.3465083
  33.5278729  71.9265517  80.9752944  33.0741056  71.0856427  81.0318134
  32.8972696  72.5626916  81.3127724  32.4711649  62.8557503  82.2053611
  31.7334405  62.3434889  82.5363854  32.7238422  62.4157885  81.3936888
  31.9711668  73.7642014  81.9102762  32.2634643  74.3247071  81.1915128
  32.4810289  74.0570575  82.6655921  32.5723276  55.6333755  82.7995381
  32.8782153  54.7731119  82.5121296  33.2975881  56.2251375  82.5994374
  18.8647632  66.0364442  81.1876978  18.6672032  65.4433803  80.4628045
  18.3094296  65.7316652  81.9052917  26.8444356  65.9287548  83.3071572
  26.8992965  64.9761385  83.2314048  26.0335558  66.0846987  83.7912870
  27.9935549  69.8567671  74.5449855  27.5554979  69.1403530  74.0855492
  28.7345990  70.0843786  73.9834946  24.7836716  64.5464608  81.0661950
  23.9704581  64.8458779  81.4727143  25.2795710  64.1520297  81.7836433
  26.9345294  74.5422365  82.9996215  26.8921472  74.7683211  82.0704747
  27.8507992  74.3085740  83.1482016  30.3810927  65.0106433  89.8976844
  30.7360315  65.2377906  90.7571310  31.0283059  65.3424809  89.2754100
  36.1108664  68.1324868  80.6026173  35.9726563  68.3226464  79.6747363
  35.7544883  68.8944251  81.0594225  24.2750790  62.1182964  86.6823185
  24.9150170  61.9771723  85.9846149  23.4428321  61.8317477  86.3061787
  36.1378044  70.2001395  85.6137445  36.5714551  70.1076685  86.4620499
  36.8509625  70.1758896  84.9757461  25.0511094  71.4185394  82.7958178
  25.8451693  70.9235714  82.5940753  24.3402787  70.8903257  82.4325883
  21.3593858  65.5628476  78.8717931  20.4291446  65.5012931  79.0887893
  21.4551330  65.0404428  78.0754572  21.2779407  62.0883289  81.4596172
  21.5386224  63.0028622  81.3505333  22.0996579  61.6207731  81.6092785
  28.6529904  60.1282987  90.6460658  28.0057819  60.8272936  90.5525134
  29.4230920  60.5619131  91.0136906  28.8294039  67.9663752  88.7057477
  29.7586099  68.1174911  88.5326445  28.4085069  68.0547772  87.8506124
  28.2230522  77.0923512  77.8181551  28.3982278  76.6211556  78.6327174
  27.5363310  77.7189279  78.0462812  29.1787585  71.3696019  83.8644853
  28.8437418  71.3296789  84.7602503  28.6791531  70.7040735  83.3915263
  32.1146777  68.7152053  74.1381912  31.4975948  67.9898881  74.0414965
  31.6463266  69.4761413  73.7948987  23.9045323  62.9337477  73.2603217
  23.0274789  62.8126278  72.8965463  24.3803076  62.1423556  73.0082105
  27.0909249  75.2863768  80.5065737  26.3076771  75.8285448  80.6003962
  27.7901994  75.8037747  80.9059978  30.4005899  61.0958397  83.1499943
  30.8974599  60.3428359  82.8301013  29.6292881  61.1322714  82.5843152
  38.2535657  66.7998763  84.7918234  38.2425533  67.6823478  84.4212167
  37.3853036  66.4470314  84.5972771  31.4835680  69.8530084  80.7238366
  30.5491959  69.9731547  80.5543070  31.6612348  68.9502551  80.4598376
  26.9840868  63.2375780  82.8771627  26.6138655  62.6846821  83.5652533
  27.4799960  62.6333914  82.3246627  34.8708231  65.6947404  81.2588400
  35.3368683  66.5275395  81.1848703  35.3215732  65.2292385  81.9633659
  32.9384462  72.0391225  78.2574552  33.2144306  71.9247820  79.1668426
  32.0688961  71.6408710  78.2186725  32.8424894  58.0627991  85.2979301
  31.9287974  58.2932217  85.4661508  33.2717995  58.1466435  86.1493334
  32.6131352  66.2517883  87.7979195  31.9602803  66.4993790  87.1431648
  32.9911732  65.4382021  87.4641673  29.5738526  76.2877576  81.9007366
  29.7560921  75.4699232  82.3635118  30.3971512  76.5045268  81.4632256
  29.9080692  75.2145761  79.1622414  30.4368458  74.7038215  78.5492576
  30.1708911  74.8988291  80.0267947  18.6324017  64.5279333  78.7016122
  18.9277458  63.6190011  78.6483176  17.7312053  64.5067072  78.3797125
  30.5410096  76.2486597  85.5066531  30.4161235  75.4476336  84.9977476
  31.1989187  76.7432790  85.0180501  22.1618264  62.6035329  84.6843671
  21.4404850  63.2171297  84.5451144  22.9511520  63.1393094  84.6060317
  20.3611858  62.2093430  78.8255448  20.0324565  61.3290809  78.6430553
  20.7151229  62.1541099  79.7131837  29.6091437  73.8448333  83.3350433
  29.4616400  72.9165040  83.5158003  30.4344931  73.8668424  82.8507508
  23.4753682  62.4966400  79.1930925  23.8149754  63.0252321  78.4709534
  23.9225802  62.8346806  79.9689492  33.2125559  74.6676892  84.4215306
  34.1372107  74.4619753  84.2839757  33.0440863  74.4193293  85.3304647
  26.1697122  60.8803451  88.6433993  25.8293943  60.0811264  89.0454673
  25.4636129  61.1805162  88.0710826  26.8213594  57.9652763  87.0961316
  27.6439664  57.4913241  86.9740207  27.0651658  58.7443247  87.5960003
  25.4621829  60.9941022  77.3924218  26.1830191  61.3722274  76.8887935
  24.8387133  61.7129898  77.4959196  29.6052952  61.6986171  78.3282550
  29.8216566  62.5810808  78.0271378  29.1247019  61.3072384  77.5988192
  24.3452173  64.6571884  84.9053295  24.1996754  64.9712187  85.7977576
  23.8677377  65.2756784  84.3524194  26.2048556  61.6474432  84.9534184
  26.1910125  60.7515525  84.6166482  26.9220984  61.6545096  85.5872470
  28.0574687  62.0811772  86.9987312  27.7992464  63.0028843  86.9971642
  27.5259727  61.6842207  87.6887776  33.0020875  75.1862559  79.7777397
  33.1757753  74.6208982  79.0251250  33.4949767  75.9863454  79.5956887
  25.6085452  60.5288812  80.2221755  25.7301363  59.6005458  80.4212642
  25.3187494  60.5427498  79.3100070  28.4776642  58.2143723  83.3588474
  28.4998339  58.2783056  82.4040454  28.8944701  57.3748231  83.5528981
  38.8560267  67.9498982  81.3967697  39.2991413  67.2006307  80.9986820
  37.9786777  67.9409118  81.0141429  33.9896048  74.5029324  76.8774296
  34.6846952  75.1236016  77.0961610  34.3319198  73.6524675  77.1526673
  35.8887471  71.9529029  78.4061626  36.4138795  72.2916302  77.6810946
  35.8009824  71.0176044  78.2224761  24.5815511  72.1142945  78.3137642
  24.7303631  72.7978409  77.6604314  25.3881954  72.0948035  78.8287097
  38.3993131  69.4204220  83.7890145  39.2340023  69.8594024  83.9527705
  38.5352260  68.9442874  82.9698390  22.3368144  68.1408122  79.3198711
  22.0914186  67.2370452  79.5178921  22.5064058  68.1425273  78.3778189
  30.0264854  59.0131799  88.7023466  30.5446797  59.7492826  88.3769955
  29.6719986  59.3195792  89.5370225  21.6063791  63.8736480  76.8184872
  20.9133036  63.9480835  76.1624908  21.3615543  63.1096824  77.3406389
  30.2777448  55.4332081  84.2224363  30.5579202  54.7655270  84.8484789
  31.0628055  55.6261177  83.7099027  28.0810916  74.6091075  75.7849389
  27.5084883  75.2281262  75.3319861  28.6543710  75.1590437  76.3189311
  34.1486306  63.8549715  87.9695938  35.1003729  63.9547813  87.9908162
  33.9789757  63.0627984  88.4794022  32.1700686  60.9405299  88.1555339
  31.5750618  61.2210311  87.4601827  31.8850382  61.4299199  88.9272080
  31.3008176  74.8928225  76.9157971  32.2338849  74.8273787  77.1190847
  31.2131389  75.7284492  76.4572504  33.9296193  74.2094096  73.8761919
  33.8509824  73.8753959  74.7697677  34.7505860  74.7015864  73.8753391
  36.6274384  67.0755835  87.0838238  36.5950704  66.1371836  87.2697921
  37.2375008  67.1539872  86.3504062  28.4657715  65.9451888  73.1265442
  29.4116820  65.8158096  73.1953860  28.0871960  65.2066550  73.6034870
  36.7768872  63.8666878  87.1296521  36.2607921  63.0825335  86.9426450
  37.6608821  63.5385595  87.2943040  34.4379599  57.6107894  83.0892333
  34.2404420  57.3022982  83.9735665  35.0479305  58.3369533  83.2190263
  26.6500632  63.8701864  73.0620327  25.7432087  63.5734977  73.1383040
  26.9276613  63.5731682  72.1954613  28.2662698  58.4138754  79.2164568
  27.4563426  58.0685839  79.5919814  28.9547115  58.1046298  79.8052180
  30.1953246  57.4916801  80.8388865  30.7484285  57.9112254  81.4978888
  30.4323332  56.5652549  80.8811821  25.4199417  60.7288800  73.2032306
  26.2818581  61.0543698  73.4628123  25.6049761  59.9420295  72.6905372
  33.5732053  59.6017326  80.3467529  32.9930722  60.2602130  79.9645581
  33.3067986  58.7794671  79.9354947  32.0235619  59.0022384  82.5488849
  32.5235398  59.1138918  81.7403168  32.6671227  58.6983437  83.1889658
  32.3556931  61.7617416  79.4023877  31.4682786  62.0467067  79.1844072
  32.7710920  61.6011180  78.5551154  35.7071467  61.7863937  83.1178217
  36.4831857  62.2760390  83.3902833  34.9819601  62.2121992  83.5750086
  38.1444026  62.4991557  84.1752157  38.7388517  62.2587293  83.4645465
  38.2170610  61.7798687  84.8025693  31.5000145  71.5262091  73.4971897
  32.2035995  71.7312094  74.1129553  30.7762793  72.0938853  73.7620981
  32.3297955  67.2771952  79.6174167  32.2733156  67.7340504  78.7781800
  32.8826297  66.5162637  79.4397010  36.1402761  63.0661684  80.4424287
  35.8839695  62.6658320  81.2732495  35.5155629  63.7805478  80.3174426
  40.4515099  65.8057757  82.9495578  39.8914657  65.8750947  83.7227140
  39.8458602  65.6298742  82.2295075  33.4086842  71.9644620  75.5470357
  34.2432446  71.5325819  75.3647832  33.2471185  71.7926634  76.4747252
  33.0632734  68.4676734  76.9126697  33.0081538  68.3021005  75.9715141
  32.4378789  69.1752766  77.0688886  26.3728860  57.9684843  76.4912015
  26.3607529  58.9126683  76.6480286  27.2652281  57.7854988  76.1971476
  30.1880979  54.5627619  80.7457952  29.4213375  54.0086106  80.8914634
  30.5991684  54.6349488  81.6072103  34.2102825  85.0437281  77.2785549
  34.9833701  84.4966268  77.1398425  34.5628224  85.9081530  77.4900010
  36.5469103  81.2029947  74.9103999  36.7994623  80.6811468  74.1487462
  35.6093662  81.0396092  75.0130682  36.2665391  83.1058053  77.1128374
  36.1501650  82.4302956  77.7809458  36.3767651  82.6190427  76.2960527
  38.2502419  77.5958100  75.8136412  38.4176822  78.4638336  76.1806883
  38.0599588  77.7585381  74.8897701  38.2291640  80.0515757  76.7983078
  38.1091265  80.4972808  77.6368559  37.5344229  80.4001075  76.2396617
  32.7183216  79.9888741  81.3517254  31.9214379  80.1007435  81.8700750
  32.4908808  80.3275393  80.4858145  29.6815215  84.0265644  80.5166245
  30.5190437  84.4362653  80.2999953  29.8593483  83.0865086  80.4866439
  41.5779648  81.6940725  76.2050078  41.0626271  82.4645329  76.4438465
  41.3056956  81.0205861  76.8283139  39.1626759  76.5390426  81.2635316
  38.3068355  76.1497276  81.0840955  39.5753710  76.6182386  80.4035102
  41.3665951  79.5667817  78.0309859  41.0616086  79.8813966  78.8820002
  42.3196393  79.6449237  78.0737192  34.5431110  76.3877707  82.0409425
  35.1174862  76.1652888  81.3082618  35.1302093  76.4566401  82.7938026
  34.8700697  78.4182168  76.0605310  34.0338010  78.7556854  76.3814585
  34.7305467  78.2831147  75.1232447  36.8453778  73.2618955  80.7684494
  36.1918190  72.9467973  80.1441109  36.8034252  72.6394696  81.4944317
  37.9564983  83.5438251  72.6837786  37.0492044  83.3127504  72.8828935
  38.4536015  82.7475870  72.8711768  39.1353216  83.6450845  77.2061776
  38.2264435  83.3609878  77.3034246  39.1648300  84.0649924  76.3465083
  43.4117030  70.9625673  82.7995381  43.7175907  70.1023036  82.5121296
  44.1369635  71.5543293  82.5994374  29.7041387  81.3656360  81.1876978
  29.5065786  80.7725720  80.4628045  29.1488051  81.0608570  81.9052917
  38.8329304  85.1859589  74.5449855  38.3948734  84.4695448  74.0855492
  39.5739745  85.4135704  73.9834946  32.1987612  80.8920393  78.8717931
  31.2685200  80.8304849  79.0887893  32.2945084  80.3696346  78.0754572
  42.9540532  84.0443971  74.1381912  42.3369702  83.3190799  74.0414965
  42.4857020  84.8053331  73.7948987  34.7439077  78.2629395  73.2603217
  33.8668544  78.1418196  72.8965463  35.2196831  77.4715473  73.0082105
  29.4717771  79.8571250  78.7016122  29.7671212  78.9481929  78.6483176
  28.5705807  79.8358990  78.3797125  31.2005613  77.5385348  78.8255448
  30.8718319  76.6582727  78.6430553  31.5544984  77.4833017  79.7131837
  34.3147436  77.8258318  79.1930925  34.6543509  78.3544239  78.4709534
  34.7619557  78.1638724  79.9689492  36.3015583  76.3232939  77.3924218
  37.0223946  76.7014192  76.8887935  35.6780887  77.0421816  77.4959196
  40.4446706  77.0278088  78.3282550  40.6610320  77.9102726  78.0271378
  39.9640773  76.6364302  77.5988192  36.4479206  75.8580730  80.2221755
  36.5695117  74.9297376  80.4212642  36.1581249  75.8719416  79.3100070
  39.3170397  73.5435640  83.3588474  39.3392094  73.6074973  82.4040454
  39.7338456  72.7040149  83.5528981  33.1761898  83.4700040  79.3198711
  32.9307940  82.5662370  79.5178921  33.3457813  83.4717191  78.3778189
  32.4457546  79.2028398  76.8184872  31.7526791  79.2772753  76.1624908
  32.2009298  78.4388741  77.3406389  39.3051469  81.2743806  73.1265442
  40.2510574  81.1450014  73.1953860  38.9265714  80.5358468  73.6034870
  37.4894386  79.1993782  73.0620327  36.5825842  78.9026895  73.1383040
  37.7670367  78.9023600  72.1954613  39.1056452  73.7430672  79.2164568
  38.2957180  73.3977757  79.5919814  39.7940869  73.4338215  79.8052180
  41.0347000  72.8208719  80.8388865  41.5878039  73.2404172  81.4978888
  41.2717087  71.8944467  80.8811821  36.2593171  76.0580717  73.2032306
  37.1212335  76.3835616  73.4628123  36.4443515  75.2712213  72.6905372
  44.4125808  74.9309244  80.3467529  43.8324477  75.5894048  79.9645581
  44.1461740  74.1086588  79.9354947  43.1950686  77.0909334  79.4023877
  42.3076541  77.3758985  79.1844072  43.6104675  76.9303097  78.5551154
  42.3393899  86.8554009  73.4971897  43.0429749  87.0604011  74.1129553
  41.6156548  87.4230771  73.7620981  37.2122614  73.2976760  76.4912015
  37.2001284  74.2418600  76.6480286  38.1046036  73.1146906  76.1971476
  41.0274734  69.8919537  80.7457952  40.2607129  69.3378024  80.8914634
  41.4385438  69.9641406  81.6072103   7.7665936  18.9734513  63.6043721
   7.1153915  19.5588594  63.2177735   8.5610298  19.5040708  63.6638759
   1.6921563  16.0623650  64.0030856   2.4652439  15.5152637  63.8643731
   2.0446962  16.9267900  64.2145317   4.0287840  12.2216316  61.6349306
   4.2813361  11.6997838  60.8732769   3.0912400  12.0582462  61.7375989
   9.2441201  16.6624945  64.1412706   8.6087034  16.7359572  64.8533610
   8.9138607  17.2518544  63.4631785   3.4717270  23.8405768  67.1718516
   3.3941300  24.7913594  67.2506997   2.8678914  23.4951641  67.8293443
  11.4095444  11.5423600  64.3508719  12.3213300  11.7750987  64.1756417
  10.9005091  12.1260644  63.7883798  13.8954258  17.4603856  69.0966664
  13.2105297  17.8402758  68.5463698  13.9798108  18.0699183  69.8298612
  20.3557011  14.3274519  70.2169337  19.6020719  13.7581917  70.0613341
  20.4904552  14.2937184  71.1639971   5.7455639  19.1987921  65.8924056
   5.6101314  20.0439457  66.3208904   6.2865452  19.4007199  65.1289990
   9.0598385  12.7127094  62.9295385   8.5445009  13.4831699  63.1683772
   8.7875694  12.0392231  63.5528446  14.0332659  15.4659449  64.8648558
  13.2562102  15.1270609  64.4203720  14.7124140  15.4712072  64.1903523
   7.2931120  16.7444410  66.4048120   6.7652482  16.0097169  66.0921357
   6.7918623  17.5219086  66.1588088   5.4383721  14.5624620  59.4083093
   4.5310782  14.3313874  59.6074242   5.9354752  13.7662239  59.5957074
   8.3451799  23.2722127  62.3279779   7.6713498  23.5753824  62.9364737
   8.7317621  24.0751208  61.9785236   6.6171954  14.6637215  63.9307083
   5.7083173  14.3796248  64.0279553   6.6467038  15.0836294  63.0710390
  11.8491221  18.2743804  67.6998250  11.3953548  17.4334714  67.7563441
  11.2185188  18.9105203  68.0373031  10.2924161  20.1120301  68.6348069
  10.5847135  20.6725358  67.9160434  10.8022781  20.4048862  69.3901228
   6.3148042  16.2045959  61.2695161   5.8767472  15.4881818  60.8100799
   7.0558483  16.4322073  60.7080253  14.4321157  14.4803156  67.3271480
  14.2939055  14.6704752  66.3992669  14.0757375  15.2422538  67.7839531
   6.5443015  23.4401800  64.5426858   6.7194770  22.9689843  65.3572481
   5.8575803  24.0667566  64.7708119  10.4359269  15.0630340  60.8627219
   9.8188440  14.3377168  60.7660272   9.9675758  15.8239701  60.5194293
   5.4121741  21.6342055  67.2311044   4.6289263  22.1763735  67.3249268
   6.1114486  22.1516035  67.6305285   9.8048172  16.2008372  67.4483673
   8.8704451  16.3209834  67.2788377   9.9824841  15.2980838  67.1843682
  11.2596955  18.3869512  64.9819859  11.5356798  18.2726107  65.8913733
  10.3901453  17.9886997  64.9432032   7.8951019  22.6355863  68.6252672
   8.0773413  21.8177519  69.0880425   8.7184005  22.8523555  68.1877562
   8.2293184  21.5624048  65.8867721   8.7580951  21.0516503  65.2737883
   8.4921404  21.2466578  66.7513254  11.3233368  21.5340846  66.5022704
  11.4970245  20.9687269  65.7496556  11.8162259  22.3341741  66.3202194
  17.1772759  14.2977269  68.1213004  17.6203905  13.5484595  67.7232127
  16.2999269  14.2887406  67.7386736  12.3108540  20.8507611  63.6019602
  13.0059445  21.4714303  63.8206917  12.6531690  20.0002962  63.8771980
  14.2099963  18.3007316  65.1306933  14.7351287  18.6394589  64.4056253
  14.1222316  17.3654332  64.9470068   5.8940624  24.3679300  69.4902186
   5.4545614  23.8755678  70.1835043   6.6448741  23.8252267  69.2494261
   2.9028003  18.4621232  65.0382948   3.0516123  19.1456696  64.3849621
   3.7094447  18.4426322  65.5532404  16.7205623  15.7682508  70.5135451
  17.5552515  16.2072312  70.6773012  16.8564752  15.2921161  69.6943697
   6.4023409  20.9569362  62.5094696   5.8297376  21.5759550  62.0565168
   6.9756202  21.5068724  63.0434618   9.6220668  21.2406513  63.6403278
  10.5551342  21.1752074  63.8436154   9.5343881  22.0762779  63.1817811
  12.2508685  20.5572383  60.6007226  12.1722317  20.2232247  61.4942983
  13.0718352  21.0494151  60.5998698   6.7870207  12.2930175  59.8510748
   7.7329312  12.1636383  59.9199166   6.4084452  11.5544837  60.3280176
   9.8212637  17.8740378  60.2217204  10.5248487  18.0790381  60.8374860
   9.0975286  18.4417140  60.4866287  10.6510447  13.6250240  66.3419474
  10.5945648  14.0818791  65.5027106  11.2038790  12.8640924  66.1642317
  11.7299334  18.3122908  62.2715664  12.5644938  17.8804106  62.0893139
  11.5683677  18.1404921  63.1992558  11.3845226  14.8155021  63.6372003
  11.3294030  14.6499292  62.6960447  10.7591282  15.5231054  63.7934193
  20.3583609  28.8292559  72.3670841  20.9962019  28.7099306  71.6634181
  20.2404452  29.7773403  72.4258793  17.1673316  28.7819987  72.3032365
  16.8291827  28.6661051  71.4152900  18.0363084  28.3811152  72.2833372
  13.0260131  30.6355463  68.2929256  12.4624996  30.5445400  67.5245544
  12.9112526  29.8155368  68.7731749  10.5724563  32.1306655  71.1313477
  11.3645855  31.7897479  70.7159776  10.8121213  32.2401630  72.0515630
  18.6059690  34.3026431  63.6043721  17.9547670  34.8880511  63.2177735
  19.4004053  34.8332626  63.6638759  12.5315317  31.3915568  64.0030856
  13.3046193  30.8444555  63.8643731  12.8840716  32.2559817  64.2145317
  14.3700360  32.7191950  77.2097755  14.0790226  33.6237581  77.0944421
  15.0057344  32.7608478  77.9241824  15.2956567  30.0968799  73.7999115
  15.8920139  29.8724821  73.0856077  15.3531538  29.3553544  74.4024562
  14.8681595  27.5508234  61.6349306  15.1207116  27.0289755  60.8732769
  13.9306154  27.3874380  61.7375989  19.9124878  26.5544012  69.4424049
  20.6987967  26.1363436  69.0914466  20.1763582  27.4590105  69.6105697
  20.0834955  31.9916863  64.1412706  19.4480788  32.0651489  64.8533610
  19.7532362  32.5810462  63.4631785  25.3133305  26.4919246  70.3457027
  26.0458477  25.9218462  70.5794857  24.5572661  26.1040846  70.7863533
  14.5877884  29.4536340  63.8373680  14.4714142  28.7781243  64.5054765
  14.6980144  28.9668714  63.0205834  16.9309425  28.9146487  67.5420370
  16.5667632  28.3877108  68.2533291  17.7876541  28.5244956  67.3686855
  16.5714912  23.9436387  62.5381718  16.7389314  24.8116623  62.9052189
  16.3812081  24.1063669  61.6143007  19.3290245  32.4053366  74.2047549
  19.0290968  33.3078405  74.0963356  18.9841304  32.1385549  75.0568701
  12.7802726  28.8567163  70.2384253  11.8553223  28.7243377  70.4461945
  13.0287139  29.6361382  70.7354195  22.7287389  24.9235906  71.8844986
  21.8204266  24.8551314  71.5903747  22.6774984  25.4007851  72.7126811
  16.5504132  26.3994044  63.5228385  16.4303758  26.8451095  64.3613865
  15.8556721  26.7479362  62.9641923  10.1411537  28.5000436  71.0728042
  10.2703918  28.7534915  71.9867454   9.4608989  29.0928144  70.7532697
  14.3111025  39.1697686  67.1718516  14.2335054  40.1205511  67.2506997
  13.7072668  38.8243559  67.8293443  24.5949035  23.1252344  73.6622860
  23.9523415  23.4184878  73.0162654  24.0903964  23.0105265  74.4676057
  20.5329966  31.2940145  77.9870012  20.9413322  30.8522556  77.2424644
  19.8107228  30.7192773  78.2404205  16.8861036  26.2312752  75.3603569
  17.7322232  26.6552166  75.5038218  16.8259674  25.5746376  76.0542132
  20.8558781  31.8541336  71.7422301  20.2267643  32.0187050  71.0398368
  20.4684443  32.2682946  72.5133265  24.7348013  32.7895774  69.0966664
  24.0499051  33.1694675  68.5463698  24.8191862  33.3991101  69.8298612
  21.9898944  30.4355733  75.6962008  22.2015840  31.0787493  75.0196389
  21.9428693  29.6018049  75.2283938  19.5925173  23.0473554  72.5998580
  18.7309652  23.3454807  72.8915318  19.6187608  23.2643952  71.6679613
  16.4086743  31.5915744  69.0072386  16.8725088  31.8703447  68.2177008
  16.1443541  30.6899189  68.8245476  13.3010824  31.1387226  71.9452149
  13.8712181  31.5674494  71.3069633  13.8918936  30.8569810  72.6436335
  15.3455629  27.7138896  65.8161951  16.0479672  28.1659940  66.2835877
  15.0136257  27.0722715  66.4441844   9.0880963  25.9722449  71.1179084
   8.2980017  26.2279978  70.6419195   9.5792210  26.7870787  71.2231125
  23.1044772  33.3127688  73.8684365  23.9262216  32.9107876  73.5867047
  23.1007175  33.2095922  74.8200481  11.0395708  26.3367028  68.0762561
  10.2426872  26.4485723  68.5946057  10.8121300  26.6753681  67.2103452
  16.8701376  32.8611732  76.0245076  16.9345808  33.3232139  76.8603248
  16.1612300  32.2309097  76.1527386  31.1950765  29.6566437  70.2169337
  30.4414474  29.0873835  70.0613341  31.3298307  29.6229101  71.1639971
  16.5849394  34.5279839  65.8924056  16.4495068  35.3731375  66.3208904
  17.1259206  34.7299117  65.1289990  10.0378791  32.0455277  66.4651981
  10.5503311  32.8398527  66.6157546  10.6901504  31.3481568  66.3985583
  11.8473676  35.1621033  68.5474734  12.0240304  36.0838998  68.3595718
  12.6430509  34.8479453  68.9769114  18.2117870  35.1503406  80.0224398
  17.7681724  34.3639784  79.7045303  18.8735083  35.3382556  79.3568289
  12.9704991  36.6799207  74.5485077  13.5212416  36.5516271  73.7762071
  12.1316467  36.9794096  74.1979969  20.3099108  35.4306206  78.0505799
  20.2917583  36.2515087  77.5586069  21.2319028  35.3060281  78.2755941
  16.7672162  32.9450335  78.8929308  17.3000499  32.1838623  78.6628616
  16.2386243  32.6523987  79.6353462   8.0027708  30.3743931  67.2411552
   8.8402930  30.7840940  67.0245259   8.1805975  29.4343374  67.2111746
  19.8992140  28.0419012  62.9295385  19.3838763  28.8123617  63.1683772
  19.6269448  27.3684148  63.5528446  17.4839251  22.8868713  67.9880623
  16.6280847  22.4975563  67.8086262  17.8966203  22.9660674  67.1280409
  19.0138397  20.4215056  72.3872183  18.5103193  20.3845191  71.5739988
  19.3069004  21.3307799  72.4468839  15.2581283  20.5053786  71.3938364
  16.1234280  20.3096595  71.0344254  15.3258792  20.2764138  72.3207721
  24.8726414  30.7951367  64.8648558  24.0955857  30.4562526  64.4203720
  25.5517895  30.8003990  64.1903523  19.6878443  25.9146104  64.7555166
  19.3828579  26.2292253  65.6065309  20.6408885  25.9927524  64.7982499
  18.1324875  32.0736327  66.4048120  17.6046236  31.3389087  66.0921357
  17.6312378  32.8511004  66.1588088  23.1117721  30.2685348  71.5215166
  22.4541395  30.9584609  71.6095295  23.9158120  30.6581780  71.8649152
  12.8643602  22.7355994  68.7654731  13.4387354  22.5131175  68.0327924
  13.4514585  22.8044688  69.5183333  21.9223180  28.6229721  69.5719108
  22.4355061  29.2559713  70.0740818  22.5724404  28.0230916  69.2062468
  13.1913190  24.7660455  62.7850617  12.3550502  25.1035141  63.1059891
  13.0517959  24.6309435  61.8477754  15.1666270  19.6097243  67.4929801
  14.5130682  19.2946260  66.8686415  15.1246744  18.9872983  68.2189624
  16.2777475  29.8916538  59.4083093  15.3704537  29.6605791  59.6074242
  16.7748507  29.0954157  59.5957074  19.1845554  38.6014045  62.3279779
  18.5107253  38.9045742  62.9364737  19.5711376  39.4043125  61.9785236
  18.4004011  26.0979176  71.8177448  17.4826572  26.3194123  71.6599136
  18.8164154  26.1725487  70.9589156  19.1839058  27.4970592  66.9480129
  19.9310877  28.0091989  66.6387251  19.4530648  27.1754645  67.8084522
  17.4565708  29.9929133  63.9307083  16.5476928  29.7088165  64.0279553
  17.4860792  30.4128211  63.0710390  22.6884976  33.6035722  67.6998250
  22.2347303  32.7626632  67.7563441  22.0578943  34.2397120  68.0373031
  21.6317895  24.5327708  68.9298918  20.8940652  24.0205094  69.2609160
  21.8844669  24.0928090  68.1182195  21.1317915  35.4412219  68.6348069
  21.4240889  36.0017276  67.9160434  21.6416536  35.7340780  69.3901228
  21.7329523  17.3103960  69.5240687  22.0388400  16.4501324  69.2366602
  22.4582128  17.9021580  69.3239681   8.0253879  27.7134647  67.9122285
   7.8278279  27.1204007  67.1873352   7.4700543  27.4086857  68.6298224
  16.0050602  27.6057753  70.0316878  16.0599212  26.6531590  69.9559355
  15.1941805  27.7617192  70.5158177  17.1541796  31.5337876  61.2695161
  16.7161226  30.8173735  60.8100799  17.8952237  31.7613991  60.7080253
  13.9442962  26.2234813  67.7907257  13.1310828  26.5228984  68.1972449
  14.4401957  25.8290502  68.5081739  16.0951540  36.2192570  69.7241522
  16.0527719  36.4453416  68.7950054  17.0114239  35.9855944  69.8727323
  19.5417174  26.6876637  76.6222151  19.8966562  26.9148111  77.4816617
  20.1889305  27.0195014  75.9999406  25.2714911  29.8095073  67.3271480
  25.1332810  29.9996669  66.3992669  24.9151130  30.5714456  67.7839531
  13.4357037  23.7953168  73.4068492  14.0756416  23.6541928  72.7091455
  12.6034568  23.5087682  73.0307094  25.2984291  31.8771600  72.3382752
  25.7320797  31.7846889  73.1865806  26.0115871  31.8529101  71.7002768
  14.2117341  33.0955599  69.5203485  15.0057940  32.6005919  69.3186059
  13.5009033  32.5673462  69.1571190  19.0312186  35.4773694  73.8715852
  19.0849208  36.0464631  74.6393568  18.1626967  35.6475579  73.5069889
  10.5200105  27.2398681  65.5963237   9.5897693  27.1783136  65.8133199
  10.6157577  26.7174633  64.7999878  10.4385654  23.7653493  68.1841479
  10.6992471  24.6798827  68.0750639  11.2602826  23.2977936  68.3338092
  26.1599840  31.9195301  74.8715637  26.3535730  32.8241111  75.1174912
  26.0600458  31.4602720  75.7054222  21.2214949  32.0702044  80.4456518
  21.0700455  31.8412595  79.5286601  21.2119628  33.0272645  80.4587863
  17.9900285  29.6433956  75.4302784  18.9192345  29.7945116  75.2571751
  17.5691315  29.7317977  74.5751431  16.7888617  33.6684621  73.2001322
  16.6499703  33.3003405  74.0727260  16.0003213  34.1832260  73.0285279
  17.3836769  38.7693717  64.5426858  17.5588525  38.2981761  65.3572481
  16.6969557  39.3959484  64.7708119  18.3393832  33.0466224  70.5890159
  18.0043665  33.0066994  71.4847809  17.8397778  32.3810940  70.1160570
  21.2753024  30.3922258  60.8627219  20.6582194  29.6669086  60.7660272
  20.8069512  31.1531618  60.5194293  14.9420377  28.1653813  75.6026420
  15.6519995  27.5247005  75.5613039  14.8989685  28.4166708  76.5252601
  22.9307156  35.1021166  78.5232999  22.8719702  34.4180386  77.8563582
  23.3326674  35.8440156  78.0713625  11.9497854  41.9183080  71.3166718
  12.1894453  42.5501604  71.9945737  11.1067051  41.5671120  71.6032078
  13.0651570  24.6107682  59.9848523  12.1881036  24.4896483  59.6210770
  13.5409323  23.8193761  59.7327412  22.9324563  33.0660750  76.7546979
  22.0451342  32.7286672  76.8773378  23.5023114  32.3343781  76.9915744
   4.5853710  29.3984842  70.0790030   5.2724750  29.0846572  69.4911046
   4.4301839  30.3026207  69.8057282  16.4625716  37.7262203  73.7208222
  16.3895888  38.5317174  74.2327527  16.0203109  37.9254168  72.8956244
  16.2515496  36.9633973  67.2311044  15.4683018  37.5055653  67.3249268
  16.9508241  37.4807952  67.6305285  19.5612146  22.7728602  69.8745249
  20.0580845  22.0198564  69.5546319  18.7899127  22.8092919  69.3088459
  27.4141903  28.4768968  71.5163541  27.4031780  29.3593683  71.1457474
  26.5459283  28.1240518  71.3218078  18.9224400  37.6249037  75.8766381
  19.6352372  38.2596501  75.8042282  18.4314428  37.7212903  75.0606383
  20.6441927  31.5300289  67.4483673  19.7098205  31.6501752  67.2788377
  20.8218595  30.6272756  67.1843682  16.1447115  24.9145985  69.6016934
  15.7744902  24.3617025  70.2897839  16.6406207  24.3104119  69.0491934
  24.0314478  27.3717609  67.9833707  24.4974930  28.2045600  67.9094009
  24.4821978  26.9062590  68.6878965  13.9736313  35.3743480  76.6971952
  14.6745773  36.0079963  76.8501346  13.5031428  35.7158212  75.9367591
  22.0990709  33.7161430  64.9819859  22.3750553  33.6018024  65.8913733
  21.2295208  33.3178915  64.9432032  22.0031141  19.7398196  72.0224608
  21.0894221  19.9702422  72.1906815  22.4324242  19.8236640  72.8738640
  21.7737599  27.9288088  74.5224502  21.1209049  28.1763995  73.8676955
  22.1517979  27.1152226  74.1886979  18.7344773  37.9647781  68.6252672
  18.9167168  37.1469437  69.0880425  19.5577759  38.1815473  68.1877562
  19.0686939  36.8915966  65.8867721  19.5974705  36.3808420  65.2737883
  19.3315158  36.5758496  66.7513254   9.5704031  34.9079835  73.6303054
  10.1557468  34.1623523  73.7630959   9.3728870  35.2183792  74.5139718
  12.4242687  37.9431083  68.6465497  11.7553062  38.4277210  68.1629537
  12.2855556  38.1900303  69.5608875  16.5647955  39.9774826  75.2448155
  17.1166263  40.1406448  76.0097240  16.9054149  40.5679264  74.5728180
  21.4158829  34.8036084  81.0996810  21.9598733  35.4166042  80.6051764
  20.8345674  35.3615662  81.6163823   7.7930264  26.2049537  65.4261429
   8.0883705  25.2960216  65.3728483   6.8918299  26.1837277  65.1042431
  19.7016342  37.9256802  72.2311837  19.5767482  37.1246541  71.7222783
  20.3595433  38.4202995  71.7425807  11.3224511  24.2805534  71.4088978
  10.6011096  24.8941502  71.2696451  12.1117766  24.8163299  71.3305624
  21.7651251  35.7265822  73.8591387  20.8181586  35.6071173  73.7869714
  22.1134024  34.8388320  73.9417649   9.5218105  23.8863635  65.5500754
   9.1930811  23.0061014  65.3675860   9.8757476  23.8311304  66.4377143
  18.7697684  35.5218538  70.0595740  18.6222646  34.5935245  70.2403310
  19.5951178  35.5438629  69.5752815  12.6359928  24.1736605  65.9176232
  12.9756001  24.7022526  65.1954840  13.0832049  24.5117011  66.6934798
  22.3731806  36.3447097  71.1460612  23.2978353  36.1389958  71.0085064
  22.2047109  36.0963498  72.0549954  14.6228075  22.6711227  64.1169525
  15.3436438  23.0492479  63.6133241  13.9993380  23.3900103  64.2204503
  18.7659198  23.3756376  65.0527857  18.9822813  24.2581013  64.7516685
  18.2853266  22.9842589  64.3233499  13.5058420  26.3342089  71.6298602
  13.3603000  26.6482392  72.5222883  13.0283623  26.9526989  71.0769500
  15.3654803  23.3244637  71.6779491  15.3516371  22.4285730  71.3411789
  16.0827231  23.3315300  72.3117777  17.2180933  23.7581977  73.7232618
  16.9598711  24.6799048  73.7216949  16.6865974  23.3612411  74.4133083
  22.1627122  36.8632764  66.5022704  22.3364000  36.2979187  65.7496556
  22.6556013  37.6633659  66.3202194  14.7691699  22.2059017  66.9467061
  14.8907610  21.2775663  67.1457949  14.4793741  22.2197703  66.0345377
  17.6382889  19.8913927  70.0833781  17.6604586  19.9553261  69.1285761
  18.0550948  19.0518436  70.2774287  28.0166513  29.6269187  68.1213004
  28.4597659  28.8776512  67.7232127  27.1393024  29.6179323  67.7386736
  23.1502295  36.1799528  63.6019602  23.8453199  36.8006221  63.8206917
  23.4925445  35.3294880  63.8771980  25.0493718  33.6299234  65.1306933
  25.5745042  33.9686507  64.4056253  24.9616070  32.6946249  64.9470068
  16.7113766  37.5433308  77.2596810  17.0200893  37.2982454  78.1319509
  17.5089248  37.7479946  76.7715680  16.7334378  39.6971217  69.4902186
  16.2939369  39.2047596  70.1835043  17.4842495  39.1544185  69.2494261
   9.2126717  35.8882758  69.4926814  10.0384737  35.5886530  69.1125458
   8.8620769  35.1190381  69.9416603  14.1808251  35.2409226  71.5624488
  13.5588260  34.5779931  71.2626716  14.8513118  35.2670358  70.8798136
   7.4135323  33.8069085  70.4515748   6.5767231  33.3791259  70.2699749
   7.3858968  34.0001528  71.3886539  24.7387624  34.2632138  80.4358131
  23.9483167  34.2456276  79.8962630  24.5020978  34.8020431  81.1907167
  24.8585499  31.1124604  77.7490859  24.9083504  30.9474611  78.6906382
  24.7499422  30.2451863  77.3588740  13.7421758  33.7913150  65.0382948
  13.8909878  34.4748614  64.3849621  14.5488201  33.7718240  65.5532404
  26.3603696  33.5321545  77.9932881  26.0688504  33.8951526  78.8296342
  25.7475827  32.8188554  77.8146213  27.5599378  31.0974425  70.5135451
  28.3946269  31.5364229  70.6773012  27.6958507  30.6213078  69.6943697
  24.6090884  28.6554160  76.4612939  25.0845006  28.8481806  75.6531790
  23.6856449  28.7113346  76.2156323  11.4974391  29.8178327  66.0444017
  11.2520432  28.9140657  66.2424227  11.6670305  29.8195478  65.1023495
  10.7670038  25.5506685  63.5430179  10.0739283  25.6251040  62.8870215
  10.5221790  24.7867029  64.0651696  19.4383695  17.1102286  70.9469669
  19.7185448  16.4425475  71.5730096  20.2234301  17.3031382  70.4344333
  17.2417163  36.2861280  62.5094696  16.6691130  36.9051467  62.0565168
  17.8149957  36.8360642  63.0434618  23.3092553  25.5319920  74.6941245
  24.2609976  25.6318018  74.7153469  23.1396003  24.7398189  75.2039329
  21.3306932  22.6175503  74.8800645  20.7356864  22.8980516  74.1847134
  21.0456629  23.1069404  75.6517387  20.4614423  36.5698430  63.6403278
  21.3945096  36.5043992  63.8436154  20.3737636  37.4054697  63.1817811
  23.0902440  35.8864301  60.6007226  23.0116071  35.5524164  61.4942983
  23.9112106  36.3786069  60.5998698  25.7880631  28.7526040  73.8083544
  25.7556951  27.8142041  73.9943228  26.3981254  28.8310077  73.0749369
  17.6263962  27.6222093  59.8510748  18.5723066  27.4928301  59.9199166
  17.2478207  26.8836755  60.3280176  25.9375119  25.5437083  73.8541827
  25.4214168  24.7595540  73.6671756  26.8215068  25.2155800  74.0188347
  23.5985846  19.2878099  69.8137640  23.4010667  18.9793187  70.6980972
  24.2085552  20.0139738  69.9435570  31.6057181  29.8142047  72.9489581
  32.3360569  29.5527335  73.5097284  30.9964126  29.0770769  72.9891649
  29.6872478  27.9549909  73.5464032  28.9605641  27.8205874  72.9380524
  29.2719765  28.2626738  74.3520750  15.8106879  25.5472069  59.7865633
  14.9038334  25.2505182  59.8628347  16.0882860  25.2501887  58.9199920
   6.7284819  26.8678433  70.2364680   6.4087603  26.0143741  69.9439054
   6.1818247  27.0827011  70.9922647  10.5064727  29.5840874  73.9534186
  10.7250736  30.5157981  73.9722220  10.9190500  29.2248848  74.7388990
  17.4268944  20.0908959  65.9409875  16.6169673  19.7456044  66.3165121
  18.1153361  19.7816503  66.5297486  19.3559493  19.1687006  67.5634171
  19.9090531  19.5882459  68.2224195  19.5929579  18.2422754  67.6057127
  14.5805663  22.4059004  59.9277613  15.4424827  22.7313903  60.1873430
  14.7656007  21.6190500  59.4150678   6.5973079  30.4881344  72.2057801
   5.9036551  30.0735297  71.6927756   7.3446070  30.5301881  71.6091220
  22.7338300  21.2787531  67.0712836  22.1536969  21.9372335  66.6890888
  22.4674232  20.4564876  66.6600253  21.1841866  20.6792589  69.2734156
  21.6841645  20.7909123  68.4648475  21.8277474  20.3753641  69.9134964
   8.5109822  30.4199598  70.0823816   8.4880510  30.5187285  69.1305699
   8.8210458  31.2664749  70.4040982  11.1697200  32.4775753  74.1970431
  12.1240453  32.4459695  74.1300362  10.9709723  32.0166377  75.0120657
  11.7596582  31.0476869  76.7641228  12.5789471  31.5420948  76.7876066
  12.0333389  30.1308837  76.7358796  21.5163178  23.4387621  66.1269184
  20.6289033  23.7237272  65.9089379  21.9317167  23.2781385  65.2796461
  24.8677714  23.4634142  69.8423523  25.6438104  23.9530595  70.1148140
  24.1425848  23.8892197  70.2995393  27.3050273  24.1761762  70.8997464
  27.8994763  23.9357497  70.1890772  27.3776856  23.4568892  71.5271000
   9.5247428  38.0195372  71.2140629   9.3901896  37.2595773  70.6478627
   9.1079491  38.7436272  70.7469417  20.6606391  33.2032296  60.2217204
  21.3642241  33.4082298  60.8374860  19.9369040  33.7709058  60.4866287
  21.4904202  28.9542157  66.3419474  21.4339403  29.4110709  65.5027106
  22.0432544  28.1932842  66.1642317  25.3009007  24.7431889  67.1669594
  25.0445942  24.3428525  67.9977801  24.6761876  25.4575683  67.0419733
  29.6121345  27.4827962  69.6740885  29.0520903  27.5521152  70.4472447
  29.0064849  27.3068947  68.9540381  12.6816554  38.9164689  71.4259071
  12.5648938  39.8610122  71.3237762  11.8609000  38.6138251  71.8144870
  22.5693089  33.6414825  62.2715664  23.4038693  33.2096024  62.0893139
  22.4077432  33.4696839  63.1992558  22.2238981  30.1446939  63.6372003
  22.1687785  29.9791210  62.6960447  21.5985036  30.8522971  63.7934193
  15.5335106  19.6455048  63.2157322  15.5213776  20.5896887  63.3725593
  16.4258528  19.4625193  62.9216783  13.7071068  39.5692951  74.6415000
  14.6098315  39.6016562  74.9581495  13.4808438  38.6393402  74.6561335
  15.4624670  38.3223938  71.3025078  14.5120301  38.3225800  71.1889451
  15.7657156  37.5756672  70.7861113  19.3487226  16.2397824  67.4703258
  18.5819622  15.6856311  67.6159941  19.7597931  16.3119693  68.3317410
  31.1977364  44.1584476  72.3670841  31.8355774  44.0391224  71.6634181
  31.0798207  45.1065320  72.4258793  28.0067070  44.1111904  72.3032365
  27.6685582  43.9952969  71.4152900  28.8756838  43.7103070  72.2833372
  23.8653886  45.9647381  68.2929256  23.3018751  45.8737318  67.5245544
  23.7506281  45.1447285  68.7731749  28.4886853  45.2646756  78.2618571
  28.4775494  44.8699554  77.3899075  28.6507493  44.5312829  78.8552342
  21.4118318  47.4598572  71.1313477  22.2039610  47.1189397  70.7159776
  21.6514968  47.5693547  72.0515630  23.3709072  46.7207486  64.0030856
  24.1439948  46.1736473  63.8643731  23.7234471  47.5851735  64.2145317
  25.2094114  48.0483868  77.2097755  24.9183980  48.9529499  77.0944421
  25.8451099  48.0900396  77.9241824  26.1350321  45.4260716  73.7999115
  26.7313893  45.2016739  73.0856077  26.1925293  44.6845462  74.4024562
  25.7075349  42.8800152  61.6349306  25.9600870  42.3581673  60.8732769
  24.7699909  42.7166297  61.7375989  30.7518632  41.8835930  69.4424049
  31.5381722  41.4655353  69.0914466  31.0157337  42.7882022  69.6105697
  36.1527059  41.8211163  70.3457027  36.8852231  41.2510380  70.5794857
  35.3966415  41.4332764  70.7863533  25.4271638  44.7828258  63.8373680
  25.3107896  44.1073161  64.5054765  25.5373898  44.2960632  63.0205834
  27.7703179  44.2438405  67.5420370  27.4061386  43.7169026  68.2533291
  28.6270295  43.8536874  67.3686855  33.6752480  35.5332737  74.8051636
  33.3435805  36.4028148  74.5812851  33.0798093  35.2169021  75.4845666
  27.4108666  39.2728305  62.5381718  27.5783068  40.1408541  62.9052189
  27.2205835  39.4355586  61.6143007  30.1683999  47.7345283  74.2047549
  29.8684722  48.6370322  74.0963356  29.8235059  47.4677467  75.0568701
  23.6196481  44.1859080  70.2384253  22.6946977  44.0535294  70.4461945
  23.8680894  44.9653300  70.7354195  33.5681143  40.2527824  71.8844986
  32.6598020  40.1843232  71.5903747  33.5168739  40.7299769  72.7126811
  27.3897887  41.7285962  63.5228385  27.2697512  42.1743013  64.3613865
  26.6950475  42.0771280  62.9641923  20.9805292  43.8292354  71.0728042
  21.1097673  44.0826833  71.9867454  20.3002743  44.4220062  70.7532697
  25.1504779  54.4989604  67.1718516  25.0728809  55.4497429  67.2506997
  24.5466423  54.1535476  67.8293443  27.6422009  41.6717469  79.8279883
  26.8655343  42.2311389  79.8182748  28.2812572  42.1574252  80.3494753
  35.4342789  38.4544262  73.6622860  34.7917170  38.7476795  73.0162654
  34.9297718  38.3397182  74.4676057  25.8968381  44.4802923  79.3897850
  26.6383066  45.0187967  79.1132674  25.1905367  45.1069211  79.5469402
  31.3723721  46.6232063  77.9870012  31.7807077  46.1814474  77.2424644
  30.6500982  46.0484691  78.2404205  27.7254791  41.5604670  75.3603569
  28.5715986  41.9844083  75.5038218  27.6653429  40.9038294  76.0542132
  31.6952535  47.1833254  71.7422301  31.0661398  47.3478968  71.0398368
  31.3078198  47.5974863  72.5133265  35.5741767  48.1187692  69.0966664
  34.8892806  48.4986593  68.5463698  35.6585617  48.7283018  69.8298612
  30.8754236  39.2209038  77.0184742  30.6315168  39.9751099  76.4819018
  31.1514167  39.5994386  77.8531989  32.8292699  45.7647651  75.6962008
  33.0409594  46.4079410  75.0196389  32.7822447  44.9309967  75.2283938
  30.4318928  38.3765471  72.5998580  29.5703407  38.6746725  72.8915318
  30.4581363  38.5935870  71.6679613  27.2480497  46.9207662  69.0072386
  27.7118843  47.1995365  68.2177008  26.9837295  46.0191106  68.8245476
  24.1404578  46.4679143  71.9452149  24.7105935  46.8966412  71.3069633
  24.7312690  46.1861728  72.6436335  26.1849383  43.0430814  65.8161951
  26.8873427  43.4951858  66.2835877  25.8530012  42.4014633  66.4441844
  24.6329745  41.6342571  80.1913160  24.0028405  42.3158852  80.4248557
  24.5265833  41.5225652  79.2466298  19.9274717  41.3014367  71.1179084
  19.1373771  41.5571895  70.6419195  20.4185965  42.1162705  71.2231125
  33.9438527  48.6419606  73.8684365  34.7655971  48.2399793  73.5867047
  33.9400930  48.5387840  74.8200481  21.8789463  41.6658946  68.0762561
  21.0820626  41.7777640  68.5946057  21.6515055  42.0045598  67.2103452
  27.7095130  48.1903649  76.0245076  27.7739563  48.6524057  76.8603248
  27.0006054  47.5601014  76.1527386  18.2112420  41.5544857  73.5494075
  18.4620459  42.4391867  73.8151651  18.7471969  41.3749459  72.7769167
  42.0344520  44.9858354  70.2169337  41.2808228  44.4165753  70.0613341
  42.1692061  44.9521019  71.1639971  27.4243148  49.8571757  65.8924056
  27.2888823  50.7023292  66.3208904  27.9652961  50.0591034  65.1289990
  23.9110488  35.9363337  82.5538411  23.5177433  35.3829535  83.2286055
  24.7276628  36.2473915  82.9444929  20.8772545  47.3747195  66.4651981
  21.3897066  48.1690445  66.6157546  21.5295258  46.6773485  66.3985583
  22.6867430  50.4912951  68.5474734  22.8634058  51.4130916  68.3595718
  23.4824264  50.1771370  68.9769114  26.8278449  37.3521216  80.1458668
  27.5688162  37.9528369  80.0663130  27.0596371  36.6098853  79.5876710
  21.9719787  42.5377583  78.4236897  21.8573302  41.6362840  78.7243996
  21.1164304  42.7841280  78.0721714  29.0511624  50.4795323  80.0224398
  28.6075479  49.6931702  79.7045303  29.7128838  50.6674474  79.3568289
  23.8098746  52.0091125  74.5485077  24.3606171  51.8808188  73.7762071
  22.9710221  52.3086014  74.1979969  31.1492862  50.7598123  78.0505799
  31.1311338  51.5807004  77.5586069  32.0712783  50.6352198  78.2755941
  27.6065917  48.2742253  78.8929308  28.1394253  47.5130541  78.6628616
  27.0779998  47.9815904  79.6353462  30.7735612  33.3802319  74.4222949
  30.4299881  34.2703960  74.3462060  31.1414574  33.1903976  73.5592534
  18.8421462  45.7035849  67.2411552  19.6796684  46.1132857  67.0245259
  19.0199730  44.7635291  67.2111746  28.3233005  38.2160631  67.9880623
  27.4674602  37.8267481  67.8086262  28.7359957  38.2952591  67.1280409
  29.8532152  35.7506974  72.3872183  29.3496948  35.7137109  71.5739988
  30.1462759  36.6599717  72.4468839  26.0975038  35.8345704  71.3938364
  26.9628035  35.6388512  71.0344254  26.1652547  35.6056055  72.3207721
  30.5272197  41.2438022  64.7555166  30.2222333  41.5584171  65.6065309
  31.4802640  41.3219442  64.7982499  28.9718629  47.4028245  66.4048120
  28.4439991  46.6681005  66.0921357  28.4706132  48.1802922  66.1588088
  33.9511475  45.5977266  71.5215166  33.2935150  46.2876527  71.6095295
  34.7551875  45.9873698  71.8649152  23.7037357  38.0647911  68.7654731
  24.2781109  37.8423093  68.0327924  24.2908339  38.1336606  69.5183333
  32.7616934  43.9521638  69.5719108  33.2748816  44.5851630  70.0740818
  33.4118158  43.3522834  69.2062468  24.0306944  40.0952372  62.7850617
  23.1944256  40.4327059  63.1059891  23.8911714  39.9601352  61.8477754
  26.0060025  34.9389160  67.4929801  25.3524437  34.6238178  66.8686415
  25.9640499  34.3164901  68.2189624  27.1171229  45.2208455  59.4083093
  26.2098291  44.9897709  59.6074242  27.6142261  44.4246075  59.5957074
  30.0239308  53.9305963  62.3279779  29.3501007  54.2337659  62.9364737
  30.4105130  54.7335043  61.9785236  29.2397765  41.4271094  71.8177448
  28.3220326  41.6486041  71.6599136  29.6557909  41.5017404  70.9589156
  30.0232813  42.8262510  66.9480129  30.7704632  43.3383907  66.6387251
  30.2924402  42.5046562  67.8084522  33.5278730  48.9327640  67.6998250
  33.0741057  48.0918550  67.7563441  32.8972697  49.5689038  68.0373031
  32.4711650  39.8619626  68.9298918  31.7334407  39.3497012  69.2609160
  32.7238423  39.4220007  68.1182195  31.9711670  50.7704136  68.6348069
  32.2634644  51.3309194  67.9160434  32.4810290  51.0632697  69.3901228
  32.5723277  32.6395878  69.5240687  32.8782154  31.7793241  69.2366602
  33.2975882  33.2313498  69.3239681  18.8647633  43.0426564  67.9122285
  18.6672033  42.4495925  67.1873352  18.3094297  42.7378775  68.6298224
  26.8444357  42.9349671  70.0316878  26.8992967  41.9823507  69.9559355
  26.0335559  43.0909110  70.5158177  24.7836717  41.5526731  67.7907257
  23.9704582  41.8520901  68.1972449  25.2795711  41.1582419  68.5081739
  26.9345295  51.5484488  69.7241522  26.8921474  51.7745334  68.7950054
  27.8507994  51.3147862  69.8727323  30.3810929  42.0168555  76.6222151
  30.7360316  42.2440028  77.4816617  31.0283060  42.3486932  75.9999406
  36.1108666  45.1386991  67.3271480  35.9726564  45.3288587  66.3992669
  35.7544884  45.9006374  67.7839531  24.2750792  39.1245086  73.4068492
  24.9150171  38.9833845  72.7091455  23.4428322  38.8379600  73.0307094
  36.1378045  47.2063518  72.3382752  36.5714552  47.1138807  73.1865806
  36.8509626  47.1821018  71.7002768  25.0511096  48.4247517  69.5203485
  25.8451694  47.9297837  69.3186059  24.3402788  47.8965380  69.1571190
  29.8705940  50.8065612  73.8715852  29.9242962  51.3756548  74.6393568
  29.0020721  50.9767497  73.5069889  21.3593859  42.5690598  65.5963237
  20.4291447  42.5075054  65.8133199  21.4551331  42.0466551  64.7999878
  21.2779408  39.0945411  68.1841479  21.5386225  40.0090744  68.0750639
  22.0996580  38.6269854  68.3338092  22.7504333  40.5083168  75.3540303
  23.4227387  40.3000530  74.7052952  21.9234120  40.3105254  74.9145536
  36.9993595  47.2487219  74.8715637  37.1929485  48.1533029  75.1174912
  36.8994213  46.7894638  75.7054222  28.6529905  37.1345109  77.3705964
  28.0057820  37.8335059  77.2770441  29.4230921  37.5681253  77.7382212
  32.0608703  47.3993961  80.4456518  31.9094210  47.1704513  79.5286601
  32.0513383  48.3564563  80.4587863  28.8294040  44.9725874  75.4302784
  29.7586100  45.1237034  75.2571751  28.4085070  45.0609895  74.5751431
  27.6282372  48.9976539  73.2001322  27.4893457  48.6295323  74.0727260
  26.8396968  49.5124178  73.0285279  28.2230524  54.0985635  64.5426858
  28.3982279  53.6273678  65.3572481  27.5363312  54.7251401  64.7708119
  29.1787587  48.3758141  70.5890159  28.8437419  48.3358911  71.4847809
  28.6791532  47.7102857  70.1160570  23.1531831  43.7825771  76.1142741
  23.0151629  43.0506010  76.7154280  24.0636754  43.6934671  75.8326928
  25.7814131  43.4945731  75.6026420  26.4913750  42.8538923  75.5613039
  25.7383439  43.7458625  76.5252601  33.7700910  50.4313084  78.5232999
  33.7113456  49.7472304  77.8563582  34.1720428  51.1732074  78.0713625
  24.4943065  40.4810949  77.4222060  23.9580422  40.0301687  78.0743656
  23.9059774  40.6156857  76.6792524  22.7891609  57.2474998  71.3166718
  23.0288207  57.8793522  71.9945737  21.9460805  56.8963038  71.6032078
  23.9045324  39.9399600  59.9848523  23.0274791  39.8188401  59.6210770
  24.3803077  39.1485678  59.7327412  33.7718317  48.3952668  76.7546979
  32.8845096  48.0578590  76.8773378  34.3416868  47.6635699  76.9915744
  15.4247464  44.7276760  70.0790030  16.1118504  44.4138490  69.4911046
  15.2695593  45.6318124  69.8057282  20.2282187  39.6166956  74.5075054
  20.1440375  39.0092626  73.7725464  19.4064893  40.1075975  74.5084551
  27.3019471  53.0554120  73.7208222  27.2289642  53.8609092  74.2327527
  26.8596864  53.2546086  72.8956244  27.0909250  52.2925890  67.2311044
  26.3076772  52.8347570  67.3249268  27.7901995  52.8099870  67.6305285
  30.4005900  38.1020520  69.8745249  30.8974600  37.3490482  69.5546319
  29.6292882  38.1384836  69.3088459  38.2535658  43.8060885  71.5163541
  38.2425534  44.6885601  71.1457474  37.3853037  43.4532436  71.3218078
  29.7618154  52.9540954  75.8766381  30.4746126  53.5888419  75.8042282
  29.2708183  53.0504820  75.0606383  31.4835681  46.8592207  67.4483673
  30.5491960  46.9793669  67.2788377  31.6612350  45.9564674  67.1843682
  26.9840869  40.2437903  69.6016934  26.6138657  39.6908943  70.2897839
  27.4799962  39.6396036  69.0491934  34.8708232  42.7009526  67.9833707
  35.3368685  43.5337518  67.9094009  35.3215733  42.2354508  68.6878965
  24.8130068  50.7035398  76.6971952  25.5139527  51.3371881  76.8501346
  24.3425183  51.0450129  75.9367591  32.8424895  35.0690113  72.0224608
  31.9287975  35.2994340  72.1906815  33.2717997  35.1528557  72.8738640
  32.6131354  43.2580005  74.5224502  31.9602804  43.5055913  73.8676955
  32.9911734  42.4444143  74.1886979  29.5738528  53.2939698  68.6252672
  29.7560922  52.4761354  69.0880425  30.3971514  53.5107391  68.1877562
  29.9080693  52.2207884  65.8867721  30.4368459  51.7100338  65.2737883
  30.1708913  51.9050414  66.7513254  28.6618927  43.9999816  81.0090539
  27.9859564  43.8993946  81.6792914  29.4846561  43.8439030  81.4726536
  20.4097786  50.2371753  73.6303054  20.9951223  49.4915441  73.7630959
  20.2122624  50.5475710  74.5139718  23.2636441  53.2723000  68.6465497
  22.5946816  53.7569128  68.1629537  23.1249311  53.5192221  69.5608875
  15.0015441  42.8077353  72.3507498  15.0399540  42.2740944  73.1444616
  14.4955733  42.2812559  71.7318475  27.4041710  55.3066744  75.2448155
  27.9560018  55.4698365  76.0097240  27.7447903  55.8971182  74.5728180
  22.3806203  37.6541894  75.8470040  22.4447529  38.5156724  75.4347438
  22.3173323  37.0415895  75.1142398  21.8558475  39.7265026  79.4943074
  22.4830514  39.3442103  80.1080598  20.9986394  39.5079228  79.8598767
  32.2552584  50.1328001  81.0996810  32.7992488  50.7457959  80.6051764
  31.6739429  50.6907580  81.6163823  18.6324018  41.5341455  65.4261429
  18.9277459  40.6252134  65.3728483  17.7312054  41.5129195  65.1042431
  30.5410097  53.2548719  72.2311837  30.4161236  52.4538459  71.7222783
  31.1989188  53.7494913  71.7425807  22.1618265  39.6097452  71.4088978
  21.4404851  40.2233419  71.2696451  22.9511521  40.1455217  71.3305624
  32.6045005  51.0557739  73.8591387  31.6575341  50.9363091  73.7869714
  32.9527778  50.1680237  73.9417649  24.9644579  36.9451878  77.6829629
  25.4878980  37.1914175  78.4455939  24.7456912  37.7771913  77.2632767
  20.3611860  39.2155553  65.5500754  20.0324566  38.3352932  65.3675860
  20.7151230  39.1603222  66.4377143  29.6091439  50.8510456  70.0595740
  29.4616401  49.9227163  70.2403310  30.4344932  50.8730546  69.5752815
  23.4753683  39.5028523  65.9176232  23.8149755  40.0314444  65.1954840
  23.9225803  39.8408929  66.6934798  33.2125560  51.6739014  71.1460612
  34.1372108  51.4681876  71.0085064  33.0440864  51.4255415  72.0549954
  26.1697124  37.8865573  75.3679300  25.8293944  37.0873386  75.7699980
  25.4636130  38.1867284  74.7956133  26.8213595  34.9714886  73.8206623
  27.6439665  34.4975364  73.6985513  27.0651659  35.7505370  74.3205309
  25.4621830  38.0003144  64.1169525  26.1830192  38.3784397  63.6133241
  24.8387134  38.7192021  64.2204503  29.6052953  38.7048293  65.0527857
  29.8216567  39.5872931  64.7516685  29.1247020  38.3134507  64.3233499
  24.3452174  41.6634006  71.6298602  24.1996755  41.9774309  72.5222883
  23.8677378  42.2818907  71.0769500  26.2048557  38.6536554  71.6779491
  26.1910126  37.7577648  71.3411789  26.9220985  38.6607218  72.3117777
  28.0574688  39.0873895  73.7232618  27.7992466  40.0090965  73.7216949
  27.5259728  38.6904329  74.4133083  33.0020877  52.1924682  66.5022704
  33.1757754  51.6271104  65.7496556  33.4949768  52.9925577  66.3202194
  18.8197836  44.2039351  74.5686263  18.2751304  44.9799159  74.7006537
  19.6977186  44.5510155  74.4105384  25.6085453  37.5350935  66.9467061
  25.7301364  36.6067581  67.1457949  25.3187495  37.5489621  66.0345377
  28.4776643  35.2205845  70.0833781  28.4998340  35.2845178  69.1285761
  28.8944702  34.3810354  70.2774287  38.8560268  44.9561105  68.1213004
  39.2991414  44.2068430  67.7232127  37.9786778  44.9471241  67.7386736
  33.9896049  51.5091446  63.6019602  34.6846954  52.1298139  63.8206917
  34.3319199  50.6586797  63.8771980  19.6063858  43.3309247  77.4616420
  18.8645594  43.4791882  78.0481050  19.2856603  43.5917513  76.5983169
  27.5507521  52.8725225  77.2596810  27.8594647  52.6274372  78.1319509
  28.3483003  53.0771864  76.7715680  27.5728133  55.0263135  69.4902186
  27.1333123  54.5339514  70.1835043  28.3236250  54.4836103  69.2494261
  20.0520472  51.2174676  69.4926814  20.8778492  50.9178448  69.1125458
  19.7014524  50.4482298  69.9416603  25.0202005  50.5701144  71.5624488
  24.3982014  49.9071849  71.2626716  25.6906872  50.5962276  70.8798136
  18.2529077  49.1361002  70.4515748  17.4160985  48.7083177  70.2699749
  18.2252722  49.3293446  71.3886539  25.0926533  39.0482932  81.1556994
  25.1414688  39.9245055  80.7734763  25.6349047  38.5060325  80.5828637
  35.5781378  49.5924055  80.4358131  34.7876922  49.5748194  79.8962630
  35.3414733  50.1312349  81.1907167  35.6979253  46.4416522  77.7490859
  35.7477258  46.2766529  78.6906382  35.5893177  45.5743781  77.3588740
  24.5815512  49.1205067  65.0382948  24.7303632  49.8040532  64.3849621
  25.3881955  49.1010157  65.5532404  32.9883016  42.4247450  79.0650166
  33.8892878  42.2853915  78.7734164  33.0630990  42.5901905  80.0048344
  27.3225821  39.8014304  77.9103352  26.4529130  40.0947870  77.6385941
  27.5585301  40.3854749  78.6310616  37.1997450  48.8613463  77.9932881
  36.9082258  49.2243444  78.8296342  36.5869581  48.1480471  77.8146213
  38.3993132  46.4266343  70.5135451  39.2340024  46.8656147  70.6773012
  38.5352261  45.9504996  69.6943697  35.4484638  43.9846078  76.4612939
  35.9238760  44.1773724  75.6531790  34.5250204  44.0405264  76.2156323
  22.3368145  45.1470245  66.0444017  22.0914187  44.2432575  66.2424227
  22.5064060  45.1487395  65.1023495  30.0264855  36.0193921  75.4268773
  30.5446799  36.7554948  75.1015261  29.6719988  36.3257915  76.2615532
  21.6063793  40.8798603  63.5430179  20.9133037  40.9542958  62.8870215
  21.3615544  40.1158946  64.0651696  30.2777449  32.4394204  70.9469669
  30.5579203  31.7717393  71.5730096  31.0628056  32.6323300  70.4344333
  28.0810918  51.6153198  62.5094696  27.5084885  52.2343385  62.0565168
  28.6543711  52.1652559  63.0434618  34.1486307  40.8611838  74.6941245
  35.1003730  40.9609936  74.7153469  33.9789758  40.0690106  75.2039329
  32.1700687  37.9467421  74.8800645  31.5750619  38.2272434  74.1847134
  31.8850384  38.4361322  75.6517387  36.6274385  44.0817958  73.8083544
  36.5950705  43.1433958  73.9943228  37.2375009  44.1601994  73.0749369
  36.7768874  40.8729001  73.8541827  36.2607922  40.0887458  73.6671756
  37.6608822  40.5447718  74.0188347  34.4379601  34.6170017  69.8137640
  34.2404422  34.3085105  70.6980972  35.0479306  35.3431655  69.9435570
  42.4450935  45.1433964  72.9489581  43.1754324  44.8819253  73.5097284
  41.8357881  44.4062686  72.9891649  40.5266232  43.2841827  73.5464032
  39.7999396  43.1497792  72.9380524  40.1113519  43.5918656  74.3520750
  28.3496409  47.0031757  81.3111405  29.2699418  47.1810356  81.5051452
  28.3145992  46.0587802  81.1591104  17.5678574  42.1970350  70.2364680
  17.2481358  41.3435659  69.9439054  17.0212002  42.4118928  70.9922647
  21.3458481  44.9132791  73.9534186  21.5644491  45.8449899  73.9722220
  21.7584255  44.5540766  74.7388990  28.2662699  35.4200877  65.9409875
  27.4563427  35.0747962  66.3165121  28.9547116  35.1108420  66.5297486
  30.1953247  34.4978923  67.5634171  30.7484286  34.9174377  68.2224195
  30.4323334  33.5714672  67.6057127  26.2186346  40.4865997  83.3436935
  26.1183073  41.4360354  83.2749026  26.0007888  40.1584236  82.4713005
  25.4199418  37.7350922  59.9277613  26.2818582  38.0605820  60.1873430
  25.6049762  36.9482418  59.4150678  17.4366834  45.8173262  72.2057801
  16.7430305  45.4027215  71.6927756  18.1839825  45.8593798  71.6091220
  33.5732054  36.6079449  67.0712836  32.9930723  37.2664253  66.6890888
  33.3067987  35.7856793  66.6600253  32.0235621  36.0084506  69.2734156
  32.5235399  36.1201041  68.4648475  32.6671229  35.7045559  69.9134964
  26.0817617  43.9163136  82.1601997  25.5984698  44.7163496  82.3665886
  26.1678556  43.9271081  81.2069441  19.3503576  45.7491516  70.0823816
  19.3274264  45.8479203  69.1305699  19.6604213  46.5956666  70.4040982
  22.0090954  47.8067671  74.1970431  22.9634208  47.7751613  74.1300362
  21.8103478  47.3458294  75.0120657  22.5990336  46.3768787  76.7641228
  23.4183225  46.8712865  76.7876066  22.8727144  45.4600755  76.7358796
  32.3556932  38.7679539  66.1269184  31.4682787  39.0529190  65.9089379
  32.7710921  38.6073302  65.2796461  35.7071468  38.7926060  69.8423523
  36.4831859  39.2822512  70.1148140  34.9819603  39.2184114  70.2995393
  38.1444027  39.5053679  70.8997464  38.7388518  39.2649415  70.1890772
  38.2170611  38.7860810  71.5271000  20.3641183  53.3487290  71.2140629
  20.2295651  52.5887691  70.6478627  19.9473245  54.0728190  70.7469417
  32.3297956  44.2834075  66.3419474  32.2733157  44.7402626  65.5027106
  32.8826299  43.5224760  66.1642317  36.1402762  40.0723807  67.1669594
  35.8839696  39.6720442  67.9977801  35.5155630  40.7867601  67.0419733
  40.4515100  42.8119880  69.6740885  39.8914658  42.8813069  70.4472447
  39.8458603  42.6360865  68.9540381  23.5210309  54.2456607  71.4259071
  23.4042693  55.1902040  71.3237762  22.7002755  53.9430169  71.8144870
  17.8525250  40.7106921  77.4633425  18.4984114  40.2005875  77.9520651
  17.6442401  41.4475602  78.0376851  30.3778643  47.7787768  82.9625566
  31.2469802  47.9528420  82.6012201  29.8985394  48.5982185  82.8401295
  26.3728861  34.9746965  63.2157322  26.3607531  35.9188805  63.3725593
  27.2652283  34.7917111  62.9216783  24.5464823  54.8984869  74.6415000
  25.4492069  54.9308479  74.9581495  24.3202193  53.9685320  74.6561335
  26.3018425  53.6515856  71.3025078  25.3514056  53.6517717  71.1889451
  26.6050911  52.9048590  70.7861113  30.1880980  31.5689742  67.4703258
  29.4213376  31.0148229  67.6159941  30.5991685  31.6411611  68.3317410
  22.1922741  37.8574538  81.5608440  23.0554203  37.5011342  81.7711764
  21.6188152  37.5188432  82.2483844  42.0371118  59.4876394  72.3670841
  42.6749528  59.3683141  71.6634181  41.9191961  60.4357238  72.4258793
  38.8460825  59.4403822  72.3032365  38.5079336  59.3244887  71.4152900
  39.7150593  59.0394987  72.2833372  34.7047640  61.2939299  68.2929256
  34.1412505  61.2029235  67.5245544  34.5900035  60.4739203  68.7731749
  39.3280608  60.5938674  78.2618571  39.3169248  60.1991472  77.3899075
  39.4901247  59.8604746  78.8552342  32.2512072  62.7890490  71.1313477
  33.0433364  62.4481315  70.7159776  32.4908722  62.8985465  72.0515630
  36.0487869  63.3775786  77.2097755  35.7577735  64.2821416  77.0944421
  36.6844853  63.4192313  77.9241824  36.9744076  60.7552634  73.7999115
  37.5707648  60.5308657  73.0856077  37.0319047  60.0137380  74.4024562
  41.5912387  57.2127848  69.4424049  42.3775476  56.7947271  69.0914466
  41.8551091  58.1173940  69.6105697  46.9920814  57.1503081  70.3457027
  47.7245986  56.5802298  70.5794857  46.2360170  56.7624681  70.7863533
  44.5146234  50.8624655  74.8051636  44.1829559  51.7320066  74.5812851
  43.9191848  50.5460939  75.4845666  41.0077754  63.0637201  74.2047549
  40.7078477  63.9662240  74.0963356  40.6628813  62.7969384  75.0568701
  34.4590235  59.5150998  70.2384253  33.5340732  59.3827212  70.4461945
  34.7074648  60.2945217  70.7354195  44.4074898  55.5819741  71.8844986
  43.4991775  55.5135150  71.5903747  44.3562493  56.0591686  72.7126811
  31.8199046  59.1584272  71.0728042  31.9491427  59.4118750  71.9867454
  31.1396498  59.7511980  70.7532697  35.9898534  69.8281521  67.1718516
  35.9122563  70.7789347  67.2506997  35.3860177  69.4827394  67.8293443
  38.4815763  57.0009387  79.8279883  37.7049097  57.5603307  79.8182748
  39.1206326  57.4866170  80.3494753  46.2736544  53.7836180  73.6622860
  45.6310924  54.0768713  73.0162654  45.7691472  53.6689100  74.4676057
  36.7362136  59.8094840  79.3897850  37.4776820  60.3479884  79.1132674
  36.0299121  60.4361129  79.5469402  42.2117475  61.9523981  77.9870012
  42.6200831  61.5106391  77.2424644  41.4894737  61.3776608  78.2404205
  38.5648545  56.8896588  75.3603569  39.4109741  57.3136001  75.5038218
  38.5047183  56.2330212  76.0542132  42.5346290  62.5125171  71.7422301
  41.9055152  62.6770885  71.0398368  42.1471952  62.9266781  72.5133265
  41.7147991  54.5500956  77.0184742  41.4708923  55.3043016  76.4819018
  41.9907921  54.9286303  77.8531989  43.6686453  61.0939568  75.6962008
  43.8803349  61.7371328  75.0196389  43.6216202  60.2601885  75.2283938
  41.2712682  53.7057389  72.5998580  40.4097161  54.0038642  72.8915318
  41.2975117  53.9227788  71.6679613  38.0874252  62.2499579  69.0072386
  38.5512597  62.5287282  68.2177008  37.8231050  61.3483024  68.8245476
  34.9798333  61.7971061  71.9452149  35.5499690  62.2258329  71.3069633
  35.5706445  61.5153646  72.6436335  35.4723499  56.9634488  80.1913160
  34.8422160  57.6450769  80.4248557  35.3659587  56.8517570  79.2466298
  30.7668472  56.6306284  71.1179084  29.9767526  56.8863813  70.6419195
  31.2579719  57.4454622  71.2231125  44.7832281  63.9711524  73.8684365
  45.6049725  63.5691711  73.5867047  44.7794684  63.8679758  74.8200481
  32.7183217  56.9950864  68.0762561  31.9214380  57.1069558  68.5946057
  32.4908809  57.3337516  67.2103452  38.5488885  63.5195567  76.0245076
  38.6133317  63.9815974  76.8603248  37.8399809  62.8892932  76.1527386
  29.0506175  56.8836775  73.5494075  29.3014213  57.7683785  73.8151651
  29.5865723  56.7041376  72.7769167  52.8738274  60.3150272  70.2169337
  52.1201983  59.7457670  70.0613341  53.0085816  60.2812937  71.1639971
  38.2636902  65.1863674  65.8924056  38.1282577  66.0315210  66.3208904
  38.8046715  65.3882952  65.1289990  34.7504242  51.2655254  82.5538411
  34.3571188  50.7121453  83.2286055  35.5670382  51.5765833  82.9444929
  31.7166300  62.7039112  66.4651981  32.2290820  63.4982363  66.6157546
  32.3689013  62.0065403  66.3985583  33.5261185  65.8204869  68.5474734
  33.7027813  66.7422833  68.3595718  34.3218018  65.5063288  68.9769114
  37.6672203  52.6813133  80.1458668  38.4081916  53.2820287  80.0663130
  37.8990126  51.9390771  79.5876710  32.8113541  57.8669501  78.4236897
  32.6967056  56.9654758  78.7243996  31.9558059  58.1133197  78.0721714
  39.8905379  65.8087241  80.0224398  39.4469233  65.0223620  79.7045303
  40.5522592  65.9966391  79.3568289  34.6492500  67.3383043  74.5485077
  35.1999925  67.2100106  73.7762071  33.8103976  67.6377932  74.1979969
  41.9886617  66.0890041  78.0505799  41.9705092  66.9098922  77.5586069
  42.9106537  65.9644116  78.2755941  38.4459671  63.6034170  78.8929308
  38.9788008  62.8422459  78.6628616  37.9173752  63.3107822  79.6353462
  41.6129366  48.7094236  74.4222949  41.2693635  49.5995878  74.3462060
  41.9808329  48.5195894  73.5592534  29.6815217  61.0327767  67.2411552
  30.5190439  61.4424775  67.0245259  29.8593484  60.0927209  67.2111746
  39.1626760  53.5452548  67.9880623  38.3068356  53.1559399  67.8086262
  39.5753712  53.6244509  67.1280409  40.6925906  51.0798891  72.3872183
  40.1890702  51.0429027  71.5739988  40.9856513  51.9891634  72.4468839
  36.9368792  51.1637621  71.3938364  37.8021789  50.9680430  71.0344254
  37.0046301  50.9347973  72.3207721  44.7905230  60.9269183  71.5215166
  44.1328904  61.6168445  71.6095295  45.5945629  61.3165615  71.8649152
  34.5431111  53.3939829  68.7654731  35.1174863  53.1715011  68.0327924
  35.1302094  53.4628524  69.5183333  43.6010689  59.2813556  69.5719108
  44.1142570  59.9143548  70.0740818  44.2511913  58.6814752  69.2062468
  36.8453779  50.2681078  67.4929801  36.1918191  49.9530095  66.8686415
  36.8034253  49.6456818  68.2189624  40.8633063  69.2597880  62.3279779
  40.1894762  69.5629577  62.9364737  41.2498885  70.0626961  61.9785236
  40.0791519  56.7563012  71.8177448  39.1614081  56.9777959  71.6599136
  40.4951663  56.8309322  70.9589156  43.3105404  55.1911544  68.9298918
  42.5728161  54.6788930  69.2609160  43.5632178  54.7511925  68.1182195
  42.8105424  66.0996054  68.6348069  43.1028398  66.6601111  67.9160434
  43.3204045  66.3924615  69.3901228  43.4117032  47.9687796  69.5240687
  43.7175909  47.1085159  69.2366602  44.1369637  48.5605416  69.3239681
  29.7041388  58.3718482  67.9122285  29.5065788  57.7787843  67.1873352
  29.1488052  58.0670692  68.6298224  37.6838111  58.2641589  70.0316878
  37.7386721  57.3115425  69.9559355  36.8729313  58.4201028  70.5158177
  35.6230471  56.8818648  67.7907257  34.8098337  57.1812819  68.1972449
  36.1189466  56.4874337  68.5081739  37.7739049  66.8776405  69.7241522
  37.7315228  67.1037252  68.7950054  38.6901748  66.6439780  69.8727323
  41.2204683  57.3460473  76.6222151  41.5754071  57.5731946  77.4816617
  41.8676814  57.6778850  75.9999406  35.1144546  54.4537004  73.4068492
  35.7543925  54.3125763  72.7091455  34.2822077  54.1671517  73.0307094
  46.9771800  62.5355436  72.3382752  47.4108306  62.4430725  73.1865806
  47.6903380  62.5112936  71.7002768  35.8904850  63.7539434  69.5203485
  36.6845449  63.2589754  69.3186059  35.1796542  63.2257297  69.1571190
  40.7099695  66.1357530  73.8715852  40.7636717  66.7048466  74.6393568
  39.8414476  66.3059415  73.5069889  32.1987614  57.8982516  65.5963237
  31.2685202  57.8366971  65.8133199  32.2945086  57.3758469  64.7999878
  32.1173163  54.4237329  68.1841479  32.3779980  55.3382662  68.0750639
  32.9390335  53.9561771  68.3338092  33.5898088  55.8375086  75.3540303
  34.2621141  55.6292448  74.7052952  32.7627874  55.6397172  74.9145536
  47.8387349  62.5779136  74.8715637  48.0323239  63.4824947  75.1174912
  47.7387967  62.1186555  75.7054222  39.4923660  52.4637027  77.3705964
  38.8451575  53.1626977  77.2770441  40.2624675  52.8973171  77.7382212
  42.9002458  62.7285879  80.4456518  42.7487964  62.4996431  79.5286601
  42.8907137  63.6856481  80.4587863  39.6687794  60.3017792  75.4302784
  40.5979854  60.4528951  75.2571751  39.2478824  60.3901813  74.5751431
  38.4676126  64.3268456  73.2001322  38.3287212  63.9587241  74.0727260
  37.6790722  64.8416096  73.0285279  39.0624278  69.4277553  64.5426858
  39.2376034  68.9565596  65.3572481  38.3757066  70.0543319  64.7708119
  40.0181341  63.7050059  70.5890159  39.6831174  63.6650829  71.4847809
  39.5185287  63.0394775  70.1160570  33.9925585  59.1117689  76.1142741
  33.8545383  58.3797928  76.7154280  34.9030509  59.0226589  75.8326928
  36.6207886  58.8237648  75.6026420  37.3307504  58.1830840  75.5613039
  36.5777194  59.0750543  76.5252601  44.6094664  65.7605002  78.5232999
  44.5507211  65.0764222  77.8563582  45.0114183  66.5023992  78.0713625
  35.3336820  55.8102866  77.4222060  34.7974177  55.3593605  78.0743656
  34.7453528  55.9448775  76.6792524  33.6285363  72.5766915  71.3166718
  33.8681962  73.2085440  71.9945737  32.7854560  72.2254956  71.6032078
  44.6112072  63.7244586  76.7546979  43.7238851  63.3870507  76.8773378
  45.1810623  62.9927617  76.9915744  26.2641219  60.0568677  70.0790030
  26.9512259  59.7430407  69.4911046  26.1089348  60.9610042  69.8057282
  31.0675941  54.9458874  74.5075054  30.9834130  54.3384543  73.7725464
  30.2458647  55.4367892  74.5084551  38.1413225  68.3846038  73.7208222
  38.0683397  69.1901009  74.2327527  37.6990618  68.5838004  72.8956244
  37.9303005  67.6217808  67.2311044  37.1470527  68.1639488  67.3249268
  38.6295750  68.1391788  67.6305285  41.2399655  53.4312437  69.8745249
  41.7368354  52.6782400  69.5546319  40.4686636  53.4676754  69.3088459
  49.0929412  59.1352803  71.5163541  49.0819289  60.0177518  71.1457474
  48.2246792  58.7824354  71.3218078  40.6011909  68.2832872  75.8766381
  41.3139881  68.9180337  75.8042282  40.1101937  68.3796738  75.0606383
  37.8234624  55.5729820  69.6016934  37.4532411  55.0200861  70.2897839
  38.3193716  54.9687954  69.0491934  45.7101987  58.0301444  67.9833707
  46.1762439  58.8629436  67.9094009  46.1609487  57.5646425  68.6878965
  35.6523822  66.0327315  76.6971952  36.3533282  66.6663798  76.8501346
  35.1818937  66.3742047  75.9367591  43.6818650  50.3982031  72.0224608
  42.7681729  50.6286258  72.1906815  44.1111751  50.4820475  72.8738640
  43.4525108  58.5871923  74.5224502  42.7996558  58.8347830  73.8676955
  43.8305488  57.7736061  74.1886979  40.4132282  68.6231616  68.6252672
  40.5954677  67.8053272  69.0880425  41.2365268  68.8399308  68.1877562
  40.7474448  67.5499801  65.8867721  41.2762214  67.0392256  65.2737883
  41.0102667  67.2342331  66.7513254  39.5012681  59.3291734  81.0090539
  38.8253318  59.2285863  81.6792914  40.3240315  59.1730948  81.4726536
  31.2491540  65.5663670  73.6303054  31.8344977  64.8207358  73.7630959
  31.0516379  65.8767627  74.5139718  34.1030195  68.6014918  68.6465497
  33.4340571  69.0861045  68.1629537  33.9643065  68.8484138  69.5608875
  25.8409195  58.1369271  72.3507498  25.8793295  57.6032861  73.1444616
  25.3349488  57.6104476  71.7318475  38.2435464  70.6358661  75.2448155
  38.7953772  70.7990283  76.0097240  38.5841658  71.2263099  74.5728180
  33.2199957  52.9833811  75.8470040  33.2841284  53.8448642  75.4347438
  33.1567078  52.3707813  75.1142398  32.6952230  55.0556944  79.4943074
  33.3224269  54.6734021  80.1080598  31.8380149  54.8371146  79.8598767
  43.0946338  65.4619919  81.0996810  43.6386242  66.0749877  80.6051764
  42.5133183  66.0199497  81.6163823  29.4717773  56.8633373  65.4261429
  29.7671214  55.9544051  65.3728483  28.5705808  56.8421112  65.1042431
  41.3803851  68.5840637  72.2311837  41.2554991  67.7830377  71.7222783
  42.0382942  69.0786830  71.7425807  33.0012020  54.9389369  71.4088978
  32.2798605  55.5525337  71.2696451  33.7905275  55.4747134  71.3305624
  43.4438760  66.3849657  73.8591387  42.4969095  66.2655008  73.7869714
  43.7921533  65.4972155  73.9417649  35.8038333  52.2743796  77.6829629
  36.3272735  52.5206092  78.4455939  35.5850666  53.1063831  77.2632767
  31.2005614  54.5447470  65.5500754  30.8718320  53.6644849  65.3675860
  31.5544985  54.4895139  66.4377143  40.4485193  66.1802373  70.0595740
  40.3010155  65.2519081  70.2403310  41.2738687  66.2022464  69.5752815
  34.3147437  54.8320440  65.9176232  34.6543510  55.3606362  65.1954840
  34.7619558  55.1700846  66.6934798  44.0519315  67.0030932  71.1460612
  44.9765862  66.7973793  71.0085064  43.8834618  66.7547333  72.0549954
  37.0090878  53.2157491  75.3679300  36.6687699  52.4165304  75.7699980
  36.3029884  53.5159202  74.7956133  37.6607350  50.3006803  73.8206623
  38.4833419  49.8267282  73.6985513  37.9045414  51.0797287  74.3205309
  35.1845929  56.9925924  71.6298602  35.0390509  57.3066227  72.5222883
  34.7071132  57.6110824  71.0769500  37.0442312  53.9828472  71.6779491
  37.0303880  53.0869565  71.3411789  37.7614740  53.9899136  72.3117777
  38.8968442  54.4165812  73.7232618  38.6386220  55.3382883  73.7216949
  38.3653483  54.0196247  74.4133083  43.8414631  67.5216599  66.5022704
  44.0151509  66.9563022  65.7496556  44.3343522  68.3217494  66.3202194
  29.6591591  59.5331268  74.5686263  29.1145059  60.3091076  74.7006537
  30.5370941  59.8802073  74.4105384  36.4479208  52.8642852  66.9467061
  36.5695119  51.9359499  67.1457949  36.1581250  52.8781538  66.0345377
  39.3170398  50.5497763  70.0833781  39.3392095  50.6137096  69.1285761
  39.7338457  49.7102271  70.2774287  49.6954022  60.2853022  68.1213004
  50.1385168  59.5360348  67.7232127  48.8180533  60.2763159  67.7386736
  30.4457613  58.6601165  77.4616420  29.7039349  58.8083800  78.0481050
  30.1250357  58.9209430  76.5983169  38.3901275  68.2017143  77.2596810
  38.6988402  67.9566290  78.1319509  39.1876757  68.4063781  76.7715680
  38.4121887  70.3555053  69.4902186  37.9726878  69.8631431  70.1835043
  39.1630004  69.8128020  69.2494261  30.8914226  66.5466593  69.4926814
  31.7172246  66.2470365  69.1125458  30.5408278  65.7774216  69.9416603
  35.8595760  65.8993062  71.5624488  35.2375769  65.2363767  71.2626716
  36.5300627  65.9254194  70.8798136  29.0922831  64.4652920  70.4515748
  28.2554740  64.0375094  70.2699749  29.0646477  64.6585363  71.3886539
  35.9320287  54.3774850  81.1556994  35.9808443  55.2536973  80.7734763
  36.4742801  53.8352243  80.5828637  46.4175133  64.9215973  80.4358131
  45.6270676  64.9040112  79.8962630  46.1808487  65.4604267  81.1907167
  46.5373008  61.7708439  77.7490859  46.5871013  61.6058447  78.6906382
  46.4286931  60.9035698  77.3588740  35.4209267  64.4496985  65.0382948
  35.5697387  65.1332449  64.3849621  36.2275710  64.4302075  65.5532404
  43.8276770  57.7539367  79.0650166  44.7286633  57.6145832  78.7734164
  43.9024745  57.9193822  80.0048344  38.1619576  55.1306222  77.9103352
  37.2922885  55.4239788  77.6385941  38.3979056  55.7146667  78.6310616
  48.0391205  64.1905381  77.9932881  47.7476013  64.5535361  78.8296342
  47.4263336  63.4772389  77.8146213  49.2386887  61.7558261  70.5135451
  50.0733778  62.1948065  70.6773012  49.3746016  61.2796914  69.6943697
  46.2878393  59.3137995  76.4612939  46.7632514  59.5065642  75.6531790
  45.3643958  59.3697181  76.2156323  33.1761899  60.4762163  66.0444017
  32.9307941  59.5724493  66.2424227  33.3457814  60.4779313  65.1023495
  40.8658609  51.3485839  75.4268773  41.3840553  52.0846866  75.1015261
  40.5113742  51.6549832  76.2615532  32.4457547  56.2090520  63.5430179
  31.7526792  56.2834875  62.8870215  32.2009299  55.4450864  64.0651696
  41.1171204  47.7686122  70.9469669  41.3972957  47.1009311  71.5730096
  41.9021810  47.9615217  70.4344333  38.9204672  66.9445115  62.5094696
  38.3478639  67.5635303  62.0565168  39.4937466  67.4944477  63.0434618
  44.9880062  56.1903756  74.6941245  45.9397485  56.2901853  74.7153469
  44.8183512  55.3982024  75.2039329  43.0094441  53.2759339  74.8800645
  42.4144373  53.5564351  74.1847134  42.7244138  53.7653240  75.6517387
  42.1401932  67.2282266  63.6403278  43.0732605  67.1627827  63.8436154
  42.0525145  68.0638532  63.1817811  47.4668140  59.4109875  73.8083544
  47.4344460  58.4725876  73.9943228  48.0768763  59.4893912  73.0749369
  47.6162628  56.2020919  73.8541827  47.1001677  55.4179375  73.6671756
  48.5002577  55.8739635  74.0188347  45.2773355  49.9461934  69.8137640
  45.0798176  49.6377022  70.6980972  45.8873061  50.6723573  69.9435570
  53.2844690  60.4725882  72.9489581  54.0148078  60.2111170  73.5097284
  52.6751635  59.7354604  72.9891649  51.3659987  58.6133745  73.5464032
  50.6393150  58.4789710  72.9380524  50.9507274  58.9210573  74.3520750
  39.1890163  62.3323674  81.3111405  40.1093173  62.5102273  81.5051452
  39.1539746  61.3879720  81.1591104  28.4072328  57.5262268  70.2364680
  28.0875112  56.6727576  69.9439054  27.8605756  57.7410846  70.9922647
  32.1852236  60.2424709  73.9534186  32.4038245  61.1741817  73.9722220
  32.5978009  59.8832683  74.7388990  39.1056453  50.7492794  65.9409875
  38.2957182  50.4039879  66.3165121  39.7940870  50.4400338  66.5297486
  41.0347002  49.8270841  67.5634171  41.5878040  50.2466295  68.2224195
  41.2717088  48.9006589  67.6057127  37.0580101  55.8157915  83.3436935
  36.9576828  56.7652272  83.2749026  36.8401643  55.4876154  82.4713005
  28.2760588  61.1465180  72.2057801  27.5824060  60.7319132  71.6927756
  29.0233579  61.1885716  71.6091220  44.4125809  51.9371366  67.0712836
  43.8324478  52.5956170  66.6890888  44.1461741  51.1148711  66.6600253
  42.8629375  51.3376424  69.2734156  43.3629154  51.4492959  68.4648475
  43.5064983  51.0337477  69.9134964  36.9211371  59.2455054  82.1601997
  36.4378453  60.0455414  82.3665886  37.0072310  59.2562998  81.2069441
  30.1897331  61.0783433  70.0823816  30.1668019  61.1771121  69.1305699
  30.4997967  61.9248584  70.4040982  32.8484708  63.1359588  74.1970431
  33.8027962  63.1043531  74.1300362  32.6497232  62.6750212  75.0120657
  33.4384091  61.7060704  76.7641228  34.2576980  62.2004783  76.7876066
  33.7120898  60.7892673  76.7358796  46.5465223  54.1217978  69.8423523
  47.3225613  54.6114430  70.1148140  45.8213357  54.5476032  70.2995393
  48.9837782  54.8345597  70.8997464  49.5782272  54.5941333  70.1890772
  49.0564365  54.1152727  71.5271000  31.2034937  68.6779208  71.2140629
  31.0689405  67.9179609  70.6478627  30.7867000  69.4020108  70.7469417
  46.9796516  55.4015724  67.1669594  46.7233451  55.0012360  67.9977801
  46.3549385  56.1159518  67.0419733  51.2908854  58.1411798  69.6740885
  50.7308412  58.2104987  70.4472447  50.6852358  57.9652782  68.9540381
  34.3604063  69.5748525  71.4259071  34.2436447  70.5193957  71.3237762
  33.5396509  69.2722086  71.8144870  28.6919005  56.0398838  77.4633425
  29.3377868  55.5297792  77.9520651  28.4836156  56.7767520  78.0376851
  41.2172397  63.1079686  82.9625566  42.0863557  63.2820338  82.6012201
  40.7379149  63.9274103  82.8401295  35.3858577  70.2276787  74.6415000
  36.2885824  70.2600397  74.9581495  35.1595947  69.2977238  74.6561335
  37.1412179  68.9807773  71.3025078  36.1907810  68.9809635  71.1889451
  37.4444665  68.2340508  70.7861113  41.0274735  46.8981659  67.4703258
  40.2607131  46.3440146  67.6159941  41.4385440  46.9703528  68.3317410
  33.0316496  53.1866455  81.5608440  33.8947957  52.8303260  81.7711764
  32.4581907  52.8480350  82.2483844  52.8764873  74.8168312  72.3670841
  53.5143283  74.6975059  71.6634181  52.7585716  75.7649156  72.4258793
  49.6854579  74.7695740  72.3032365  49.3473091  74.6536804  71.4152900
  50.5544347  74.3686905  72.2833372  45.5441395  76.6231216  68.2929256
  44.9806260  76.5321153  67.5245544  45.4293790  75.8031121  68.7731749
  43.0905827  78.1182408  71.1313477  43.8827119  77.7773232  70.7159776
  43.3302477  78.2277383  72.0515630  51.1240953  80.2902184  63.6043721
  50.4728933  80.8756264  63.2177735  51.9185316  80.8208379  63.6638759
  45.0496581  77.3791321  64.0030856  45.8227457  76.8320308  63.8643731
  45.4021979  78.2435570  64.2145317  47.8137830  76.0844552  73.7999115
  48.4101402  75.8600574  73.0856077  47.8712802  75.3429297  74.4024562
  47.3862858  73.5383987  61.6349306  47.6388379  73.0165508  60.8732769
  46.4487418  73.3750133  61.7375989  52.4306141  72.5419766  69.4424049
  53.2169230  72.1239189  69.0914466  52.6944846  73.4465858  69.6105697
  52.6016219  77.9792616  64.1412706  51.9662052  78.0527242  64.8533610
  52.2713625  78.5686215  63.4631785  57.8314568  72.4794999  70.3457027
  58.5639740  71.9094216  70.5794857  57.0753924  72.0916599  70.7863533
  47.1059147  75.4412093  63.8373680  46.9895405  74.7656996  64.5054765
  47.2161407  74.9544467  63.0205834  49.4490688  74.9022240  67.5420370
  49.0848895  74.3752861  68.2533291  50.3057804  74.5120709  67.3686855
  55.3539989  66.1916573  74.8051636  55.0223314  67.0611984  74.5812851
  54.7585602  65.8752857  75.4845666  51.8471508  78.3929119  74.2047549
  51.5472231  79.2954158  74.0963356  51.5022568  78.1261302  75.0568701
  45.2983990  74.8442916  70.2384253  44.3734486  74.7119130  70.4461945
  45.5468403  75.6237135  70.7354195  55.2468652  70.9111659  71.8844986
  54.3385529  70.8427067  71.5903747  55.1956248  71.3883604  72.7126811
  49.0685396  72.3869797  63.5228385  48.9485021  72.8326848  64.3613865
  48.3737984  72.7355115  62.9641923  42.6592801  74.4876189  71.0728042
  42.7885182  74.7410668  71.9867454  41.9790252  75.0803897  70.7532697
  46.8292288  85.1573439  67.1718516  46.7516318  86.1081264  67.2506997
  46.2253932  84.8119312  67.8293443  57.1130298  69.1128097  73.6622860
  56.4704679  69.4060631  73.0162654  56.6085227  68.9981018  74.4676057
  54.7670462  72.8591271  64.3508719  55.6788318  73.0918657  64.1756417
  54.2580109  73.4428315  63.7883798  49.4042300  72.2188505  75.3603569
  50.2503495  72.6427919  75.5038218  49.3440938  71.5622129  76.0542132
  53.3740044  77.8417089  71.7422301  52.7448907  78.0062803  71.0398368
  52.9865707  78.2558699  72.5133265  57.2529276  78.7771527  69.0966664
  56.5680314  79.1570428  68.5463698  57.3373126  79.3866854  69.8298612
  52.5541745  69.8792874  77.0184742  52.3102677  70.6334934  76.4819018
  52.8301676  70.2578221  77.8531989  52.1106437  69.0349307  72.5998580
  51.2490916  69.3330560  72.8915318  52.1368872  69.2519705  71.6679613
  48.9268006  77.5791497  69.0072386  49.3906352  77.8579200  68.2177008
  48.6624804  76.6774942  68.8245476  45.8192087  77.1262979  71.9452149
  46.3893444  77.5550247  71.3069633  46.4100199  76.8445563  72.6436335
  47.8636892  73.7014649  65.8161951  48.5660936  74.1535693  66.2835877
  47.5317521  73.0598468  66.4441844  46.3117254  72.2926406  80.1913160
  45.6815914  72.9742687  80.4248557  46.2053342  72.1809488  79.2466298
  41.6062226  71.9598202  71.1179084  40.8161280  72.2155731  70.6419195
  42.0973474  72.7746540  71.2231125  43.5576972  72.3242781  68.0762561
  42.7608135  72.4361476  68.5946057  43.3302564  72.6629434  67.2103452
  39.8899929  72.2128693  73.5494075  40.1407968  73.0975703  73.8151651
  40.4259478  72.0333294  72.7769167  63.7132029  75.6442190  70.2169337
  62.9595737  75.0749588  70.0613341  63.8479570  75.6104854  71.1639971
  49.1030657  80.5155592  65.8924056  48.9676332  81.3607128  66.3208904
  49.6440469  80.7174870  65.1289990  45.5897997  66.5947172  82.5538411
  45.1964942  66.0413371  83.2286055  46.4064137  66.9057750  82.9444929
  42.5560054  78.0331030  66.4651981  43.0684575  78.8274280  66.6157546
  43.2082767  77.3357321  66.3985583  44.3654939  81.1496786  68.5474734
  44.5421567  82.0714751  68.3595718  45.1611773  80.8355206  68.9769114
  48.5065958  68.0105051  80.1458668  49.2475671  68.6112204  80.0663130
  48.7383880  67.2682689  79.5876710  43.6507296  73.1961418  78.4236897
  43.5360811  72.2946676  78.7243996  42.7951813  73.4425115  78.0721714
  45.4886255  82.6674960  74.5485077  46.0393680  82.5392024  73.7762071
  44.6497730  82.9669849  74.1979969  52.4523121  64.0386154  74.4222949
  52.1087390  64.9287796  74.3462060  52.8202083  63.8487812  73.5592534
  40.5208971  76.3619684  67.2411552  41.3584193  76.7716693  67.0245259
  40.6987239  75.4219127  67.2111746  52.4173403  74.0294765  62.9295385
  51.9020027  74.7999370  63.1683772  52.1450712  73.3559901  63.5528446
  50.0020514  68.8744466  67.9880623  49.1462111  68.4851316  67.8086262
  50.4147466  68.9536427  67.1280409  51.5319661  66.4090809  72.3872183
  51.0284457  66.3720944  71.5739988  51.8250268  67.3183552  72.4468839
  47.7762547  66.4929539  71.3938364  48.6415544  66.2972348  71.0344254
  47.8440056  66.2639891  72.3207721  57.3907677  76.7827120  64.8648558
  56.6137120  76.4438279  64.4203720  58.0699158  76.7879743  64.1903523
  52.2059706  71.9021857  64.7555166  51.9009842  72.2168006  65.6065309
  53.1590149  71.9803277  64.7982499  50.6506138  78.0612081  66.4048120
  50.1227500  77.3264840  66.0921357  50.1493641  78.8386757  66.1588088
  55.6298984  76.2561101  71.5215166  54.9722659  76.9460362  71.6095295
  56.4339384  76.6457533  71.8649152  45.3824866  68.7231747  68.7654731
  45.9568618  68.5006928  68.0327924  45.9695848  68.7920441  69.5183333
  54.4404443  74.6105474  69.5719108  54.9536325  75.2435466  70.0740818
  55.0905667  74.0106669  69.2062468  45.7094453  70.7536208  62.7850617
  44.8731765  71.0910894  63.1059891  45.5699223  70.6185188  61.8477754
  47.6847534  65.5972996  67.4929801  47.0311946  65.2822013  66.8686415
  47.6428008  64.9748736  68.2189624  48.7958738  75.8792291  59.4083093
  47.8885800  75.6481544  59.6074242  49.2929770  75.0829910  59.5957074
  51.7026817  84.5889798  62.3279779  51.0288516  84.8921495  62.9364737
  52.0892639  85.3918878  61.9785236  50.9185274  72.0854929  71.8177448
  50.0007835  72.3069876  71.6599136  51.3345418  72.1601240  70.9589156
  51.7020322  73.4846345  66.9480129  52.4492141  73.9967742  66.6387251
  51.9711911  73.1630398  67.8084522  49.9746972  75.9804886  63.9307083
  49.0658191  75.6963918  64.0279553  50.0042056  76.4003964  63.0710390
  55.2066239  79.5911475  67.6998250  54.7528566  78.7502385  67.7563441
  54.5760206  80.2272874  68.0373031  54.1499159  70.5203461  68.9298918
  53.4121916  70.0080847  69.2609160  54.4025932  70.0803843  68.1182195
  53.6499179  81.4287972  68.6348069  53.9422153  81.9893029  67.9160434
  54.1597799  81.7216533  69.3901228  40.5435142  73.7010400  67.9122285
  40.3459542  73.1079760  67.1873352  39.9881806  73.3962610  68.6298224
  48.5231866  73.5933506  70.0316878  48.5780476  72.6407343  69.9559355
  47.7123068  73.7492945  70.5158177  49.6723060  77.5213629  61.2695161
  49.2342490  76.8049488  60.8100799  50.4133501  77.7489744  60.7080253
  46.4624226  72.2110566  67.7907257  45.6492091  72.5104737  68.1972449
  46.9583220  71.8166255  68.5081739  48.6132804  82.2068323  69.7241522
  48.5708983  82.4329169  68.7950054  49.5295503  81.9731698  69.8727323
  52.0598438  72.6752390  76.6222151  52.4147825  72.9023864  77.4816617
  52.7070569  73.0070767  75.9999406  57.7896174  75.7970826  67.3271480
  57.6514073  75.9872422  66.3992669  57.4332393  76.5590209  67.7839531
  45.9538301  69.7828922  73.4068492  46.5937680  69.6417681  72.7091455
  45.1215831  69.4963435  73.0307094  57.8165554  77.8647353  72.3382752
  58.2502061  77.7722642  73.1865806  58.5297135  77.8404854  71.7002768
  46.7298605  79.0831352  69.5203485  47.5239203  78.5881672  69.3186059
  46.0190297  78.5549215  69.1571190  43.0381368  73.2274434  65.5963237
  42.1078956  73.1658889  65.8133199  43.1338840  72.7050386  64.7999878
  42.9566917  69.7529247  68.1841479  43.2173734  70.6674580  68.0750639
  43.7784089  69.2853689  68.3338092  44.4291842  71.1667004  75.3540303
  45.1014896  70.9584366  74.7052952  43.6021629  70.9689090  74.9145536
  50.3317414  67.7928945  77.3705964  49.6845329  68.4918894  77.2770441
  51.1018430  68.2265089  77.7382212  50.5081549  75.6309710  75.4302784
  51.4373609  75.7820869  75.2571751  50.0872579  75.7193730  74.5751431
  49.3069881  79.6560374  73.2001322  49.1680966  79.2879158  74.0727260
  48.5184477  80.1708013  73.0285279  49.9018033  84.7569470  64.5426858
  50.0769788  84.2857514  65.3572481  49.2150821  85.3835237  64.7708119
  50.8575096  79.0341977  70.5890159  50.5224928  78.9942747  71.4847809
  50.3579041  78.3686693  70.1160570  44.8319340  74.4409607  76.1142741
  44.6939138  73.7089845  76.7154280  45.7424263  74.3518507  75.8326928
  53.7934287  76.3798011  60.8627219  53.1763458  75.6544839  60.7660272
  53.3250776  77.1407371  60.5194293  47.4601640  74.1529566  75.6026420
  48.1701259  73.5122758  75.5613039  47.4170948  74.4042461  76.5252601
  46.1730574  71.1394784  77.4222060  45.6367931  70.6885522  78.0743656
  45.5847283  71.2740693  76.6792524  44.4679118  87.9058833  71.3166718
  44.7075716  88.5377357  71.9945737  43.6248314  87.5546873  71.6032078
  37.1034973  75.3860595  70.0790030  37.7906013  75.0722325  69.4911046
  36.9483102  76.2901960  69.8057282  41.9069696  70.2750792  74.5075054
  41.8227884  69.6676461  73.7725464  41.0852402  70.7659810  74.5084551
  48.7696759  82.9509726  67.2311044  47.9864281  83.4931406  67.3249268
  49.4689504  83.4683705  67.6305285  52.0793409  68.7604355  69.8745249
  52.5762109  68.0074317  69.5546319  51.3080391  68.7968672  69.3088459
  59.9323167  74.4644721  71.5163541  59.9213043  75.3469436  71.1457474
  59.0640546  74.1116271  71.3218078  53.1623190  77.5176042  67.4483673
  52.2279469  77.6377505  67.2788377  53.3399859  76.6148509  67.1843682
  48.6628378  70.9021738  69.6016934  48.2926166  70.3492778  70.2897839
  49.1587471  70.2979872  69.0491934  56.5495741  73.3593362  67.9833707
  57.0156194  74.1921353  67.9094009  57.0003242  72.8938343  68.6878965
  54.6171973  79.7037183  64.9819859  54.8931816  79.5893777  65.8913733
  53.7476471  79.3054668  64.9432032  54.5212404  65.7273949  72.0224608
  53.6075484  65.9578175  72.1906815  54.9505506  65.8112393  72.8738640
  54.2918863  73.9163841  74.5224502  53.6390313  74.1639748  73.8676955
  54.6699243  73.1027979  74.1886979  51.2526037  83.9523534  68.6252672
  51.4348431  83.1345190  69.0880425  52.0759023  84.1691226  68.1877562
  51.5868202  82.8791719  65.8867721  52.1155968  82.3684173  65.2737883
  51.8496422  82.5634249  66.7513254  42.0885295  80.8955588  73.6303054
  42.6738732  80.1499276  73.7630959  41.8910133  81.2059545  74.5139718
  44.9423950  83.9306836  68.6465497  44.2734325  84.4152963  68.1629537
  44.8036820  84.1776056  69.5608875  36.6802950  73.4661188  72.3507498
  36.7187049  72.9324779  73.1444616  36.1743242  72.9396394  71.7318475
  44.0593712  68.3125729  75.8470040  44.1235038  69.1740560  75.4347438
  43.9960832  67.6999731  75.1142398  43.5345984  70.3848861  79.4943074
  44.1618023  70.0025939  80.1080598  42.6773903  70.1663063  79.8598767
  40.3111527  72.1925291  65.4261429  40.6064968  71.2835969  65.3728483
  39.4099563  72.1713030  65.1042431  52.2197606  83.9132555  72.2311837
  52.0948745  83.1122294  71.7222783  52.8776697  84.4078748  71.7425807
  43.8405774  70.2681287  71.4088978  43.1192360  70.8817255  71.2696451
  44.6299030  70.8039052  71.3305624  46.6432088  67.6035714  77.6829629
  47.1666489  67.8498010  78.4455939  46.4244421  68.4355748  77.2632767
  42.0399369  69.8739388  65.5500754  41.7112075  68.9936767  65.3675860
  42.3938739  69.8187057  66.4377143  51.2878948  81.5094291  70.0595740
  51.1403910  80.5810998  70.2403310  52.1132441  81.5314382  69.5752815
  45.1541192  70.1612358  65.9176232  45.4937264  70.6898279  65.1954840
  45.6013312  70.4992764  66.6934798  54.8913069  82.3322850  71.1460612
  55.8159617  82.1265711  71.0085064  54.7228373  82.0839251  72.0549954
  47.8484633  68.5449409  75.3679300  47.5081453  67.7457222  75.7699980
  47.1423639  68.8451120  74.7956133  48.5001104  65.6298721  73.8206623
  49.3227174  65.1559199  73.6985513  48.7439168  66.4089205  74.3205309
  51.2840462  69.3632129  65.0527857  51.5004076  70.2456766  64.7516685
  50.8034529  68.9718342  64.3233499  46.0239683  72.3217842  71.6298602
  45.8784264  72.6358145  72.5222883  45.5464887  72.9402742  71.0769500
  47.8836066  69.3120390  71.6779491  47.8697635  68.4161483  71.3411789
  48.6008494  69.3191053  72.3117777  49.7362197  69.7457730  73.7232618
  49.4779975  70.6674801  73.7216949  49.2047237  69.3488164  74.4133083
  54.6808386  82.8508517  66.5022704  54.8545263  82.2854940  65.7496556
  55.1737277  83.6509412  66.3202194  40.4985345  74.8623186  74.5686263
  39.9538813  75.6382994  74.7006537  41.3764695  75.2093991  74.4105384
  47.2872962  68.1934770  66.9467061  47.4088873  67.2651416  67.1457949
  46.9975004  68.2073456  66.0345377  50.1564152  65.8789680  70.0833781
  50.1785849  65.9429014  69.1285761  50.5732211  65.0394189  70.2774287
  60.5347777  75.6144940  68.1213004  60.9778923  74.8652265  67.7232127
  59.6574287  75.6055076  67.7386736  55.6683558  82.1675281  63.6019602
  56.3634463  82.7881974  63.8206917  56.0106708  81.3170633  63.8771980
  41.2851367  73.9893082  77.4616420  40.5433103  74.1375718  78.0481050
  40.9644112  74.2501348  76.5983169  57.5674981  79.6174987  65.1306933
  58.0926305  79.9562260  64.4056253  57.4797334  78.6822002  64.9470068
  49.2515642  85.6846970  69.4902186  48.8120632  85.1923349  70.1835043
  50.0023759  85.1419938  69.2494261  41.7307981  81.8758511  69.4926814
  42.5566001  81.5762283  69.1125458  41.3802033  81.1066134  69.9416603
  46.6989514  81.2284979  71.5624488  46.0769523  80.5655684  71.2626716
  47.3694381  81.2546111  70.8798136  39.9316586  79.7944838  70.4515748
  39.0948494  79.3667012  70.2699749  39.9040231  79.9877281  71.3886539
  46.7714042  69.7066767  81.1556994  46.8202197  70.5828890  80.7734763
  47.3136556  69.1644160  80.5828637  46.2603021  79.7788903  65.0382948
  46.4091141  80.4624367  64.3849621  47.0669464  79.7593993  65.5532404
  49.0013330  70.4598140  77.9103352  48.1316639  70.7531706  77.6385941
  49.2372810  71.0438585  78.6310616  60.0780641  77.0850178  70.5135451
  60.9127533  77.5239982  70.6773012  60.2139770  76.6088832  69.6943697
  44.0155654  75.8054080  66.0444017  43.7701696  74.9016410  66.2424227
  44.1851569  75.8071231  65.1023495  51.7052364  66.6777757  75.4268773
  52.2234308  67.4138784  75.1015261  51.3507497  66.9841750  76.2615532
  43.2851302  71.5382438  63.5430179  42.5920546  71.6126793  62.8870215
  43.0403053  70.7742782  64.0651696  51.9564958  63.0978039  70.9469669
  52.2366712  62.4301228  71.5730096  52.7415565  63.2907135  70.4344333
  49.7598427  82.2737033  62.5094696  49.1872394  82.8927220  62.0565168
  50.3331220  82.8236395  63.0434618  55.8273816  71.5195673  74.6941245
  56.7791239  71.6193771  74.7153469  55.6577267  70.7273942  75.2039329
  53.8488196  68.6051256  74.8800645  53.2538128  68.8856269  74.1847134
  53.5637893  69.0945157  75.6517387  52.9795686  82.5574183  63.6403278
  53.9126359  82.4919745  63.8436154  52.8918899  83.3930450  63.1817811
  55.6083703  81.8740054  60.6007226  55.5297335  81.5399917  61.4942983
  56.4293370  82.3661822  60.5998698  58.3061894  74.7401793  73.8083544
  58.2738214  73.8017794  73.9943228  58.9162518  74.8185830  73.0749369
  50.1445225  73.6097846  59.8510748  51.0904330  73.4804054  59.9199166
  49.7659470  72.8712508  60.3280176  58.4556383  71.5312836  73.8541827
  57.9395431  70.7471293  73.6671756  59.3396331  71.2031553  74.0188347
  39.2466083  72.8554186  70.2364680  38.9268867  72.0019494  69.9439054
  38.6999511  73.0702764  70.9922647  43.0245990  75.5716627  73.9534186
  43.2432000  76.5033735  73.9722220  43.4371764  75.2124601  74.7388990
  39.1154343  76.4757097  72.2057801  38.4217814  76.0611050  71.6927756
  39.8627334  76.5177634  71.6091220  53.7023130  66.6668342  69.2734156
  54.2022908  66.7784876  68.4648475  54.3458738  66.3629395  69.9134964
  41.0291085  76.4075351  70.0823816  41.0061773  76.5063038  69.1305699
  41.3391722  77.2540502  70.4040982  43.6878463  78.4651506  74.1970431
  44.6421717  78.4335448  74.1300362  43.4890987  78.0042130  75.0120657
  44.2777845  77.0352622  76.7641228  45.0970734  77.5296701  76.7876066
  44.5514653  76.1184590  76.7358796  54.0344441  69.4263374  66.1269184
  53.1470296  69.7113025  65.9089379  54.4498430  69.2657138  65.2796461
  57.3858977  69.4509895  69.8423523  58.1619368  69.9406348  70.1148140
  56.6607112  69.8767950  70.2995393  59.8231536  70.1637515  70.8997464
  60.4176027  69.9233251  70.1890772  59.8958120  69.4444645  71.5271000
  42.0428692  84.0071125  71.2140629  41.9083160  83.2471526  70.6478627
  41.6260754  84.7312025  70.7469417  53.1787655  79.1908049  60.2217204
  53.8823505  79.3958052  60.8374860  52.4550304  79.7584811  60.4866287
  54.0085465  74.9417910  66.3419474  53.9520666  75.3986462  65.5027106
  54.5613808  74.1808595  66.1642317  57.8190271  70.7307642  67.1669594
  57.5627205  70.3304278  67.9977801  57.1943139  71.4451436  67.0419733
  62.1302609  73.4703715  69.6740885  61.5702167  73.5396905  70.4472447
  61.5246112  73.2944700  68.9540381  45.1997818  84.9040443  71.4259071
  45.0830202  85.8485875  71.3237762  44.3790264  84.6014004  71.8144870
  55.0874352  79.6290578  62.2715664  55.9219956  79.1971777  62.0893139
  54.9258695  79.4572592  63.1992558  54.7420244  76.1322692  63.6372003
  54.6869048  75.9666963  62.6960447  54.1166300  76.8398724  63.7934193
  39.5312759  71.3690756  77.4633425  40.1771623  70.8589710  77.9520651
  39.3229910  72.1059438  78.0376851  47.9805934  84.3099691  71.3025078
  47.0301565  84.3101553  71.1889451  48.2838420  83.5632426  70.7861113
  51.8668489  62.2273577  67.4703258  51.1000885  61.6732064  67.6159941
  52.2779194  62.2995446  68.3317410  43.8710250  68.5158373  81.5608440
  44.7341712  68.1595178  81.7711764  43.2975661  68.1772268  82.2483844
  55.8890335  92.7083239  64.0030856  56.6621211  92.1612226  63.8643731
  56.2415734  93.5727488  64.2145317  58.2256613  88.8675905  61.6349306
  58.4782134  88.3457426  60.8732769  57.2881172  88.7042050  61.7375989
  57.9452902  90.7704011  63.8373680  57.8289160  90.0948914  64.5054765
  58.0555162  90.2836385  63.0205834  59.9289930  85.2604058  62.5381718
  60.0964332  86.1284294  62.9052189  59.7387099  85.4231339  61.6143007
  59.9079150  87.7161715  63.5228385  59.7878776  88.1618766  64.3613865
  59.2131739  88.0647033  62.9641923  54.3970726  87.6534699  68.0762561
  53.6001889  87.7653393  68.5946057  54.1696318  87.9921351  67.2103452
  51.3602726  91.6911602  67.2411552  52.1977948  92.1008610  67.0245259
  51.5380993  90.7511044  67.2111746  63.2567158  89.3586683  62.9295385
  62.7413781  90.1291287  63.1683772  62.9844466  88.6851819  63.5528446
  60.8414269  84.2036384  67.9880623  59.9855865  83.8143234  67.8086262
  61.2541221  84.2828344  67.1280409  63.0453461  87.2313775  64.7555166
  62.7403597  87.5459924  65.6065309  63.9983903  87.3095195  64.7982499
  56.2218620  84.0523664  68.7654731  56.7962372  83.8298846  68.0327924
  56.8089603  84.1212359  69.5183333  56.5488208  86.0828126  62.7850617
  55.7125520  86.4202812  63.1059891  56.4092977  85.9477105  61.8477754
  58.5241288  80.9264913  67.4929801  57.8705700  80.6113931  66.8686415
  58.4821762  80.3040654  68.2189624  59.6352493  91.2084208  59.4083093
  58.7279555  90.9773462  59.6074242  60.1323525  90.4121828  59.5957074
  60.8140726  91.3096803  63.9307083  59.9051946  91.0255836  64.0279553
  60.8435810  91.7295882  63.0710390  65.0904541  78.6271631  69.5240687
  65.3963418  77.7668994  69.2366602  65.8157146  79.2189251  69.3239681
  51.3828897  89.0302317  67.9122285  51.1853297  88.4371678  67.1873352
  50.8275561  88.7254528  68.6298224  60.5116814  92.8505547  61.2695161
  60.0736244  92.1341406  60.8100799  61.2527255  93.0781662  60.7080253
  53.8775122  88.5566351  65.5963237  52.9472711  88.4950807  65.8133199
  53.9732594  88.0342304  64.7999878  53.7960672  85.0821164  68.1841479
  54.0567489  85.9966497  68.0750639  54.6177844  84.6145607  68.3338092
  64.6328042  91.7089929  60.8627219  64.0157212  90.9836757  60.7660272
  64.1644530  92.4699289  60.5194293  56.4226588  85.9275353  59.9848523
  55.5456054  85.8064154  59.6210770  56.8984341  85.1361431  59.7327412
  51.1505282  87.5217208  65.4261429  51.4458723  86.6127887  65.3728483
  50.2493317  87.5004948  65.1042431  52.8793123  85.2031306  65.5500754
  52.5505829  84.3228685  65.3675860  53.2332494  85.1478975  66.4377143
  55.9934946  85.4904276  65.9176232  56.3331019  86.0190197  65.1954840
  56.4407067  85.8284682  66.6934798  57.9803093  83.9878897  64.1169525
  58.7011456  84.3660150  63.6133241  57.3568398  84.7067774  64.2204503
  62.1234216  84.6924046  65.0527857  62.3397831  85.5748684  64.7516685
  61.6428283  84.3010260  64.3233499  58.1266717  83.5226688  66.9467061
  58.2482628  82.5943334  67.1457949  57.8368759  83.5365374  66.0345377
  60.9957907  81.2081598  70.0833781  61.0179604  81.2720931  69.1285761
  61.4125966  80.3686107  70.2774287  54.8549408  91.1345998  66.0444017
  54.6095450  90.2308328  66.2424227  55.0245323  91.1363148  65.1023495
  54.1245056  86.8674356  63.5430179  53.4314301  86.9418711  62.8870215
  53.8796808  86.1034699  64.0651696  60.9838980  88.9389764  59.8510748
  61.9298084  88.8095972  59.9199166  60.6053224  88.2004425  60.3280176
  59.1681897  86.8639740  59.7865633  58.2613352  86.5672853  59.8628347
  59.4457878  86.5669558  58.9199920  60.7843962  81.4076630  65.9409875
  59.9744691  81.0623715  66.3165121  61.4728379  81.0984173  66.5297486
  62.7134511  80.4854676  67.5634171  63.2665549  80.9050130  68.2224195
  62.9504597  79.5590425  67.6057127  57.9380681  83.7226675  59.9277613
  58.7999845  84.0481574  60.1873430  58.1231025  82.9358171  59.4150678
  66.0913318  82.5955202  67.0712836  65.5111987  83.2540006  66.6890888
  65.8249250  81.7732546  66.6600253  64.8738196  84.7555292  66.1269184
  63.9864051  85.0404943  65.9089379  65.2892185  84.5949055  65.2796461
  58.8910124  80.9622718  63.2157322  58.8788794  81.9064558  63.3725593
  59.7833546  80.7792864  62.9216783  62.7062244  77.5565495  67.4703258
  61.9394640  77.0023982  67.6159941  63.1172949  77.6287364  68.3317410
  20.3583611   5.8354681  59.0916147  20.9962021   5.7161429  58.3879487
  20.2404453   6.7835525  59.1504099  17.1673317   5.7882109  59.0277672
  16.8291828   5.6723174  58.1398207  18.0363085   5.3873274  59.0078678
  13.0260133   7.6417586  55.0174563  12.4624998   7.5507523  54.2490851
  12.9112528   6.8217490  55.4977056  10.5724564   9.1368777  57.8558783
  11.3645856   8.7959602  57.4405083  10.8121215   9.2463752  58.7760937
  18.6059691  11.3088553  50.3289028  17.9547671  11.8942634  49.9423042
  19.4004054  11.8394748  50.3884065  12.5315318   8.3977691  50.7276162
  13.3046194   7.8506678  50.5889038  12.8840717   9.2621940  50.9390624
  14.3700361   9.7254073  63.9343062  14.0790227  10.6299704  63.8189728
  15.0057345   9.7670600  64.6487131  15.2956568   7.1030921  60.5244421
  15.8920140   6.8786944  59.8101384  15.3531539   6.3615667  61.1269869
  14.8681596   4.5570357  48.3594612  15.1207117   4.0351878  47.5978075
  13.9306155   4.3936502  48.4621296  19.9124879   3.5606135  56.1669355
  20.6987968   3.1425558  55.8159772  20.1763583   4.4652227  56.3351004
  20.0834956   8.9978985  50.8658012  19.4480789   9.0713612  51.5778917
  19.7532363   9.5872584  50.1877091  25.3133306   3.4981368  57.0702334
  26.0458478   2.9280585  57.3040163  24.5572662   3.1102969  57.5108839
  14.5877885   6.4598463  50.5618987  14.4714143   5.7843366  51.2300071
  14.6980145   5.9730837  49.7451140  16.9309426   5.9208610  54.2665676
  16.5667633   5.3939231  54.9778598  17.7876542   5.5307079  54.0932162
  19.3290246   9.4115488  60.9292855  19.0290969  10.3140527  60.8208662
  18.9841306   9.1447672  61.7814008  12.7802728   5.8629285  56.9629560
  11.8553224   5.7305499  57.1707251  13.0287141   6.6423504  57.4599502
  22.7287390   1.9298029  58.6090293  21.8204267   1.8613437  58.3149054
  22.6774986   2.4069973  59.4372118  16.5504134   3.4056167  50.2473692
  16.4303759   3.8513218  51.0859172  15.8556722   3.7541485  49.6887230
  14.3111026  16.1759809  53.8963823  14.2335056  17.1267634  53.9752303
  13.7072669  15.8305681  54.5538749  24.5949036   0.1314467  60.3868166
  23.9523416   0.4247000  59.7407961  24.0903965   0.0167387  61.1921363
  22.2489200   3.8777640  51.0754026  23.1607056   4.1105027  50.9001723
  21.7398847   4.4614684  50.5129104  20.5329968   8.3002268  64.7115318
  20.9413324   7.8584678  63.9669951  19.8107229   7.7254895  64.9649511
  16.8861038   3.2374875  62.0848875  17.7322233   3.6614288  62.2283524
  16.8259675   2.5808499  62.7787438  20.8558782   8.8603459  58.4667607
  20.2267645   9.0249173  57.7643675  20.4684444   9.2745068  59.2378571
  24.7348014   9.7957896  55.8211971  24.0499052  10.1756798  55.2709004
  24.8191863  10.4053223  56.5543919  21.9898946   7.4417855  62.4207314
  22.2015841   8.0849615  61.7441696  21.9428694   6.6080172  61.9529245
  19.5925175   0.0535676  59.3243887  18.7309654   0.3516930  59.6160624
  19.6187609   0.2706075  58.3924919  16.4086744   8.5977867  55.7317692
  16.8725090   8.8765570  54.9422315  16.1443542   7.6961311  55.5490783
  13.3010825   8.1449348  58.6697456  13.8712182   8.5736617  58.0314940
  13.8918937   7.8631933  59.3681641  15.3455630   4.7201019  52.5407257
  16.0479673   5.1722063  53.0081184  15.0136259   4.0784838  53.1687151
  23.1044774  10.3189811  60.5929672  23.9262217   9.9169998  60.3112353
  23.1007177  10.2158045  61.5445788  31.1950767   6.6628559  56.9414643
  30.4414475   6.0935957  56.7858648  31.3298308   6.6291224  57.8885278
  16.5849395  11.5341962  52.6169363  16.4495070  12.3793497  53.0454210
  17.1259207  11.7361239  51.8535296  10.0378792   9.0517400  53.1897288
  10.5503313   9.8460650  53.3402852  10.6901505   8.3543690  53.1230889
  11.8473677  12.1683156  55.2720041  12.0240305  13.0901121  55.0841025
  12.6430510  11.8541575  55.7014421  18.2117871  12.1565528  66.7469705
  17.7681725  11.3701907  66.4290609  18.8735085  12.3444679  66.0813596
  12.9704992  13.6861330  61.2730383  13.5212417  13.5578393  60.5007377
  12.1316468  13.9856219  60.9225276  20.3099109  12.4368328  64.7751106
  20.2917585  13.2577209  64.2831375  21.2319029  12.3122403  65.0001247
  16.7672163   9.9512458  65.6174614  17.3000500   9.1900746  65.3873922
  16.2386244   9.6586109  66.3598769  19.8992141   5.0481135  49.6540691
  19.3838764   5.8185739  49.8929079  19.6269450   4.3746271  50.2773753
  24.8726415   7.8013489  51.5893865  24.0955858   7.4624649  51.1449027
  25.5517896   7.8066112  50.9148830  19.6878444   2.9208227  51.4800472
  19.3828580   3.2354376  52.3310616  20.6408886   2.9989647  51.5227805
  18.1324876   9.0798450  53.1293426  17.6046238   8.3451210  52.8166664
  17.6312379   9.8573126  52.8833395  23.1117722   7.2747471  58.2460473
  22.4541397   7.9646732  58.3340601  23.9158121   7.6643903  58.5894459
  21.9223181   5.6291843  56.2964414  22.4355063   6.2621835  56.7986124
  22.5724405   5.0293039  55.9307774  16.2777476   6.8978660  46.1328399
  15.3704538   6.6667914  46.3319548  16.7748508   6.1016280  46.3202381
  19.1845555  15.6076168  49.0525086  18.5107254  15.9107864  49.6610043
  19.5711377  16.4105248  48.7030543  18.4004012   3.1041299  58.5422755
  17.4826573   3.3256246  58.3844443  18.8164155   3.1787609  57.6834462
  19.1839060   4.5032714  53.6725435  19.9310878   5.0154112  53.3632557
  19.4530649   4.1816767  54.5329829  17.4565710   6.9991255  50.6552390
  16.5476929   6.7150288  50.7524859  17.4860794   7.4190334  49.7955696
  22.6884977  10.6097845  54.4243557  22.2347304   9.7688755  54.4808748
  22.0578944  11.2459243  54.7618337  21.6317897   1.5389831  55.6544225
  20.8940653   1.0267217  55.9854467  21.8844670   1.0990212  54.8427501
  21.1317916  12.4474341  55.3593375  21.4240891  13.0079399  54.6405741
  21.6416537  12.7402902  56.1146534  16.0050604   4.6119876  56.7562185
  16.0599214   3.6593712  56.6804661  15.1941806   4.7679315  57.2403483
  17.1541798   8.5399999  47.9940468  16.7161227   7.8235858  47.5346105
  17.8952238   8.7676114  47.4325559  16.0951542  13.2254692  56.4486828
  16.0527720  13.4515539  55.5195360  17.0114240  12.9918067  56.5972630
  19.5417175   3.6938760  63.3467458  19.8966563   3.9210233  64.2061923
  20.1889307   4.0257137  62.7244713  25.2714912   6.8157196  54.0516787
  25.1332811   7.0058792  53.1237976  24.9151131   7.5776579  54.5084838
  25.2984292   8.8833723  59.0628058  25.7320799   8.7909012  59.9111112
  26.0115873   8.8591223  58.4248074  14.2117342  10.1017722  56.2448791
  15.0057941   9.6068042  56.0431366  13.5009035   9.5735585  55.8816497
  19.0312187  12.4835817  60.5961159  19.0849209  13.0526753  61.3638875
  18.1626968  12.6537702  60.2315196  26.1599841   8.9257424  61.5960944
  26.3535732   9.8303234  61.8420218  26.0600460   8.4664843  62.4299529
  21.2214950   9.0764166  67.1701824  21.0700457   8.8474718  66.2531908
  21.2119630  10.0334768  67.1833169  17.9900287   6.6496079  62.1548091
  18.9192347   6.8007239  61.9817058  17.5691317   6.7380100  61.2996737
  16.7888618  10.6746743  59.9246628  16.6499704  10.3065528  60.7972566
  16.0003215  11.1894383  59.7530586  17.3836770  15.7755840  51.2672165
  17.5588526  15.3043883  52.0817787  16.6969558  16.4021606  51.4953425
  18.3393833  10.0528346  57.3135466  18.0043666  10.0129116  58.2093116
  17.8397779   9.3873062  56.8405876  21.2753025   7.3984381  47.5872526
  20.6582196   6.6731209  47.4905578  20.8069514   8.1593741  47.2439600
  14.9420378   5.1715936  62.3271727  15.6519997   4.5309128  62.2858345
  14.8989686   5.4228830  63.2497908  22.9307157  12.1083289  65.2478306
  22.8719703  11.4242509  64.5808889  23.3326675  12.8502279  64.7958932
  11.9497856  18.9245203  58.0412025  12.1894454  19.5563727  58.7191043
  11.1067052  18.5733243  58.3277384  22.9324564  10.0722873  63.4792286
  22.0451343   9.7348795  63.6018685  23.5023115   9.3405904  63.7161051
  16.4625717  14.7324325  60.4453529  16.3895889  15.5379297  60.9572833
  16.0203111  14.9316291  59.6201550  16.2515497  13.9696095  53.9556350
  15.4683019  14.5117775  54.0494575  16.9508242  14.4870075  54.3550592
  27.4141905   5.4831090  58.2408847  27.4031781   6.3655806  57.8702780
  26.5459284   5.1302641  58.0463384  18.9224401  14.6311159  62.6011688
  19.6352373  15.2658624  62.5287589  18.4314430  14.7275025  61.7851689
  20.6441928   8.5362412  54.1728979  19.7098207   8.6563874  54.0033684
  20.8218596   7.6334879  53.9088989  24.0314479   4.3779731  54.7079013
  24.4974931   5.2107723  54.6339316  24.4821980   3.9124713  55.4124272
  13.9736314  12.3805603  63.4217258  14.6745774  13.0142086  63.5746653
  13.5031429  12.7220334  62.6612898  22.0990710  10.7223552  51.7065165
  22.3750554  10.6080147  52.6159040  21.2295209  10.3241037  51.6677339
  21.7737600   4.9350210  61.2469809  21.1209051   5.1826118  60.5922262
  22.1517980   4.1214348  60.9132286  18.7344774  14.9709903  55.3497979
  18.9167169  14.1531559  55.8125731  19.5577760  15.1877596  54.9122869
  19.0686940  13.8978088  52.6113028  19.5974706  13.3870543  51.9983190
  19.3315159  13.5820619  53.4758561   9.5704033  11.9141958  60.3548361
  10.1557469  11.1685646  60.4876265   9.3728871  12.2245914  61.2385025
  12.4242688  14.9493205  55.3710803  11.7553063  15.4339333  54.8874844
  12.2855557  15.1962426  56.2854182  16.5647956  16.9836949  61.9693462
  17.1166264  17.1468570  62.7342547  16.9054150  17.5741386  61.2973487
  21.4158831  11.8098206  67.8242116  21.9598735  12.4228164  67.3297071
  20.8345676  12.3677785  68.3409129  19.7016344  14.9318924  58.9557144
  19.5767483  14.1308664  58.4468089  20.3595435  15.4265118  58.4671114
  21.7651252  12.7327944  60.5836694  20.8181588  12.6133295  60.5115021
  22.1134025  11.8450442  60.6662956  18.7697685  12.5280660  56.7841046
  18.6222648  11.5997368  56.9648616  19.5951179  12.5500751  56.2998122
  22.3731807  13.3509219  57.8705919  23.2978355  13.1452081  57.7330370
  22.2047111  13.1025620  58.7795261  22.1627123  13.8694887  53.2268011
  22.3364001  13.3041309  52.4741863  22.6556015  14.6695782  53.0447500
  28.0166515   6.6331310  54.8458310  28.4597661   5.8838635  54.4477434
  27.1393025   6.6241446  54.4632042  23.1502296  13.1861651  50.3264909
  23.8453200  13.8068344  50.5452223  23.4925446  12.3357002  50.6017287
  25.0493719  10.6361357  51.8552240  25.5745043  10.9748629  51.1301560
  24.9616072   9.7008372  51.6715374  16.7113768  14.5495430  63.9842116
  17.0200894  14.3044577  64.8564816  17.5089250  14.7542069  63.4960986
  16.7334380  16.7033340  56.2147493  16.2939370  16.2109719  56.9080349
  17.4842497  16.1606308  55.9739568   9.2126719  12.8944881  56.2172121
  10.0384739  12.5948653  55.8370764   8.8620771  12.1252503  56.6661909
  14.1808252  12.2471349  58.2869794  13.5588261  11.5842054  57.9872022
  14.8513119  12.2732481  57.6043442   7.4135324  10.8131207  57.1761054
   6.5767232  10.3853382  56.9945056   7.3858969  11.0063651  58.1131846
  24.7387625  11.2694260  67.1603438  23.9483169  11.2518399  66.6207937
  24.5020980  11.8082554  67.9152474  24.8585500   8.1186727  64.4736166
  24.9083505   7.9536734  65.4151689  24.7499423   7.2513986  64.0834047
  13.7421759  10.7975272  51.7628255  13.8909879  11.4810737  51.1094928
  14.5488202  10.7780362  52.2777711  26.3603697  10.5383668  64.7178188
  26.0688505  10.9013649  65.5541649  25.7475828   9.8250676  64.5391520
  27.5599379   8.1036548  57.2380758  28.3946271   8.5426352  57.4018318
  27.6958508   7.6275201  56.4189004  24.6090885   5.6616283  63.1858246
  25.0845007   5.8543929  62.3777097  23.6856451   5.7175469  62.9401629
  11.4974392   6.8240450  52.7689324  11.2520434   5.9202780  52.9669534
  11.6670306   6.8257600  51.8268802  17.2417164  13.2923403  49.2340002
  16.6691131  13.9113590  48.7810474  17.8149958  13.8422764  49.7679924
  23.3092554   2.5382043  61.4186551  24.2609977   2.6380140  61.4398775
  23.1396005   1.7460311  61.9284636  21.3306934  -0.3762374  61.6045952
  20.7356866  -0.0957361  60.9092441  21.0456630   0.1131527  62.3762693
  20.4614424  13.5760553  50.3648585  21.3945097  13.5106115  50.5681460
  20.3737637  14.4116820  49.9063117  23.0902441  12.8926423  47.3252532
  23.0116072  12.5586287  48.2188290  23.9112108  13.3848191  47.3244005
  25.7880632   5.7588163  60.5328851  25.7556952   4.8204163  60.7188535
  26.3981256   5.8372199  59.7994676  17.6263963   4.6284215  46.5756055
  18.5723068   4.4990424  46.6444473  17.2478208   3.8898877  47.0525483
  25.9375120   2.5499206  60.5787134  25.4214169   1.7657663  60.3917063
  26.8215069   2.2217923  60.7433653  31.6057182   6.8204169  59.6734888
  32.3360570   6.5589457  60.2342591  30.9964127   6.0832891  59.7136956
  29.6872479   4.9612032  60.2709339  28.9605643   4.8267997  59.6625830
  29.2719766   5.2688861  61.0766057  10.5064728   6.5902996  60.6779493
  10.7250738   7.5220104  60.6967527  10.9190502   6.2310971  61.4634297
  11.1697201   9.4837876  60.9215737  12.1240454   9.4521818  60.8545669
  10.9709724   9.0228499  61.7365963  11.7596583   8.0538992  63.4886535
  12.5789472   8.5483070  63.5121372  12.0333391   7.1370960  63.4604103
  21.5163179   0.4449744  52.8514491  20.6289034   0.7299395  52.6334685
  21.9317168   0.2843507  52.0041767  24.8677715   0.4696265  56.5668830
  25.6438105   0.9592717  56.8393447  24.1425849   0.8954319  57.0240699
  27.3050274   1.1823884  57.6242770  27.8994765   0.9419620  56.9136079
  27.3776858   0.4631015  58.2516307   9.5247430  15.0257495  57.9385935
   9.3901897  14.2657896  57.3723933   9.1079492  15.7498395  57.4714724
  20.6606393  10.2094419  46.9462511  21.3642243  10.4144421  47.5620166
  19.9369041  10.7771180  47.2111594  21.4904203   5.9604280  53.0664781
  21.4339404   6.4172831  52.2272413  22.0432545   5.1994964  52.8887623
  25.3009009   1.7494012  53.8914900  25.0445943   1.3490647  54.7223108
  24.6761877   2.4637806  53.7665039  29.6121347   4.4890085  56.3986192
  29.0520905   4.5583274  57.1717754  29.0064850   4.3131070  55.6785688
  12.6816555  15.9226812  58.1504378  12.5648940  16.8672245  58.0483068
  11.8609002  15.6200374  58.5390177  22.5693090  10.6476948  48.9960971
  23.4038694  10.2158146  48.8138445  22.4077433  10.4758961  49.9237865
  22.2238982   7.1509061  50.3617310  22.1687786   6.9853333  49.4205754
  21.5985037   7.8585094  50.5179500  13.7071070  16.5755074  61.3660306
  14.6098316  16.6078684  61.6826801  13.4808440  15.6455525  61.3806642
  15.4624672  15.3286061  58.0270385  14.5120303  15.3287922  57.9134757
  15.7657158  14.5818795  57.5106420  28.0067071  21.1174027  59.0277672
  27.6685583  21.0015092  58.1398207  28.8756840  20.7165192  59.0078678
  23.8653887  22.9709503  55.0174563  23.3018752  22.8799440  54.2490851
  23.7506282  22.1509408  55.4977056  28.4886854  22.2708879  64.9863878
  28.4775495  21.8761677  64.1144381  28.6507494  21.5374951  65.5797649
  25.2094115  25.0545991  63.9343062  24.9183981  25.9591621  63.8189728
  25.8451100  25.0962518  64.6487131  26.1350322  22.4322839  60.5244421
  26.7313895  22.2078861  59.8101384  26.1925294  21.6907585  61.1269869
  30.7518634  18.8898053  56.1669355  31.5381723  18.4717476  55.8159772
  31.0157338  19.7944145  56.3351004  36.1527061  18.8273286  57.0702334
  36.8852233  18.2572503  57.3040163  35.3966416  18.4394886  57.5108839
  27.7703180  21.2500527  54.2665676  27.4061388  20.7231148  54.9778598
  28.6270296  20.8598997  54.0932162  33.6752481  12.5394860  61.5296942
  33.3435806  13.4090271  61.3058157  33.0798094  12.2231144  62.2090973
  23.6196482  21.1921203  56.9629560  22.6946979  21.0597417  57.1707251
  23.8680895  21.9715422  57.4599502  33.5681144  17.2589946  58.6090293
  32.6598022  17.1905355  58.3149054  33.5168740  17.7361891  59.4372118
  20.9805293  20.8354476  57.7973349  21.1097674  21.0888955  58.7112760
  20.3002744  21.4282184  57.4778004  27.6422010  18.6779592  66.5525190
  26.8655344  19.2373512  66.5428054  28.2812573  19.1636375  67.0740060
  35.4342791  15.4606385  60.3868166  34.7917171  15.7538918  59.7407961
  34.9297719  15.3459305  61.1921363  33.0882954  19.2069558  51.0754026
  34.0000811  19.4396945  50.9001723  32.5792601  19.7906602  50.5129104
  25.8968382  21.4865045  66.1143157  26.6383067  22.0250089  65.8377980
  25.1905368  22.1131334  66.2714709  31.3723722  23.6294186  64.7115318
  31.7807078  23.1876596  63.9669951  30.6500984  23.0546813  64.9649511
  27.7254792  18.5666792  62.0848875  28.5715987  18.9906206  62.2283524
  27.6653430  17.9100417  62.7787438  30.8754237  16.2271161  63.7430049
  30.6315169  16.9813221  63.2064325  31.1514168  16.6056508  64.5777296
  32.8292700  22.7709773  62.4207314  33.0409595  23.4141533  61.7441696
  32.7822448  21.9372090  61.9529245  30.4318929  15.3827594  59.3243887
  29.5703408  15.6808847  59.6160624  30.4581364  15.5997993  58.3924919
  26.1849385  20.0492937  52.5407257  26.8873428  20.5013980  53.0081184
  25.8530013  19.4076756  53.1687151  24.6329746  18.6404693  66.9158467
  24.0028407  19.3220974  67.1493864  24.5265834  18.5287775  65.9711605
  19.9274719  18.3076489  57.8424391  19.1373773  18.5634018  57.3664502
  20.4185966  19.1224827  57.9476432  33.9438528  25.6481729  60.5929672
  34.7655972  25.2461916  60.3112353  33.9400931  25.5449963  61.5445788
  21.8789464  18.6721069  54.8007868  21.0820627  18.7839763  55.3191363
  21.6515056  19.0107721  53.9348758  27.7095132  25.1965772  62.7490382
  27.7739564  25.6586179  63.5848554  27.0006055  24.5663137  62.8772692
  18.2112422  18.5606980  60.2739382  18.4620460  19.4453990  60.5396958
  18.7471970  18.3811581  59.5014474  42.0344521  21.9920477  56.9414643
  41.2808230  21.4227875  56.7858648  42.1692062  21.9583142  57.8885278
  23.9110489  12.9425459  69.2783718  23.5177434  12.3891658  69.9531362
  24.7276629  13.2536038  69.6690235  26.8278450  14.3583338  66.8703974
  27.5688163  14.9590491  66.7908437  27.0596373  13.6160976  66.3122017
  21.9719788  19.5439706  65.1482204  21.8573303  18.6424963  65.4489303
  21.1164306  19.7903402  64.7967021  29.0511626  27.4857446  66.7469705
  28.6075480  26.6993824  66.4290609  29.7128839  27.6736596  66.0813596
  31.1492864  27.7660246  64.7751106  31.1311339  28.5869127  64.2831375
  32.0712784  27.6414321  65.0001247  27.6065918  25.2804375  65.6174614
  28.1394255  24.5192663  65.3873922  27.0779999  24.9878027  66.3598769
  30.7735613  10.3864441  61.1468256  30.4299882  11.2766083  61.0707367
  31.1414575  10.1966099  60.2837841  18.8421463  22.7097972  53.9656858
  19.6796685  23.1194980  53.7490566  19.0199731  21.7697414  53.9357052
  28.3233007  15.2222753  54.7125930  27.4674603  14.8329604  54.5331568
  28.7359958  15.3014714  53.8525715  29.8532153  12.7569096  59.1117489
  29.3496949  12.7199232  58.2985295  30.1462760  13.6661839  59.1714146
  26.0975039  12.8407826  58.1183671  26.9628036  12.6450635  57.7589561
  26.1652548  12.6118178  59.0453028  30.5272199  18.2500144  51.4800472
  30.2222334  18.5646294  52.3310616  31.4802641  18.3281564  51.5227805
  23.7037358  15.0710034  55.4900038  24.2781110  14.8485216  54.7573231
  24.2908341  15.1398729  56.2428639  24.0306945  17.1014495  49.5095923
  23.1944258  17.4389182  49.8305198  23.8911715  16.9663475  48.5723060
  26.0060026  11.9451283  54.2175107  25.3524438  11.6300300  53.5931722
  25.9640500  11.3227023  54.9434930  29.2397766  18.4333216  58.5422755
  28.3220328  18.6548163  58.3844443  29.6557910  18.5079527  57.6834462
  30.0232814  19.8324632  53.6725435  30.7704633  20.3446029  53.3632557
  30.2924404  19.5108685  54.5329829  32.4711651  16.8681748  55.6544225
  31.7334408  16.3559135  55.9854467  32.7238425  16.4282130  54.8427501
  32.5723278   9.6458000  56.2485994  32.8782155   8.7855364  55.9611909
  33.2975883  10.2375621  56.0484988  18.8647635  20.0488687  54.6367592
  18.6672034  19.4558048  53.9118658  18.3094299  19.7440897  55.3543531
  26.8444358  19.9411793  56.7562185  26.8992968  18.9885630  56.6804661
  26.0335560  20.0971233  57.2403483  24.7836718  18.5588853  54.5152564
  23.9704584  18.8583024  54.9217756  25.2795712  18.1644542  55.2327046
  30.3810930  19.0230678  63.3467458  30.7360318  19.2502151  64.2061923
  31.0283061  19.3549054  62.7244713  24.2750793  16.1307209  60.1313799
  24.9150172  15.9895968  59.4336762  23.4428323  15.8441722  59.7552401
  21.3593860  19.5752721  52.3208544  20.4291448  19.5137176  52.5378506
  21.4551332  19.0528674  51.5245185  21.2779409  16.1007534  54.9086785
  21.5386227  17.0152867  54.7995946  22.0996582  15.6331976  55.0583398
  22.7504335  17.5145291  62.0785610  23.4227388  17.3062653  61.4298259
  21.9234121  17.3167377  61.6390842  36.9993596  24.2549341  61.5960944
  37.1929486  25.1595152  61.8420218  36.8994214  23.7956760  62.4299529
  28.6529907  14.1407232  64.0951271  28.0057822  14.8397181  64.0015747
  29.4230922  14.5743376  64.4627519  32.0608705  24.4056084  67.1701824
  31.9094211  24.1766636  66.2531908  32.0513384  25.3626685  67.1833169
  28.8294041  21.9787997  62.1548091  29.7586101  22.1299156  61.9817058
  28.4085071  22.0672018  61.2996737  23.1531832  20.7887894  62.8388047
  23.0151630  20.0568133  63.4399586  24.0636755  20.6996794  62.5572235
  25.7814133  20.5007853  62.3271727  26.4913751  19.8601045  62.2858345
  25.7383441  20.7520748  63.2497908  33.7700911  27.4375207  65.2478306
  33.7113457  26.7534427  64.5808889  34.1720430  28.1794197  64.7958932
  24.4943067  17.4873071  64.1467366  23.9580424  17.0363810  64.7988963
  23.9059775  17.6218980  63.4037831  22.7891610  34.2537120  58.0412025
  23.0288208  34.8855645  58.7191043  21.9460807  33.9025160  58.3277384
  33.7718319  25.4014790  63.4792286  32.8845097  25.0640712  63.6018685
  34.3416870  24.6697822  63.7161051  15.4247466  21.7338882  56.8035337
  16.1118505  21.4200612  56.2156352  15.2695594  22.6380247  56.5302589
  20.2282188  16.6229079  61.2320361  20.1440377  16.0154748  60.4970771
  19.4064894  17.1138097  61.2329857  30.4005902  15.1082642  56.5990556
  30.8974601  14.3552605  56.2791626  29.6292883  15.1446959  56.0333765
  38.2535659  20.8123008  58.2408847  38.2425535  21.6947723  57.8702780
  37.3853039  20.4594559  58.0463384  29.7618155  29.9603077  62.6011688
  30.4746128  30.5950542  62.5287589  29.2708184  30.0566943  61.7851689
  26.9840870  17.2500025  56.3262240  26.6138658  16.6971066  57.0143146
  27.4799963  16.6458159  55.7737240  34.8708234  19.7071649  54.7079013
  35.3368686  20.5399640  54.6339316  35.3215734  19.2416630  55.4124272
  32.8424896  12.0752236  58.7469915  31.9287976  12.3056463  58.9152122
  33.2717998  12.1590680  59.5983947  32.6131355  20.2642128  61.2469809
  31.9602805  20.5118035  60.5922262  32.9911735  19.4506266  60.9132286
  28.6618928  21.0061939  67.7335846  27.9859565  20.9056068  68.4038221
  29.4846562  20.8501153  68.1971843  15.0015442  19.8139476  59.0752804
  15.0399541  19.2803066  59.8689922  14.4955735  19.2874681  58.4563781
  27.4041711  32.3128866  61.9693462  27.9560019  32.4760488  62.7342547
  27.7447904  32.9033304  61.2973487  22.3806204  14.6604016  62.5715347
  22.4447531  15.5218847  62.1592744  22.3173324  14.0478018  61.8387705
  21.8558477  16.7327149  66.2188381  22.4830515  16.3504226  66.8325905
  20.9986395  16.5141351  66.5844073  32.2552585  27.1390124  67.8242116
  32.7992489  27.7520082  67.3297071  31.6739430  27.6969702  68.3409129
  18.6324019  18.5403578  52.1506736  18.9277460  17.6314256  52.0973789
  17.7312055  18.5191317  51.8287738  22.1618266  16.6159574  58.1334284
  21.4404852  17.2295542  57.9941758  22.9511522  17.1517339  58.0550930
  24.9644580  13.9514001  64.4074936  25.4878982  14.1976297  65.1701245
  24.7456913  14.7834036  63.9878073  20.3611861  16.2217675  52.2746061
  20.0324567  15.3415054  52.0921167  20.7151232  16.1665344  53.1622450
  23.4753684  16.5090645  52.6421538  23.8149757  17.0376566  51.9200147
  23.9225805  16.8471051  53.4180105  26.1697125  14.8927696  62.0924607
  25.8293945  14.0935509  62.4945286  25.4636131  15.1929407  61.5201440
  26.8213597  11.9777008  60.5451930  27.6439666  11.5037487  60.4230820
  27.0651660  12.7567492  61.0450616  25.4621831  15.0065267  50.8414831
  26.1830194  15.3846520  50.3378548  24.8387135  15.7254144  50.9449809
  29.6052954  15.7110416  51.7773164  29.8216569  16.5935054  51.4761992
  29.1247021  15.3196629  51.0478806  24.3452176  18.6696129  58.3543908
  24.1996756  18.9836432  59.2468190  23.8677379  19.2881029  57.8014807
  26.2048558  15.6598677  58.4024798  26.1910127  14.7639770  58.0657096
  26.9220987  15.6669341  59.0363084  28.0574689  16.0936017  60.4477925
  27.7992467  17.0153088  60.4462256  27.5259729  15.6966452  61.1378389
  18.8197838  21.2101473  61.2931569  18.2751306  21.9861281  61.4251844
  19.6977188  21.5572278  61.1350691  25.6085454  14.5413057  53.6712368
  25.7301366  13.6129703  53.8703255  25.3187497  14.5551743  52.7590683
  28.4776645  12.2267968  56.8079088  28.4998342  12.2907301  55.8531067
  28.8944704  11.3872476  57.0019594  38.8560269  21.9623227  54.8458310
  39.2991415  21.2130552  54.4477434  37.9786779  21.9533364  54.4632042
  19.6063860  20.3371370  64.1861726  18.8645596  20.4854005  64.7726357
  19.2856604  20.5979635  63.3228476  27.5507522  29.8787348  63.9842116
  27.8594649  29.6336495  64.8564816  28.3483004  30.0833986  63.4960986
  20.0520473  28.2236798  56.2172121  20.8778493  27.9240570  55.8370764
  19.7014525  27.4544421  56.6661909  18.2529078  26.1423125  57.1761054
  17.4160987  25.7145299  56.9945056  18.2252724  26.3355568  58.1131846
  25.0926534  16.0545055  67.8802300  25.1414689  16.9307177  67.4980070
  25.6349048  15.5122448  67.3073944  35.5781380  26.5986178  67.1603438
  34.7876923  26.5810317  66.6207937  35.3414734  27.1374472  67.9152474
  35.6979255  23.4478644  64.4736166  35.7477260  23.2828652  65.4151689
  35.5893178  22.5805903  64.0834047  32.9883017  19.4309572  65.7895473
  33.8892880  19.2916037  65.4979471  33.0630991  19.5964027  66.7293650
  27.3225822  16.8076427  64.6348659  26.4529132  17.1009993  64.3631248
  27.5585303  17.3916872  65.3555923  37.1997451  25.8675586  64.7178188
  36.9082260  26.2305566  65.5541649  36.5869583  25.1542594  64.5391520
  38.3993134  23.4328466  57.2380758  39.2340025  23.8718270  57.4018318
  38.5352263  22.9567119  56.4189004  35.4484640  20.9908200  63.1858246
  35.9238761  21.1835847  62.3777097  34.5250205  21.0467386  62.9401629
  22.3368146  22.1532368  52.7689324  22.0914188  21.2494698  52.9669534
  22.5064061  22.1549518  51.8268802  30.0264856  13.0256044  62.1514079
  30.5446800  13.7617071  61.8260568  29.6719989  13.3320037  62.9860839
  21.6063794  17.8860725  50.2675485  20.9133039  17.9605080  49.6115521
  21.3615546  17.1221069  50.7897002  30.2777450   9.4456326  57.6714976
  30.5579204   8.7779516  58.2975403  31.0628057   9.6385422  57.1589640
  34.1486309  17.8673960  61.4186551  35.1003732  17.9672058  61.4398775
  33.9789759  17.0752229  61.9284636  32.1700688  14.9529544  61.6045952
  31.5750620  15.2334556  60.9092441  31.8850385  15.4423445  62.3762693
  36.6274386  21.0880080  60.5328851  36.5950707  20.1496081  60.7188535
  37.2375010  21.1664117  59.7994676  36.7768875  17.8791124  60.5787134
  36.2607924  17.0949580  60.3917063  37.6608823  17.5509840  60.7433653
  34.4379602  11.6232139  56.5382947  34.2404423  11.3147227  57.4226279
  35.0479307  12.3493778  56.6680877  42.4450936  22.1496087  59.6734888
  43.1754325  21.8881375  60.2342591  41.8357882  21.4124809  59.7136956
  40.5266233  20.2903950  60.2709339  39.7999397  20.1559915  59.6625830
  40.1113520  20.5980778  61.0766057  28.3496410  24.0093879  68.0356712
  29.2699419  24.1872478  68.2296758  28.3145993  23.0649925  67.8836411
  17.5678575  19.2032473  56.9609986  17.2481359  18.3497781  56.6684361
  17.0212003  19.4181051  57.7167954  21.3458482  21.9194914  60.6779493
  21.5644492  22.8512022  60.6967527  21.7584256  21.5602888  61.4634297
  28.2662700  12.4262999  52.6655181  27.4563429  12.0810084  53.0410427
  28.9547117  12.1170543  53.2542793  30.1953248  11.5041046  54.2879478
  30.7484287  11.9236499  54.9469501  30.4323335  10.5776794  54.3302434
  26.2186348  17.4928120  70.0682242  26.1183075  18.4422477  69.9994333
  26.0007890  17.1646359  69.1958312  33.5732056  13.6141571  53.7958142
  32.9930725  14.2726375  53.4136195  33.3067988  12.7918916  53.3845560
  32.0235622  13.0146629  55.9979463  32.5235400  13.1263163  55.1893781
  32.6671230  12.7107682  56.6380271  26.0817618  20.9225259  68.8847304
  25.5984699  21.7225619  69.0911193  26.1678557  20.9333203  67.9314748
  19.3503577  22.7553638  56.8069123  19.3274265  22.8541325  55.8551006
  19.6604214  23.6018789  57.1286289  22.5990337  23.3830909  63.4886535
  23.4183226  23.8774988  63.5121372  22.8727145  22.4662877  63.4604103
  32.3556934  15.7741662  52.8514491  31.4682789  16.0591312  52.6334685
  32.7710923  15.6135425  52.0041767  35.7071470  15.7988183  56.5668830
  36.4831860  16.2884635  56.8393447  34.9819604  16.2246237  57.0240699
  38.1444028  16.5115802  57.6242770  38.7388519  16.2711538  56.9136079
  38.2170612  15.7922932  58.2516307  20.3641184  30.3549413  57.9385935
  20.2295652  29.5949814  57.3723933  19.9473246  31.0790313  57.4714724
  36.1402763  17.0785929  53.8914900  35.8839697  16.6782565  54.7223108
  35.5155631  17.7929723  53.7665039  40.4515101  19.8182003  56.3986192
  39.8914659  19.8875192  57.1717754  39.8458604  19.6422987  55.6785688
  17.8525252  17.7169043  64.1878732  18.4984115  17.2067997  64.6765957
  17.6442403  18.4537725  64.7622157  30.3778644  24.7849891  69.6870873
  31.2469803  24.9590543  69.3257508  29.8985395  25.6044307  69.5646602
  26.3728862  11.9809088  49.9402628  26.3607532  12.9250928  50.0970899
  27.2652284  11.7979233  49.6462089  24.5464824  31.9046992  61.3660306
  25.4492071  31.9370602  61.6826801  24.3202194  30.9747443  61.3806642
  30.1880982   8.5751864  54.1948565  29.4213377   8.0210351  54.3405247
  30.5991687   8.6473733  55.0562717  22.1922743  14.8636660  68.2853746
  23.0554204  14.5073465  68.4957071  21.6188153  14.5250555  68.9729151
  39.3280609  37.6000796  64.9863878  39.3169250  37.2053595  64.1144381
  39.4901248  36.8666869  65.5797649  36.9744077  37.7614757  60.5244421
  37.5707649  37.5370779  59.8101384  37.0319048  37.0199502  61.1269869
  44.5146235  27.8686778  61.5296942  44.1829560  28.7382189  61.3058157
  43.9191849  27.5523062  62.2090973  41.0077755  40.0699324  60.9292855
  40.7078478  40.9724363  60.8208662  40.6628815  39.8031507  61.7814008
  38.4815765  34.0071510  66.5525190  37.7049099  34.5665430  66.5428054
  39.1206328  34.4928292  67.0740060  46.2736545  30.7898302  60.3868166
  45.6310925  31.0830835  59.7407961  45.7691474  30.6751223  61.1921363
  36.7362137  36.8156963  66.1143157  37.4776821  37.3542007  65.8377980
  36.0299122  37.4423252  66.2714709  42.2117477  38.9586103  64.7115318
  42.6200833  38.5168514  63.9669951  41.4894738  38.3838731  64.9649511
  38.5648547  33.8958710  62.0848875  39.4109742  34.3198124  62.2283524
  38.5047184  33.2392334  62.7787438  42.5346291  39.5187294  58.4667607
  41.9055154  39.6833008  57.7643675  42.1471953  39.9328904  59.2378571
  41.7147992  31.5563078  63.7430049  41.4708924  32.3105139  63.2064325
  41.9907922  31.9348426  64.5777296  43.6686455  38.1001691  62.4207314
  43.8803350  38.7433451  61.7441696  43.6216203  37.2664007  61.9529245
  34.9798334  38.8033184  58.6697456  35.5499691  39.2320452  58.0314940
  35.5706446  38.5215768  59.3681641  35.4723501  33.9696611  66.9158467
  34.8422161  34.6512892  67.1493864  35.3659589  33.8579693  65.9711605
  44.7832283  40.9773646  60.5929672  45.6049726  40.5753834  60.3112353
  44.7794686  40.8741880  61.5445788  38.5488886  40.5257690  62.7490382
  38.6133319  40.9878097  63.5848554  37.8399810  39.8955054  62.8772692
  34.7504243  28.2717377  69.2783718  34.3571189  27.7183575  69.9531362
  35.5670384  28.5827955  69.6690235  37.6672204  29.6875256  66.8703974
  38.4081918  30.2882409  66.7908437  37.8990127  28.9452894  66.3122017
  32.8113542  34.8731623  65.1482204  32.6967058  33.9716880  65.4489303
  31.9558060  35.1195320  64.7967021  39.8905380  42.8149364  66.7469705
  39.4469234  42.0285742  66.4290609  40.5522594  43.0028514  66.0813596
  41.9886618  43.0952163  64.7751106  41.9705094  43.9161045  64.2831375
  42.9106538  42.9706239  65.0001247  38.4459672  40.6096293  65.6174614
  38.9788009  39.8484581  65.3873922  37.9173753  40.3169945  66.3598769
  41.6129367  25.7156359  61.1468256  41.2693637  26.6058001  61.0707367
  41.9808330  25.5258017  60.2837841  40.6925908  28.0861014  59.1117489
  40.1890703  28.0491149  58.2985295  40.9856515  28.9953757  59.1714146
  36.9368794  28.1699744  58.1183671  37.8021790  27.9742552  57.7589561
  37.0046303  27.9410096  59.0453028  44.7905231  37.9331306  58.2460473
  44.1328906  38.6230567  58.3340601  45.5945630  38.3227738  58.5894459
  43.4117033  24.9749918  56.2485994  43.7175910  24.1147282  55.9611909
  44.1369638  25.5667538  56.0484988  41.2204684  34.3522595  63.3467458
  41.5754072  34.5794069  64.2061923  41.8676816  34.6840972  62.7244713
  35.1144547  31.4599126  60.1313799  35.7543927  31.3187886  59.4336762
  34.2822078  31.1733640  59.7552401  39.4923661  29.4699150  64.0951271
  38.8451576  30.1689099  64.0015747  40.2624677  29.9035293  64.4627519
  42.9002459  39.7348002  67.1701824  42.7487966  39.5058553  66.2531908
  42.8907139  40.6918603  67.1833169  39.6687796  37.3079914  62.1548091
  40.5979856  37.4591074  61.9817058  39.2478826  37.3963935  61.2996737
  33.9925586  36.1179812  62.8388047  33.8545384  35.3860050  63.4399586
  34.9030510  36.0288712  62.5572235  36.6207887  35.8299771  62.3271727
  37.3307506  35.1892963  62.2858345  36.5777195  36.0812666  63.2497908
  44.6094666  42.7667124  65.2478306  44.5507212  42.0826344  64.5808889
  45.0114184  43.5086114  64.7958932  35.3336821  32.8164989  64.1467366
  34.7974178  32.3655727  64.7988963  34.7453530  32.9510898  63.4037831
  44.6112073  40.7306708  63.4792286  43.7238852  40.3932630  63.6018685
  45.1810624  39.9989739  63.7161051  26.2641220  37.0630800  56.8035337
  26.9512260  36.7492530  56.2156352  26.1089349  37.9672165  56.5302589
  43.6818651  27.4044153  58.7469915  42.7681731  27.6348380  58.9152122
  44.1111752  27.4882598  59.5983947  39.5012682  36.3353857  67.7335846
  38.8253319  36.2347986  68.4038221  40.3240316  36.1793070  68.1971843
  33.2199959  29.9895934  62.5715347  33.2841285  30.8510765  62.1592744
  33.1567079  29.3769935  61.8387705  32.6952231  32.0619066  66.2188381
  33.3224270  31.6796144  66.8325905  31.8380150  31.8433268  66.5844073
  43.0946340  42.4682041  67.8242116  43.6386244  43.0812000  67.3297071
  42.5133185  43.0261620  68.3409129  35.8038334  29.2805919  64.4074936
  36.3272736  29.5268215  65.1701245  35.5850668  30.1125953  63.9878073
  37.0090879  30.2219614  62.0924607  36.6687700  29.4227427  62.4945286
  36.3029886  30.5221324  61.5201440  37.6607351  27.3068926  60.5451930
  38.4833421  26.8329404  60.4230820  37.9045415  28.0859410  61.0450616
  37.0442313  30.9890595  58.4024798  37.0303882  30.0931688  58.0657096
  37.7614741  30.9961258  59.0363084  38.8968444  31.4227935  60.4477925
  38.6386221  32.3445006  60.4462256  38.3653484  31.0258369  61.1378389
  29.6591592  36.5393391  61.2931569  29.1145060  37.3153199  61.4251844
  30.5370942  36.8864196  61.1350691  39.3170399  27.5559885  56.8079088
  39.3392096  27.6199218  55.8531067  39.7338458  26.7164394  57.0019594
  30.4457614  35.6663287  64.1861726  29.7039350  35.8145923  64.7726357
  30.1250358  35.9271553  63.3228476  35.9320288  31.3836972  67.8802300
  35.9808444  32.2599095  67.4980070  36.4742803  30.8414365  67.3073944
  46.4175134  41.9278096  67.1603438  45.6270678  41.9102234  66.6207937
  46.1808489  42.4666389  67.9152474  46.5373009  38.7770562  64.4736166
  46.5871014  38.6120569  65.4151689  46.4286932  37.9097821  64.0834047
  43.8276771  34.7601490  65.7895473  44.7286634  34.6207955  65.4979471
  43.9024746  34.9255945  66.7293650  38.1619577  32.1368345  64.6348659
  37.2922886  32.4301911  64.3631248  38.3979057  32.7208790  65.3555923
  48.0391206  41.1967503  64.7178188  47.7476014  41.5597484  65.5541649
  47.4263337  40.4834512  64.5391520  46.2878394  36.3200118  63.1858246
  46.7632516  36.5127764  62.3777097  45.3643960  36.3759304  62.9401629
  40.8658611  28.3547962  62.1514079  41.3840555  29.0908989  61.8260568
  40.5113743  28.6611955  62.9860839  41.1171205  24.7748244  57.6714976
  41.3972959  24.1071433  58.2975403  41.9021812  24.9677340  57.1589640
  44.9880063  33.1965878  61.4186551  45.9397486  33.2963976  61.4398775
  44.8183514  32.4044147  61.9284636  43.0094443  30.2821461  61.6045952
  42.4144375  30.5626474  60.9092441  42.7244139  30.7715362  62.3762693
  45.2773356  26.9524057  56.5382947  45.0798177  26.6439145  57.4226279
  45.8873062  27.6785696  56.6680877  39.1890164  39.3385797  68.0356712
  40.1093174  39.5164396  68.2296758  39.1539747  38.3941842  67.8836411
  32.1852237  37.2486832  60.6779493  32.4038247  38.1803939  60.6967527
  32.5978011  36.8894806  61.4634297  41.0347003  26.8332964  54.2879478
  41.5878042  27.2528417  54.9469501  41.2717089  25.9068712  54.3302434
  37.0580102  32.8220037  70.0682242  36.9576829  33.7714394  69.9994333
  36.8401644  32.4938276  69.1958312  42.8629376  28.3438547  55.9979463
  43.3629155  28.4555081  55.1893781  43.5064984  28.0399599  56.6380271
  36.9211372  36.2517176  68.8847304  36.4378454  37.0517536  69.0911193
  37.0072311  36.2625121  67.9314748  33.4384092  38.7122827  63.4886535
  34.2576981  39.2066906  63.5121372  33.7120900  37.7954795  63.4604103
  28.6919006  33.0460961  64.1878732  29.3377870  32.5359915  64.6765957
  28.4836157  33.7829642  64.7622157  41.2172398  40.1141808  69.6870873
  42.0863558  40.2882461  69.3257508  40.7379150  40.9336225  69.5646602
  41.0274736  23.9043782  54.1948565  40.2607132  23.3502269  54.3405247
  41.4385441  23.9765651  55.0562717  33.0316497  30.1928578  68.2853746
  33.8947959  29.8365383  68.4957071  32.4581908  29.8542473  68.9729151
  50.1674363  52.9292714  64.9863878  50.1563004  52.5345512  64.1144381
  50.3295003  52.1958787  65.5797649  55.3539990  43.1978695  61.5296942
  55.0223315  44.0674106  61.3058157  54.7585603  42.8814979  62.2090973
  55.2468653  47.9173782  58.6090293  54.3385531  47.8489190  58.3149054
  55.1956249  48.3945727  59.4372118  49.3209519  49.3363427  66.5525190
  48.5442853  49.8957347  66.5428054  49.9600082  49.8220210  67.0740060
  57.1130300  46.1190220  60.3868166  56.4704680  46.4122753  59.7407961
  56.6085228  46.0043140  61.1921363  47.5755891  52.1448881  66.1143157
  48.3170576  52.6833925  65.8377980  46.8692877  52.7715169  66.2714709
  53.0511231  54.2878021  64.7115318  53.4594587  53.8460432  63.9669951
  52.3288493  53.7130649  64.9649511  49.4042301  49.2250628  62.0848875
  50.2503496  49.6490041  62.2283524  49.3440939  48.5684252  62.7787438
  52.5541746  46.8854996  63.7430049  52.3102678  47.6397057  63.2064325
  52.8301677  47.2640344  64.5777296  54.5080209  53.4293609  62.4207314
  54.7197104  54.0725368  61.7441696  54.4609957  52.5955925  61.9529245
  52.1106438  46.0411429  59.3243887  51.2490917  46.3392683  59.6160624
  52.1368873  46.2581828  58.3924919  46.3117255  49.2988529  66.9158467
  45.6815916  49.9804810  67.1493864  46.2053343  49.1871610  65.9711605
  45.5897998  43.6009295  69.2783718  45.1964943  43.0475493  69.9531362
  46.4064138  43.9119873  69.6690235  48.5065959  45.0167174  66.8703974
  49.2475672  45.6174327  66.7908437  48.7383882  44.2744811  66.3122017
  43.6507297  50.2023541  65.1482204  43.5360812  49.3008798  65.4489303
  42.7951815  50.4487238  64.7967021  50.7299135  58.1441281  66.7469705
  50.2862989  57.3577660  66.4290609  51.3916348  58.3320432  66.0813596
  52.8280373  58.4244081  64.7751106  52.8098848  59.2452962  64.2831375
  53.7500293  58.2998156  65.0001247  49.2853427  55.9388211  65.6174614
  49.8181764  55.1776499  65.3873922  48.7567508  55.6461862  66.3598769
  52.4523122  41.0448277  61.1468256  52.1087391  41.9349918  61.0707367
  52.8202084  40.8549934  60.2837841  52.0598439  49.6814513  63.3467458
  52.4147827  49.9085986  64.2061923  52.7070570  50.0132890  62.7244713
  50.3317416  44.7991067  64.0951271  49.6845331  45.4981017  64.0015747
  51.1018431  45.2327211  64.4627519  53.7396214  55.0639919  67.1701824
  53.5881720  54.8350471  66.2531908  53.7300893  56.0210521  67.1833169
  50.5081550  52.6371832  62.1548091  51.4373610  52.7882992  61.9817058
  50.0872580  52.7255853  61.2996737  47.4601642  51.1591689  62.3271727
  48.1701260  50.5184881  62.2858345  47.4170950  51.4104583  63.2497908
  55.4488420  58.0959042  65.2478306  55.3900966  57.4118262  64.5808889
  55.8507939  58.8378032  64.7958932  46.1730576  48.1456906  64.1467366
  45.6367933  47.6947645  64.7988963  45.5847284  48.2802815  63.4037831
  54.5212405  42.7336071  58.7469915  53.6075485  42.9640298  58.9152122
  54.9505507  42.8174515  59.5983947  54.2918864  50.9225963  61.2469809
  53.6390314  51.1701871  60.5922262  54.6699244  50.1090101  60.9132286
  50.3406437  51.6645774  67.7335846  49.6647074  51.5639904  68.4038221
  51.1634071  51.5084988  68.1971843  44.0593713  45.3187851  62.5715347
  44.1235040  46.1802682  62.1592744  43.9960833  44.7061853  61.8387705
  43.5345986  47.3910984  66.2188381  44.1618024  47.0088061  66.8325905
  42.6773904  47.1725186  66.5844073  53.9340094  57.7973959  67.8242116
  54.4779998  58.4103917  67.3297071  53.3526939  58.3553538  68.3409129
  46.6432089  44.6097836  64.4074936  47.1666491  44.8560133  65.1701245
  46.4244422  45.4417871  63.9878073  41.2851369  50.9955205  64.1861726
  40.5433105  51.1437840  64.7726357  40.9644113  51.2563471  63.3228476
  46.7714043  46.7128890  67.8802300  46.8202198  47.5891013  67.4980070
  47.3136557  46.1706283  67.3073944  57.2568889  57.2570013  67.1603438
  56.4664432  57.2394152  66.6207937  57.0202243  57.7958307  67.9152474
  57.3766764  54.1062480  64.4736166  57.4264769  53.9412487  65.4151689
  57.2680687  53.2389739  64.0834047  54.6670526  50.0893408  65.7895473
  55.5680389  49.9499872  65.4979471  54.7418500  50.2547862  66.7293650
  49.0013331  47.4660262  64.6348659  48.1316641  47.7593828  64.3631248
  49.2372812  48.0500707  65.3555923  58.8784960  56.5259421  64.7178188
  58.5869769  56.8889402  65.5541649  58.2657092  55.8126429  64.5391520
  57.1272149  51.6492036  63.1858246  57.6026270  51.8419682  62.3777097
  56.2037714  51.7051222  62.9401629  51.7052365  43.6839879  62.1514079
  52.2234309  44.4200906  61.8260568  51.3507498  43.9903873  62.9860839
  55.8273818  48.5257796  61.4186551  56.7791241  48.6255894  61.4398775
  55.6577268  47.7336064  61.9284636  53.8488197  45.6113379  61.6045952
  53.2538129  45.8918392  60.9092441  53.5637894  46.1007280  62.3762693
  58.4556384  48.5374959  60.5787134  57.9395433  47.7533416  60.3917063
  59.3396332  48.2093676  60.7433653  56.1167111  42.2815975  56.5382947
  55.9191932  41.9731063  57.4226279  56.7266816  43.0077613  56.6680877
  50.0283919  54.6677715  68.0356712  50.9486928  54.8456314  68.2296758
  49.9933502  53.7233760  67.8836411  47.8973857  48.1511955  70.0682242
  47.7970584  49.1006312  69.9994333  47.6795399  47.8230194  69.1958312
  47.7605127  51.5809094  68.8847304  47.2772208  52.3809454  69.0911193
  47.8466066  51.5917039  67.9314748  39.5312761  48.3752879  64.1878732
  40.1771624  47.8651832  64.6765957  39.3229912  49.1121560  64.7622157
  52.0566153  55.4433726  69.6870873  52.9257312  55.6174378  69.3257508
  51.5772904  56.2628143  69.5646602  43.8710252  45.5220496  68.2853746
  44.7341713  45.1657300  68.4957071  43.2975662  45.1834390  68.9729151
  63.7158629  67.1522352  59.0916147  64.3537038  67.0329099  58.3879487
  63.5979471  68.1003196  59.1504099  61.0068118  68.2584632  64.9863878
  60.9956759  67.8637430  64.1144381  61.1688757  67.5250704  65.5797649
  61.9634709  72.6256224  50.3289028  61.3122689  73.2110305  49.9423042
  62.7579072  73.1562419  50.3884065  57.7275379  71.0421744  63.9343062
  57.4365245  71.9467374  63.8189728  58.3632363  71.0838271  64.6487131
  58.6531586  68.4198592  60.5244421  59.2495158  68.1954614  59.8101384
  58.7106557  67.6783338  61.1269869  63.4409974  70.3146656  50.8658012
  62.8055807  70.3881283  51.5778917  63.1107381  70.9040255  50.1877091
  68.6708324  64.8149039  57.0702334  69.4033496  64.2448256  57.3040163
  67.9147680  64.4270639  57.5108839  66.1933744  58.5270613  61.5296942
  65.8617069  59.3966024  61.3058157  65.5979358  58.2106897  62.2090973
  62.6865264  70.7283159  60.9292855  62.3865987  71.6308198  60.8208662
  62.3416324  70.4615342  61.7814008  66.0862408  63.2465699  58.6090293
  65.1779285  63.1781108  58.3149054  66.0350004  63.7237644  59.4372118
  57.6686044  77.4927479  53.8963823  57.5910074  78.4435305  53.9752303
  57.0647687  77.1473352  54.5538749  60.1603274  64.6655345  66.5525190
  59.3836608  65.2249265  66.5428054  60.7993837  65.1512128  67.0740060
  67.9524054  61.4482138  60.3868166  67.3098434  61.7414671  59.7407961
  67.4478983  61.3335058  61.1921363  58.4149646  67.4740798  66.1143157
  59.1564330  68.0125842  65.8377980  57.7086631  68.1007087  66.2714709
  63.8904986  69.6169939  64.7115318  64.2988342  69.1752349  63.9669951
  63.1682247  69.0422566  64.9649511  60.2436056  64.5542545  62.0848875
  61.0897251  64.9781959  62.2283524  60.1834693  63.8976170  62.7787438
  64.2133800  70.1771129  58.4667607  63.5842663  70.3416843  57.7643675
  63.8259462  70.5912739  59.2378571  68.0923032  71.1125567  55.8211971
  67.4074070  71.4924469  55.2709004  68.1766881  71.7220894  56.5543919
  63.3935501  62.2146914  63.7430049  63.1496433  62.9688974  63.2064325
  63.6695431  62.5932261  64.5777296  65.3473964  68.7585526  62.4207314
  65.5590859  69.4017286  61.7441696  65.3003712  67.9247843  61.9529245
  59.7661762  69.9145537  55.7317692  60.2300108  70.1933240  54.9422315
  59.5018560  69.0128982  55.5490783  66.4619792  71.6357482  60.5929672
  67.2837235  71.2337669  60.3112353  66.4582194  71.5325716  61.5445788
  60.2276395  71.1841525  62.7490382  60.2920828  71.6461932  63.5848554
  59.5187319  70.5538890  62.8772692  74.5525785  67.9796230  56.9414643
  73.7989493  67.4103628  56.7858648  74.6873326  67.9458895  57.8885278
  59.9424413  72.8509632  52.6169363  59.8070088  73.6961168  53.0454210
  60.4834225  73.0528910  51.8535296  56.4291752  58.9301212  69.2783718
  56.0358698  58.3767411  69.9531362  57.2457893  59.2411791  69.6690235
  55.2048695  73.4850827  55.2720041  55.3815323  74.4068791  55.0841025
  56.0005528  73.1709246  55.7014421  59.3459713  60.3459091  66.8703974
  60.0869427  60.9466244  66.7908437  59.5777636  59.6036729  66.3122017
  61.5692889  73.4733199  66.7469705  61.1256743  72.6869577  66.4290609
  62.2310103  73.6612349  66.0813596  56.3280010  75.0029000  61.2730383
  56.8787435  74.8746064  60.5007377  55.4891486  75.3023890  60.9225276
  63.6674127  73.7535999  64.7751106  63.6492603  74.5744880  64.2831375
  64.5894047  73.6290074  65.0001247  60.1247181  71.2680128  65.6174614
  60.6575518  70.5068416  65.3873922  59.5961262  70.9753780  66.3598769
  63.2916876  56.3740194  61.1468256  62.9481146  57.2641836  61.0707367
  63.6595839  56.1841852  60.2837841  68.2301433  69.1181160  51.5893865
  67.4530876  68.7792320  51.1449027  68.9092914  69.1233783  50.9148830
  61.4899894  70.3966121  53.1293426  60.9621256  69.6618880  52.8166664
  60.9887397  71.1740797  52.8833395  66.4692740  68.5915141  58.2460473
  65.8116414  69.2814403  58.3340601  67.2733139  68.9811573  58.5894459
  65.2798199  66.9459514  56.2964414  65.7930081  67.5789506  56.7986124
  65.9299423  66.3460709  55.9307774  62.5420573  76.9243838  49.0525086
  61.8682272  77.2275535  49.6610043  62.9286395  77.7272919  48.7030543
  66.0459995  71.9265515  54.4243557  65.5922322  71.0856425  54.4808748
  65.4153962  72.5626914  54.7618337  64.4892934  73.7642012  55.3593375
  64.7815909  74.3247069  54.6405741  64.9991555  74.0570573  56.1146534
  59.4526560  74.5422363  56.4486828  59.4102738  74.7683210  55.5195360
  60.3689258  74.3085738  56.5972630  62.8992193  65.0106431  63.3467458
  63.2541581  65.2377904  64.2061923  63.5464325  65.3424808  62.7244713
  68.6289930  68.1324867  54.0516787  68.4907829  68.3226463  53.1237976
  68.2726149  68.8944249  54.5084838  68.6559310  70.2001394  59.0628058
  69.0895817  70.1076683  59.9111112  69.3690891  70.1758894  58.4248074
  62.3887205  73.8003488  60.5961159  62.4424227  74.3694424  61.3638875
  61.5201986  73.9705373  60.2315196  69.5174859  70.2425094  61.5960944
  69.7110749  71.1470905  61.8420218  69.4175478  69.7832513  62.4299529
  61.1711170  60.1282985  64.0951271  60.5239085  60.8272935  64.0015747
  61.9412186  60.5619129  64.4627519  64.5789968  70.3931837  67.1701824
  64.4275474  70.1642389  66.2531908  64.5694648  71.3502438  67.1833169
  61.3475304  67.9663750  62.1548091  62.2767364  68.1174909  61.9817058
  60.9266335  68.0547771  61.2996737  60.1463636  71.9914414  59.9246628
  60.0074722  71.6233199  60.7972566  59.3578233  72.5062054  59.7530586
  60.7411788  77.0923511  51.2672165  60.9163544  76.6211554  52.0817787
  60.0544576  77.7189277  51.4953425  61.6968851  71.3696017  57.3135466
  61.3618684  71.3296787  58.2093116  61.1972797  70.7040733  56.8405876
  64.6328043  68.7152051  47.5872526  64.0157214  67.9898879  47.4905578
  64.1644532  69.4761412  47.2439600  58.2995396  66.4883606  62.3271727
  59.0095015  65.8476798  62.2858345  58.2564704  66.7396501  63.2497908
  66.2882175  73.4250960  65.2478306  66.2294721  72.7410180  64.5808889
  66.6901693  74.1669950  64.7958932  55.3072874  80.2412873  58.0412025
  55.5469472  80.8731398  58.7191043  54.4642070  79.8900913  58.3277384
  66.2899582  71.3890544  63.4792286  65.4026361  71.0516465  63.6018685
  66.8598133  70.6573575  63.7161051  59.8200735  76.0491996  60.4453529
  59.7470907  76.8546967  60.9572833  59.3778129  76.2483962  59.6201550
  59.6090515  75.2863766  53.9556350  58.8258037  75.8285446  54.0494575
  60.3083260  75.8037746  54.3550592  70.7716923  66.7998761  58.2408847
  70.7606799  67.6823476  57.8702780  69.9034302  66.4470312  58.0463384
  62.2799419  75.9478830  62.6011688  62.9927391  76.5826295  62.5287589
  61.7889448  76.0442696  61.7851689  64.0016946  69.8530083  54.1728979
  63.0673225  69.9731545  54.0033684  64.1793614  68.9502549  53.9088989
  67.3889497  65.6947402  54.7079013  67.8549949  66.5275393  54.6339316
  67.8396998  65.2292383  55.4124272  57.3311332  73.6973273  63.4217258
  58.0320792  74.3309756  63.5746653  56.8606447  74.0388005  62.6612898
  65.4565728  72.0391223  51.7065165  65.7325572  71.9247818  52.6159040
  64.5870227  71.6408708  51.6677339  65.3606160  58.0627989  58.7469915
  64.4469240  58.2932216  58.9152122  65.7899261  58.1466433  59.5983947
  65.1312618  66.2517881  61.2469809  64.4784069  66.4993788  60.5922262
  65.5092998  65.4382019  60.9132286  62.0919792  76.2877574  55.3497979
  62.2742187  75.4699230  55.8125731  62.9152778  76.5045266  54.9122869
  62.4261958  75.2145759  52.6113028  62.9549724  74.7038214  51.9983190
  62.6890177  74.8988289  53.4758561  61.1800191  66.9937692  67.7335846
  60.5040828  66.8931821  68.4038221  62.0027825  66.8376906  68.1971843
  52.9279051  73.2309628  60.3548361  53.5132487  72.4853316  60.4876265
  52.7303889  73.5413585  61.2385025  55.7817706  76.2660876  55.3710803
  55.1128081  76.7507003  54.8874844  55.6430575  76.5130096  56.2854182
  59.9222974  78.3004619  61.9693462  60.4741282  78.4636241  62.7342547
  60.2629168  78.8909057  61.2973487  64.7733849  73.1265877  67.8242116
  65.3173753  73.7395835  67.3297071  64.1920693  73.6845455  68.3409129
  63.0591362  76.2486595  58.9557144  62.9342501  75.4476335  58.4468089
  63.7170453  76.7432788  58.4671114  65.1226270  74.0495615  60.5836694
  64.1756606  73.9300966  60.5115021  65.4709043  73.1618113  60.6662956
  57.4825843  59.9389754  64.4074936  58.0060245  60.1852050  65.1701245
  57.2638177  60.7709789  63.9878073  62.1272703  73.8448331  56.7841046
  61.9797666  72.9165039  56.9648616  62.9526197  73.8668422  56.2998122
  65.7306825  74.6676890  57.8705919  66.6553373  74.4619751  57.7330370
  65.5622129  74.4193291  58.7795261  65.5202141  75.1862557  53.2268011
  65.6939019  74.6208980  52.4741863  66.0131033  75.9863452  53.0447500
  71.3741533  67.9498980  54.8458310  71.8172679  67.2006305  54.4477434
  70.4968043  67.9409117  54.4632042  66.5077314  74.5029322  50.3264909
  67.2028218  75.1236014  50.5452223  66.8500464  73.6524673  50.6017287
  68.4068737  71.9529027  51.8552240  68.9320061  72.2916300  51.1301560
  68.3191090  71.0176043  51.6715374  60.0688786  75.8663101  63.9842116
  60.3775912  75.6212248  64.8564816  60.8664268  76.0709739  63.4960986
  60.0909398  78.0201011  56.2147493  59.6514388  77.5277389  56.9080349
  60.8417515  77.4773978  55.9739568  52.5701737  74.2112551  56.2172121
  53.3959757  73.9116323  55.8370764  52.2195789  73.4420174  56.6661909
  57.5383270  73.5639020  58.2869794  56.9163279  72.9009725  57.9872022
  58.2088137  73.5900152  57.6043442  50.7710342  72.1298878  57.1761054
  49.9342250  71.7021052  56.9945056  50.7433987  72.3231321  58.1131846
  68.0962643  72.5861931  67.1603438  67.3058187  72.5686070  66.6207937
  67.8595998  73.1250225  67.9152474  68.2160518  69.4354397  64.4736166
  68.2658523  69.2704405  65.4151689  68.1074441  68.5681656  64.0834047
  65.5064280  65.4185325  65.7895473  66.4074143  65.2791790  65.4979471
  65.5812255  65.5839780  66.7293650  59.8407086  62.7952180  64.6348659
  58.9710395  63.0885746  64.3631248  60.0766566  63.3792625  65.3555923
  69.7178715  71.8551339  64.7178188  69.4263523  72.2181319  65.5541649
  69.1050846  71.1418347  64.5391520  70.9174397  69.4204219  57.2380758
  71.7521289  69.8594023  57.4018318  71.0533526  68.9442872  56.4189004
  67.9665903  66.9783953  63.1858246  68.4420025  67.1711600  62.3777097
  67.0431469  67.0343139  62.9401629  62.5446120  59.0131797  62.1514079
  63.0628063  59.7492824  61.8260568  62.1901252  59.3195790  62.9860839
  60.5992182  74.6091073  49.2340002  60.0266149  75.2281261  48.7810474
  61.1724976  75.1590435  49.7679924  66.6667572  63.8549714  61.4186551
  67.6184995  63.9547811  61.4398775  66.4971023  63.0627982  61.9284636
  64.6881952  60.9405297  61.6045952  64.0931884  61.2210309  60.9092441
  64.4031648  61.4299198  62.3762693  63.8189442  74.8928224  50.3648585
  64.7520115  74.8273785  50.5681460  63.7312655  75.7284490  49.9063117
  66.4477459  74.2094094  47.3252532  66.3691090  73.8753958  48.2188290
  67.2687126  74.7015862  47.3244005  69.1455650  67.0755833  60.5328851
  69.1131970  66.1371834  60.7188535  69.7556274  67.1539870  59.7994676
  69.2950138  63.8666877  60.5787134  68.7789187  63.0825333  60.3917063
  70.1790087  63.5385593  60.7433653  74.9632200  68.1371840  59.6734888
  75.6935588  67.8757128  60.2342591  74.3539145  67.4000562  59.7136956
  73.0447497  66.2779703  60.2709339  72.3180660  66.1435668  59.6625830
  72.6294784  66.5856531  61.0766057  60.8677673  69.9969632  68.0356712
  61.7880683  70.1748231  68.2296758  60.8327256  69.0525678  67.8836411
  58.7367611  63.4803873  70.0682242  58.6364338  64.4298230  69.9994333
  58.5189153  63.1522112  69.1958312  58.5998881  66.9101012  68.8847304
  58.1165963  67.7101372  69.0911193  58.6859820  66.9208956  67.9314748
  55.1171601  69.3706662  63.4886535  55.9364490  69.8650741  63.5121372
  55.3908409  68.4538630  63.4604103  68.2252733  61.7863936  56.5668830
  69.0013123  62.2760388  56.8393447  67.5000867  62.2121990  57.0240699
  70.6625292  62.4991555  57.6242770  71.2569783  62.2587291  56.9136079
  70.7351876  61.7798685  58.2516307  52.8822448  76.3425166  57.9385935
  52.7476915  75.5825567  57.3723933  52.4654510  77.0666066  57.4714724
  64.0181411  71.5262089  46.9462511  64.7217261  71.7312092  47.5620166
  63.2944059  72.0938851  47.2111594  68.6584027  63.0661682  53.8914900
  68.4020961  62.6658318  54.7223108  68.0336895  63.7805476  53.7665039
  72.9696365  65.8057756  56.3986192  72.4095923  65.8750945  57.1717754
  72.3639868  65.6298740  55.6785688  56.0391573  77.2394483  58.1504378
  55.9223958  78.1839915  58.0483068  55.2184020  76.9368044  58.5390177
  65.9268108  71.9644619  48.9960971  66.7613712  71.5325817  48.8138445
  65.7652451  71.7926632  49.9237865  65.5814000  68.4676732  50.3617310
  65.5262804  68.3021003  49.4205754  64.9560055  69.1752765  50.5179500
  62.8959907  70.7725644  69.6870873  63.7651067  70.9466296  69.3257508
  62.4166659  71.5920060  69.5646602  57.0646088  77.8922745  61.3660306
  57.9673334  77.9246355  61.6826801  56.8383458  76.9623196  61.3806642
  58.8199690  76.6453731  58.0270385  57.8695321  76.6455593  57.9134757
  59.1232176  75.8986466  57.5106420  54.7104006  60.8512413  68.2853746
  55.5735468  60.4949218  68.4957071  54.1369417  60.5126308  68.9729151
  74.5552383  82.4814270  59.0916147  75.1930793  82.3621017  58.3879487
  74.4373226  83.4295114  59.1504099  71.3642089  82.4341698  59.0277672
  71.0260601  82.3182762  58.1398207  72.2331857  82.0332863  59.0078678
  67.2228905  84.2877174  55.0174563  66.6593770  84.1967111  54.2490851
  67.1081300  83.4677079  55.4977056  64.7693337  85.7828366  57.8558783
  65.5614629  85.4419190  57.4405083  65.0089987  85.8923341  58.7760937
  66.7284091  85.0437279  50.7276162  67.5014967  84.4966266  50.5889038
  67.0809490  85.9081528  50.9390624  69.4925340  83.7490510  60.5244421
  70.0888913  83.5246532  59.8101384  69.5500312  83.0075255  61.1269869
  69.0650369  81.2029945  48.3594612  69.3175889  80.6811466  47.5978075
  68.1274928  81.0396091  48.4621296  74.1093651  80.2065723  56.1669355
  74.8956741  79.7885147  55.8159772  74.3732356  81.1111816  56.3351004
  79.5102079  80.1440957  57.0702334  80.2427251  79.5740173  57.3040163
  78.7541434  79.7562557  57.5108839  68.7846657  83.1058051  50.5618987
  68.6682916  82.4302954  51.2300071  68.8948917  82.6190425  49.7451140
  71.1278198  82.5668198  54.2665676  70.7636406  82.0398819  54.9778598
  71.9845314  82.1766667  54.0932162  77.0327499  73.8562531  61.5296942
  76.7010824  74.7257942  61.3058157  76.4373112  73.5398815  62.2090973
  70.7683685  77.5958098  49.2627025  70.9358088  78.4638334  49.6297496
  70.5780854  77.7585380  48.3388314  66.9771500  82.5088874  56.9629560
  66.0521996  82.3765088  57.1707251  67.2255913  83.2883093  57.4599502
  76.9256162  78.5757617  58.6090293  76.0173040  78.5073025  58.3149054
  76.8743758  79.0529562  59.4372118  70.7472906  80.0515755  50.2473692
  70.6272531  80.4972806  51.0859172  70.0525495  80.4001073  49.6887230
  64.3380311  82.1522147  57.7973349  64.4672692  82.4056626  58.7112760
  63.6577762  82.7449855  57.4778004  78.7917809  76.7774055  60.3868166
  78.1492189  77.0706589  59.7407961  78.2872737  76.6626976  61.1921363
  76.4457972  80.5237229  51.0754026  77.3575828  80.7564615  50.9001723
  75.9367619  81.1074273  50.5129104  71.0829810  79.8834463  62.0848875
  71.9291005  80.3073877  62.2283524  71.0228448  79.2268087  62.7787438
  74.2329255  77.5438831  63.7430049  73.9890187  78.2980892  63.2064325
  74.5089186  77.9224179  64.5777296  73.7893947  76.6995265  59.3243887
  72.9278426  76.9976518  59.6160624  73.8156382  76.9165663  58.3924919
  70.6055517  85.2437455  55.7317692  71.0693862  85.5225158  54.9422315
  70.3412315  84.3420900  55.5490783  67.4979598  84.7908937  58.6697456
  68.0680955  85.2196205  58.0314940  68.0887709  84.5091521  59.3681641
  69.5424403  81.3660607  52.5407257  70.2448446  81.8181651  53.0081184
  69.2105031  80.7244426  53.1687151  67.9904764  79.9572364  66.9158467
  67.3603425  80.6388645  67.1493864  67.8840852  79.8455446  65.9711605
  63.2849737  79.6244160  57.8424391  62.4948791  79.8801689  57.3664502
  63.7760984  80.4392498  57.9476432  65.2364482  79.9888739  54.8007868
  64.4395645  80.1007434  55.3191363  65.0090074  80.3275392  53.9348758
  61.5687440  79.8774651  60.2739382  61.8195478  80.7621660  60.5396958
  62.1046988  79.6979252  59.5014474  67.2685507  74.2593130  69.2783718
  66.8752452  73.7059328  69.9531362  68.0851647  74.5703708  69.6690235
  64.2347565  85.6976988  53.1897288  64.7472085  86.4920238  53.3402852
  64.8870277  85.0003279  53.1230889  66.0442449  88.8142744  55.2720041
  66.2209078  89.7360709  55.0841025  66.8399283  88.5001164  55.7014421
  70.1853468  75.6751009  66.8703974  70.9263181  76.2758162  66.7908437
  70.4171391  74.9328647  66.3122017  65.3294806  80.8607376  65.1482204
  65.2148321  79.9592634  65.4489303  64.4739324  81.1071073  64.7967021
  74.1310631  71.7032112  61.1468256  73.7874900  72.5933754  61.0707367
  74.4989593  71.5133770  60.2837841  62.1996481  84.0265642  53.9656858
  63.0371703  84.4362651  53.7490566  62.3774749  83.0865085  53.9357052
  74.0960914  81.6940723  49.6540691  73.5807537  82.4645328  49.8929079
  73.8238222  81.0205859  50.2773753  71.6808025  76.5390424  54.7125930
  70.8249621  76.1497274  54.5331568  72.0934976  76.6182385  53.8525715
  73.2107171  74.0736767  59.1117489  72.7071967  74.0366902  58.2985295
  73.5037778  74.9829510  59.1714146  69.4550057  74.1575497  58.1183671
  70.3203054  73.9618306  57.7589561  69.5227566  73.9285849  59.0453028
  73.8847217  79.5667815  51.4800472  73.5797352  79.8813964  52.3310616
  74.8377659  79.6449235  51.5227805  72.3293649  85.7258038  53.1293426
  71.8015010  84.9910798  52.8166664  71.8281151  86.5032715  52.8833395
  67.0612376  76.3877705  55.4900038  67.6356128  76.1652886  54.7573231
  67.6483359  76.4566399  56.2428639  76.1191953  82.2751432  56.2964414
  76.6323835  82.9081423  56.7986124  76.7693177  81.6752627  55.9307774
  67.3881963  78.4182166  49.5095923  66.5519276  78.7556852  49.8305198
  67.2486733  78.2831146  48.5723060  69.3635044  73.2618954  54.2175107
  68.7099456  72.9467971  53.5931722  69.3215518  72.6394694  54.9434930
  70.4746249  83.5438249  46.1328399  69.5673310  83.3127502  46.3319548
  70.9717281  82.7475868  46.3202381  72.5972784  79.7500887  58.5422755
  71.6795346  79.9715834  58.3844443  73.0132928  79.8247198  57.6834462
  73.3807832  81.1492303  53.6725435  74.1279651  81.6613700  53.3632557
  73.6499422  80.8276356  54.5329829  71.6534482  83.6450844  50.6552390
  70.7445701  83.3609876  50.7524859  71.6829566  84.0649922  49.7955696
  75.8286669  78.1849419  55.6544225  75.0909426  77.6726805  55.9854467
  76.0813443  77.7449801  54.8427501  75.9298296  70.9625671  56.2485994
  76.2357173  70.1023035  55.9611909  76.6550901  71.5543291  56.0484988
  62.2222653  81.3656358  54.6367592  62.0247052  80.7725718  53.9118658
  61.6669317  81.0608568  55.3543531  70.2019376  81.2579464  56.7562185
  70.2567986  80.3053301  56.6804661  69.3910578  81.4138903  57.2403483
  71.3510570  85.1859587  47.9940468  70.9130000  84.4695446  47.5346105
  72.0921011  85.4135702  47.4325559  68.1411736  79.8756524  54.5152564
  67.3279602  80.1750694  54.9217756  68.6370730  79.4812213  55.2327046
  73.7385948  80.3398348  63.3467458  74.0935336  80.5669822  64.2061923
  74.3858079  80.6716725  62.7244713  67.6325811  77.4474879  60.1313799
  68.2725190  77.3063639  59.4336762  66.8003341  77.1609393  59.7552401
  68.4086115  86.7477310  56.2448791  69.2026713  86.2527630  56.0431366
  67.6977807  86.2195173  55.8816497  64.7168878  80.8920392  52.3208544
  63.7866466  80.8304847  52.5378506  64.8126350  80.3696344  51.5245185
  64.6354427  77.4175204  54.9086785  64.8961245  78.3320538  54.7995946
  65.4571600  76.9499647  55.0583398  66.1079353  78.8312962  62.0785610
  66.7802406  78.6230324  61.4298259  65.2809139  78.6335048  61.6390842
  72.0104925  75.4574903  64.0951271  71.3632840  76.1564852  64.0015747
  72.7805940  75.8911046  64.4627519  72.1869059  83.2955667  62.1548091
  73.1161119  83.4466827  61.9817058  71.7660089  83.3839688  61.2996737
  70.9857391  87.3206332  59.9246628  70.8468476  86.9525116  60.7972566
  70.1971987  87.8353971  59.7530586  66.5106850  82.1055565  62.8388047
  66.3726648  81.3735803  63.4399586  67.4211773  82.0164465  62.5572235
  75.4721798  84.0443969  47.5872526  74.8550968  83.3190797  47.4905578
  75.0038286  84.8053329  47.2439600  69.1389151  81.8175524  62.3271727
  69.8488769  81.1768716  62.2858345  69.0958459  82.0688419  63.2497908
  67.8518085  78.8040742  64.1467366  67.3155442  78.3531480  64.7988963
  67.2634793  78.9386651  63.4037831  67.2620343  78.2629393  46.7093830
  66.3849810  78.1418194  46.3456077  67.7378097  77.4715472  46.4572719
  58.7822484  83.0506553  56.8035337  59.4693523  82.7368283  56.2156352
  58.6270612  83.9547918  56.5302589  63.5857206  77.9396750  61.2320361
  63.5015394  77.3322419  60.4970771  62.7639912  78.4305768  61.2329857
  73.7580920  76.4250313  56.5990556  74.2549619  75.6720275  56.2791626
  72.9867901  76.4614630  56.0333765  70.3415888  78.5667696  56.3262240
  69.9713676  78.0138736  57.0143146  70.8374981  77.9625830  55.7737240
  78.2283252  81.0239320  54.7079013  78.6943704  81.8567311  54.6339316
  78.6790752  80.5584301  55.4124272  76.1999914  73.3919907  58.7469915
  75.2862994  73.6224133  58.9152122  76.6293016  73.4758351  59.5983947
  75.9706373  81.5809798  61.2469809  75.3177823  81.8285706  60.5922262
  76.3486753  80.7673937  60.9132286  63.7672805  88.5601546  60.3548361
  64.3526242  87.8145234  60.4876265  63.5697643  88.8705503  61.2385025
  58.3590460  81.1307146  59.0752804  58.3974559  80.5970737  59.8689922
  57.8530753  80.6042352  58.4563781  65.7381222  75.9771687  62.5715347
  65.8022549  76.8386518  62.1592744  65.6748342  75.3645688  61.8387705
  65.2133495  78.0494819  66.2188381  65.8405533  77.6671897  66.8325905
  64.3561413  77.8309021  66.5844073  61.9899037  79.8571248  52.1506736
  62.2852478  78.9481927  52.0973789  61.0887073  79.8358988  51.8287738
  65.5193284  77.9327245  58.1334284  64.7979870  78.5463213  57.9941758
  66.3086540  78.4685010  58.0550930  68.3219598  75.2681672  64.4074936
  68.8454000  75.5143968  65.1701245  68.1031931  76.1001706  63.9878073
  63.7186879  77.5385346  52.2746061  63.3899585  76.6582725  52.0921167
  64.0726250  77.4833015  53.1622450  66.8328702  77.8258316  52.6421538
  67.1724775  78.3544237  51.9200147  67.2800823  78.1638722  53.4180105
  69.5272143  76.2095367  62.0924607  69.1868963  75.4103180  62.4945286
  68.8211149  76.5097077  61.5201440  70.1788615  73.2944679  60.5451930
  71.0014684  72.8205157  60.4230820  70.4226678  74.0735163  61.0450616
  68.8196849  76.3232938  50.8414831  69.5405212  76.7014190  50.3378548
  68.1962153  77.0421814  50.9449809  72.9627972  77.0278086  51.7773164
  73.1791586  77.9102724  51.4761992  72.4822039  76.6364300  51.0478806
  67.7027193  79.9863800  58.3543908  67.5571774  80.3004103  59.2468190
  67.2252397  80.6048700  57.8014807  69.5623576  76.9766348  58.4024798
  69.5485145  76.0807441  58.0657096  70.2796004  76.9837011  59.0363084
  71.4149707  77.4103688  60.4477925  71.1567485  78.3320759  60.4462256
  70.8834747  77.0134122  61.1378389  62.1772856  82.5269144  61.2931569
  61.6326324  83.3028952  61.4251844  63.0552205  82.8739949  61.1350691
  68.9660472  75.8580728  53.6712368  69.0876383  74.9297374  53.8703255
  68.6762515  75.8719414  52.7590683  71.8351663  73.5435638  56.8079088
  71.8573359  73.6074971  55.8531067  72.2519722  72.7040147  57.0019594
  62.9638877  81.6539040  64.1861726  62.2220614  81.8021676  64.7726357
  62.6431622  81.9147306  63.3228476  63.4095491  89.5404469  56.2172121
  64.2353511  89.2408241  55.8370764  63.0589543  88.7712092  56.6661909
  68.3777024  88.8930937  58.2869794  67.7557034  88.2301642  57.9872022
  69.0481891  88.9192069  57.6043442  61.6104096  87.4590796  57.1761054
  60.7736005  87.0312970  56.9945056  61.5827742  87.6523239  58.1131846
  68.4501552  77.3712725  67.8802300  68.4989707  78.2474848  67.4980070
  68.9924066  76.8290118  67.3073944  67.9390531  87.4434861  51.7628255
  68.0878652  88.1270325  51.1094928  68.7456975  87.4239951  52.2777711
  70.6800840  78.1244098  64.6348659  69.8104150  78.4177664  64.3631248
  70.9160321  78.7084543  65.3555923  65.6943164  83.4700038  52.7689324
  65.4489206  82.5662368  52.9669534  65.8639079  83.4717189  51.8268802
  73.3839874  74.3423715  62.1514079  73.9021818  75.0784742  61.8260568
  73.0295007  74.6487708  62.9860839  64.9638812  79.2028396  50.2675485
  64.2708057  79.2772751  49.6115521  64.7190564  78.4388739  50.7897002
  73.6352468  70.7623997  57.6714976  73.9154222  70.0947186  58.2975403
  74.4203075  70.9553093  57.1589640  77.5061327  79.1841631  61.4186551
  78.4578750  79.2839729  61.4398775  77.3364777  78.3919900  61.9284636
  75.5275706  76.2697214  61.6045952  74.9325638  76.5502227  60.9092441
  75.2425403  76.7591115  62.3762693  71.8232735  81.2743804  46.5756055
  72.7691840  81.1450012  46.6444473  71.4446980  80.5358466  47.0525483
  80.1343893  79.1958794  60.5787134  79.6182942  78.4117251  60.3917063
  81.0183841  78.8677511  60.7433653  77.7954620  72.9399810  56.5382947
  77.5979441  72.6314898  57.4226279  78.4054325  73.6661449  56.6680877
  70.0075652  79.1993780  46.5110940  69.1007108  78.9026893  46.5873654
  70.2851633  78.9023598  45.6445226  60.9253593  80.5200144  56.9609986
  60.6056377  79.6665452  56.6684361  60.3787021  80.7348722  57.7167954
  64.7033500  83.2362585  60.6779493  64.9219510  84.1679692  60.6967527
  65.1159274  82.8770559  61.4634297  71.6237718  73.7430670  52.6655181
  70.8138446  73.3977755  53.0410427  72.3122135  73.4338214  53.2542793
  73.5528266  72.8208717  54.2879478  74.1059305  73.2404170  54.9469501
  73.7898353  71.8944465  54.3302434  68.7774437  76.0580715  46.6522919
  69.6393601  76.3835614  46.9118737  68.9624781  75.2712211  46.1395985
  60.7941853  84.1403055  58.9303108  60.1005324  83.7257008  58.4173062
  61.5414844  84.1823592  58.3336527  76.9307074  74.9309242  53.7958142
  76.3505743  75.5894046  53.4136195  76.6643006  74.1086587  53.3845560
  75.3810640  74.3314300  55.9979463  75.8810418  74.4430834  55.1893781
  76.0246248  74.0275352  56.6380271  62.7078595  84.0721309  56.8069123
  62.6849283  84.1708996  55.8551006  63.0179232  84.9186460  57.1286289
  65.3665973  86.1297464  60.9215737  66.3209227  86.0981406  60.8545669
  65.1678497  85.6688088  61.7365963  65.9565355  84.6998580  63.4886535
  66.7758244  85.1942659  63.5121372  66.2302163  83.7830548  63.4604103
  75.7131952  77.0909332  52.8514491  74.8257807  77.3758983  52.6334685
  76.1285941  76.9303096  52.0041767  79.0646488  77.1155853  56.5668830
  79.8406878  77.6052306  56.8393447  78.3394622  77.5413907  57.0240699
  81.5019046  77.8283473  57.6242770  82.0963537  77.5879208  56.9136079
  81.5745630  77.1090603  58.2516307  63.7216202  91.6717083  57.9385935
  63.5870670  90.9117484  57.3723933  63.3048264  92.3957983  57.4714724
  75.6872975  82.6063868  53.0664781  75.6308177  83.0632420  52.2272413
  76.2401318  81.8454553  52.8887623  79.4977781  78.3953600  53.8914900
  79.2414715  77.9950236  54.7223108  78.8730649  79.1097394  53.7665039
  61.2100270  79.0336714  64.1878732  61.8559133  78.5235668  64.6765957
  61.0017421  79.7705396  64.7622157  69.7303880  73.2976758  49.9402628
  69.7182550  74.2418598  50.0970899  70.6227302  73.1146904  49.6462089
  73.5456000  69.8919535  54.1948565  72.7788395  69.3378022  54.3405247
  73.9566704  69.9641404  55.0562717  65.5497761  76.1804331  68.2853746
  66.4129222  75.8241136  68.4957071  64.9763171  75.8418226  68.9729151
  31.1977366  -1.8291278  45.8161454  31.8355776  -1.9484531  45.1124794
  31.0798209  -0.8810435  45.8749406  28.0067073  -1.8763850  45.7522979
  27.6685584  -1.9922786  44.8643514  28.8756841  -2.2772685  45.7323985
  23.8653888  -0.0228374  41.7419870  23.3018753  -0.1138437  40.9736157
  23.7506283  -0.8428470  42.2222362  28.4886856  -0.7228999  51.7109184
  28.4775496  -1.1176200  50.8389688  28.6507495  -1.4562926  52.3042956
  21.4118320   1.4722818  44.5804090  22.2039612   1.1313642  44.1650389
  21.6514970   1.5817793  45.5006243  29.4453447   3.6442594  37.0534335
  28.7941427   4.2296674  36.6668348  30.2397810   4.1748789  37.1129372
  23.3709074   0.7331731  37.4521469  24.1439950   0.1860718  37.3134345
  23.7234473   1.5975980  37.6635930  25.2094117   2.0608113  50.6588368
  24.9183983   2.9653744  50.5435035  25.8451101   2.1024641  51.3732438
  26.1350324  -0.5615038  47.2489728  26.7313896  -0.7859016  46.5346691
  26.1925295  -1.3030293  47.8515176  25.7075352  -3.1075603  35.0839919
  25.9600873  -3.6294082  34.3223382  24.7699911  -3.2709458  35.1866602
  30.7518635  -4.1039825  42.8914662  31.5381724  -4.5220401  42.5405079
  31.0157339  -3.1993732  43.0596310  30.9228712   1.3333026  37.5903319
  30.2874545   1.4067652  38.3024223  30.5926119   1.9226624  36.9122398
  36.1527062  -4.1664591  43.7947641  36.8852234  -4.7365375  44.0285470
  35.3966418  -4.5542991  44.2354146  25.4271641  -1.2047497  37.2864294
  25.3107899  -1.8802594  37.9545378  25.5373901  -1.6915123  36.4696447
  27.7703182  -1.7437350  40.9910983  27.4061389  -2.2706729  41.7023904
  28.6270298  -2.1338881  40.8177468  30.1684002   1.7469529  47.6538162
  29.8684725   2.6494567  47.5453969  29.8235061   1.4801712  48.5059315
  23.6196483  -1.8016675  43.6874866  22.6946980  -1.9340460  43.8952558
  23.8680896  -1.0222455  44.1844809  33.5681146  -5.7347931  45.3335599
  32.6598023  -5.8032523  45.0394360  33.5168741  -5.2575986  46.1617425
  27.3897890  -4.2589793  36.9718998  27.2697515  -3.8132742  37.8104479
  26.6950478  -3.9104475  36.4132536  25.1504782   8.5113849  40.6209130
  25.0728811   9.4621674  40.6997610  24.5466425   8.1659721  41.2784056
  27.6422011  -4.3158286  53.2770496  26.8655345  -3.7564365  53.2673361
  28.2812574  -3.8301503  53.7985367  33.0882956  -3.7868320  37.7999332
  34.0000812  -3.5540933  37.6247030  32.5792603  -3.2031275  37.2374411
  25.8968384  -1.5072832  52.8388463  26.6383068  -0.9687788  52.5623287
  25.1905369  -0.8806543  52.9960015  31.3723723   0.6356308  51.4360625
  31.7807079   0.1938719  50.6915257  30.6500985   0.0608936  51.6894818
  27.7254793  -4.4271085  48.8094182  28.5715989  -4.0031671  48.9528831
  27.6653431  -5.0837461  49.5032745  31.6952538   1.1957499  45.1912914
  31.0661400   1.3603213  44.4888982  31.3078200   1.6099108  45.9623878
  35.5741770   2.1311937  42.5457278  34.8892808   2.5110838  41.9954311
  35.6585619   2.7407263  43.2789225  30.8754239  -6.7666717  50.4675356
  30.6315171  -6.0124656  49.9309631  31.1514169  -6.3881369  51.3022603
  32.8292701  -0.2228104  49.1452621  33.0409597   0.4203656  48.4687002
  32.7822450  -1.0565788  48.6774551  27.2480500   0.9331907  42.4562999
  27.7118845   1.2119610  41.6667621  26.9837298   0.0315352  42.2736090
  24.1404581   0.4803389  45.3942762  24.7105938   0.9090657  44.7560247
  24.7312693   0.1985973  46.0926948  26.1849386  -2.9444941  39.2652564
  26.8873429  -2.4923897  39.7326490  25.8530014  -3.5861122  39.8932457
  33.9438529   2.6543851  47.3174978  34.7655973   2.2524038  47.0357660
  33.9400932   2.5512085  48.2691094  27.7095133   2.2027894  49.4735689
  27.7739565   2.6648302  50.3093861  27.0006057   1.5725259  49.6017999
  42.0344522  -1.0017400  43.6659950  41.2808231  -1.5710002  43.5103954
  42.1692064  -1.0354736  44.6130585  27.4243151   3.8696002  39.3414669
  27.2888825   4.7147538  39.7699517  27.9652963   4.0715280  38.5780603
  20.8772548   1.3871440  39.9142594  21.3897068   2.1814690  40.0648159
  21.5295261   0.6897730  39.8476196  22.6867433   4.5037196  41.9965348
  22.8634061   5.4255161  41.8086331  23.4824266   4.1895615  42.4259727
  29.0511627   4.4919568  53.4715011  28.6075481   3.7055947  53.1535916
  29.7128840   4.6798719  52.8058902  23.8098748   6.0215370  47.9975690
  24.3606173   5.8932433  47.2252684  22.9710224   6.3210259  47.6470583
  31.1492865   4.7722368  51.4996413  31.1311340   5.5931249  51.0076682
  32.0712785   4.6476444  51.7246554  27.6065919   2.2866498  52.3419921
  28.1394256   1.5254786  52.1119229  27.0780000   1.9940150  53.0844075
  30.7385897  -2.6164825  36.3785998  30.2232520  -1.8460220  36.6174385
  30.4663205  -3.2899689  37.0019059  35.7120171   0.1367530  38.3139171
  34.9349614  -0.2021311  37.8694333  36.3911652   0.1420153  37.6394136
  30.5272200  -4.7437733  38.2045779  30.2222336  -4.4291584  39.0555922
  31.4802642  -4.6656313  38.2473112  28.9718632   1.4152490  39.8538733
  28.4439993   0.6805250  39.5411970  28.4706135   2.1927167  39.6078701
  33.9511478  -0.3898489  44.9705779  33.2935152   0.3000772  45.0585908
  34.7551877  -0.0002057  45.3139766  32.7616937  -2.0354116  43.0209721
  33.2748818  -1.4024125  43.5231431  33.4118161  -2.6352921  42.6553081
  27.1171232  -0.7667299  32.8573706  26.2098294  -0.9978046  33.0564855
  27.6142264  -1.5629680  33.0447688  30.0239311   7.9430208  35.7770392
  29.3501010   8.2461905  36.3855350  30.4105133   8.7459288  35.4275849
  29.2397768  -4.5604661  45.2668062  28.3220329  -4.3389714  45.1089750
  29.6557911  -4.4858350  44.4079769  30.0232815  -3.1613245  40.3970742
  30.7704634  -2.6491848  40.0877864  30.2924405  -3.4829193  41.2575135
  28.2959465  -0.6654705  37.3797696  27.3870685  -0.9495672  37.4770166
  28.3254549  -0.2455626  36.5201003  33.5278733   2.9451885  41.1488864
  33.0741060   2.1042795  41.2054054  32.8972700   3.5813283  41.4863644
  31.9711672   4.7828382  42.0838682  32.2634646   5.3433439  41.3651047
  32.4810293   5.0756943  42.8391841  26.8444359  -3.0526084  43.4807492
  26.8992969  -4.0052248  43.4049968  26.0335562  -2.8966645  43.9648790
  27.9935553   0.8754039  34.7185775  27.5554983   0.1589898  34.2591412
  28.7345994   1.1030154  34.1570866  26.9345297   5.5608733  43.1732135
  26.8921476   5.7869579  42.2440667  27.8507996   5.3272107  43.3217936
  30.3810931  -3.9707200  50.0712764  30.7360319  -3.7435727  50.9307230
  31.0283062  -3.6388823  49.4490020  36.1108668  -0.8488764  40.7762093
  35.9726567  -0.6587168  39.8483283  35.7544887  -0.0869381  41.2330144
  36.1378048   1.2187763  45.7873365  36.5714554   1.1263052  46.6356419
  36.8509628   1.1945264  45.1493381  25.0511098   2.4371762  42.9694098
  25.8451697   1.9422082  42.7676673  24.3402790   1.9089625  42.6061803
  29.8705943   4.8189857  47.3206465  29.9242965   5.3880794  48.0884181
  29.0020724   4.9891742  46.9560503  36.9993597   1.2611464  48.3206250
  37.1929487   2.1657274  48.5665525  36.8994215   0.8018883  49.1544835
  32.0608706   1.4118207  53.8947131  31.9094212   1.1828758  52.9777215
  32.0513385   2.3688808  53.9078476  28.8294042  -1.0149881  48.8793397
  29.7586102  -0.8638721  48.7062365  28.4085072  -0.9265860  48.0242044
  27.6282374   3.0100784  46.6491935  27.4893460   2.6419568  47.5217873
  26.8396970   3.5248423  46.4775893  28.2230526   8.1109880  37.9917471
  28.3982282   7.6397923  38.8063094  27.5363314   8.7375646  38.2198732
  29.1787589   2.3882386  44.0380773  28.8437422   2.3483156  44.9338423
  28.6791535   1.7227102  43.5651183  32.1146781  -0.2661579  34.3117832
  31.4975951  -0.9914751  34.2150885  31.6463269   0.4947781  33.9684907
  25.7814134  -2.4930024  49.0517033  26.4913752  -3.1336832  49.0103652
  25.7383442  -2.2417129  49.9743214  33.7700913   4.4437329  51.9723613
  33.7113459   3.7596549  51.3054196  34.1720431   5.1856319  51.5204239
  22.7891611  11.2599243  44.7657332  23.0288210  11.8917767  45.4436350
  21.9460808  10.9087283  45.0522691  33.7718320   2.4076913  50.2037592
  32.8845099   2.0702835  50.3263991  34.3416871   1.6759944  50.4406358
  27.3019473   7.0678365  47.1698836  27.2289645   7.8733337  47.6818140
  26.8596866   7.2670331  46.3446857  27.0909253   6.3050135  40.6801657
  26.3076775   6.8471816  40.7739882  27.7901998   6.8224115  41.0795898
  38.2535660  -2.1814870  44.9654154  38.2425537  -1.2990154  44.5948087
  37.3853040  -2.5343319  44.7708691  29.7618157   6.9665199  49.3256994
  30.4746129   7.6012664  49.2532896  29.2708185   7.0629065  48.5096996
  31.4835684   0.8716452  40.8974286  30.5491962   0.9917915  40.7278990
  31.6612352  -0.0311081  40.6334296  34.8708235  -3.2866229  41.4324320
  35.3368687  -2.4538237  41.3584623  35.3215735  -3.7521247  42.1369579
  24.8130070   4.7159643  50.1462565  25.5139530   5.3496126  50.2991959
  24.3425185   5.0574374  49.3858204  32.9384466   3.0577593  38.4310472
  33.2144310   2.9434187  39.3404346  32.0688965   2.6595078  38.3922645
  32.6131356  -2.7295750  47.9715115  31.9602806  -2.4819842  47.3167568
  32.9911736  -3.5431611  47.6377593  29.5738530   7.3063944  42.0743286
  29.7560925   6.4885599  42.5371038  30.3971516   7.5231636  41.6368176
  29.9080696   6.2332129  39.3358334  30.4368462   5.7224583  38.7228496
  30.1708915   5.9174659  40.2003867  28.6618929  -1.9875939  54.4581152
  27.9859566  -2.0881809  55.1283528  29.4846563  -2.1436725  54.9217150
  20.4097788   4.2495998  47.0793668  20.9951225   3.5039686  47.2121572
  20.2122627   4.5599955  47.9630332  23.2636444   7.2847245  42.0956110
  22.5946819   7.7693373  41.6120150  23.1249313   7.5316466  43.0099489
  27.4041712   9.3190989  48.6938768  27.9560020   9.4822610  49.4587854
  27.7447906   9.9095427  48.0218793  32.2552586   4.1452246  54.5487423
  32.7992490   4.7582205  54.0542378  31.6739431   4.7031825  55.0654436
  30.5410099   7.2672964  45.6802451  30.4161239   6.4662704  45.1713396
  31.1989191   7.7619158  45.1916421  32.6045008   5.0681985  47.3082001
  31.6575343   4.9487336  47.2360327  32.9527781   4.1804483  47.3908262
  29.6091441   4.8634701  43.5086353  29.4616404   3.9351408  43.6893923
  30.4344935   4.8854791  43.0243428  33.2125563   5.6863259  44.5951226
  34.1372110   5.4806121  44.4575677  33.0440866   5.4379661  45.5040567
  33.0020879   6.2048927  39.9513317  33.1757757   5.6395349  39.1987170
  33.4949770   7.0049822  39.7692807  38.8560270  -1.0314650  41.5703617
  39.2991416  -1.7807325  41.1722740  37.9786781  -1.0404514  41.1877349
  33.9896052   5.5215691  37.0510215  34.6846956   6.1422384  37.2697530
  34.3319202   4.6711043  37.3262593  35.8887475   2.9715397  38.5797546
  36.4138799   3.3102670  37.8546866  35.8009827   2.0362412  38.3960681
  27.5507523   6.8849470  50.7087423  27.8594650   6.6398617  51.5810122
  28.3483005   7.0896109  50.2206293  27.5728135   9.0387380  42.9392799
  27.1333126   8.5463759  43.6325656  28.3236252   8.4960348  42.6984875
  20.0520474   5.2298921  42.9417427  20.8778494   4.9302693  42.5616071
  19.7014526   4.4606543  43.3907216  25.0202008   4.5825389  45.0115101
  24.3982017   3.9196094  44.7117329  25.6906875   4.6086521  44.3288749
  18.2529080   3.1485247  43.9006361  17.4160988   2.7207422  43.7190362
  18.2252725   3.3417691  44.8377152  35.5781381   3.6048300  53.8848744
  34.7876925   3.5872439  53.3453244  35.3414735   4.1436594  54.6397781
  35.6979256   0.4540767  51.1981473  35.7477261   0.2890774  52.1396995
  35.5893179  -0.4131974  50.8079353  24.5815515   3.1329313  38.4873562
  24.7303635   3.8164777  37.8340234  25.3881958   3.1134403  39.0023017
  32.9883018  -3.5628305  52.5140779  33.8892881  -3.7021840  52.2224777
  33.0630993  -3.3973850  53.4538957  37.1997453   2.8737708  51.4423494
  36.9082261   3.2367689  52.2786955  36.5869584   2.1604717  51.2636826
  38.3993135   0.4390588  43.9626064  39.2340026   0.8780392  44.1263625
  38.5352264  -0.0370759  43.1434310  35.4484641  -2.0029677  49.9103552
  35.9238763  -1.8102031  49.1022404  34.5250206  -1.9470491  49.6646936
  22.3368148  -0.8405510  39.4934631  22.0914189  -1.7443180  39.6914841
  22.5064062  -0.8388359  38.5514109  28.0810920   5.6277443  35.9585309
  27.5084887   6.2467630  35.5055781  28.6543714   6.1776805  36.4925231
  34.1486310  -5.1263917  48.1431858  35.1003733  -5.0265819  48.1644082
  33.9789760  -5.9185648  48.6529942  31.3008180   5.9114593  37.0893891
  32.2338853   5.8460155  37.2926767  31.2131393   6.7470860  36.6308424
  33.9296197   5.2280463  34.0497839  33.8509828   4.8940327  34.9433597
  34.7505863   5.7202231  34.0489311  36.6274388  -1.9057797  47.2574157
  36.5950708  -2.8441796  47.4433841  37.2375011  -1.8273761  46.5239982
  28.4657719  -3.0361744  33.3001362  29.4116823  -3.1655536  33.3689780
  28.0871964  -3.7747082  33.7770790  42.4450938  -0.8441790  46.3980194
  43.1754326  -1.1056502  46.9587898  41.8357883  -1.5813068  46.4382262
  40.5266235  -2.7033928  46.9954645  39.7999398  -2.8377963  46.3871137
  40.1113522  -2.3957099  47.8011364  28.3496411   1.0156002  54.7602018
  29.2699421   1.1934601  54.9542065  28.3145994   0.0712047  54.6081718
  21.3458484  -1.0742963  47.4024800  21.5644493  -0.1425856  47.4212833
  21.7584257  -1.4334989  48.1879603  26.0817619  -2.0712619  55.6092610
  25.5984701  -1.2712259  55.8156499  26.1678558  -2.0604674  54.6560054
  22.0090957   1.8191916  47.6461044  22.9634210   1.7875858  47.5790976
  21.8103480   1.3582540  48.4611270  22.5990339   0.3893032  50.2131842
  23.4183228   0.8837111  50.2366679  22.8727146  -0.5275000  50.1849409
  20.3641185   7.3611535  44.6631242  20.2295653   6.6011936  44.0969240
  19.9473248   8.0852435  44.1960031  31.5000148   2.5448459  33.6707817
  32.2035998   2.7498461  34.2865473  30.7762797   3.1125221  33.9356901
  32.3297959  -1.7041680  39.7910087  32.2733160  -1.2473128  38.9517720
  32.8826301  -2.4650995  39.6132930  40.4515102  -3.1755875  43.1231498
  39.8914660  -3.1062685  43.8963060  39.8458606  -3.3514890  42.4030995
  23.5210311   8.2580852  44.8749685  23.4042695   9.2026285  44.7728375
  22.7002757   7.9554414  45.2635484  33.4086846   2.9830988  35.7206277
  34.2432450   2.5512187  35.5383752  33.2471189   2.8113002  36.6483172
  33.0632738  -0.5136899  37.0862617  33.0081542  -0.6792627  36.1451061
  32.4378793   0.1939134  37.2424806  30.3778645   1.7912013  56.4116179
  31.2469805   1.9652666  56.0502814  29.8985397   2.6106430  56.2891909
  24.5464825   8.9109114  48.0905613  25.4492072   8.9432725  48.4072108
  24.3202195   7.9809565  48.1051949  26.3018427   7.6640101  44.7515692
  25.3514058   7.6641962  44.6380064  26.6050913   6.9172835  44.2351726
  42.0371121  13.5000639  45.8161454  42.6749531  13.3807387  45.1124794
  41.9191964  14.4481483  45.8749406  38.8460827  13.4528067  45.7522979
  38.5079339  13.3369132  44.8643514  39.7150595  13.0519232  45.7323985
  34.7047643  15.3063544  41.7419870  34.1412508  15.2153481  40.9736157
  34.5900038  14.4863448  42.2222362  39.3280610  14.6062919  51.7109184
  39.3169251  14.2115717  50.8389688  39.4901250  13.8728992  52.3042956
  32.2512075  16.8014735  44.5804090  33.0433367  16.4605560  44.1650389
  32.4908725  16.9109710  45.5006243  34.2102829  16.0623649  37.4521469
  34.9833705  15.5152636  37.3134345  34.5628228  16.9267898  37.6635930
  36.0487871  17.3900031  50.6588368  35.7577737  18.2945662  50.5435035
  36.6844856  17.4316558  51.3732438  36.9744078  14.7676879  47.2489728
  37.5707650  14.5432902  46.5346691  37.0319050  14.0261625  47.8515176
  36.5469106  12.2216315  35.0839919  36.7994627  11.6997836  34.3223382
  35.6093666  12.0582460  35.1866602  41.5912389  11.2252093  42.8914662
  42.3775479  10.8071516  42.5405079  41.8551094  12.1298185  43.0596310
  41.7622467  16.6624943  37.5903319  41.1268300  16.7359570  38.3024223
  41.4319873  17.2518542  36.9122398  46.9920816  11.1627326  43.7947641
  47.7245988  10.5926543  44.0285470  46.2360172  10.7748927  44.2354146
  36.2665395  14.1244421  37.2864294  36.1501653  13.4489324  37.9545378
  36.3767655  13.6376795  36.4696447  38.6096936  13.5854568  40.9910983
  38.2455143  13.0585189  41.7023904  39.4664052  13.1953037  40.8177468
  44.5146237   4.8748900  48.2542249  44.1829562   5.7444311  48.0303464
  43.9191850   4.5585184  48.9336280  38.2502423   8.6144467  35.9872332
  38.4176825   9.4824704  36.3542803  38.0599592   8.7771749  35.0633621
  41.0077756  17.0761446  47.6538162  40.7078479  17.9786485  47.5453969
  40.6628816  16.8093630  48.5059315  34.4590238  13.5275243  43.6874866
  33.5340734  13.3951457  43.8952558  34.7074651  14.3069462  44.1844809
  44.4074900   9.5943987  45.3335599  43.4991777   9.5259395  45.0394360
  44.3562496  10.0715931  46.1617425  38.2291644  11.0702125  36.9718998
  38.1091269  11.5159176  37.8104479  37.5344232  11.4187443  36.4132536
  31.8199049  13.1708517  44.5218655  31.9491430  13.4242996  45.4358067
  31.1396500  13.7636225  44.2023310  38.4815766  11.0133632  53.2770496
  37.7049100  11.5727552  53.2673361  39.1206329  11.4990415  53.7985367
  46.2736546   7.7960425  47.1113473  45.6310927   8.0892958  46.4653268
  45.7691475   7.6813345  47.9166670  43.9276710  11.5423598  37.7999332
  44.8394566  11.7750985  37.6247030  43.4186357  12.1260642  37.2374411
  36.7362138  13.8219085  52.8388463  37.4776823  14.3604129  52.5623287
  36.0299124  14.4485374  52.9960015  42.2117478  15.9648226  51.4360625
  42.6200834  15.5230636  50.6915257  41.4894739  15.3900853  51.6894818
  38.5648548  10.9020833  48.8094182  39.4109743  11.3260246  48.9528831
  38.5047186  10.2454457  49.5032745  42.5346292  16.5249417  45.1912914
  41.9055155  16.6895131  44.4888982  42.1471955  16.9391026  45.9623878
  46.4135524  17.4603854  42.5457278  45.7286563  17.8402756  41.9954311
  46.4979374  18.0699181  43.2789225  41.7147993   8.5625201  50.4675356
  41.4708925   9.3167262  49.9309631  41.9907924   8.9410549  51.3022603
  43.6686456  15.1063813  49.1452621  43.8803351  15.7495573  48.4687002
  43.6216204  14.2726130  48.6774551  41.2712685   7.7181634  46.0489193
  40.4097164   8.0162888  46.3405931  41.2975120   7.9352033  45.1170226
  38.0874254  16.2623825  42.4562999  38.5512600  16.5411528  41.6667621
  37.8231052  15.3607269  42.2736090  34.9798335  15.8095306  45.3942762
  35.5499692  16.2382575  44.7560247  35.5706447  15.5277891  46.0926948
  37.0243140  12.3846977  39.2652564  37.7267184  12.8368021  39.7326490
  36.6923769  11.7430796  39.8932457  35.4723502  10.9758734  53.6403773
  34.8422163  11.6575014  53.8739170  35.3659590  10.8641815  52.6956912
  30.7668474  10.6430530  44.5669698  29.9767528  10.8988058  44.0909808
  31.2579722  11.4578868  44.6721738  44.7832284  17.9835769  47.3174978
  45.6049728  17.5815956  47.0357660  44.7794687  17.8804003  48.2691094
  32.7183220  11.0075109  41.5253174  31.9214383  11.1193803  42.0436670
  32.4908812  11.3461761  40.6594065  38.5488887  17.5319812  49.4735689
  38.6133320  17.9940219  50.3093861  37.8399811  16.9017177  49.6017999
  29.0506177  10.8961020  46.9984688  29.3014216  11.7808030  47.2642264
  29.5865726  10.7165622  46.2259780  52.8738277  14.3274517  43.6659950
  52.1201985  13.7581915  43.5103954  53.0085818  14.2937182  44.6130585
  34.7504245   5.2779499  56.0029025  34.3571190   4.7245698  56.6776669
  35.5670385   5.5890078  56.3935542  31.7166302  16.7163358  39.9142594
  32.2290823  17.5106608  40.0648159  32.3689015  16.0189648  39.8476196
  33.5261187  19.8329114  41.9965348  33.7027815  20.7547079  41.8086331
  34.3218021  19.5187533  42.4259727  37.6672206   6.6937379  53.5949281
  38.4081919   7.2944532  53.5153744  37.8990128   5.9515016  53.0367324
  32.8113544  11.8793746  51.8727511  32.6967059  10.9779003  52.1734610
  31.9558061  12.1257443  51.5212327  39.8905381  19.8211486  53.4715011
  39.4469236  19.0347865  53.1535916  40.5522595  20.0090637  52.8058902
  41.9886619  20.1014286  51.4996413  41.9705095  20.9223167  51.0076682
  42.9106540  19.9768361  51.7246554  38.4459674  17.6158416  52.3419921
  38.9788010  16.8546704  52.1119229  37.9173755  17.3232067  53.0844075
  41.6129369   2.7218482  47.8713563  41.2693638   3.6120123  47.7952673
  41.9808331   2.5320139  47.0083148  29.6815219  15.0452012  40.6902165
  30.5190441  15.4549020  40.4735873  29.8593487  14.1051454  40.6602359
  41.5779651  12.7127093  36.3785998  41.0626275  13.4831697  36.6174385
  41.3056960  12.0392229  37.0019059  39.1626762   7.5576793  41.4371236
  38.3068359   7.1683644  41.2576875  39.5753714   7.6368754  40.5771022
  40.6925909   5.0923137  45.8362796  40.1890705   5.0553272  45.0230601
  40.9856516   6.0015879  45.8959453  36.9368795   5.1761866  44.8428978
  37.8021792   4.9804675  44.4834867  37.0046304   4.9472218  45.7698334
  46.5513925  15.4659447  38.3139171  45.7743368  15.1270607  37.8694333
  47.2305406  15.4712070  37.6394136  41.3665954  10.5854185  38.2045779
  41.0616090  10.9000334  39.0555922  42.3196397  10.6635605  38.2473112
  39.8112386  16.7444408  39.8538733  39.2833748  16.0097168  39.5411970
  39.3099889  17.5219084  39.6078701  44.7905232  14.9393429  44.9705779
  44.1328907  15.6292690  45.0585908  45.5945632  15.3289860  45.3139766
  34.5431114   7.4064074  42.2145345  35.1174866   7.1839256  41.4818538
  35.1302096   7.4752769  42.9673946  43.6010691  13.2937801  43.0209721
  44.1142573  13.9267793  43.5231431  44.2511915  12.6938997  42.6553081
  34.8700701   9.4368535  36.2341230  34.0338013   9.7743222  36.5550505
  34.7305471   9.3017515  35.2968367  36.8453782   4.2805323  40.9420414
  36.1918194   3.9654340  40.3177029  36.8034256   3.6581064  41.6680237
  40.0791522  10.7687257  45.2668062  39.1614083  10.9902204  45.1089750
  40.4951666  10.8433567  44.4079769  40.8626570  12.1678672  40.3970742
  41.6098389  12.6800070  40.0877864  41.1318159  11.8462725  41.2575135
  39.1353220  14.6637213  37.3797696  38.2264439  14.3796246  37.4770166
  39.1648304  15.0836292  36.5201003  44.3672487  18.2743803  41.1488864
  43.9134814  17.4334713  41.2054054  43.7366454  18.9105201  41.4863644
  43.3105407   9.2035789  42.3789531  42.5728164   8.6913175  42.7099774
  43.5632180   8.7636170  41.5672808  42.8105427  20.1120299  42.0838682
  43.1028401  20.6725356  41.3651047  43.3204047  20.4048860  42.8391841
  43.4117034   1.9812041  42.9731300  43.7175911   1.1209404  42.6857216
  44.1369639   2.5729661  42.7730294  29.7041390  12.3842727  41.3612898
  29.5065790  11.7912088  40.6363965  29.1488054  12.0794937  42.0788837
  37.6838114  12.2765834  43.4807492  37.7386724  11.3239670  43.4049968
  36.8729316  12.4325273  43.9648790  35.6230474  10.8942894  41.2397870
  34.8098339  11.1937064  41.6463063  36.1189468  10.4998582  41.9572353
  41.2204686  11.3584718  50.0712764  41.5754073  11.5856191  50.9307230
  41.8676817  11.6903095  49.4490020  46.9502423  14.4803154  40.7762093
  46.8120321  14.6704750  39.8483283  46.5938641  15.2422537  41.2330144
  35.1144549   8.4661249  46.8559105  35.7543928   8.3250008  46.1582069
  34.2822079   8.1795762  46.4797707  46.9771802  16.5479681  45.7873365
  47.4108309  16.4554970  46.6356419  47.6903383  16.5237181  45.1493381
  35.8904853  17.7663679  42.9694098  36.6845451  17.2714000  42.7676673
  35.1796545  17.2381543  42.6061803  40.7099697  20.1481775  47.3206465
  40.7636719  20.7172711  48.0884181  39.8414478  20.3183660  46.9560503
  32.1987616  11.9106761  39.0453850  31.2685204  11.8491217  39.2623813
  32.2945088  11.3882714  38.2490492  32.1173165   8.4361574  41.6332092
  32.3779982   9.3506907  41.5241253  32.9390337   7.9686017  41.7828705
  33.5898090   9.8499331  48.8030917  34.2621144   9.6416693  48.1543566
  32.7627877   9.6521417  48.3636149  47.8387352  16.5903382  48.3206250
  48.0323242  17.4949192  48.5665525  47.7387970  16.1310801  49.1544835
  39.4923662   6.4761272  50.8196578  38.8451577   7.1751222  50.7261054
  40.2624678   6.9097416  51.1872826  42.9002460  16.7410124  53.8947131
  42.7487967  16.5120676  52.9777215  42.8907140  17.6980726  53.9078476
  39.6687797  14.3142037  48.8793397  40.5979857  14.4653197  48.7062365
  39.2478827  14.4026058  48.0242044  40.0181344  17.7174304  44.0380773
  39.6831176  17.6775074  44.9338423  39.5185289  17.0519020  43.5651183
  33.9925588  13.1241934  49.5633354  33.8545386  12.3922173  50.1644893
  34.9030511  13.0350834  49.2817542  42.9540535  15.0630338  34.3117832
  42.3369706  14.3377167  34.2150885  42.4857024  15.8239699  33.9684907
  36.6207888  12.8361893  49.0517033  37.3307507  12.1955086  49.0103652
  36.5777196  13.0874788  49.9743214  44.6094667  19.7729247  51.9723613
  44.5507213  19.0888467  51.3054196  45.0114185  20.5148237  51.5204239
  35.3336822   9.8227111  50.8712673  34.7974179   9.3717850  51.5234269
  34.7453531   9.9573020  50.1283137  34.7439081   9.2815763  33.4339137
  33.8668548   9.1604564  33.0701383  35.2196834   8.4901841  33.1818025
  44.6112074  17.7368831  50.2037592  43.7238853  17.3994753  50.3263991
  45.1810625  17.0051862  50.4406358  26.2641221  14.0692923  43.5280644
  26.9512261  13.7554653  42.9401659  26.1089350  14.9734287  43.2547895
  31.0675944   8.9583119  47.9565667  30.9834132   8.3508789  47.2216077
  30.2458650   9.4492137  47.9575164  41.2399657   7.4436683  43.3235863
  41.7368357   6.6906645  43.0036933  40.4686639   7.4800999  42.7579072
  49.0929415  13.1477048  44.9654154  49.0819291  14.0301764  44.5948087
  48.2246794  12.7948599  44.7708691  40.6011911  22.2957117  49.3256994
  41.3139883  22.9304582  49.2532896  40.1101940  22.3920983  48.5096996
  42.3229438  16.2008370  40.8974286  41.3885717  16.3209832  40.7278990
  42.5006107  15.2980837  40.6334296  37.8234626   9.5854066  43.0507547
  37.4532414   9.0325106  43.7388453  38.3193719   8.9812199  42.4982547
  45.7101989  12.0425689  41.4324320  46.1762442  12.8753681  41.3584623
  46.1609490  11.5770671  42.1369579  43.7778221  18.3869510  38.4310472
  44.0538064  18.2726105  39.3404346  42.9082719  17.9886995  38.3922645
  43.6818652   4.4106276  45.4715221  42.7681732   4.6410503  45.6397428
  44.1111754   4.4944720  46.3229254  43.4525111  12.5996168  47.9715115
  42.7996561  12.8472076  47.3167568  43.8305491  11.7860306  47.6377593
  39.5012684  13.3415979  54.4581152  38.8253321  13.2410108  55.1283528
  40.3240318  13.1855193  54.9217150  25.8409198  12.1493516  45.7998111
  25.8793297  11.6157107  46.5935229  25.3349490  11.6228721  45.1809088
  33.2199960   6.9958056  49.2960653  33.2841286   7.8572887  48.8838051
  33.1567080   6.3832058  48.5633012  32.6952232   9.0681189  52.9433687
  33.3224271   8.6858266  53.5571212  31.8380151   8.8495391  53.3089380
  43.0946341  19.4744164  54.5487423  43.6386245  20.0874122  54.0542378
  42.5133186  20.0323742  55.0654436  29.4717775  10.8757618  38.8752042
  29.7671216   9.9668296  38.8219096  28.5705811  10.8545357  38.5533045
  33.0012022   8.9513615  44.8579591  32.2798608   9.5649582  44.7187064
  33.7905278   9.4871379  44.7796237  43.4438762  20.3973902  47.3082001
  42.4969098  20.2779253  47.2360327  43.7921535  19.5096400  47.3908262
  35.8038336   6.2868041  51.1320243  36.3272737   6.5330338  51.8946552
  35.5850669   7.1188076  50.7123380  31.2005617   8.5571716  38.9991367
  30.8718323   7.6769095  38.8166473  31.5544987   8.5019384  39.8867757
  40.4485196  20.1926618  43.5086353  40.3010158  19.2643326  43.6893923
  41.2738689  20.2146709  43.0243428  34.3147440   8.8444685  39.3666845
  34.6543512   9.3730607  38.6445453  34.7619560   9.1825092  40.1425412
  44.0519317  21.0155177  44.5951226  44.9765865  20.8098038  44.4575677
  43.8834621  20.7671578  45.5040567  37.0090881   7.2281736  48.8169913
  36.6687701   6.4289549  49.2190593  36.3029887   7.5283447  48.2446746
  37.6607352   4.3131049  47.2697236  38.4833422   3.8391527  47.1476126
  37.9045416   5.0921532  47.7695922  36.3015587   7.3419307  37.5660138
  37.0223949   7.7200560  37.0623855  35.6780891   8.0608184  37.6695116
  40.4446710   8.0464456  38.5018470  40.6610324   8.9289094  38.2007298
  39.9640777   7.6550669  37.7724112  35.1845931  11.0050169  45.0789215
  35.0390512  11.3190472  45.9713496  34.7071135  11.6235070  44.5260113
  37.0442314   7.9952717  45.1270104  37.0303883   7.0993811  44.7902402
  37.7614742   8.0023381  45.7608390  38.8968445   8.4290057  47.1723232
  38.6386223   9.3507128  47.1707562  38.3653485   8.0320492  47.8623696
  36.4479210   6.8767098  40.3957674  36.5695121   5.9483744  40.5948562
  36.1581252   6.8905784  39.4835990  39.3170400   4.5622008  43.5324394
  39.3392097   4.6261341  42.5776374  39.7338459   3.7226517  43.7264900
  49.6954025  14.2977268  41.5703617  50.1385171  13.5484593  41.1722740
  48.8180535  14.2887404  41.1877349  30.4457615  12.6725410  50.9107033
  29.7039351  12.8208045  51.4971663  30.1250360  12.9333676  50.0473782
  46.7281229  18.3007315  38.5797546  47.2532553  18.6394587  37.8546866
  46.6403582  17.3654330  38.3960681  35.9320290   8.3899095  54.6047607
  35.9808445   9.2661218  54.2225377  36.4742804   7.8476488  54.0319250
  46.4175135  18.9340218  53.8848744  45.6270679  18.9164357  53.3453244
  46.1808490  19.4728512  54.6397781  46.5373010  15.7832685  51.1981473
  46.5871015  15.6182692  52.1396995  46.4286934  14.9159944  50.8079353
  43.8276773  11.7663613  52.5140779  44.7286635  11.6270077  52.2224777
  43.9024747  11.9318067  53.4538957  38.1619578   9.1430467  51.3593966
  37.2922887   9.4364033  51.0876554  38.3979058   9.7270912  52.0801229
  48.0391207  18.2029626  51.4423494  47.7476015  18.5659607  52.2786955
  47.4263338  17.4896634  51.2636826  49.2386889  15.7682506  43.9626064
  50.0733781  16.2072310  44.1263625  49.3746018  15.2921159  43.1434310
  46.2878395  13.3262241  49.9103552  46.7632517  13.5189887  49.1022404
  45.3643961  13.3821426  49.6646936  33.1761902  14.4886408  39.4934631
  32.9307944  13.5848738  39.6914841  33.3457817  14.4903558  38.5514109
  40.8658612   5.3610084  48.8759386  41.3840556   6.0971111  48.5505875
  40.5113745   5.6674078  49.7106145  32.4457550  10.2214765  36.9920792
  31.7526794  10.2959120  36.3360828  32.2009301   9.4575109  37.5142309
  41.1171206   1.7810367  44.3960283  41.3972960   1.1133556  45.0220709
  41.9021813   1.9739462  43.8834947  44.9880064  10.2028001  48.1431858
  45.9397487  10.3026098  48.1644082  44.8183515   9.4106269  48.6529942
  43.0094444   7.2883584  48.3291259  42.4144376   7.5688597  47.6337747
  42.7244141   7.7777485  49.1008000  44.7689951  20.5572381  34.0497839
  44.6903583  20.2232245  34.9433597  45.5899618  21.0494149  34.0489311
  47.4668142  13.4234120  47.2574157  47.4344462  12.4850121  47.4433841
  48.0768766  13.5018157  46.5239982  39.3051473  12.2930173  33.3001362
  40.2510578  12.1636382  33.3689780  38.9265718  11.5544835  33.7770790
  47.6162631  10.2145164  47.3032441  47.1001679   9.4303621  47.1162370
  48.5002579   9.8863880  47.4678960  45.2773358   3.9586179  43.2628253
  45.0798179   3.6501268  44.1471585  45.8873063   4.6847818  43.3926183
  53.2844692  14.4850127  46.3980194  54.0148081  14.2235415  46.9587898
  52.6751638  13.7478849  46.4382262  51.3659989  12.6257990  46.9954645
  50.6393153  12.4913955  46.3871137  50.9507276  12.9334818  47.8011364
  39.1890166  16.3447920  54.7602018  40.1093175  16.5226519  54.9542065
  39.1539749  15.4003965  54.6081718  37.4894390  10.2180150  33.2356247
  36.5825846   9.9213263  33.3118960  37.7670371   9.9209968  32.3690533
  28.4072331  11.5386513  43.6855293  28.0875115  10.6851821  43.3929667
  27.8605759  11.7535091  44.4413260  32.1852238  14.2548954  47.4024800
  32.4038248  15.1866062  47.4212833  32.5978012  13.8956929  48.1879603
  39.1056456   4.7617040  39.3900488  38.2957184   4.4164124  39.7655734
  39.7940873   4.4524583  39.9788100  41.0347004   3.8395086  41.0124785
  41.5878043   4.2590540  41.6714808  41.2717091   2.9130834  41.0547741
  37.0580103   9.8282160  56.7927549  36.9576830  10.7776517  56.7239640
  36.8401646   9.5000399  55.9203619  36.2593175   7.0767085  33.3768226
  37.1212339   7.4021983  33.6364043  36.4443519   6.2898581  32.8641292
  44.4125811   5.9495611  40.5203449  43.8324480   6.6080416  40.1381501
  44.1461744   5.1272956  40.1090866  42.8629378   5.3500669  42.7224769
  43.3629156   5.4617204  41.9139088  43.5064986   5.0461722  43.3625578
  36.9211374  13.2579299  55.6092610  36.4378455  14.0579659  55.8156499
  37.0072313  13.2687244  54.6560054  30.1897333  15.0907678  43.5314430
  30.1668021  15.1895366  42.5796313  30.4997970  15.9372829  43.8531596
  32.8484711  17.1483834  47.6461044  33.8027965  17.1167776  47.5790976
  32.6497235  16.6874457  48.4611270  33.4384093  15.7184950  50.2131842
  34.2576982  16.2129028  50.2366679  33.7120901  14.8016918  50.1849409
  43.1950689   8.1095702  39.5759797  42.3076544   8.3945352  39.3579992
  43.6104678   7.9489465  38.7287074  46.5465225   8.1342223  43.2914136
  47.3225616   8.6238675  43.5638753  45.8213360   8.5600277  43.7486006
  48.9837784   8.8469842  44.3488077  49.5782275   8.6065578  43.6381385
  49.0564368   8.1276973  44.9761613  42.3393903  17.8740377  33.6707817
  43.0429753  18.0790379  34.2865473  41.6156552  18.4417138  33.9356901
  43.1691713  13.6250238  39.7910087  43.1126914  14.0818789  38.9517720
  43.7220056  12.8640922  39.6132930  46.9796519   9.4139970  40.6160207
  46.7233453   9.0136605  41.4468415  46.3549387  10.1283764  40.4910346
  51.2908857  12.1536043  43.1231498  50.7308415  12.2229232  43.8963060
  50.6852360  11.9777028  42.4030995  44.2480600  18.3122906  35.7206277
  45.0826204  17.8804104  35.5383752  44.0864943  18.1404919  36.6483172
  43.9026492  14.8155019  37.0862617  43.8475296  14.6499290  36.1451061
  43.2772548  15.5231052  37.2424806  28.6919007  10.0523083  50.9124039
  29.3377871   9.5422037  51.4011264  28.4836158  10.7891765  51.4867464
  41.2172400  17.1203931  56.4116179  42.0863559  17.2944583  56.0502814
  40.7379151  17.9398348  56.2891909  37.2122618   4.3163128  36.6647935
  37.2001288   5.2604968  36.8216206  38.1046040   4.1333273  36.3707396
  41.0274737   0.9105905  40.9193872  40.2607133   0.3564391  41.0650554
  41.4385442   0.9827773  41.7808023  33.0316498   7.1990701  55.0099053
  33.8947960   6.8427505  55.2202378  32.4581909   6.8604595  55.6974457
  52.4306144  26.5544011  42.8914662  53.2169233  26.1363434  42.5405079
  52.6944848  27.4590103  43.0596310  57.8314571  26.4919244  43.7947641
  58.5639743  25.9218461  44.0285470  57.0753927  26.1040844  44.2354146
  55.3539991  20.2040818  48.2542249  55.0223316  21.0736229  48.0303464
  54.7585605  19.8877102  48.9336280  55.2468655  24.9235904  45.3335599
  54.3385532  24.8551313  45.0394360  55.1956250  25.4007849  46.1617425
  49.3209520  26.3425550  53.2770496  48.5442854  26.9019470  53.2673361
  49.9600083  26.8282333  53.7985367  57.1130301  23.1252343  47.1113473
  56.4704681  23.4184876  46.4653268  56.6085230  23.0105263  47.9166670
  54.7670465  26.8715516  37.7999332  55.6788321  27.1042903  37.6247030
  54.2580112  27.4552560  37.2374411  52.5541748  23.8917119  50.4675356
  52.3102680  24.6459179  49.9309631  52.8301678  24.2702466  51.3022603
  52.1106439  23.0473552  46.0489193  51.2490918  23.3454805  46.3405931
  52.1368874  23.2643951  45.1170226  45.5897999  20.6071417  56.0029025
  45.1964945  20.0537616  56.6776669  46.4064139  20.9181996  56.3935542
  48.5065960  22.0229296  53.5949281  49.2475673  22.6236449  53.5153744
  48.7383883  21.2806934  53.0367324  52.4523123  18.0510399  47.8713563
  52.1087392  18.9412041  47.7952673  52.8202086  17.8612057  47.0083148
  50.0020517  22.8868711  41.4371236  49.1462113  22.4975561  41.2576875
  50.4147469  22.9660672  40.5771022  51.5319663  20.4215054  45.8362796
  51.0284459  20.3845190  45.0230601  51.8250270  21.3307797  45.8959453
  47.7762549  20.5053784  44.8428978  48.6415546  20.3096593  44.4834867
  47.8440058  20.2764136  45.7698334  57.3907680  30.7951365  38.3139171
  56.6137123  30.4562524  37.8694333  58.0699161  30.8003988  37.6394136
  54.4404446  28.6229719  43.0209721  54.9536327  29.2559711  43.5231431
  55.0905670  28.0230914  42.6553081  47.6847536  19.6097241  40.9420414
  47.0311948  19.2946258  40.3177029  47.6428010  18.9872981  41.6680237
  48.7958741  29.8916536  32.8573706  47.8885803  29.6605789  33.0564855
  49.2929773  29.0954155  33.0447688  50.9185276  26.0979174  45.2668062
  50.0007838  26.3194121  45.1089750  51.3345420  26.1725485  44.4079769
  54.1499161  24.5327706  42.3789531  53.4121918  24.0205093  42.7099774
  54.4025935  24.0928088  41.5672808  54.2510789  17.3103958  42.9731300
  54.5569666  16.4501322  42.6857216  54.9763394  17.9021579  42.7730294
  52.0598440  26.6876636  50.0712764  52.4147828  26.9148109  50.9307230
  52.7070571  27.0195012  49.4490020  45.9538303  23.7953167  46.8559105
  46.5937682  23.6541926  46.1582069  45.1215834  23.5087680  46.4797707
  50.3317417  21.8053190  50.8196578  49.6845332  22.5043139  50.7261054
  51.1018432  22.2389334  51.1872826  53.7934290  30.3922256  34.3117832
  53.1763460  29.6669084  34.2150885  53.3250778  31.1531616  33.9684907
  52.0793412  22.7728600  43.3235863  52.5762111  22.0198563  43.0036933
  51.3080393  22.8092917  42.7579072  59.9323169  28.4768966  44.9654154
  59.9213046  29.3593681  44.5948087  59.0640549  28.1240517  44.7708691
  48.6628381  24.9145983  43.0507547  48.2926168  24.3617024  43.7388453
  49.1587473  24.3104117  42.4982547  56.5495744  27.3717607  41.4324320
  57.0156196  28.2045598  41.3584623  57.0003244  26.9062588  42.1369579
  54.5212407  19.7398194  45.4715221  53.6075486  19.9702421  45.6397428
  54.9505508  19.8236638  46.3229254  54.2918865  27.9288086  47.9715115
  53.6390315  28.1763993  47.3167568  54.6699245  27.1152224  47.6377593
  50.3406438  28.6707897  54.4581152  49.6647075  28.5702026  55.1283528
  51.1634072  28.5147111  54.9217150  44.0593714  22.3249974  49.2960653
  44.1235041  23.1864805  48.8838051  43.9960835  21.7123976  48.5633012
  43.5345987  24.3973107  52.9433687  44.1618026  24.0150184  53.5571212
  42.6773906  24.1787309  53.3089380  46.6432090  21.6159959  51.1320243
  47.1666492  21.8622255  51.8946552  46.4244423  22.4479994  50.7123380
  47.8484635  22.5573654  48.8169913  47.5081456  21.7581467  49.2190593
  47.1423641  22.8575365  48.2446746  48.5001107  19.6422966  47.2697236
  49.3227176  19.1683444  47.1476126  48.7439171  20.4213450  47.7695922
  47.8836069  23.3244635  45.1270104  47.8697637  22.4285728  44.7902402
  48.6008497  23.3315299  45.7608390  49.7362199  23.7581975  47.1723232
  49.4779977  24.6799046  47.1707562  49.2047240  23.3612410  47.8623696
  47.2872965  22.2059015  40.3957674  47.4088876  21.2775661  40.5948562
  46.9975007  22.2197701  39.4835990  50.1564155  19.8913926  43.5324394
  50.1785852  19.9553259  42.5776374  50.5732214  19.0518434  43.7264900
  46.7714044  23.7191013  54.6047607  46.8202200  24.5953135  54.2225377
  47.3136558  23.1768406  54.0319250  54.6670527  27.0955530  52.5140779
  55.5680390  26.9561995  52.2224777  54.7418502  27.2609985  53.4538957
  49.0013333  24.4722385  51.3593966  48.1316642  24.7655951  51.0876554
  49.2372813  25.0562830  52.0801229  58.8784962  33.5321544  51.4423494
  58.5869770  33.8951524  52.2786955  58.2657093  32.8188552  51.2636826
  51.7052366  20.6902002  48.8759386  52.2234310  21.4263029  48.5505875
  51.3507499  20.9965995  49.7106145  51.9564961  17.1102284  44.3960283
  52.2366714  16.4425474  45.0220709  52.7415567  17.3031380  43.8834947
  55.8273819  25.5319918  48.1431858  56.7791242  25.6318016  48.1644082
  55.6577269  24.7398187  48.6529942  53.8488198  22.6175502  48.3291259
  53.2538130  22.8980514  47.6337747  53.5637895  23.1069403  49.1008000
  50.1445228  27.6222091  33.3001362  51.0904332  27.4928299  33.3689780
  49.7659472  26.8836753  33.7770790  58.4556385  25.5437082  47.3032441
  57.9395434  24.7595538  47.1162370  59.3396334  25.2155798  47.4678960
  56.1167112  19.2878097  43.2628253  55.9191933  18.9793185  44.1471585
  56.7266818  20.0139736  43.3926183  48.3288145  25.5472067  33.2356247
  47.4219600  25.2505180  33.3118960  48.6064126  25.2501886  32.3690533
  49.9450210  20.0908957  39.3900488  49.1350939  19.7456042  39.7655734
  50.6334627  19.7816501  39.9788100  51.8740759  19.1687004  41.0124785
  52.4271797  19.5882457  41.6714808  52.1110845  18.2422752  41.0547741
  47.8973858  25.1574078  56.7927549  47.7970585  26.1068435  56.7239640
  47.6795400  24.8292317  55.9203619  47.0986929  22.4059003  33.3768226
  47.9606093  22.7313901  33.6364043  47.2837273  21.6190499  32.8641292
  55.2519566  21.2787529  40.5203449  54.6718235  21.9372333  40.1381501
  54.9855498  20.4564874  40.1090866  53.7023132  20.6792587  42.7224769
  54.2022911  20.7909121  41.9139088  54.3458740  20.3753640  43.3625578
  47.7605128  28.5871216  55.6092610  47.2772210  29.3871577  55.8156499
  47.8466067  28.5979161  54.6560054  54.0344444  23.4387620  39.5759797
  53.1470299  23.7237270  39.3579992  54.4498433  23.2781383  38.7287074
  57.3858980  23.4634141  43.2914136  58.1619370  23.9530593  43.5638753
  56.6607114  23.8892195  43.7486006  59.8231539  24.1761760  44.3488077
  60.4176029  23.9357496  43.6381385  59.8958122  23.4568890  44.9761613
  53.1787657  33.2032294  33.6707817  53.8823507  33.4082297  34.2865473
  52.4550306  33.7709056  33.9356901  54.0085468  28.9542155  39.7910087
  53.9520669  29.4110707  38.9517720  54.5613810  28.1932840  39.6132930
  57.8190273  24.7431887  40.6160207  57.5627208  24.3428523  41.4468415
  57.1943142  25.4575681  40.4910346  62.1302611  27.4827961  43.1231498
  61.5702169  27.5521150  43.8963060  61.5246115  27.3068945  42.4030995
  54.7420247  30.1446937  37.0862617  54.6869051  29.9791208  36.1451061
  54.1166302  30.8522970  37.2424806  48.0516372  19.6455046  36.6647935
  48.0395042  20.5896886  36.8216206  48.9439794  19.4625191  36.3707396
  51.8668492  16.2397822  40.9193872  51.1000888  15.6856309  41.0650554
  52.2779197  16.3119691  41.7808023  43.8710253  22.5282618  55.0099053
  44.7341714  22.1719423  55.2202378  43.2975664  22.1896513  55.6974457
  63.3935502  39.2209036  50.4675356  63.1496434  39.9751097  49.9309631
  63.6695433  39.5994384  51.3022603  74.5525786  44.9858353  43.6659950
  73.7989494  44.4165751  43.5103954  74.6873327  44.9521017  44.6130585
  68.0962644  49.5924054  53.8848744  67.3058188  49.5748192  53.3453244
  67.8595999  50.1312347  54.6397781  69.7178716  48.8613461  51.4423494
  69.4263524  49.2243442  52.2786955  69.1050847  48.1480470  51.2636826
  69.2950140  40.8728999  47.3032441  68.7789188  40.0887456  47.1162370
  70.1790088  40.5447716  47.4678960  74.9632201  45.1433963  46.3980194
  75.6935589  44.8819251  46.9587898  74.3539147  44.4062685  46.4382262
  73.0447498  43.2841825  46.9954645  72.3180662  43.1497790  46.3871137
  72.6294785  43.5918654  47.8011364  58.7367612  40.4865995  56.7927549
  58.6364339  41.4360352  56.7239640  58.5189154  40.1584234  55.9203619
  70.6625293  39.5053677  44.3488077  71.2569784  39.2649413  43.6381385
  70.7351877  38.7860808  44.9761613  72.9696366  42.8119878  43.1231498
  72.4095924  42.8813068  43.8963060  72.3639869  42.6360863  42.4030995
  62.8959909  47.7787766  56.4116179  63.7651068  47.9528419  56.0502814
  62.4166660  48.5982183  56.2891909  74.5552384  59.4876392  45.8161454
  75.1930794  59.3683140  45.1124794  74.4373227  60.4357236  45.8749406
  71.3642091  59.4403820  45.7522979  71.0260602  59.3244885  44.8643514
  72.2331859  59.0394985  45.7323985  67.2228906  61.2939297  41.7419870
  66.6593771  61.2029234  40.9736157  67.1081301  60.4739201  42.2222362
  71.8461874  60.5938672  51.7109184  71.8350514  60.1991470  50.8389688
  72.0082513  59.8604745  52.3042956  72.8028465  64.9610264  37.0534335
  72.1516445  65.5464345  36.6668348  73.5972828  65.4916459  37.1129372
  66.7284092  62.0499402  37.4521469  67.5014968  61.5028389  37.3134345
  67.0809491  62.9143651  37.6635930  68.5669135  63.3775784  50.6588368
  68.2759001  64.2821415  50.5435035  69.2026119  63.4192311  51.3732438
  69.4925342  60.7552632  47.2489728  70.0888914  60.5308655  46.5346691
  69.5500313  60.0137378  47.8515176  69.0650370  58.2092068  35.0839919
  69.3175891  57.6873589  34.3223382  68.1274929  58.0458213  35.1866602
  74.1093653  57.2127846  42.8914662  74.8956742  56.7947269  42.5405079
  74.3732357  58.1173938  43.0596310  74.2803730  62.6500696  37.5903319
  73.6449563  62.7235323  38.3024223  73.9501137  63.2394295  36.9122398
  79.5102080  57.1503079  43.7947641  80.2427252  56.5802296  44.0285470
  78.7541436  56.7624680  44.2354146  68.7846659  60.1120174  37.2864294
  68.6682917  59.4365077  37.9545378  68.8948919  59.6252548  36.4696447
  71.1278200  59.5730321  40.9910983  70.7636407  59.0460942  41.7023904
  71.9845316  59.1828790  40.8177468  77.0327500  50.8624653  48.2542249
  76.7010825  51.7320064  48.0303464  76.4373114  50.5460937  48.9336280
  70.7683687  54.6020220  35.9872332  70.9358089  55.4700457  36.3542803
  70.5780856  54.7647502  35.0633621  73.5259020  63.0637199  47.6538162
  73.2259743  63.9662238  47.5453969  73.1810079  62.7969383  48.5059315
  76.9256164  55.5819740  45.3335599  76.0173041  55.5135148  45.0394360
  76.8743759  56.0591684  46.1617425  70.7472907  57.0577878  36.9718998
  70.6272533  57.5034929  37.8104479  70.0525496  57.4063196  36.4132536
  68.5079800  69.8281520  40.6209130  68.4303829  70.7789345  40.6997610
  67.9041443  69.4827392  41.2784056  70.9997029  57.0009385  53.2770496
  70.2230363  57.5603305  53.2673361  71.6387592  57.4866168  53.7985367
  78.7917810  53.7836178  47.1113473  78.1492190  54.0768711  46.4653268
  78.2872738  53.6689098  47.9166670  76.4457974  57.5299351  37.7999332
  77.3575830  57.7626738  37.6247030  75.9367621  58.1136395  37.2374411
  69.2543402  59.8094838  52.8388463  69.9958086  60.3479882  52.5623287
  68.5480387  60.4361127  52.9960015  74.7298741  61.9523979  51.4360625
  75.1382097  61.5106389  50.6915257  74.0076003  61.3776606  51.6894818
  71.0829811  56.8896586  48.8094182  71.9291007  57.3135999  48.9528831
  71.0228449  56.2330210  49.5032745  75.0527556  62.5125170  45.1912914
  74.4236418  62.6770884  44.4888982  74.6653218  62.9266779  45.9623878
  78.9316788  63.4479607  42.5457278  78.2467826  63.8278509  41.9954311
  79.0160637  64.0574934  43.2789225  74.2329257  54.5500954  50.4675356
  73.9890189  55.3043015  49.9309631  74.5089187  54.9286302  51.3022603
  76.1867719  61.0939566  49.1452621  76.3984615  61.7371326  48.4687002
  76.1397468  60.2601883  48.6774551  73.7893948  53.7057387  46.0489193
  72.9278427  54.0038641  46.3405931  73.8156383  53.9227786  45.1170226
  70.6055518  62.2499578  42.4562999  71.0693863  62.5287281  41.6667621
  70.3412316  61.3483022  42.2736090  77.3013547  63.9711522  47.3174978
  78.1230991  63.5691709  47.0357660  77.2975950  63.8679756  48.2691094
  71.0670151  63.5195565  49.4735689  71.1314583  63.9815972  50.3093861
  70.3581075  62.8892930  49.6017999  85.3919540  60.3150270  43.6659950
  84.6383249  59.7457668  43.5103954  85.5267082  60.2812935  44.6130585
  70.7818168  65.1863673  39.3414669  70.6463843  66.0315208  39.7699517
  71.3227981  65.3882950  38.5780603  67.2685508  51.2655253  56.0029025
  66.8752454  50.7121451  56.6776669  68.0851648  51.5765831  56.3935542
  70.1853469  52.6813132  53.5949281  70.9263182  53.2820285  53.5153744
  70.4171392  51.9390769  53.0367324  72.4086645  65.8087239  53.4715011
  71.9650499  65.0223618  53.1535916  73.0703858  65.9966390  52.8058902
  67.1673766  67.3383041  47.9975690  67.7181191  67.2100104  47.2252684
  66.3285242  67.6377930  47.6470583  74.5067883  66.0890039  51.4996413
  74.4886358  66.9098920  51.0076682  75.4287803  65.9644114  51.7246554
  70.9640937  63.6034169  52.3419921  71.4969274  62.8422457  52.1119229
  70.4355018  63.3107820  53.0844075  74.1310632  48.7094235  47.8713563
  73.7874901  49.5995876  47.7952673  74.4989595  48.5195892  47.0083148
  74.0960915  58.7002846  36.3785998  73.5807538  59.4707450  36.6174385
  73.8238223  58.0267982  37.0019059  71.6808026  53.5452546  41.4371236
  70.8249622  53.1559397  41.2576875  72.0934978  53.6244507  40.5771022
  73.2107172  51.0798890  45.8362796  72.7071968  51.0429025  45.0230601
  73.5037779  51.9891632  45.8959453  79.0695189  61.4535200  38.3139171
  78.2924632  61.1146360  37.8694333  79.7486670  61.4587823  37.6394136
  73.8847218  56.5729938  38.2045779  73.5797354  56.8876087  39.0555922
  74.8377660  56.6511358  38.2473112  72.3293650  62.7320161  39.8538733
  71.8015011  61.9972921  39.5411970  71.8281153  63.5094837  39.6078701
  77.3086496  60.9269182  44.9705779  76.6510170  61.6168443  45.0585908
  78.1126895  61.3165613  45.3139766  76.1191955  59.2813554  43.0209721
  76.6323836  59.9143546  43.5231431  76.7693178  58.6814750  42.6553081
  67.3881965  55.4244288  36.2341230  66.5519277  55.7618975  36.5550505
  67.2486734  55.2893268  35.2968367  70.4746250  60.5500371  32.8573706
  69.5673312  60.3189625  33.0564855  70.9717282  59.7537991  33.0447688
  73.3814329  69.2597879  35.7770392  72.7076028  69.5629575  36.3855350
  73.7680151  70.0626959  35.4275849  72.5972785  56.7563010  45.2668062
  71.6795347  56.9777957  45.1089750  73.0132929  56.8309320  44.4079769
  73.3807833  58.1554425  40.3970742  74.1279652  58.6675823  40.0877864
  73.6499423  57.8338478  41.2575135  71.6534483  60.6512966  37.3797696
  70.7445703  60.3671999  37.4770166  71.6829567  61.0712045  36.5201003
  76.8853751  64.2619556  41.1488864  76.4316078  63.4210466  41.2054054
  76.2547718  64.8980954  41.4863644  75.8286670  55.1911542  42.3789531
  75.0909427  54.6788928  42.7099774  76.0813444  54.7511923  41.5672808
  75.3286690  66.0996052  42.0838682  75.6209664  66.6601109  41.3651047
  75.8385311  66.3924613  42.8391841  75.9298298  47.9687794  42.9731300
  76.2357175  47.1085157  42.6857216  76.6550903  48.5605414  42.7730294
  71.3510571  62.1921710  34.7185775  70.9130001  61.4757569  34.2591412
  72.0921012  62.4197825  34.1570866  70.2920315  66.8776403  43.1732135
  70.2496494  67.1037250  42.2440667  71.2083014  66.6439778  43.3217936
  73.7385949  57.3460471  50.0712764  74.0935337  57.5731944  50.9307230
  74.3858080  57.6778848  49.4490020  79.4683686  60.4678907  40.7762093
  79.3301585  60.6580503  39.8483283  79.1119905  61.2298290  41.2330144
  79.4953066  62.5355434  45.7873365  79.9289572  62.4430723  46.6356419
  80.2084646  62.5112934  45.1493381  68.4086116  63.7539432  42.9694098
  69.2026715  63.2589753  42.7676673  67.6977808  63.2257296  42.6061803
  73.2280961  66.1357528  47.3206465  73.2817983  66.7048464  48.0884181
  72.3595742  66.3059413  46.9560503  80.3568615  62.5779135  48.3206250
  80.5504505  63.4824945  48.5665525  80.2569233  62.1186554  49.1544835
  72.0104926  52.4637025  50.8196578  71.3632841  53.1626975  50.7261054
  72.7805941  52.8973169  51.1872826  75.4183724  62.7285877  53.8947131
  75.2669230  62.4996429  52.9777215  75.4088403  63.6856479  53.9078476
  72.1869060  60.3017790  48.8793397  73.1161120  60.4528950  48.7062365
  71.7660090  60.3901811  48.0242044  70.9857392  64.3268454  46.6491935
  70.8468478  63.9587239  47.5217873  70.1971988  64.8416094  46.4775893
  71.5805544  69.4277551  37.9917471  71.7557300  68.9565594  38.8063094
  70.8938332  70.0543317  38.2198732  72.5362607  63.7050057  44.0380773
  72.2012440  63.6650827  44.9338423  72.0366553  63.0394773  43.5651183
  75.4721799  61.0506092  34.3117832  74.8550969  60.3252920  34.2150885
  75.0038287  61.8115452  33.9684907  69.1389152  58.8237647  49.0517033
  69.8488770  58.1830839  49.0103652  69.0958460  59.0750541  49.9743214
  77.1275930  65.7605000  51.9723613  77.0688477  65.0764220  51.3054196
  77.5295449  66.5023990  51.5204239  66.1466629  72.5766914  44.7657332
  66.3863228  73.2085438  45.4436350  65.3035826  72.2254954  45.0522691
  67.2620345  55.2691516  33.4339137  66.3849811  55.1480317  33.0701383
  67.7378098  54.4777594  33.1818025  77.1293338  63.7244584  50.2037592
  76.2420117  63.3870506  50.3263991  77.6991889  62.9927615  50.4406358
  70.6594491  68.3846036  47.1698836  70.5864663  69.1901008  47.6818140
  70.2171884  68.5838002  46.3446857  70.4484271  67.6217806  40.6801657
  69.6651793  68.1639486  40.7739882  71.1477016  68.1391786  41.0795898
  73.7580921  53.4312436  43.3235863  74.2549620  52.6782398  43.0036933
  72.9867902  53.4676752  42.7579072  81.6110678  59.1352801  44.9654154
  81.6000555  60.0177517  44.5948087  80.7428058  58.7824352  44.7708691
  73.1193175  68.2832870  49.3256994  73.8321147  68.9180335  49.2532896
  72.6283203  68.3796736  48.5096996  74.8410702  62.1884123  40.8974286
  73.9066980  62.3085585  40.7278990  75.0187370  61.2856590  40.6334296
  78.2283253  58.0301442  41.4324320  78.6943705  58.8629434  41.3584623
  78.6790753  57.5646424  42.1369579  68.1705088  66.0327314  50.1462565
  68.8714548  66.6663797  50.2991959  67.7000203  66.3742045  49.3858204
  76.2959484  64.3745263  38.4310472  76.5719328  64.2601858  39.3404346
  75.4263983  63.9762748  38.3922645  76.1999916  50.3982029  45.4715221
  75.2862995  50.6286256  45.6397428  76.6293017  50.4820473  46.3229254
  75.9706374  58.5871921  47.9715115  75.3177824  58.8347829  47.3167568
  76.3486754  57.7736059  47.6377593  72.9313548  68.6231614  42.0743286
  73.1135943  67.8053270  42.5371038  73.7546534  68.8399307  41.6368176
  73.2655714  67.5499799  39.3358334  73.7943480  67.0392254  38.7228496
  73.5283933  67.2342330  40.2003867  72.0193947  59.3291732  54.4581152
  71.3434584  59.2285861  55.1283528  72.8421581  59.1730946  54.9217150
  66.6211461  68.6014916  42.0956110  65.9521837  69.0861044  41.6120150
  66.4824331  68.8484137  43.0099489  70.7616730  70.6358660  48.6938768
  71.3135038  70.7990281  49.4587854  71.1022924  71.2263097  48.0218793
  75.6127604  65.4619917  54.5487423  76.1567508  66.0749875  54.0542378
  75.0314449  66.0199496  55.0654436  73.8985117  68.5840635  45.6802451
  73.7736257  67.7830375  45.1713396  74.5564208  69.0786828  45.1916421
  75.9620026  66.3849655  47.3082001  75.0150361  66.2655006  47.2360327
  76.3102799  65.4972153  47.3908262  72.9666459  66.1802371  43.5086353
  72.8191421  65.2519079  43.6893923  73.7919953  66.2022462  43.0243428
  76.5700581  67.0030930  44.5951226  77.4947128  66.7973791  44.4575677
  76.4015884  66.7547331  45.5040567  69.5272144  53.2157489  48.8169913
  69.1868965  52.4165302  49.2190593  68.8211150  53.5159200  48.2446746
  72.9627973  54.0340209  38.5018470  73.1791588  54.9164847  38.2007298
  72.4822040  53.6426422  37.7724112  71.4149708  54.4165810  47.1723232
  71.1567486  55.3382881  47.1707562  70.8834749  54.0196245  47.8623696
  76.3595897  67.5216598  39.9513317  76.5332775  66.9563020  39.1987170
  76.8524788  68.3217492  39.7692807  82.2135288  60.2853021  41.5703617
  82.6566434  59.5360346  41.1722740  81.3361799  60.2763157  41.1877349
  77.3471070  66.8383362  37.0510215  78.0421974  67.4590055  37.2697530
  77.6894220  65.9878713  37.3262593  79.2462493  64.2883068  38.5797546
  79.7713817  64.6270340  37.8546866  79.1584845  63.3530083  38.3960681
  70.9082541  68.2017141  50.7087423  71.2169668  67.9566288  51.5810122
  71.7058023  68.4063780  50.2206293  70.9303153  70.3555051  42.9392799
  70.4908144  69.8631430  43.6325656  71.6811270  69.8128018  42.6984875
  68.3777026  65.8993060  45.0115101  67.7557035  65.2363765  44.7117329
  69.0481892  65.9254192  44.3288749  78.9356399  64.9215971  53.8848744
  78.1451942  64.9040110  53.3453244  78.6989753  65.4604265  54.6397781
  79.0554274  61.7708438  51.1981473  79.1052279  61.6058445  52.1396995
  78.9468197  60.9035697  50.8079353  67.9390532  64.4496983  38.4873562
  68.0878653  65.1332448  37.8340234  68.7456976  64.4302073  39.0023017
  76.3458036  57.7539366  52.5140779  77.2467899  57.6145830  52.2224777
  76.4206011  57.9193820  53.4538957  70.6800842  55.1306220  51.3593966
  69.8104151  55.4239786  51.0876554  70.9160322  55.7146665  52.0801229
  80.5572471  64.1905379  51.4423494  80.2657279  64.5535360  52.2786955
  79.9444602  63.4772387  51.2636826  81.7568153  61.7558259  43.9626064
  82.5915044  62.1948063  44.1263625  81.8927282  61.2796912  43.1434310
  78.8059659  59.3137994  49.9103552  79.2813780  59.5065640  49.1022404
  77.8825224  59.3697180  49.6646936  73.3839875  51.3485837  48.8759386
  73.9021819  52.0846864  48.5505875  73.0295008  51.6549831  49.7106145
  73.6352470  47.7686120  44.3960283  73.9154223  47.1009309  45.0220709
  74.4203076  47.9615215  43.8834947  71.4385938  66.9445114  35.9585309
  70.8659905  67.5635301  35.5055781  72.0118732  67.4944475  36.4925231
  77.5061328  56.1903754  48.1431858  78.4578751  56.2901851  48.1644082
  77.3364778  55.3982022  48.6529942  75.5275707  53.2759337  48.3291259
  74.9325639  53.5564350  47.6337747  75.2425404  53.7653238  49.1008000
  74.6583198  67.2282264  37.0893891  75.5913871  67.1627826  37.2926767
  74.5706411  68.0638531  36.6308424  77.2871214  66.5448134  34.0497839
  77.2084846  66.2107998  34.9433597  78.1080881  67.0369902  34.0489311
  79.9849406  59.4109873  47.2574157  79.9525726  58.4725874  47.4433841
  80.5950029  59.4893910  46.5239982  71.8232737  58.2805926  33.3001362
  72.7691841  58.1512135  33.3689780  71.4446981  57.5420588  33.7770790
  80.1343894  56.2020917  47.3032441  79.6182943  55.4179374  47.1162370
  81.0183843  55.8739634  47.4678960  77.7954621  49.9461932  43.2628253
  77.5979442  49.6377021  44.1471585  78.4054327  50.6723571  43.3926183
  85.8025956  60.4725880  46.3980194  86.5329344  60.2111168  46.9587898
  85.1932901  59.7354602  46.4382262  83.8841253  58.6133743  46.9954645
  83.1574416  58.4789708  46.3871137  83.4688540  58.9210572  47.8011364
  71.7071429  62.3323673  54.7602018  72.6274439  62.5102272  54.9542065
  71.6721012  61.3879718  54.6081718  70.0075654  56.2055903  33.2356247
  69.1007109  55.9089016  33.3118960  70.2851635  55.9085721  32.3690533
  73.5528268  49.8270839  41.0124785  74.1059306  50.2466293  41.6714808
  73.7898354  48.9006587  41.0547741  69.5761367  55.8157913  56.7927549
  69.4758094  56.7652270  56.7239640  69.3582909  55.4876152  55.9203619
  68.7774438  53.0642838  33.3768226  69.6393602  53.3897736  33.6364043
  68.9624782  52.2774334  32.8641292  76.9307075  51.9371365  40.5203449
  76.3505744  52.5956169  40.1381501  76.6643007  51.1148709  40.1090866
  75.3810641  51.3376422  42.7224769  75.8810420  51.4492957  41.9139088
  76.0246249  51.0337475  43.3625578  69.4392637  59.2455052  55.6092610
  68.9559719  60.0455412  55.8156499  69.5253576  59.2562997  54.6560054
  75.7131953  54.0971455  39.5759797  74.8257808  54.3821106  39.3579992
  76.1285942  53.9365218  38.7287074  79.0646489  54.1217976  43.2914136
  79.8406879  54.6114428  43.5638753  78.3394623  54.5476030  43.7486006
  81.5019048  54.8345595  44.3488077  82.0963538  54.5941331  43.6381385
  81.5745631  54.1152726  44.9761613  63.7216203  68.6779206  44.6631242
  63.5870671  67.9179607  44.0969240  63.3048266  69.4020106  44.1960031
  74.8575166  63.8616130  33.6707817  75.5611016  64.0666132  34.2865473
  74.1337815  64.4292891  33.9356901  75.6872977  59.6125991  39.7910087
  75.6308178  60.0694542  38.9517720  76.2401319  58.8516675  39.6132930
  79.4977782  55.4015723  40.6160207  79.2414717  55.0012358  41.4468415
  78.8730650  56.1159517  40.4910346  83.8090120  58.1411796  43.1231498
  83.2489678  58.2104985  43.8963060  83.2033624  57.9652781  42.4030995
  66.8785329  69.5748523  44.8749685  66.7617713  70.5193956  44.7728375
  66.0577775  69.2722085  45.2635484  76.7661864  64.2998659  35.7206277
  77.6007468  63.8679857  35.5383752  76.6046207  64.1280672  36.6483172
  76.4207756  60.8030772  37.0862617  76.3656560  60.6375044  36.1451061
  75.7953811  61.5106805  37.2424806  73.7353663  63.1079684  56.4116179
  74.6044823  63.2820336  56.0502814  73.2560415  63.9274101  56.2891909
  67.9039843  70.2276785  48.0905613  68.8067090  70.2600395  48.4072108
  67.6777213  69.2977236  48.1051949  69.6593445  68.9807771  44.7515692
  68.7089076  68.9809633  44.6380064  69.9625931  68.2340506  44.2351726
  73.5456001  46.8981658  40.9193872  72.7788397  46.3440144  41.0650554
  73.9566706  46.9703526  41.7808023  85.3946139  74.8168310  45.8161454
  86.0324549  74.6975057  45.1124794  85.2766982  75.7649154  45.8749406
  82.2035845  74.7695738  45.7522979  81.8654357  74.6536803  44.8643514
  83.0725613  74.3686903  45.7323985  78.0622661  76.6231214  41.7419870
  77.4987526  76.5321151  40.9736157  77.9475056  75.8031119  42.2222362
  82.6855628  75.9230590  51.7109184  82.6744269  75.5283388  50.8389688
  82.8476268  75.1896662  52.3042956  75.6087093  78.1182406  44.5804090
  76.4008385  77.7773231  44.1650389  75.8483743  78.2277381  45.5006243
  77.5677847  77.3791319  37.4521469  78.3408723  76.8320306  37.3134345
  77.9203245  78.2435569  37.6635930  79.4062889  78.7067702  50.6588368
  79.1152755  79.6113332  50.5435035  80.0419874  78.7484229  51.3732438
  80.3319096  76.0844550  47.2489728  80.9282668  75.8600572  46.5346691
  80.3894068  75.3429296  47.8515176  79.9044124  73.5383985  35.0839919
  80.1569645  73.0165507  34.3223382  78.9668684  73.3750131  35.1866602
  84.9487407  72.5419764  42.8914662  85.7350496  72.1239187  42.5405079
  85.2126112  73.4465856  43.0596310  79.6240413  75.4412091  37.2864294
  79.5076671  74.7656995  37.9545378  79.7342673  74.9544465  36.4696447
  81.9671954  74.9022238  40.9910983  81.6030161  74.3752859  41.7023904
  82.8239070  74.5120707  40.8177468  87.8721255  66.1916571  48.2542249
  87.5404580  67.0611982  48.0303464  87.2766868  65.8752855  48.9336280
  81.6077441  69.9312138  35.9872332  81.7751843  70.7992375  36.3542803
  81.4174610  70.0939420  35.0633621  77.8165256  74.8442914  43.6874866
  76.8915752  74.7119128  43.8952558  78.0649669  75.6237133  44.1844809
  87.7649918  70.9111657  45.3335599  86.8566795  70.8427066  45.0394360
  87.7137514  71.3883602  46.1617425  81.5866662  72.3869796  36.9718998
  81.4666287  72.8326846  37.8104479  80.8919250  72.7355113  36.4132536
  75.1774067  74.4876187  44.5218655  75.3066448  74.7410666  45.4358067
  74.4971518  75.0803895  44.2023310  81.8390784  72.3301303  53.2770496
  81.0624118  72.8895223  53.2673361  82.4781347  72.8158086  53.7985367
  87.2851728  72.8591269  37.7999332  88.1969584  73.0918656  37.6247030
  86.7761375  73.4428313  37.2374411  80.0937156  75.1386756  52.8388463
  80.8351841  75.6771800  52.5623287  79.3874142  75.7653045  52.9960015
  85.5692496  77.2815897  51.4360625  85.9775852  76.8398307  50.6915257
  84.8469757  76.7068524  51.6894818  81.9223566  72.2188503  48.8094182
  82.7684761  72.6427917  48.9528831  81.8622203  71.5622128  49.5032745
  85.0723011  69.8792872  50.4675356  84.8283943  70.6334932  49.9309631
  85.3482942  70.2578219  51.3022603  84.6287703  69.0349305  46.0489193
  83.7672182  69.3330558  46.3405931  84.6550138  69.2519704  45.1170226
  81.4449272  77.5791495  42.4562999  81.9087618  77.8579198  41.6667621
  81.1806070  76.6774940  42.2736090  78.3373353  77.1262977  45.3942762
  78.9074710  77.5550245  44.7560247  78.9281465  76.8445562  46.0926948
  80.3818158  73.7014648  39.2652564  81.0842202  74.1535691  39.7326490
  80.0498787  73.0598467  39.8932457  78.8298520  72.2926404  53.6403773
  78.1997180  72.9742685  53.8739170  78.7234608  72.1809486  52.6956912
  74.1243492  71.9598200  44.5669698  73.3342546  72.2155729  44.0909808
  74.6154740  72.7746538  44.6721738  76.0758238  72.3242780  41.5253174
  75.2789401  72.4361474  42.0436670  75.8483830  72.6629432  40.6594065
  81.9063905  78.8487483  49.4735689  81.9708338  79.3107890  50.3093861
  81.1974829  78.2184848  49.6017999  72.4081195  72.2128691  46.9984688
  72.6589234  73.0975701  47.2642264  72.9440744  72.0333292  46.2259780
  78.1079263  66.5947170  56.0029025  77.7146208  66.0413369  56.6776669
  78.9245403  66.9057749  56.3935542  75.0741320  78.0331028  39.9142594
  75.5865841  78.8274279  40.0648159  75.7264033  77.3357319  39.8476196
  76.8836205  81.1496785  41.9965348  77.0602833  82.0714749  41.8086331
  77.6793039  80.8355204  42.4259727  81.0247224  68.0105049  53.5949281
  81.7656937  68.6112202  53.5153744  81.2565146  67.2682687  53.0367324
  76.1688562  73.1961417  51.8727511  76.0542077  72.2946674  52.1734610
  75.3133079  73.4425113  51.5212327  81.8034692  78.9326086  52.3419921
  82.3363028  78.1714374  52.1119229  81.2748773  78.6399738  53.0844075
  84.9704387  64.0386152  47.8713563  84.6268656  64.9287794  47.7952673
  85.3383349  63.8487810  47.0083148  73.0390237  76.3619683  40.6902165
  73.8765459  76.7716691  40.4735873  73.2168505  75.4219125  40.6602359
  84.9354669  74.0294763  36.3785998  84.4201293  74.7999368  36.6174385
  84.6631978  73.3559899  37.0019059  82.5201780  68.8744464  41.4371236
  81.6643377  68.4851314  41.2576875  82.9328732  68.9536425  40.5771022
  84.0500927  66.4090807  45.8362796  83.5465723  66.3720943  45.0230601
  84.3431534  67.3183550  45.8959453  80.2943813  66.4929537  44.8428978
  81.1596810  66.2972346  44.4834867  80.3621322  66.2639889  45.7698334
  84.7240972  71.9021855  38.2045779  84.4191108  72.2168005  39.0555922
  85.6771415  71.9803275  38.2473112  83.1687404  78.0612079  39.8538733
  82.6408766  77.3264838  39.5411970  82.6674907  78.8386755  39.6078701
  77.9006132  68.7231745  42.2145345  78.4749884  68.5006927  41.4818538
  78.4877114  68.7920440  42.9673946  86.9585709  74.6105472  43.0209721
  87.4717591  75.2435464  43.5231431  87.6086933  74.0106667  42.6553081
  78.2275719  70.7536206  36.2341230  77.3913031  71.0910893  36.5550505
  78.0880489  70.6185186  35.2968367  80.2028800  65.5972994  40.9420414
  79.5493212  65.2822011  40.3177029  80.1609274  64.9748734  41.6680237
  81.3140004  75.8792289  32.8573706  80.4067066  75.6481542  33.0564855
  81.8111036  75.0829908  33.0447688  83.4366540  72.0854927  45.2668062
  82.5189101  72.3069874  45.1089750  83.8526684  72.1601238  44.4079769
  84.2201588  73.4846343  40.3970742  84.9673407  73.9967740  40.0877864
  84.4893177  73.1630396  41.2575135  82.4928238  75.9804884  37.3797696
  81.5839457  75.6963917  37.4770166  82.5223322  76.4003962  36.5201003
  86.6680425  70.5203459  42.3789531  85.9303182  70.0080846  42.7099774
  86.9207198  70.0803841  41.5672808  86.7692052  63.2979711  42.9731300
  87.0750929  62.4377075  42.6857216  87.4944657  63.8897332  42.7730294
  73.0616408  73.7010398  41.3612898  72.8640808  73.1079759  40.6363965
  72.5063072  73.3962608  42.0788837  81.0413132  73.5933504  43.4807492
  81.0961742  72.6407341  43.4049968  80.2304334  73.7492944  43.9648790
  82.1904326  77.5213628  34.7185775  81.7523756  76.8049486  34.2591412
  82.9314767  77.7489742  34.1570866  78.9805492  72.2110564  41.2397870
  78.1673357  72.5104735  41.6463063  79.4764486  71.8166253  41.9572353
  84.5779704  72.6752389  50.0712764  84.9329091  72.9023862  50.9307230
  85.2251835  73.0070765  49.4490020  78.4719567  69.7828920  46.8559105
  79.1118946  69.6417679  46.1582069  77.6397097  69.4963433  46.4797707
  79.2479871  79.0831350  42.9694098  80.0420469  78.5881670  42.7676673
  78.5371563  78.5549213  42.6061803  75.5562634  73.2274432  39.0453850
  74.6260222  73.1658887  39.2623813  75.6520106  72.7050385  38.2490492
  75.4748183  69.7529245  41.6332092  75.7355000  70.6674578  41.5241253
  76.2965355  69.2853687  41.7828705  76.9473108  71.1667002  48.8030917
  77.6196162  70.9584364  48.1543566  76.1202895  70.9689088  48.3636149
  82.8498680  67.7928943  50.8196578  82.2026595  68.4918892  50.7261054
  83.6199696  68.2265087  51.1872826  83.0262815  75.6309708  48.8793397
  83.9554875  75.7820867  48.7062365  82.6053845  75.7193729  48.0242044
  81.8251147  79.6560372  46.6491935  81.6862232  79.2879157  47.5217873
  81.0365743  80.1708012  46.4775893  77.3500606  74.4409605  49.5633354
  77.2120404  73.7089844  50.1644893  78.2605529  74.3518505  49.2817542
  86.3115553  76.3798009  34.3117832  85.6944724  75.6544837  34.2150885
  85.8432042  77.1407369  33.9684907  79.9782906  74.1529564  49.0517033
  80.6882525  73.5122756  49.0103652  79.9352214  74.4042459  49.9743214
  78.6911840  71.1394782  50.8712673  78.1549197  70.6885521  51.5234269
  78.1028549  71.2740691  50.1283137  78.1014099  70.5983433  33.4339137
  77.2243566  70.4772234  33.0701383  78.5771852  69.8069512  33.1818025
  69.6216239  75.3860593  43.5280644  70.3087279  75.0722323  42.9401659
  69.4664368  76.2901958  43.2547895  74.4250962  70.2750790  47.9565667
  74.3409150  69.6676459  47.2216077  73.6033668  70.7659808  47.9575164
  84.5974675  68.7604353  43.3235863  85.0943375  68.0074316  43.0036933
  83.8261657  68.7968670  42.7579072  81.1809644  70.9021736  43.0507547
  80.8107432  70.3492777  43.7388453  81.6768737  70.2979870  42.4982547
  87.0393670  65.7273947  45.4715221  86.1256750  65.9578174  45.6397428
  87.4686772  65.8112391  46.3229254  86.8100129  73.9163839  47.9715115
  86.1571579  74.1639746  47.3167568  87.1880509  73.1027977  47.6377593
  82.8587702  74.6583650  54.4581152  82.1828339  74.5577779  55.1283528
  83.6815336  74.5022864  54.9217150  74.6066561  80.8955586  47.0793668
  75.1919998  80.1499274  47.2121572  74.4091399  81.2059543  47.9630332
  69.1984215  73.4661187  45.7998111  69.2368315  72.9324777  46.5935229
  68.6924508  72.9396392  45.1809088  76.5774978  68.3125727  49.2960653
  76.6416304  69.1740558  48.8838051  76.5142098  67.6999729  48.5633012
  76.0527250  70.3848860  52.9433687  76.6799289  70.0025937  53.5571212
  75.1955169  70.1663062  53.3089380  72.8292793  72.1925289  38.8752042
  73.1246234  71.2835967  38.8219096  71.9280829  72.1713028  38.5533045
  76.3587040  70.2681285  44.8579591  75.6373626  70.8817253  44.7187064
  77.1480296  70.8039050  44.7796237  79.1613354  67.6035712  51.1320243
  79.6847755  67.8498008  51.8946552  78.9425687  68.4355747  50.7123380
  74.5580635  69.8739386  38.9991367  74.2293341  68.9936765  38.8166473
  74.9120005  69.8187055  39.8867757  77.6722458  70.1612356  39.3666845
  78.0118530  70.6898277  38.6445453  78.1194578  70.4992762  40.1425412
  80.3665899  68.5449407  48.8169913  80.0262719  67.7457220  49.2190593
  79.6604905  68.8451118  48.2446746  81.0182370  65.6298719  47.2697236
  81.8408440  65.1559198  47.1476126  81.2620434  66.4089203  47.7695922
  79.6590605  68.6586978  37.5660138  80.3798967  69.0368231  37.0623855
  79.0355909  69.3775855  37.6695116  83.8021728  69.3632127  38.5018470
  84.0185342  70.2456765  38.2007298  83.3215795  68.9718340  37.7724112
  78.5420949  72.3217840  45.0789215  78.3965530  72.6358143  45.9713496
  78.0646153  72.9402740  44.5260113  80.4017332  69.3120388  45.1270104
  80.3878901  68.4161481  44.7902402  81.1189760  69.3191052  45.7608390
  82.2543463  69.7457728  47.1723232  81.9961241  70.6674799  47.1707562
  81.7228503  69.3488163  47.8623696  73.0166611  74.8623184  48.0176876
  72.4720079  75.6382992  48.1497150  73.8945961  75.2093989  47.8595997
  79.8054228  68.1934768  40.3957674  79.9270139  67.2651414  40.5948562
  79.5156270  68.2073454  39.4835990  82.6745418  65.8789679  43.5324394
  82.6967115  65.9429012  42.5776374  83.0913477  65.0394187  43.7264900
  73.8032633  73.9893081  50.9107033  73.0614369  74.1375716  51.4971663
  73.4825378  74.2501346  50.0473782  74.2489247  81.8758509  42.9417427
  75.0747267  81.5762281  42.5616071  73.8983299  81.1066132  43.3907216
  79.2170780  81.2284978  45.0115101  78.5950789  80.5655683  44.7117329
  79.8875647  81.2546109  44.3288749  72.4497852  79.7944836  43.9006361
  71.6129760  79.3667010  43.7190362  72.4221497  79.9877279  44.8377152
  79.2895308  69.7066766  54.6047607  79.3383463  70.5828888  54.2225377
  79.8317822  69.1644159  54.0319250  78.7784287  79.7788901  38.4873562
  78.9272407  80.4624365  37.8340234  79.5850730  79.7593991  39.0023017
  87.1851791  73.0831283  52.5140779  88.0861653  72.9437748  52.2224777
  87.2599765  73.2485738  53.4538957  81.5194596  70.4598138  51.3593966
  80.6497905  70.7531704  51.0876554  81.7554076  71.0438583  52.0801229
  76.5336920  75.8054079  39.4934631  76.2882962  74.9016409  39.6914841
  76.7032835  75.8071229  38.5514109  84.2233630  66.6777755  48.8759386
  84.7415574  67.4138782  48.5505875  83.8688763  66.9841748  49.7106145
  75.8032568  71.5382436  36.9920792  75.1101812  71.6126791  36.3360828
  75.5584319  70.7742780  37.5142309  84.4746224  63.0978037  44.3960283
  84.7547978  62.4301227  45.0220709  85.2596831  63.2907133  43.8834947
  86.3669462  68.6051255  48.3291259  85.7719394  68.8856267  47.6337747
  86.0819159  69.0945156  49.1008000  82.6626491  73.6097844  33.3001362
  83.6085596  73.4804052  33.3689780  82.2840736  72.8712506  33.7770790
  82.5465184  77.6615590  54.7602018  83.4668193  77.8394189  54.9542065
  82.5114767  76.7171636  54.6081718  80.8469408  71.5347821  33.2356247
  79.9400864  71.2380933  33.3118960  81.1245389  71.2377639  32.3690533
  71.7647349  72.8554184  43.6855293  71.4450133  72.0019492  43.3929667
  71.2180777  73.0702762  44.4413260  75.5427256  75.5716625  47.4024800
  75.7613266  76.5033733  47.4212833  75.9553030  75.2124599  48.1879603
  82.4631474  66.0784710  39.3900488  81.6532202  65.7331795  39.7655734
  83.1515891  65.7692254  39.9788100  84.3922022  65.1562757  41.0124785
  84.9453061  65.5758210  41.6714808  84.6292109  64.2298505  41.0547741
  80.4155121  71.1449831  56.7927549  80.3151848  72.0944188  56.7239640
  80.1976663  70.8168070  55.9203619  79.6168193  68.3934756  33.3768226
  80.4787357  68.7189654  33.6364043  79.8018537  67.6066252  32.8641292
  71.6335609  76.4757095  45.6548415  70.9399080  76.0611048  45.1418369
  72.3808600  76.5177632  45.0581834  87.7700829  67.2663282  40.5203449
  87.1899498  67.9248086  40.1381501  87.5036762  66.4440627  40.1090866
  86.2204396  66.6668340  42.7224769  86.7204174  66.7784874  41.9139088
  86.8640004  66.3629393  43.3625578  80.2786391  74.5746970  55.6092610
  79.7953473  75.3747330  55.8156499  80.3647331  74.5854914  54.6560054
  73.5472351  76.4075349  43.5314430  73.5243039  76.5063036  42.5796313
  73.8572988  77.2540500  43.8531596  76.2059729  78.4651504  47.6461044
  77.1602983  78.4335447  47.5790976  76.0072253  78.0042128  48.4611270
  76.7959111  77.0352620  50.2131842  77.6152000  77.5296699  50.2366679
  77.0695919  76.1184588  50.1849409  86.5525707  69.4263373  39.5759797
  85.6651562  69.7113023  39.3579992  86.9679696  69.2657136  38.7287074
  74.5609958  84.0071124  44.6631242  74.4264426  83.2471525  44.0969240
  74.1442020  84.7312024  44.1960031  86.5266731  74.9417909  39.7910087
  86.4701932  75.3986460  38.9517720  87.0795073  74.1808593  39.6132930
  72.0494025  71.3690754  50.9124039  72.6952889  70.8589708  51.4011264
  71.8411176  72.1059436  51.4867464  80.5697636  65.6330799  36.6647935
  80.5576306  66.5772639  36.8216206  81.4621058  65.4500944  36.3707396
  84.3849755  62.2273575  40.9193872  83.6182151  61.6732062  41.0650554
  84.7960460  62.2995444  41.7808023  76.3891516  68.5158371  55.0099053
  77.2522978  68.1595176  55.2202378  75.8156927  68.1772266  55.6974457
  35.9898537   0.8467889  27.3454436  35.9122567   1.7975714  27.4242917
  35.3860181   0.5013762  28.0029363  38.2636906  -3.7949958  26.0659976
  38.1282581  -2.9498422  26.4944824  38.8046719  -3.5930680  25.3025910
  33.5261188  -3.1608763  28.7210654  33.7027817  -2.2390799  28.5331638
  34.3218022  -3.4750344  29.1505034  39.8905383  -3.1726391  40.1960318
  39.4469237  -3.9590013  39.8781223  40.5522596  -2.9847241  39.5304209
  34.6492504  -1.6430590  34.7220997  35.1999929  -1.7713526  33.9497990
  33.8103980  -1.3435701  34.3715889  40.8633067   0.2784248  22.5015699
  40.1894765   0.5815945  23.1100657  41.2498889   1.0813328  22.1521156
  42.8105428  -2.8817578  28.8083989  43.1028402  -2.3212521  28.0896354
  43.3204048  -2.5889017  29.5637148  37.7739053  -2.1037227  29.8977442
  37.7315232  -1.8776381  28.9685974  38.6901752  -2.3373852  30.0463243
  40.7099698  -2.8456102  34.0451772  40.7636721  -2.2765166  34.8129488
  39.8414480  -2.6754217  33.6805809  39.0624282   0.4463921  24.7162778
  39.2376037  -0.0248036  25.5308401  38.3757070   1.0729687  24.9444039
  33.6285367   3.5953283  31.4902638  33.8681965   4.2271807  32.1681657
  32.7854564   3.2441323  31.7767997  38.1413229  -0.5967594  33.8944142
  38.0683400   0.2087377  34.4063447  37.6990622  -0.3975628  33.0692164
  37.9303009  -1.3595824  27.4046964  37.1470530  -0.8174144  27.4985188
  38.6295754  -0.8421845  27.8041205  40.6011912  -0.6980760  36.0502301
  41.3139885  -0.0633295  35.9778202  40.1101941  -0.6016894  35.2342303
  35.6523826  -2.9486317  36.8707872  36.3533285  -2.3149834  37.0237266
  35.1818941  -2.6071585  36.1103511  40.4132286  -0.3582016  28.7988592
  40.5954680  -1.1760360  29.2616345  41.2365272  -0.1414324  28.3613482
  40.7474451  -1.4313831  26.0603641  41.2762218  -1.9421376  25.4473803
  41.0102671  -1.7471301  26.9249174  31.2491544  -3.4149962  33.8038974
  31.8344981  -4.1606274  33.9366879  31.0516383  -3.1046005  34.6875638
  34.1030199  -0.3798714  28.8201417  33.4340575   0.1047413  28.3365457
  33.9643069  -0.1329494  29.7344795  38.2435468   1.6545029  35.4184075
  38.7953776   1.8176651  36.1833160  38.5841661   2.2449467  34.7464100
  41.3803855  -0.3972995  32.4047757  41.2554995  -1.1983255  31.8958703
  42.0382946   0.0973198  31.9161727  40.4485197  -2.8011259  30.2331660
  40.3010159  -3.7294552  30.4139230  41.2738690  -2.7791168  29.7488735
  44.0519319  -1.9782700  31.3196532  44.9765866  -2.1839839  31.1820983
  43.8834622  -2.2266299  32.2285874  43.8414635  -1.4597033  26.6758624
  44.0151512  -2.0250610  25.9232476  44.3343526  -0.6596138  26.4938114
  38.3901279  -0.7796489  37.4332729  38.6988406  -1.0247342  38.3055429
  39.1876761  -0.5749851  36.9451600  38.4121891   1.3741420  29.6638106
  37.9726882   0.8817799  30.3570963  39.1630008   0.8314388  29.4230181
  30.8914230  -2.4347039  29.6662734  31.7172250  -2.7343267  29.2861378
  30.5408282  -3.2039416  30.1152523  35.8595763  -3.0820571  31.7360408
  35.2375773  -3.7449866  31.4362636  36.5300630  -3.0559439  31.0534055
  29.0922835  -4.5160712  30.6251668  28.2554744  -4.9438538  30.4435669
  29.0646481  -4.3228269  31.5622459  35.4209270  -4.5316647  25.2118868
  35.5697391  -3.8481183  24.5585541  36.2275714  -4.5511557  25.7268324
  38.9204676  -2.0368517  22.6830616  38.3478643  -1.4178330  22.2301088
  39.4937469  -1.4869155  23.2170538  42.1401936  -1.7531367  23.8139198
  43.0732609  -1.8185805  24.0172073  42.0525148  -0.9175100  23.3553731
  32.8484712  -5.8454044  34.3706351  33.8027966  -5.8770102  34.3036282
  32.6497236  -6.3063420  35.1856577  31.2034941  -0.3034424  31.3876549
  31.0689409  -1.0634024  30.8214547  30.7867003   0.4206475  30.9205337
  34.3604067   0.5934893  31.5994991  34.2436451   1.5380325  31.4973681
  33.5396513   0.2908454  31.9880790  35.3858581   1.2463155  34.8150920
  36.2885828   1.2786765  35.1317415  35.1595951   0.3163605  34.8297255
  37.1412183  -0.0005859  31.4760998  36.1907814  -0.0003997  31.3625371
  37.4444669  -0.7473124  30.9597033  52.8764877   5.8354679  32.5406761
  53.5143287   5.7161427  31.8370101  52.7585719   6.7835523  32.5994713
  49.6854583   5.7882108  32.4768285  49.3473094   5.6723172  31.5888820
  50.5544351   5.3873273  32.4569291  45.5441399   7.6417584  28.4665176
  44.9806264   7.5507521  27.6981464  45.4293794   6.8217488  28.9467669
  50.1674366   6.9416959  38.4354491  50.1563007   6.5469758  37.5634995
  50.3295005   6.2083032  39.0288262  43.0905830   9.1368776  31.3049397
  43.8827122   8.7959600  30.8895696  43.3302481   9.2463751  32.2251550
  51.1240957  11.3088552  23.7779641  50.4728937  11.8942632  23.3913655
  51.9185320  11.8394747  23.8374679  45.0496584   8.3977689  24.1766776
  45.8227460   7.8506676  24.0379651  45.4021983   9.2621938  24.3881237
  46.8881627   9.7254071  37.3833675  46.5971493  10.6299702  37.2680341
  47.5238611   9.7670599  38.0977744  47.8137834   7.1030920  33.9735034
  48.4101406   6.8786942  33.2591997  47.8712805   6.3615665  34.5760482
  47.3862862   4.5570355  21.8085225  47.6388383   4.0351876  21.0468688
  46.4487421   4.3936500  21.9111909  52.4306145   3.5606133  29.6159969
  53.2169234   3.1425556  29.2650386  52.6944849   4.4652225  29.7841617
  52.6016222   8.9978984  24.3148625  51.9662055   9.0713610  25.0269530
  52.2713629   9.5872582  23.6367705  57.8314572   3.4981367  30.5192947
  58.5639744   2.9280583  30.7530777  57.0753928   3.1102967  30.9599453
  47.1059151   6.4598461  24.0109600  46.9895409   5.7843364  24.6790685
  47.2161411   5.9730835  23.1941753  49.4490692   5.9208608  27.7156290
  49.0848899   5.3939229  28.4269211  50.3057808   5.5307077  27.5422775
  49.0896179   0.9498508  22.7117638  49.2570581   1.8178744  23.0788109
  48.8993348   1.1125789  21.7878927  51.8471512   9.4115487  34.3783469
  51.5472235  10.3140525  34.2699276  51.5022572   9.1447670  35.2304621
  45.2983994   5.8629283  30.4120173  44.3734490   5.7305498  30.6197865
  45.5468407   6.6423503  30.9090115  55.2468656   1.9298027  32.0580906
  54.3385533   1.8613435  31.7639667  55.1956252   2.4069972  32.8862731
  49.0685400   3.4056165  23.6964305  48.9485025   3.8513216  24.5349785
  48.3737988   3.7541483  23.1377843  42.6592805   5.5062557  31.2463962
  42.7885186   5.7597036  32.1603374  41.9790256   6.0990265  30.9268617
  46.8292292  16.1759807  27.3454436  46.7516322  17.1267632  27.4242917
  46.2253935  15.8305679  28.0029363  49.3209522   3.3487672  40.0015803
  48.5442856   3.9081593  39.9918668  49.9600085   3.8344455  40.5230673
  54.7670466   3.8777638  24.5244639  55.6788322   4.1105025  24.3492337
  54.2580113   4.4614683  23.9619718  47.5755894   6.1573126  39.5633770
  48.3170578   6.6958170  39.2868594  46.8692879   6.7839414  39.7205322
  53.0511234   8.3002266  38.1605932  53.4594590   7.8584677  37.4160564
  52.3288495   7.7254894  38.4140124  49.4042304   3.2374873  35.5339489
  50.2503499   3.6614287  35.6774138  49.3440941   2.5808497  36.2278052
  53.3740048   8.8603457  31.9158220  52.7448911   9.0249171  31.2134288
  52.9865710   9.2745066  32.6869185  57.2529280   9.7957895  29.2702584
  56.5680318  10.1756796  28.7199618  57.3373129  10.4053221  30.0034532
  52.5541749   0.8979241  37.1920662  52.3102681   1.6521302  36.6554938
  52.8301679   1.2764589  38.0267909  54.5080212   7.4417854  35.8697928
  54.7197107   8.0849614  35.1932309  54.4609960   6.6080170  35.4019858
  48.9268010   8.5977865  29.1808306  49.3906356   8.8765568  28.3912928
  48.6624808   7.6961309  28.9981396  45.8192091   8.1449346  32.1188069
  46.3893448   8.5736615  31.4805553  46.4100203   7.8631931  32.8172255
  47.8636896   4.7201017  25.9897871  48.5660939   5.1722061  26.4571797
  47.5317525   4.0784836  26.6177764  46.3117258   3.3112774  40.3649080
  45.6815918   3.9929055  40.5984477  46.2053346   3.1995856  39.4202218
  41.6062230   2.9784570  31.2915004  40.8161284   3.2342098  30.8155115
  42.0973477   3.7932908  31.3967045  55.6226040  10.3189809  34.0420285
  56.4443483   9.9169996  33.7602967  55.6188443  10.2158043  34.9936401
  43.5576975   3.3429149  28.2498481  42.7608139   3.4547843  28.7681977
  43.3302568   3.6815801  27.3839372  49.3882643   9.8673852  36.1980996
  49.4527076  10.3294260  37.0339167  48.6793567   9.2371217  36.3263305
  39.8899933   3.2315060  33.7229995  40.1407971   4.1162070  33.9887571
  40.4259481   3.0519662  32.9505087  63.7132033   6.6628558  30.3905257
  62.9595741   6.0935956  30.2349261  63.8479574   6.6291222  31.3375891
  49.1030661  11.5341960  26.0659976  48.9676336  12.3793496  26.4944824
  49.6440473  11.7361238  25.3025910  42.5560058   9.0517398  26.6387901
  43.0684579   9.8460648  26.7893466  43.2082771   8.3543688  26.5721502
  44.3654943  12.1683154  28.7210654  44.5421571  13.0901119  28.5331638
  45.1611776  11.8541573  29.1505034  43.6507299   4.2147786  38.5972817
  43.5360815   3.3133043  38.8979916  42.7951817   4.4611483  38.2457634
  50.7299137  12.1565526  40.1960318  50.2862991  11.3701905  39.8781223
  51.3916351  12.3444677  39.5304209  45.4886258  13.6861328  34.7220997
  46.0393683  13.5578391  33.9497990  44.6497734  13.9856217  34.3715889
  52.8280375  12.4368326  38.2241719  52.8098851  13.2577207  37.7321988
  53.7500295  12.3122402  38.4491860  49.2853429   9.9512456  39.0665228
  49.8181766   9.1900744  38.8364536  48.7567510   9.6586108  39.8089382
  40.5208975   7.3806052  27.4147472  41.3584197   7.7903061  27.1981179
  40.6987243   6.4405494  27.3847665  52.4173407   5.0481133  23.1031305
  51.9020030   5.8185738  23.3419692  52.1450715   4.3746269  23.7264366
  50.0020518  -0.1069166  28.1616543  49.1462114  -0.4962316  27.9822182
  50.4147470  -0.0277206  27.3016328  57.3907681   7.8013488  25.0384478
  56.6137124   7.4624647  24.5939640  58.0699162   7.8066111  24.3639443
  52.2059710   2.9208225  24.9291086  51.9009846   3.2354374  25.7801229
  53.1590152   2.9989645  24.9718419  50.6506142   9.0798448  26.5784040
  50.1227504   8.3451208  26.2657277  50.1493645   9.8573125  26.3324008
  55.6298988   7.2747469  31.6951086  54.9722663   7.9646730  31.7831215
  56.4339387   7.6643901  32.0385072  45.3824870  -0.2581885  28.9390651
  45.9568622  -0.4806704  28.2063844  45.9695852  -0.1893191  29.6919252
  54.4404447   5.6291841  29.7455028  54.9536329   6.2621833  30.2476737
  55.0905671   5.0293037  29.3798388  45.7094457   1.7722576  22.9586536
  44.8731769   2.1097262  23.2795811  45.5699226   1.6371555  22.0213673
  48.7958742   6.8978659  19.5819013  47.8885804   6.6667912  19.7810162
  49.2929774   6.1016278  19.7692994  51.7026821  15.6076166  22.5015699
  51.0288520  15.9107863  23.1100657  52.0892643  16.4105246  22.1521156
  50.9185278   3.1041297  31.9913368  50.0007839   3.3256244  31.8335056
  51.3345421   3.1787608  31.1325076  51.7020326   4.5032713  27.1216049
  52.4492144   5.0154110  26.8123171  51.9711915   4.1816765  27.9820442
  49.9746976   6.9991253  24.1043003  49.0658195   6.7150286  24.2015473
  50.0042059   7.4190332  23.2446310  55.2066243  10.6097843  27.8734170
  54.7528570   9.7688753  27.9299361  54.5760210  11.2459241  28.2108951
  53.6499182  12.4474340  28.8083989  53.9422157  13.0079397  28.0896354
  54.1597803  12.7402901  29.5637148  40.5435146   4.7196768  28.0858205
  40.3459546   4.1266128  27.3609272  39.9881810   4.4148978  28.8034144
  48.5231870   4.6119874  30.2052798  48.5780480   3.6593710  30.1295275
  47.7123072   4.7679313  30.6894097  49.6723063   8.5399997  21.4431081
  49.2342493   7.8235856  20.9836719  50.4133504   8.7676112  20.8816173
  46.4624230   3.2296934  27.9643177  45.6492095   3.5291104  28.3708369
  46.9583224   2.8352623  28.6817659  48.6132808  13.2254691  29.8977442
  48.5708986  13.4515537  28.9685974  49.5295506  12.9918065  30.0463243
  52.0598441   3.6938758  36.7958071  52.4147829   3.9210231  37.6552537
  52.7070573   4.0257135  36.1735326  57.7896178   6.8157194  27.5007400
  57.6514077   7.0058790  26.5728589  57.4332397   7.5776577  27.9575451
  45.9538304   0.8015289  33.5804412  46.5937684   0.6604048  32.8827375
  45.1215835   0.5149803  33.2043014  57.8165558   8.8833721  32.5118671
  58.2502065   8.7909010  33.3601725  58.5297139   8.8591222  31.8738687
  46.7298608  10.1017720  29.6939404  47.5239207   9.6068040  29.4921979
  46.0190301   9.5735583  29.3307110  51.5493453  12.4835815  34.0451772
  51.6030475  13.0526752  34.8129488  50.6808234  12.6537700  33.6805809
  43.0381372   4.2460801  25.7699157  42.1078960   4.1845257  25.9869119
  43.1338844   3.7236754  24.9735798  42.9566921   0.7715614  28.3577399
  43.2173738   1.6860948  28.2486559  43.7784093   0.3040057  28.5074012
  44.4291846   2.1853371  35.5276223  45.1014900   1.9770734  34.8788872
  43.6021633   1.9875457  35.0881456  58.6781107   8.9257422  35.0451557
  58.8716998   9.8303232  35.2910832  58.5781726   8.4664841  35.8790142
  53.7396216   9.0764165  40.6192437  53.5881723   8.8474716  39.7022521
  53.7300896  10.0334766  40.6323782  50.5081553   6.6496077  35.6038704
  51.4373613   6.8007237  35.4307671  50.0872583   6.7380098  34.7487350
  49.3069884  10.6746742  33.3737242  49.1680970  10.3065526  34.2463180
  48.5184481  11.1894381  33.2021199  49.9018036  15.7755838  24.7162778
  50.0769792  15.3043881  25.5308401  49.2150824  16.4021604  24.9444039
  50.8575099  10.0528344  30.7626079  50.5224932  10.0129114  31.6583729
  50.3579045   9.3873060  30.2896490  44.8319343   5.4595974  36.2878660
  44.6939141   4.7276213  36.8890200  45.7424267   5.3704875  36.0062848
  53.7934291   7.3984379  21.0363139  53.1763462   6.6731207  20.9396192
  53.3250780   8.1593739  20.6930213  47.4601644   5.1715934  35.7762340
  48.1701263   4.5309126  35.7348959  47.4170952   5.4228829  36.6988521
  55.4488423  12.1083287  38.6968919  55.3900969  11.4242507  38.0299502
  55.8507941  12.8502277  38.2449545  46.1730578   2.1581152  37.5957980
  45.6367935   1.7071890  38.2479576  45.5847287   2.2927060  36.8528444
  44.4679122  18.9245201  31.4902638  44.7075720  19.5563725  32.1681657
  43.6248318  18.5733241  31.7767997  45.5832837   1.6169803  20.1584443
  44.7062303   1.4958604  19.7946690  46.0590590   0.8255881  19.9063332
  55.4505830  10.0722871  36.9282899  54.5632609   9.7348793  37.0509298
  56.0204381   9.3405902  37.1651664  37.1034977   6.4046963  30.2525950
  37.7906017   6.0908693  29.6646966  36.9483106   7.3088327  29.9793202
  41.9069699   1.2937159  34.6810974  41.8227888   0.6862829  33.9461384
  41.0852406   1.7846178  34.6820470  48.9806983  14.7324323  33.8944142
  48.9077155  15.5379295  34.4063447  48.5384377  14.9316289  33.0692164
  48.7696763  13.9696093  27.4046964  47.9864285  14.5117774  27.4985188
  49.4689508  14.4870073  27.8041205  59.9323171   5.4831088  31.6899461
  59.9213047   6.3655804  31.3193394  59.0640550   5.1302639  31.4953998
  51.4405667  14.6311157  36.0502301  52.1533639  15.2658622  35.9778202
  50.9495696  14.7275023  35.2342303  53.1623194   8.5362410  27.6219593
  52.2279473   8.6563873  27.4524297  53.3399862   7.6334877  27.3579602
  48.6628382   1.9208106  29.7752854  48.2926169   1.3679146  30.4633759
  49.1587474   1.3166239  29.2227854  56.5495745   4.3779729  28.1569627
  57.0156197   5.2107721  28.0829929  57.0003246   3.9124711  28.8614885
  46.4917580  12.3805601  36.8707872  47.1927040  13.0142084  37.0237266
  46.0212695  12.7220332  36.1103511  54.6171976  10.7223551  25.1555779
  54.8931820  10.6080145  26.0649653  53.7476475  10.3241036  25.1167952
  54.2918866   4.9350208  34.6960422  53.6390317   5.1826116  34.0412875
  54.6699246   4.1214347  34.3622899  51.2526040  14.9709902  28.7988592
  51.4348435  14.1531557  29.2616345  52.0759026  15.1877594  28.3613482
  51.5868206  13.8978087  26.0603641  52.1155972  13.3870541  25.4473803
  51.8496425  13.5820617  26.9249174  50.3406439   5.6770019  41.1826459
  49.6647076   5.5764149  41.8528834  51.1634073   5.5209233  41.6462456
  42.0885299  11.9141956  33.8038974  42.6738735  11.1685644  33.9366879
  41.8910137  12.2245913  34.6875638  44.9423954  14.9493203  28.8201417
  44.2734329  15.4339331  28.3365457  44.8036823  15.1962424  29.7344795
  36.6802953   4.4847556  32.5243418  36.7187053   3.9511147  33.3180536
  36.1743246   3.9582762  31.9054395  49.0829222  16.9836947  35.4184075
  49.6347530  17.1468568  36.1833160  49.4235416  17.5741385  34.7464100
  44.0593716  -0.6687903  36.0205960  44.1235042   0.1926928  35.6083358
  43.9960836  -1.2813902  35.2878318  43.5345988   1.4035229  39.6678994
  44.1618027   1.0212307  40.2816518  42.6773907   1.1849431  40.0334687
  53.9340097  11.8098204  41.2732730  54.4780001  12.4228163  40.7787684
  53.3526942  12.3677783  41.7899743  40.3111531   3.2111658  25.5997349
  40.6064972   2.3022337  25.5464403  39.4099567   3.1899398  25.2778351
  52.2197610  14.9318922  32.4047757  52.0948749  14.1308662  31.8958703
  52.8776701  15.4265116  31.9161727  43.8405778   1.2867655  31.5824898
  43.1192364   1.9003623  31.4432371  44.6299034   1.8225420  31.5041543
  54.2832518  12.7327942  34.0327307  53.3362854  12.6133294  33.9605634
  54.6315291  11.8450440  34.1153569  46.6432091  -1.3777919  37.8565549
  47.1666493  -1.1315622  38.6191859  46.4244425  -0.5457884  37.4368687
  42.0399372   0.8925756  25.7236674  41.7112079   0.0123135  25.5411780
  42.3938743   0.8373425  26.6113063  51.2878951  12.5280659  30.2331660
  51.1403914  11.5997366  30.4139230  52.1132445  12.5500749  29.7488735
  45.1541196   1.1798726  26.0912152  45.4937268   1.7084647  25.3690760
  45.6013316   1.5179132  26.8670718  54.8913073  13.3509217  31.3196532
  55.8159621  13.1452079  31.1820983  54.7228377  13.1025619  32.2285874
  47.8484636  -0.4364224  35.5415220  47.5081457  -1.2356410  35.9435900
  47.1423643  -0.1362513  34.9692053  47.1409343  -0.3226653  24.2905444
  47.8617705   0.0554600  23.7869161  46.5174647   0.3962224  24.3940422
  51.2840466   0.3818496  25.2263777  51.5004080   1.2643134  24.9252605
  50.8034533  -0.0095290  24.4969419  46.0239687   3.3404210  31.8034521
  45.8784268   3.6544513  32.6958803  45.5464891   3.9589110  31.2505420
  47.8836070   0.3306758  31.8515411  47.8697639  -0.5652149  31.5147709
  48.6008498   0.3377421  32.4853697  49.7362201   0.7644098  33.8968538
  49.4779978   1.6861168  33.8952869  49.2047241   0.3674532  34.5869003
  54.6808389  13.8694885  26.6758624  54.8545267  13.3041307  25.9232476
  55.1737281  14.6695780  26.4938114  40.4985349   5.8809554  34.7422183
  39.9538817   6.6569362  34.8742457  41.3764699   6.2280358  34.5841304
  60.5347781   6.6331308  28.2948924  60.9778927   5.8838633  27.8968047
  59.6574291   6.6241444  27.9122656  55.6683562  13.1861649  23.7755522
  56.3634466  13.8068342  23.9942837  56.0106712  12.3357000  24.0507900
  41.2851371   5.0079450  37.6352339  40.5433107   5.1562086  38.2216970
  40.9644115   5.2687716  36.7719089  57.5674985  10.6361355  25.3042853
  58.0926309  10.9748628  24.5792173  57.4797338   9.7008370  25.1205987
  49.2295034  14.5495428  37.4332729  49.5382160  14.3044575  38.3055429
  50.0270516  14.7542067  36.9451600  49.2515646  16.7033338  29.6638106
  48.8120636  16.2109717  30.3570963  50.0023763  16.1606306  29.4230181
  41.7307985  12.8944879  29.6662734  42.5566005  12.5948651  29.2861378
  41.3802037  12.1252501  30.1152523  46.6989518  12.2471347  31.7360408
  46.0769527  11.5842052  31.4362636  47.3694385  12.2732479  31.0534055
  39.9316590  10.8131205  30.6251668  39.0948498  10.3853380  30.4435669
  39.9040235  11.0063649  31.5622459  46.7714045   0.7253135  41.3292914
  46.8202201   1.6015258  40.9470683  47.3136560   0.1830528  40.7564557
  57.2568891  11.2694258  40.6094051  56.4664435  11.2518397  40.0698550
  57.0202246  11.8082552  41.3643087  57.3766766   8.1186725  37.9226779
  57.4264771   7.9536732  38.8642302  57.2680689   7.2513984  37.5324660
  46.2603025  10.7975270  25.2118868  46.4091145  11.4810735  24.5585541
  47.0669468  10.7780361  25.7268324  54.6670528   4.1017653  39.2386086
  55.5680391   3.9624118  38.9470084  54.7418503   4.2672108  40.1784263
  49.0013334   1.4784508  38.0839272  48.1316643   1.7718074  37.8121861
  49.2372814   2.0624953  38.8046536  58.8784963  10.5383666  38.1668801
  58.5869771  10.9013647  39.0032262  58.2657094   9.8250675  37.9882133
  60.0780645   8.1036546  30.6871371  60.9127537   8.5426350  30.8508931
  60.2139774   7.6275199  29.8679617  57.1272151   5.6616281  36.6348859
  57.6026273   5.8543927  35.8267710  56.2037717   5.7175467  36.3892243
  44.0155658   6.8240448  26.2179937  43.7701700   5.9202778  26.4160147
  44.1851572   6.8257599  25.2759415  43.2851305   2.5568806  23.7166099
  42.5920550   2.6313161  23.0606135  43.0403057   1.7929149  24.2387616
  49.7598430  13.2923401  22.6830616  49.1872397  13.9113588  22.2301088
  50.3331224  13.8422763  23.2170538  55.8273820   2.5382041  34.8677164
  56.7791243   2.6380139  34.8889389  55.6577271   1.7460310  35.3775249
  52.9795690  13.5760551  23.8139198  53.9126363  13.5106113  24.0172073
  52.8918903  14.4116818  23.3553731  55.6083707  12.8926421  20.7743146
  55.5297338  12.5586285  21.6678903  56.4293374  13.3848189  20.7734618
  58.3061898   5.7588161  33.9819464  58.2738218   4.8204161  34.1679148
  58.9162522   5.8372197  33.2485289  50.1445229   4.6284214  20.0246668
  51.0904334   4.4990422  20.0935086  49.7659474   3.8898876  20.5016096
  64.1238448   6.8204168  33.1225501  64.8541836   6.5589456  33.6833204
  63.5145393   6.0832890  33.1627569  62.2053745   4.9612030  33.7199952
  61.4786908   4.8267995  33.1116444  61.7901032   5.2688859  34.5256670
  50.0283921   8.6801960  41.4847325  50.9486931   8.8580559  41.6787372
  49.9933504   7.7358005  41.3327024  48.3288146   2.5534190  19.9601553
  47.4219601   2.2567303  20.0364267  48.6064127   2.2564008  19.0935840
  39.2466086   3.8740553  30.4100600  38.9268871   3.0205862  30.1174974
  38.6999515   4.0889132  31.1658567  43.0245994   6.5902994  34.1270106
  43.2432004   7.5220102  34.1458140  43.4371768   6.2310969  34.9124910
  47.8973859   2.1636200  43.5172855  47.7970586   3.1130557  43.4484946
  47.6795401   1.8354439  42.6448925  47.0986931  -0.5878875  20.1013533
  47.9606095  -0.2623976  20.3609350  47.2837275  -1.3747379  19.5886598
  39.1154346   7.4943465  32.3793721  38.4217818   7.0797418  31.8663676
  39.8627337   7.5364001  31.7827140  47.7605129   5.5933339  42.3337917
  47.2772211   6.3933699  42.5401806  47.8466068   5.6041284  41.3805361
  41.0291089   7.4261719  30.2559736  41.0061777   7.5249406  29.3041619
  41.3391725   8.2726870  30.5776902  43.6878467   9.4837874  34.3706351
  44.6421720   9.4521816  34.3036282  43.4890990   9.0228498  35.1856577
  44.2777849   8.0538990  36.9377148  45.0970738   8.5483069  36.9611986
  44.5514657   7.1370958  36.9094716  42.0428696  15.0257493  31.3876549
  41.9083163  14.2657894  30.8214547  41.6260758  15.7498393  30.9205337
  53.1787659  10.2094417  20.3953124  53.8823509  10.4144419  21.0110779
  52.4550307  10.7771179  20.6602207  54.0085469   5.9604278  26.5155394
  53.9520670   6.4172830  25.6763026  54.5613811   5.1994963  26.3378237
  62.1302613   4.4890083  29.8476805  61.5702171   4.5583273  30.6208367
  61.5246116   4.3131068  29.1276301  45.1997821  15.9226810  31.5994991
  45.0830206  16.8672243  31.4973681  44.3790268  15.6200372  31.9880790
  55.0874356  10.6476946  22.4451584  55.9219960  10.2158144  22.2629059
  54.9258699  10.4758960  23.3728478  54.7420248   7.1509059  23.8107923
  54.6869052   6.9853331  22.8696367  54.1166303   7.8585092  23.9670113
  39.5312763   2.3877124  37.6369345  40.1771627   1.8776078  38.1256571
  39.3229914   3.1245805  38.2112771  52.0566155   9.4557971  43.1361486
  52.9257315   9.6298623  42.7748121  51.5772907  10.2752388  43.0137215
  46.2252336  16.5755072  34.8150920  47.1279582  16.6078682  35.1317415
  45.9989706  15.6455523  34.8297255  47.9805938  15.3286059  31.4760998
  47.0301569  15.3287920  31.3625371  48.2838424  14.5818793  30.9597033
  43.8710254  -0.4655259  41.7344360  44.7341716  -0.8218454  41.9447684
  43.2975665  -0.8041364  42.4219764  63.7158631  21.1646597  32.5406761
  64.3537041  21.0453344  31.8370101  63.5979474  22.1127441  32.5994713
  60.5248337  21.1174025  32.4768285  60.1866849  21.0015090  31.5888820
  61.3938106  20.7165190  32.4569291  56.3835153  22.9709502  28.4665176
  55.8200018  22.8799439  27.6981464  56.2687548  22.1509406  28.9467669
  61.0068120  22.2708877  38.4354491  60.9956761  21.8761675  37.5634995
  61.1688760  21.5374950  39.0288262  53.9299585  24.4660693  31.3049397
  54.7220877  24.1251518  30.8895696  54.1696235  24.5755668  32.2251550
  61.9634712  26.6380469  23.7779641  61.3122691  27.2234550  23.3913655
  62.7579075  27.1686664  23.8374679  55.8890339  23.7269606  24.1766776
  56.6621215  23.1798594  24.0379651  56.2415738  24.5913856  24.3881237
  57.7275381  25.0545989  37.3833675  57.4365247  25.9591620  37.2680341
  58.3632366  25.0962516  38.0977744  58.6531588  22.4322837  33.9735034
  59.2495161  22.2078860  33.2591997  58.7106560  21.6907583  34.5760482
  58.2256617  19.8862273  21.8085225  58.4782137  19.3643794  21.0468688
  57.2881176  19.7228418  21.9111909  63.2699900  18.8898051  29.6159969
  64.0562989  18.4717474  29.2650386  63.5338604  19.7944143  29.7841617
  63.4409977  24.3270901  24.3148625  62.8055810  24.4005528  25.0269530
  63.1107383  24.9164500  23.6367705  68.6708327  18.8273284  30.5192947
  69.4033499  18.2572501  30.7530777  67.9147682  18.4394885  30.9599453
  57.9452905  21.7890379  24.0109600  57.8289164  21.1135282  24.6790685
  58.0555165  21.3022753  23.1941753  60.2884446  21.2500526  27.7156290
  59.9242654  20.7231147  28.4269211  61.1451562  20.8598995  27.5422775
  66.1933747  12.5394858  34.9787556  65.8617072  13.4090269  34.7548771
  65.5979360  12.2231142  35.6581586  59.9289933  16.2790425  22.7117638
  60.0964336  17.1470662  23.0788109  59.7387102  16.4417707  21.7878927
  62.6865267  24.7407404  34.3783469  62.3865990  25.6432443  34.2699276
  62.3416326  24.4739587  35.2304621  56.1377748  21.1921201  30.4120173
  55.2128244  21.0597415  30.6197865  56.3862161  21.9715420  30.9090115
  66.0862410  17.2589944  32.0580906  65.1779288  17.1905353  31.7639667
  66.0350006  17.7361889  32.8862731  59.9079154  18.7348083  23.6964305
  59.7878779  19.1805134  24.5349785  59.2131743  19.0833401  23.1377843
  53.4986559  20.8354475  31.2463962  53.6278940  21.0888954  32.1603374
  52.8184010  21.4282183  30.9268617  57.6686046  31.5051725  27.3454436
  57.5910076  32.4559550  27.4242917  57.0647690  31.1597597  28.0029363
  60.1603276  18.6779590  40.0015803  59.3836610  19.2373510  39.9918668
  60.7993839  19.1636373  40.5230673  67.9524057  15.4606383  33.8358780
  67.3098437  15.7538916  33.1898574  67.4478985  15.3459303  34.6411976
  65.6064220  19.2069556  24.5244639  66.5182076  19.4396943  24.3492337
  65.0973867  19.7906600  23.9619718  58.4149648  21.4865043  39.5633770
  59.1564333  22.0250087  39.2868594  57.7086634  22.1131332  39.7205322
  63.8904988  23.6294184  38.1605932  64.2988344  23.1876594  37.4160564
  63.1682250  23.0546811  38.4140124  60.2436058  18.5666791  35.5339489
  61.0897253  18.9906204  35.6774138  60.1834696  17.9100415  36.2278052
  64.2133803  24.1895374  31.9158220  63.5842665  24.3541089  31.2134288
  63.8259465  24.6036984  32.6869185  68.0923035  25.1249812  29.2702584
  67.4074073  25.5048714  28.7199618  68.1766884  25.7345139  30.0034532
  63.3935503  16.2271159  37.1920662  63.1496435  16.9813220  36.6554938
  63.6695434  16.6056507  38.0267909  65.3473966  22.7709771  35.8697928
  65.5590861  23.4141531  35.1932309  65.3003714  21.9372088  35.4019858
  62.9500195  15.3827592  32.7734500  62.0884674  15.6808846  33.0651237
  62.9762630  15.5997991  31.8415533  59.7661765  23.9269783  29.1808306
  60.2300110  24.2057486  28.3912928  59.5018563  23.0253227  28.9981396
  56.6585846  23.4741264  32.1188069  57.2287203  23.9028533  31.4805553
  57.2493957  23.1923849  32.8172255  58.7030651  20.0492935  25.9897871
  59.4054694  20.5013979  26.4571797  58.3711279  19.4076754  26.6177764
  57.1511012  18.6404692  40.3649080  56.5209673  19.3220972  40.5984477
  57.0447100  18.5287773  39.4202218  52.4455985  18.3076488  31.2915004
  51.6555039  18.5634016  30.8155115  52.9367232  19.1224825  31.3967045
  66.4619794  25.6481727  34.0420285  67.2837238  25.2461914  33.7602967
  66.4582197  25.5449961  34.9936401  54.3970730  18.6721067  28.2498481
  53.6001893  18.7839761  28.7681977  54.1696322  19.0107719  27.3839372
  60.2276398  25.1965770  36.1980996  60.2920830  25.6586177  37.0339167
  59.5187321  24.5663135  36.3263305  50.7293688  18.5606978  33.7229995
  50.9801726  19.4453988  33.9887571  51.2653236  18.3811580  32.9505087
  74.5525787  21.9920475  30.3905257  73.7989496  21.4227873  30.2349261
  74.6873328  21.9583140  31.3375891  59.9424415  26.8633878  26.0659976
  59.8070090  27.7085413  26.4944824  60.4834228  27.0653155  25.3025910
  56.4291755  12.9425457  42.7274331  56.0358700  12.3891656  43.4021975
  57.2457895  13.2536036  43.1180849  53.3953813  24.3809316  26.6387901
  53.9078333  25.1752566  26.7893466  54.0476525  23.6835606  26.5721502
  55.2048697  27.4975072  28.7210654  55.3815326  28.4193037  28.5331638
  56.0005531  27.1833491  29.1505034  59.3459716  14.3583337  40.3194588
  60.0869429  14.9590490  40.2399050  59.5777639  13.6160974  39.7612630
  54.4901054  19.5439704  38.5972817  54.3754569  18.6424961  38.8979916
  53.6345572  19.7903401  38.2457634  61.5692892  27.4857444  40.1960318
  61.1256746  26.6993823  39.8781223  62.2310105  27.6736595  39.5304209
  56.3280013  29.0153246  34.7220997  56.8787438  28.8870309  33.9497990
  55.4891489  29.3148135  34.3715889  63.6674130  27.7660244  38.2241719
  63.6492605  28.5869125  37.7321988  64.5894050  27.6414319  38.4491860
  60.1247184  25.2804374  39.0665228  60.6575521  24.5192662  38.8364536
  59.5961265  24.9878025  39.8089382  63.2916879  10.3864439  34.5958869
  62.9481148  11.2766081  34.5197980  63.6595841  10.1966097  33.7328454
  63.2567162  20.3773051  23.1031305  62.7413785  21.1477655  23.3419692
  62.9844470  19.7038187  23.7264366  60.8414273  15.2222751  28.1616543
  59.9855869  14.8329602  27.9822182  61.2541224  15.3014712  27.3016328
  62.3713419  12.7569095  32.5608103  61.8678215  12.7199230  31.7475908
  62.6644026  13.6661837  32.6204759  58.6156305  12.8407824  31.5674284
  59.4809302  12.6450633  31.2080174  58.6833814  12.6118176  32.4943641
  68.2301436  23.1305405  25.0384478  67.4530878  22.7916565  24.5939640
  68.9092917  23.1358028  24.3639443  63.0453465  18.2500143  24.9291086
  62.7403600  18.5646292  25.7801229  63.9983907  18.3281563  24.9718419
  61.4899897  24.4090366  26.5784040  60.9621258  23.6743126  26.2657277
  60.9887399  25.1865042  26.3324008  66.4692743  22.6039386  31.6951086
  65.8116417  23.2938648  31.7831215  67.2733142  22.9935818  32.0385072
  56.2218624  15.0710032  28.9390651  56.7962376  14.8485214  28.2063844
  56.8089607  15.1398727  29.6919252  65.2798201  20.9583759  29.7455028
  65.7930083  21.5913751  30.2476737  65.9299425  20.3584955  29.3798388
  56.5488211  17.1014493  22.9586536  55.7125524  17.4389180  23.2795811
  56.4092981  16.9663473  22.0213673  58.5241292  11.9451281  27.6665721
  57.8705704  11.6300298  27.0422335  58.4821766  11.3227022  28.3925544
  59.6352497  22.2270576  19.5819013  58.7279558  21.9959830  19.7810162
  60.1323529  21.4308195  19.7692994  62.5420576  30.9368083  22.5015699
  61.8682274  31.2399780  23.1100657  62.9286398  31.7397164  22.1521156
  61.7579032  18.4333215  31.9913368  60.8401594  18.6548162  31.8335056
  62.1739176  18.5079525  31.1325076  62.5414080  19.8324630  27.1216049
  63.2885899  20.3446028  26.8123171  62.8105670  19.5108683  27.9820442
  60.8140730  22.3283171  24.1043003  59.9051949  22.0442204  24.2015473
  60.8435814  22.7482250  23.2446310  66.0459998  25.9389761  27.8734170
  65.5922325  25.0980670  27.9299361  65.4153964  26.5751159  28.2108951
  64.9892917  16.8681747  29.1034838  64.2515674  16.3559133  29.4345080
  65.2419691  16.4282128  28.2918115  64.4892937  27.7766257  28.8083989
  64.7815911  28.3371314  28.0896354  64.9991557  28.0694818  29.5637148
  65.0904544   9.6457999  29.6976607  65.3963421   8.7855362  29.4102522
  65.8157149  10.2375619  29.4975601  51.3828901  20.0488685  28.0858205
  51.1853300  19.4558046  27.3609272  50.8275565  19.7440895  28.8034144
  59.3625624  19.9411792  30.2052798  59.4174234  18.9885628  30.1295275
  58.5516826  20.0971231  30.6894097  60.5116818  23.8691915  21.4431081
  60.0736248  23.1527774  20.9836719  61.2527259  24.0968030  20.8816173
  57.3017984  18.5588851  27.9643177  56.4885850  18.8583022  28.3708369
  57.7976978  18.1644540  28.6817659  59.4526562  28.5546608  29.8977442
  59.4102741  28.7807455  28.9685974  60.3689261  28.3209983  30.0463243
  62.8992196  19.0230676  36.7958071  63.2541584  19.2502149  37.6552537
  63.5464327  19.3549053  36.1735326  68.6289933  22.1449112  27.5007400
  68.4907831  22.3350708  26.5728589  68.2726152  22.9068495  27.9575451
  56.7932059  16.1307207  33.5804412  57.4331438  15.9895966  32.8827375
  55.9609589  15.8441720  33.2043014  68.6559312  24.2125639  32.5118671
  69.0895819  24.1200928  33.3601725  69.3690893  24.1883139  31.8738687
  57.5692363  25.4309637  29.6939404  58.3632961  24.9359958  29.4921979
  56.8584055  24.9027501  29.3307110  62.3887207  27.8127733  34.0451772
  62.4424230  28.3818669  34.8129488  61.5201989  27.9829618  33.6805809
  53.8775126  19.5752719  25.7699157  52.9472714  19.5137175  25.9869119
  53.9732598  19.0528672  24.9735798  53.7960675  16.1007532  28.3577399
  54.0567493  17.0152865  28.2486559  54.6177848  15.6331975  28.5074012
  55.2685601  17.5145289  35.5276223  55.9408654  17.3062651  34.8788872
  54.4415387  17.3167375  35.0881456  69.5174862  24.2549339  35.0451557
  69.7110752  25.1595150  35.2910832  69.4175480  23.7956759  35.8790142
  61.1711173  14.1407230  37.5441884  60.5239088  14.8397180  37.4506361
  61.9412188  14.5743374  37.9118132  64.5789971  24.4056082  40.6192437
  64.4275477  24.1766634  39.7022521  64.5694650  25.3626684  40.6323782
  61.3475307  21.9787995  35.6038704  62.2767367  22.1299155  35.4307671
  60.9266337  22.0672016  34.7487350  60.1463639  26.0038659  33.3737242
  60.0074724  25.6357444  34.2463180  59.3578235  26.5186299  33.2021199
  60.7411791  31.1047756  24.7162778  60.9163546  30.6335799  25.5308401
  60.0544579  31.7313522  24.9444039  61.6968854  25.3820262  30.7626079
  61.3618687  25.3421032  31.6583729  61.1972800  24.7164978  30.2896490
  55.6713098  20.7887892  36.2878660  55.5332896  20.0568131  36.8890200
  56.5818021  20.6996792  36.0062848  64.6328046  22.7276296  21.0363139
  64.0157216  22.0023125  20.9396192  64.1644534  23.4885657  20.6930213
  58.2995399  20.5007851  35.7762340  59.0095017  19.8601044  35.7348959
  58.2564707  20.7520746  36.6988521  66.2882177  27.4375205  38.6968919
  66.2294723  26.7534425  38.0299502  66.6901696  28.1794195  38.2449545
  57.0124333  17.4873069  37.5957980  56.4761690  17.0363808  38.2479576
  56.4241041  17.6218978  36.8528444  55.3072876  34.2537119  31.4902638
  55.5469474  34.8855643  32.1681657  54.4642073  33.9025159  31.7767997
  56.4226592  16.9461721  20.1584443  55.5456058  16.8250522  19.7946690
  56.8984345  16.1547799  19.9063332  66.2899585  25.4014789  36.9282899
  65.4026363  25.0640711  37.0509298  66.8598136  24.6697820  37.1651664
  47.9428732  21.7338880  30.2525950  48.6299771  21.4200610  29.6646966
  47.7876860  22.6380245  29.9793202  52.7463454  16.6229077  34.6810974
  52.6621643  16.0154747  33.9461384  51.9246160  17.1138095  34.6820470
  59.8200738  30.0616241  33.8944142  59.7470909  30.8671213  34.4063447
  59.3778131  30.2608207  33.0692164  59.6090518  29.2988011  27.4046964
  58.8258039  29.8409691  27.4985188  60.3083263  29.8161991  27.8041205
  62.9187168  15.1082641  30.0481169  63.4155867  14.3552603  29.7282239
  62.1474149  15.1446957  29.4824378  70.7716925  20.8123006  31.6899461
  70.7606801  21.6947722  31.3193394  69.9034304  20.4594557  31.4953998
  64.0016948  23.8654328  27.6219593  63.0673227  23.9855790  27.4524297
  64.1793617  22.9626795  27.3579602  59.5022136  17.2500024  29.7752854
  59.1319924  16.6971064  30.4633759  59.9981229  16.6458157  29.2227854
  67.3889500  19.7071647  28.1569627  67.8549952  20.5399639  28.0829929
  67.8397000  19.2416629  28.8614885  57.3311335  27.7097519  36.8707872
  58.0320794  28.3434002  37.0237266  56.8606450  28.0512250  36.1103511
  65.4565731  26.0515468  25.1555779  65.7325575  25.9372063  26.0649653
  64.5870230  25.6532953  25.1167952  65.3606162  12.0752234  32.1960528
  64.4469242  12.3056461  32.3642735  65.7899264  12.1590678  33.0474560
  65.1312621  20.2642126  34.6960422  64.4784071  20.5118033  34.0412875
  65.5093001  19.4506264  34.3622899  62.0919795  30.3001819  28.7988592
  62.2742189  29.4823475  29.2616345  62.9152781  30.5169511  28.3613482
  62.4261960  29.2270004  26.0603641  62.9549727  28.7162459  25.4473803
  62.6890180  28.9112535  26.9249174  61.1800194  21.0061937  41.1826459
  60.5040831  20.9056066  41.8528834  62.0027828  20.8501151  41.6462456
  52.9279053  27.2433874  33.8038974  53.5132490  26.4977562  33.9366879
  52.7303891  27.5537830  34.6875638  55.7817708  30.2785121  28.8201417
  55.1128084  30.7631249  28.3365457  55.6430578  30.5254341  29.7344795
  47.5196708  19.8139474  32.5243418  47.5580807  19.2803065  33.3180536
  47.0137001  19.2874679  31.9054395  54.8987470  14.6604014  36.0205960
  54.9628797  15.5218845  35.6083358  54.8354590  14.0478016  35.2878318
  54.3739743  16.7327147  39.6678994  55.0011781  16.3504224  40.2816518
  53.5167661  16.5141349  40.0334687  64.7733851  27.1390122  41.2732730
  65.3173755  27.7520080  40.7787684  64.1920696  27.6969700  41.7899743
  51.1505285  18.5403576  25.5997349  51.4458726  17.6314254  25.5464403
  50.2493321  18.5191315  25.2778351  63.0591364  30.2610840  32.4047757
  62.9342504  29.4600580  31.8958703  63.7170455  30.7557033  31.9161727
  54.6799532  16.6159573  31.5824898  53.9586118  17.2295540  31.4432371
  55.4692788  17.1517337  31.5041543  65.1226272  28.0619860  34.0327307
  64.1756608  27.9425211  33.9605634  65.4709046  27.1742358  34.1153569
  57.4825846  13.9513999  37.8565549  58.0060248  14.1976296  38.6191859
  57.2638179  14.7834034  37.4368687  52.8793127  16.2217674  25.7236674
  52.5505833  15.3415053  25.5411780  53.2332498  16.1665342  26.6113063
  62.1272706  27.8572576  30.2331660  61.9797668  26.9289284  30.4139230
  62.9526199  27.8792667  29.7488735  55.9934950  16.5090643  26.0912152
  56.3331023  17.0376565  25.3690760  56.4407071  16.8471050  26.8670718
  65.7306828  28.6801135  31.3196532  66.6553375  28.4743996  31.1820983
  65.5622131  28.4317536  32.2285874  58.6878391  14.8927694  35.5415220
  58.3475211  14.0935507  35.9435900  57.9817397  15.1929405  34.9692053
  59.3394863  11.9777007  33.9942543  60.1620932  11.5037485  33.8721433
  59.5832926  12.7567490  34.4941229  57.9803097  15.0065265  24.2905444
  58.7011460  15.3846518  23.7869161  57.3568401  15.7254142  24.3940422
  62.1234220  15.7110414  25.2263777  62.3397835  16.5935052  24.9252605
  61.6428287  15.3196627  24.4969419  56.8633441  18.6696127  31.8034521
  56.7178022  18.9836430  32.6958803  56.3858645  19.2881028  31.2505420
  58.7229824  15.6598675  31.8515411  58.7091393  14.7639769  31.5147709
  59.4402252  15.6669339  32.4853697  60.5755955  16.0936015  33.8968538
  60.3173733  17.0153086  33.8952869  60.0440995  15.6966450  34.5869003
  65.5202144  29.1986803  26.6758624  65.6939021  28.6333225  25.9232476
  66.0131035  29.9987697  26.4938114  51.3379104  21.2101472  34.7422183
  50.7932572  21.9861280  34.8742457  52.2158454  21.5572276  34.5841304
  58.1266720  14.5413055  27.1202981  58.2482632  13.6129702  27.3193869
  57.8368763  14.5551741  26.2081297  60.9957911  12.2267966  30.2569701
  61.0179608  12.2907299  29.3021681  61.4125970  11.3872475  30.4510207
  71.3741535  21.9623225  28.2948924  71.8172681  21.2130551  27.8968047
  70.4968045  21.9533362  27.9122656  66.5077316  28.5153567  23.7755522
  67.2028221  29.1360260  23.9942837  66.8500466  27.6648918  24.0507900
  52.1245126  20.3371368  37.6352339  51.3826862  20.4854003  38.2216970
  51.8037870  20.5979633  36.7719089  68.4068739  25.9653272  25.3042853
  68.9320064  26.3040545  24.5792173  68.3191092  25.0300288  25.1205987
  60.0909400  32.0325256  29.6638106  59.6514391  31.5401634  30.3570963
  60.8417517  31.4898223  29.4230181  52.5701739  28.2236797  29.6662734
  53.3959759  27.9240568  29.2861378  52.2195791  27.4544419  30.1152523
  57.5383272  27.5763265  31.7360408  56.9163282  26.9133970  31.4362636
  58.2088139  27.6024397  31.0534055  50.7710344  26.1423123  30.6251668
  49.9342253  25.7145297  30.4435669  50.7433990  26.3355566  31.5622459
  57.6107800  16.0545053  41.3292914  57.6595955  16.9307176  40.9470683
  58.1530314  15.5122446  40.7564557  68.0962646  26.5986176  40.6094051
  67.3058189  26.5810315  40.0698550  67.8596000  27.1374470  41.3643087
  68.2160521  23.4478642  37.9226779  68.2658526  23.2828650  38.8642302
  68.1074444  22.5805902  37.5324660  57.0996779  26.1267188  25.2118868
  57.2484900  26.8102653  24.5585541  57.9063223  26.1072278  25.7268324
  65.5064283  19.4309571  39.2386086  66.4074146  19.2916035  38.9470084
  65.5812257  19.5964025  40.1784263  59.8407088  16.8076425  38.0839272
  58.9710398  17.1009991  37.8121861  60.0766569  17.3916870  38.8046536
  69.7178717  25.8675584  38.1668801  69.4263526  26.2305565  39.0032262
  69.1050849  25.1542592  37.9882133  70.9174400  23.4328464  30.6871371
  71.7521291  23.8718268  30.8508931  71.0533529  22.9567117  29.8679617
  67.9665906  20.9908199  36.6348859  68.4420027  21.1835845  35.8267710
  67.0431471  21.0467384  36.3892243  54.8549412  22.1532366  26.2179937
  54.6095454  21.2494696  26.4160147  55.0245327  22.1549516  25.2759415
  62.5446122  13.0256042  35.6004693  63.0628066  13.7617069  35.2751181
  62.1901255  13.3320035  36.4351452  54.1245060  17.8860723  23.7166099
  53.4314305  17.9605078  23.0606135  53.8796812  17.1221067  24.2387616
  62.7958716   9.4456325  31.1205589  63.0760470   8.7779514  31.7466016
  63.5809323   9.6385420  30.6080253  60.5992185  28.6215319  22.6830616
  60.0266152  29.2405506  22.2301088  61.1724978  29.1714680  23.2170538
  66.6667575  17.8673959  34.8677164  67.6184998  17.9672056  34.8889389
  66.4971025  17.0752227  35.3775249  64.6881954  14.9529542  35.0536565
  64.0931886  15.2334555  34.3583054  64.4031651  15.4423443  35.8253306
  63.8189445  28.9052469  23.8139198  64.7520118  28.8398030  24.0172073
  63.7312657  29.7408736  23.3553731  66.4477461  28.2218339  20.7743146
  66.3691093  27.8878203  21.6678903  67.2687128  28.7140107  20.7734618
  69.1455652  21.0880078  33.9819464  69.1131973  20.1496079  34.1679148
  69.7556276  21.1664115  33.2485289  60.9838983  19.9576131  20.0246668
  61.9298088  19.8282339  20.0935086  60.6053228  19.2190793  20.5016096
  69.2950141  17.8791122  34.0277747  68.7789190  17.0949578  33.8407676
  70.1790089  17.5509838  34.1924267  66.9560868  11.6232137  29.9873560
  66.7585689  11.3147226  30.8716892  67.5660573  12.3493776  30.1171490
  74.9632202  22.1496085  33.1225501  75.6935591  21.8881373  33.6833204
  74.3539148  21.4124807  33.1627569  73.0447499  20.2903948  33.7199952
  72.3180663  20.1559913  33.1116444  72.6294786  20.5980776  34.5256670
  60.8677676  24.0093877  41.4847325  61.7880685  24.1872477  41.6787372
  60.8327259  23.0649923  41.3327024  59.1681900  17.8826108  19.9601553
  58.2613356  17.5859220  20.0364267  59.4457881  17.5855926  19.0935840
  50.0859841  19.2032471  30.4100600  49.7662625  18.3497779  30.1174974
  49.5393269  19.4181049  31.1658567  53.8639748  21.9194912  34.1270106
  54.0825758  22.8512020  34.1458140  54.2765522  21.5602887  34.9124910
  60.7843966  12.4262997  26.1145795  59.9744694  12.0810082  26.4901041
  61.4728383  12.1170541  26.7033406  62.7134514  11.5041044  27.7370091
  63.2665553  11.9236498  28.3960114  62.9504601  10.5776792  27.7793047
  58.7367614  17.4928118  43.5172855  58.6364341  18.4422475  43.4484946
  58.5189156  17.1646357  42.6448925  57.9380685  14.7413043  20.1013533
  58.7999849  15.0667941  20.3609350  58.1231029  13.9544539  19.5886598
  49.9548101  22.8235383  32.3793721  49.2611572  22.4089335  31.8663676
  50.7021092  22.8655919  31.7827140  66.0913322  13.6141569  27.2448756
  65.5111991  14.2726373  26.8626808  65.8249254  12.7918914  26.8336173
  64.5416888  13.0146627  29.4470076  65.0416666  13.1263162  28.6384395
  65.1852496  12.7107680  30.0870884  58.5998884  20.9225257  42.3337917
  58.1165965  21.7225617  42.5401806  58.6859823  20.9333202  41.3805361
  51.8684843  22.7553636  30.2559736  51.8455531  22.8541324  29.3041619
  52.1785480  23.6018787  30.5776902  54.5272221  24.8129791  34.3706351
  55.4815475  24.7813734  34.3036282  54.3284745  24.3520415  35.1856577
  55.1171603  23.3830908  36.9377148  55.9364492  23.8774986  36.9611986
  55.3908411  22.4662876  36.9094716  64.8738200  15.7741660  26.3005104
  63.9864055  16.0591310  26.0825299  65.2892189  15.6135423  25.4532381
  68.2252736  15.7988181  30.0159443  69.0013126  16.2884633  30.2884060
  67.5000870  16.2246235  30.4731313  70.6625294  16.5115800  31.0733384
  71.2569785  16.2711536  30.3626692  70.7351878  15.7922931  31.7006920
  52.8822450  30.3549411  31.3876549  52.7476918  29.5949812  30.8214547
  52.4654512  31.0790311  30.9205337  64.0181413  25.5386334  20.3953124
  64.7217263  25.7436337  21.0110779  63.2944062  26.1063096  20.6602207
  64.8479223  21.2896196  26.5155394  64.7914425  21.7464747  25.6763026
  65.4007566  20.5286880  26.3378237  68.6584029  17.0785928  27.3405513
  68.4020963  16.6782563  28.1713721  68.0336897  17.7929722  27.2155653
  72.9696367  19.8182001  29.8476805  72.4095925  19.8875190  30.6208367
  72.3639870  19.6422985  29.1276301  56.0391576  31.2518728  31.5994991
  55.9223960  32.1964160  31.4973681  55.2184022  30.9492290  31.9880790
  65.9268110  25.9768864  22.4451584  66.7613714  25.5450062  22.2629059
  65.7652453  25.8050877  23.3728478  65.5814003  22.4800977  23.8107923
  65.5262806  22.3145248  22.8696367  64.9560058  23.1877010  23.9670113
  50.3706518  17.7169041  37.6369345  51.0165381  17.2067995  38.1256571
  50.1623669  18.4537723  38.2112771  62.8959910  24.7849889  43.1361486
  63.7651069  24.9590541  42.7748121  62.4166661  25.6044306  43.0137215
  58.8910128  11.9809086  23.3893242  58.8788798  12.9250926  23.5461512
  59.7833550  11.7979231  23.0952703  57.0646090  31.9046990  34.8150920
  57.9673337  31.9370600  35.1317415  56.8383460  30.9747441  34.8297255
  58.8199692  30.6577976  31.4760998  57.8695323  30.6579838  31.3625371
  59.1232178  29.9110711  30.9597033  62.7062248   8.5751863  27.6439178
  61.9394643   8.0210349  27.7895861  63.1172953   8.6473731  28.5053330
  54.7104009  14.8636658  41.7344360  55.5735470  14.5073463  41.9447684
  54.1369419  14.5250553  42.4219764  74.5552386  36.4938515  32.5406761
  75.1930795  36.3745262  31.8370101  74.4373228  37.4419359  32.5994713
  71.3642092  36.4465943  32.4768285  71.0260603  36.3307008  31.5888820
  72.2331860  36.0457108  32.4569291  72.8028466  41.9672387  23.7779641
  72.1516446  42.5526467  23.3913655  73.5972829  42.4978582  23.8374679
  69.0650371  35.2154190  21.8085225  69.3175892  34.6935712  21.0468688
  68.1274930  35.0520336  21.9111909  74.1093654  34.2189969  29.6159969
  74.8956743  33.8009392  29.2650386  74.3732358  35.1236061  29.7841617
  74.2803731  39.6562819  24.3148625  73.6449564  39.7297445  25.0269530
  73.9501138  40.2456418  23.6367705  79.5102081  34.1565202  30.5192947
  80.2427253  33.5864419  30.7530777  78.7541437  33.7686802  30.9599453
  68.7846660  37.1182296  24.0109600  68.6682918  36.4427200  24.6790685
  68.8948920  36.6314670  23.1941753  71.1278201  36.5792443  27.7156290
  70.7636408  36.0523064  28.4269211  71.9845317  36.1890912  27.5422775
  77.0327501  27.8686776  34.9787556  76.7010826  28.7382187  34.7548771
  76.4373115  27.5523060  35.6581586  70.7683688  31.6082343  22.7117638
  70.9358090  32.4762579  23.0788109  70.5780857  31.7709625  21.7878927
  73.5259021  40.0699322  34.3783469  73.2259744  40.9724361  34.2699276
  73.1810081  39.8031505  35.2304621  76.9256165  32.5881862  32.0580906
  76.0173042  32.5197271  31.7639667  76.8743761  33.0653807  32.8862731
  70.7472909  34.0640001  23.6964305  70.6272534  34.5097051  24.5349785
  70.0525497  34.4125318  23.1377843  68.5079801  46.8343642  27.3454436
  68.4303831  47.7851467  27.4242917  67.9041444  46.4889515  28.0029363
  70.9997031  34.0071508  40.0015803  70.2230365  34.5665428  39.9918668
  71.6387594  34.4928291  40.5230673  78.7917811  30.7898301  33.8358780
  78.1492191  31.0830834  33.1898574  78.2872740  30.6751221  34.6411976
  76.4457975  34.5361474  24.5244639  77.3575831  34.7688860  24.3492337
  75.9367622  35.1198518  23.9619718  74.7298743  38.9586102  38.1605932
  75.1382099  38.5168512  37.4160564  74.0076004  38.3838729  38.4140124
  75.0527557  39.5187292  31.9158220  74.4236420  39.6833006  31.2134288
  74.6653219  39.9328902  32.6869185  78.9316789  40.4541730  29.2702584
  78.2467827  40.8340631  28.7199618  79.0160638  41.0637057  30.0034532
  74.2329258  31.5563077  37.1920662  73.9890190  32.3105137  36.6554938
  74.5089188  31.9348424  38.0267909  76.1867721  38.1001689  35.8697928
  76.3984616  38.7433449  35.1932309  76.1397469  37.2664006  35.4019858
  73.7893950  30.7119510  32.7734500  72.9278429  31.0100763  33.0651237
  73.8156384  30.9289909  31.8415533  70.6055519  39.2561700  29.1808306
  71.0693865  39.5349403  28.3912928  70.3412317  38.3545145  28.9981396
  69.5424405  35.3784853  25.9897871  70.2448448  35.8305896  26.4571797
  69.2105034  34.7368671  26.6177764  77.3013549  40.9773644  34.0420285
  78.1230992  40.5753832  33.7602967  77.2975952  40.8741879  34.9936401
  65.2364484  34.0012985  28.2498481  64.4395648  34.1131679  28.7681977
  65.0090077  34.3399637  27.3839372  85.3919542  37.3212393  30.3905257
  84.6383250  36.7519791  30.2349261  85.5267083  37.2875057  31.3375891
  70.7818170  42.1925795  26.0659976  70.6463845  43.0377331  26.4944824
  71.3227982  42.3945073  25.3025910  70.1853470  29.6875254  40.3194588
  70.9263184  30.2882407  40.2399050  70.4171393  28.9452892  39.7612630
  74.5067884  43.0952162  38.2241719  74.4886360  43.9161043  37.7321988
  75.4287804  42.9706237  38.4491860  74.1310633  25.7156357  34.5958869
  73.7874903  26.6057999  34.5197980  74.4989596  25.5258015  33.7328454
  74.0960916  35.7064968  23.1031305  73.5807539  36.4769573  23.3419692
  73.8238224  35.0330104  23.7264366  71.6808027  30.5514669  28.1616543
  70.8249623  30.1621519  27.9822182  72.0934979  30.6306630  27.3016328
  73.2107174  28.0861012  32.5608103  72.7071969  28.0491147  31.7475908
  73.5037781  28.9953755  32.6204759  69.4550060  28.1699742  31.5674284
  70.3203056  27.9742551  31.2080174  69.5227568  27.9410094  32.4943641
  79.0695190  38.4597323  25.0384478  78.2924633  38.1208482  24.5939640
  79.7486671  38.4649946  24.3639443  73.8847219  33.5792060  24.9291086
  73.5797355  33.8938210  25.7801229  74.8377661  33.6573480  24.9718419
  72.3293651  39.7382284  26.5784040  71.8015013  39.0035043  26.2657277
  71.8281154  40.5156960  26.3324008  77.3086497  37.9331304  31.6951086
  76.6510172  38.6230566  31.7831215  78.1126896  38.3227736  32.0385072
  67.0612379  30.4001950  28.9390651  67.6356131  30.1777131  28.2063844
  67.6483361  30.4690644  29.6919252  76.1191956  36.2875677  29.7455028
  76.6323838  36.9205669  30.2476737  76.7693180  35.6876872  29.3798388
  67.3881966  32.4306411  22.9586536  66.5519278  32.7681098  23.2795811
  67.2486735  32.2955391  22.0213673  69.3635046  27.2743199  27.6665721
  68.7099459  26.9592216  27.0422335  69.3215521  26.6518939  28.3925544
  70.4746251  37.5562494  19.5819013  69.5673313  37.3251747  19.7810162
  70.9717283  36.7600113  19.7692994  73.3814330  46.2660001  22.5015699
  72.7076029  46.5691698  23.1100657  73.7680152  47.0689081  22.1521156
  72.5972787  33.7625132  31.9913368  71.6795348  33.9840079  31.8335056
  73.0132930  33.8371443  31.1325076  73.3807834  35.1616548  27.1216049
  74.1279653  35.6737945  26.8123171  73.6499424  34.8400601  27.9820442
  71.6534485  37.6575089  24.1043003  70.7445704  37.3734122  24.2015473
  71.6829568  38.0774167  23.2446310  76.8853752  41.2681678  27.8734170
  76.4316079  40.4272588  27.9299361  76.2547719  41.9043077  28.2108951
  75.8286672  32.1973664  29.1034838  75.0909428  31.6851051  29.4345080
  76.0813445  31.7574046  28.2918115  75.3286691  43.1058175  28.8083989
  75.6209666  43.6663232  28.0896354  75.8385312  43.3986736  29.5637148
  75.9298299  24.9749916  29.6976607  76.2357176  24.1147280  29.4102522
  76.6550904  25.5667537  29.4975601  70.2019379  35.2703709  30.2052798
  70.2567988  34.3177546  30.1295275  69.3910581  35.4263148  30.6894097
  71.3510572  39.1983832  21.4431081  70.9130002  38.4819691  20.9836719
  72.0921013  39.4259947  20.8816173  68.1411739  33.8880769  27.9643177
  67.3279604  34.1874940  28.3708369  68.6370733  33.4936458  28.6817659
  70.2920317  43.8838526  29.8977442  70.2496495  44.1099372  28.9685974
  71.2083015  43.6501901  30.0463243  73.7385950  34.3522594  36.7958071
  74.0935338  34.5794067  37.6552537  74.3858082  34.6840970  36.1735326
  79.4683687  37.4741029  27.5007400  79.3301586  37.6642625  26.5728589
  79.1119906  38.2360412  27.9575451  67.6325813  31.4599125  33.5804412
  68.2725193  31.3187884  32.8827375  66.8003344  31.1733638  33.2043014
  79.4953067  39.5417556  32.5118671  79.9289574  39.4492846  33.3601725
  80.2084648  39.5175057  31.8738687  73.2280962  43.1419651  34.0451772
  73.2817984  43.7110587  34.8129488  72.3595743  43.3121536  33.6805809
  64.7168881  34.9044637  25.7699157  63.7866469  34.8429092  25.9869119
  64.8126353  34.3820590  24.9735798  64.6354430  31.4299450  28.3577399
  64.8961247  32.3444783  28.2486559  65.4571602  30.9623892  28.5074012
  80.3568616  39.5841257  35.0451557  80.5504506  40.4887068  35.2910832
  80.2569235  39.1248676  35.8790142  72.0104927  29.4699148  37.5441884
  71.3632842  30.1689097  37.4506361  72.7805943  29.9035292  37.9118132
  75.4183725  39.7348000  40.6192437  75.2669232  39.5058552  39.7022521
  75.4088405  40.6918601  40.6323782  71.5805545  46.4339674  24.7162778
  71.7557301  45.9627717  25.5308401  70.8938333  47.0605440  24.9444039
  72.5362608  40.7112180  30.7626079  72.2012441  40.6712950  31.6583729
  72.0366554  40.0456896  30.2896490  75.4721800  38.0568214  21.0363139
  74.8550971  37.3315042  20.9396192  75.0038289  38.8177574  20.6930213
  77.1275932  42.7667122  38.6968919  77.0688478  42.0826343  38.0299502
  77.5295450  43.5086112  38.2449545  67.2620346  32.2753638  20.1584443
  66.3849812  32.1542439  19.7946690  67.7378099  31.4839717  19.9063332
  77.1293339  40.7306706  36.9282899  76.2420118  40.3932628  37.0509298
  77.6991890  39.9989738  37.1651664  70.4484272  44.6279929  27.4046964
  69.6651794  45.1701609  27.4985188  71.1477017  45.1453908  27.8041205
  73.7580922  30.4374558  30.0481169  74.2549622  29.6844521  29.7282239
  72.9867904  30.4738875  29.4824378  81.6110680  36.1414924  31.6899461
  81.6000556  37.0239639  31.3193394  80.7428059  35.7886475  31.4953998
  73.1193176  45.2894993  36.0502301  73.8321148  45.9242458  35.9778202
  72.6283205  45.3858859  35.2342303  74.8410703  39.1946245  27.6219593
  73.9066982  39.3147708  27.4524297  75.0187371  38.2918712  27.3579602
  70.3415891  32.5791941  29.7752854  69.9713678  32.0262982  30.4633759
  70.8374983  31.9750075  29.2227854  78.2283254  35.0363565  28.1569627
  78.6943706  35.8691556  28.0829929  78.6790755  34.5708546  28.8614885
  76.2959485  41.3807386  25.1555779  76.5719329  41.2663981  26.0649653
  75.4263984  40.9824871  25.1167952  76.1999917  27.4044152  32.1960528
  75.2862997  27.6348379  32.3642735  76.6293018  27.4882596  33.0474560
  75.9706375  35.5934044  34.6960422  75.3177826  35.8409951  34.0412875
  76.3486755  34.7798182  34.3622899  72.9313549  45.6293737  28.7988592
  73.1135944  44.8115393  29.2616345  73.7546535  45.8461429  28.3613482
  73.2655715  44.5561922  26.0603641  73.7943481  44.0454377  25.4473803
  73.5283934  44.2404452  26.9249174  72.0193948  36.3353855  41.1826459
  71.3434585  36.2347984  41.8528834  72.8421582  36.1793068  41.6462456
  65.7381225  29.9895932  36.0205960  65.8022551  30.8510763  35.6083358
  65.6748345  29.3769934  35.2878318  75.6127606  42.4682040  41.2732730
  76.1567510  43.0811998  40.7787684  75.0314450  43.0261618  41.7899743
  61.9899040  33.8695494  25.5997349  62.2852481  32.9606172  25.5464403
  61.0887076  33.8483233  25.2778351  73.8985119  45.5902758  32.4047757
  73.7736258  44.7892498  31.8958703  74.5564210  46.0848951  31.9161727
  65.5193287  31.9451490  31.5824898  64.7979873  32.5587458  31.4432371
  66.3086543  32.4809255  31.5041543  75.9620027  43.3911778  34.0327307
  75.0150363  43.2717129  33.9605634  76.3102800  42.5034276  34.1153569
  68.3219600  29.2805917  37.8565549  68.8454002  29.5268213  38.6191859
  68.1031934  30.1125952  37.4368687  63.7186881  31.5509591  25.7236674
  63.3899588  30.6706970  25.5411780  64.0726252  31.4957260  26.6113063
  72.9666460  43.1864494  30.2331660  72.8191423  42.2581201  30.4139230
  73.7919954  43.2084585  29.7488735  66.8328705  31.8382561  26.0912152
  67.1724777  32.3668482  25.3690760  67.2800825  32.1762967  26.8670718
  76.5700582  44.0093053  31.3196532  77.4947130  43.8035914  31.1820983
  76.4015886  43.7609454  32.2285874  69.5272145  30.2219612  35.5415220
  69.1868966  29.4227425  35.9435900  68.8211152  30.5221323  34.9692053
  70.1788617  27.3068924  33.9942543  71.0014687  26.8329402  33.8721433
  70.4226681  28.0859408  34.4941229  68.8196852  30.3357183  24.2905444
  69.5405214  30.7138435  23.7869161  68.1962156  31.0546060  24.3940422
  72.9627975  31.0402332  25.2263777  73.1791589  31.9226970  24.9252605
  72.4822042  30.6488545  24.4969419  67.7027196  33.9988045  31.8034521
  67.5571777  34.3128348  32.6958803  67.2252400  34.6172945  31.2505420
  69.5623579  30.9890593  31.8515411  69.5485148  30.0931686  31.5147709
  70.2796007  30.9961257  32.4853697  71.4149710  31.4227933  33.8968538
  71.1567487  32.3445004  33.8952869  70.8834750  31.0258368  34.5869003
  76.3595898  44.5278720  26.6758624  76.5332776  43.9625143  25.9232476
  76.8524790  45.3279615  26.4938114  68.9660475  29.8704973  27.1202981
  69.0876386  28.9421619  27.3193869  68.6762517  29.8843659  26.2081297
  71.8351665  27.5559884  30.2569701  71.8573362  27.6199217  29.3021681
  72.2519724  26.7164392  30.4510207  82.2135290  37.2915143  28.2948924
  82.6566436  36.5422468  27.8968047  81.3361800  37.2825280  27.9122656
  77.3471071  43.8445485  23.7755522  78.0421975  44.4652177  23.9942837
  77.6894221  42.9940836  24.0507900  79.2462494  41.2945190  25.3042853
  79.7713818  41.6332463  24.5792173  79.1584847  40.3592205  25.1205987
  70.9303155  47.3617173  29.6638106  70.4908145  46.8693552  30.3570963
  71.6811272  46.8190141  29.4230181  78.9356400  41.9278094  40.6094051
  78.1451944  41.9102233  40.0698550  78.6989755  42.4666387  41.3643087
  79.0554275  38.7770560  37.9226779  79.1052280  38.6120568  38.8642302
  78.9468198  37.9097819  37.5324660  76.3458037  34.7601488  39.2386086
  77.2467900  34.6207953  38.9470084  76.4206012  34.9255943  40.1784263
  70.6800843  32.1368343  38.0839272  69.8104152  32.4301909  37.8121861
  70.9160323  32.7208788  38.8046536  80.5572472  41.1967502  38.1668801
  80.2657280  41.5597482  39.0032262  79.9444603  40.4834510  37.9882133
  81.7568154  38.7620381  30.6871371  82.5915046  39.2010186  30.8508931
  81.8927283  38.2859035  29.8679617  78.8059660  36.3200116  36.6348859
  79.2813782  36.5127763  35.8267710  77.8825226  36.3759302  36.3892243
  73.3839877  28.3547960  35.6004693  73.9021820  29.0908987  35.2751181
  73.0295009  28.6611953  36.4351452  64.9638814  33.2152641  23.7166099
  64.2708059  33.2896996  23.0606135  64.7190566  32.4512985  24.2387616
  73.6352471  24.7748242  31.1205589  73.9154225  24.1071431  31.7466016
  74.4203078  24.9677338  30.6080253  71.4385939  43.9507236  22.6830616
  70.8659906  44.5697423  22.2301088  72.0118733  44.5006598  23.2170538
  77.5061329  33.1965876  34.8677164  78.4578752  33.2963974  34.8889389
  77.3364780  32.4044145  35.3775249  75.5275709  30.2821460  35.0536565
  74.9325641  30.5626472  34.3583054  75.2425405  30.7715361  35.8253306
  74.6583199  44.2344386  23.8139198  75.5913872  44.1689948  24.0172073
  74.5706412  45.0700653  23.3553731  77.2871216  43.5510257  20.7743146
  77.2084847  43.2170120  21.6678903  78.1080883  44.0432025  20.7734618
  79.9849407  36.4171996  33.9819464  79.9525727  35.4787997  34.1679148
  80.5950031  36.4956033  33.2485289  71.8232738  35.2868049  20.0246668
  72.7691843  35.1574257  20.0935086  71.4446983  34.5482711  20.5016096
  80.1343895  33.2083040  34.0277747  79.6182944  32.4241496  33.8407676
  81.0183844  32.8801756  34.1924267  77.7954622  26.9524055  29.9873560
  77.5979443  26.6439143  30.8716892  78.4054328  27.6785694  30.1171490
  85.8025957  37.4788003  33.1225501  86.5329345  37.2173291  33.6833204
  85.1932902  36.7416725  33.1627569  83.8841254  35.6195865  33.7199952
  83.1574417  35.4851830  33.1116444  83.4688541  35.9272694  34.5256670
  71.7071430  39.3385795  41.4847325  72.6274440  39.5164394  41.6787372
  71.6721013  38.3941841  41.3327024  70.0075655  33.2118025  19.9601553
  69.1007110  32.9151138  20.0364267  70.2851636  32.9147844  19.0935840
  71.6237721  27.7554915  26.1145795  70.8138449  27.4102000  26.4901041
  72.3122138  27.4462459  26.7033406  73.5528269  26.8332962  27.7370091
  74.1059308  27.2528415  28.3960114  73.7898355  25.9068710  27.7793047
  68.7774440  30.0704961  20.1013533  69.6393604  30.3959859  20.3609350
  68.9624784  29.2836457  19.5886598  76.9307076  28.9433487  27.2448756
  76.3505745  29.6018291  26.8626808  76.6643009  28.1210832  26.8336173
  75.3810642  28.3438545  29.4470076  75.8810421  28.4555079  28.6384395
  76.0246250  28.0399598  30.0870884  75.7131954  31.1033577  26.3005104
  74.8257809  31.3883228  26.0825299  76.1285943  30.9427341  25.4532381
  79.0646490  31.1280098  30.0159443  79.8406880  31.6176551  30.2884060
  78.3394624  31.5538153  30.4731313  81.5019049  31.8407718  31.0733384
  82.0963540  31.6003454  30.3626692  81.5745633  31.1214848  31.7006920
  74.8575168  40.8678252  20.3953124  75.5611018  41.0728255  21.0110779
  74.1337816  41.4355014  20.6602207  75.6872978  36.6188113  26.5155394
  75.6308179  37.0756665  25.6763026  76.2401320  35.8578798  26.3378237
  79.4977784  32.4077845  27.3405513  79.2414718  32.0074481  28.1713721
  78.8730652  33.1221639  27.2155653  83.8090122  35.1473919  29.8476805
  83.2489680  35.2167108  30.6208367  83.2033625  34.9714903  29.1276301
  76.7661865  41.3060781  22.4451584  77.6007469  40.8741980  22.2629059
  76.6046208  41.1342795  23.3728478  76.4207757  37.8092895  23.8107923
  76.3656561  37.6437166  22.8696367  75.7953812  38.5168928  23.9670113
  73.7353664  40.1141807  43.1361486  74.6044824  40.2882459  42.7748121
  73.2560416  40.9336223  43.0137215  69.7303883  27.3101004  23.3893242
  69.7182552  28.2542844  23.5461512  70.6227304  27.1271149  23.0952703
  67.9039845  47.2338908  34.8150920  68.8067091  47.2662518  35.1317415
  67.6777215  46.3039358  34.8297255  69.6593447  45.9869894  31.4760998
  68.7089078  45.9871756  31.3625371  69.9625933  45.2402629  30.9597033
  73.5456002  23.9043780  27.6439178  72.7788398  23.3502267  27.7895861
  73.9566707  23.9765649  28.5053330  85.3946140  51.8230432  32.5406761
  86.0324550  51.7037180  31.8370101  85.2766983  52.7711276  32.5994713
  82.2035846  51.7757861  32.4768285  81.8654358  51.6598925  31.5888820
  83.0725614  51.3749026  32.4569291  78.0622662  53.6293337  28.4665176
  77.4987527  53.5383274  27.6981464  77.9475057  52.8093241  28.9467669
  82.6855629  52.9292712  38.4354491  82.6744270  52.5345511  37.5634995
  82.8476269  52.1958785  39.0288262  75.6087094  55.1244529  31.3049397
  76.4008386  54.7835353  30.8895696  75.8483744  55.2339504  32.2251550
  83.6422221  57.2964305  23.7779641  82.9910200  57.8818385  23.3913655
  84.4366584  57.8270500  23.8374679  77.5677848  54.3853442  24.1766776
  78.3408724  53.8382429  24.0379651  77.9203247  55.2497691  24.3881237
  79.4062890  55.7129824  37.3833675  79.1152756  56.6175455  37.2680341
  80.0419875  55.7546352  38.0977744  80.3319097  53.0906673  33.9735034
  80.9282670  52.8662695  33.2591997  80.3894069  52.3491418  34.5760482
  79.9044126  50.5446108  21.8085225  80.1569646  50.0227629  21.0468688
  78.9668685  50.3812253  21.9111909  84.9487409  49.5481886  29.6159969
  85.7350498  49.1301309  29.2650386  85.2126113  50.4527979  29.7841617
  85.1197486  54.9854737  24.3148625  84.4843319  55.0589363  25.0269530
  84.7894892  55.5748335  23.6367705  79.6240414  52.4474214  24.0109600
  79.5076673  51.7719117  24.6790685  79.7342674  51.9606588  23.1941753
  81.9671955  51.9084361  27.7156290  81.6030163  51.3814982  28.4269211
  82.8239071  51.5182830  27.5422775  87.8721256  43.1978694  34.9787556
  87.5404581  44.0674105  34.7548771  87.2766869  42.8814978  35.6581586
  81.6077442  46.9374261  22.7117638  81.7751845  47.8054497  23.0788109
  81.4174611  47.1001542  21.7878927  84.3652776  55.3991240  34.3783469
  84.0653499  56.3016278  34.2699276  84.0203835  55.1323423  35.2304621
  77.8165257  51.8505036  30.4120173  76.8915753  51.7181251  30.6197865
  78.0649670  52.6299256  30.9090115  87.7649919  47.9173780  32.0580906
  86.8566797  47.8489188  31.7639667  87.7137515  48.3945725  32.8862731
  81.5866663  49.3931918  23.6964305  81.4666288  49.8388969  24.5349785
  80.8919252  49.7417236  23.1377843  75.1774068  51.4938310  31.2463962
  75.3066449  51.7472789  32.1603374  74.4971519  52.0866018  30.9268617
  79.3473555  62.1635560  27.3454436  79.2697585  63.1143385  27.4242917
  78.7435199  61.8181432  28.0029363  81.8390785  49.3363425  40.0015803
  81.0624119  49.8957346  39.9918668  82.4781348  49.8220208  40.5230673
  87.2851729  49.8653391  24.5244639  88.1969585  50.0980778  24.3492337
  86.7761376  50.4490436  23.9619718  80.0937157  52.1448879  39.5633770
  80.8351842  52.6833923  39.2868594  79.3874143  52.7715168  39.7205322
  85.5692497  54.2878019  38.1605932  85.9775853  53.8460430  37.4160564
  84.8469759  53.7130647  38.4140124  81.9223567  49.2250626  35.5339489
  82.7684762  49.6490040  35.6774138  81.8622205  48.5684250  36.2278052
  85.8921312  54.8479210  31.9158220  85.2630174  55.0124924  31.2134288
  85.5046974  55.2620819  32.6869185  85.0723012  46.8854994  37.1920662
  84.8283944  47.6397055  36.6554938  85.3482943  47.2640342  38.0267909
  87.0261475  53.4293607  35.8697928  87.2378370  54.0725367  35.1932309
  86.9791223  52.5955923  35.4019858  84.6287704  46.0411427  32.7734500
  83.7672183  46.3392681  33.0651237  84.6550139  46.2581826  31.8415533
  81.4449274  54.5853618  29.1808306  81.9087619  54.8641321  28.3912928
  81.1806072  53.6837063  28.9981396  78.3373355  54.1325099  32.1188069
  78.9074712  54.5612368  31.4805553  78.9281466  53.8507684  32.8172255
  80.3818160  50.7076770  25.9897871  81.0842203  51.1597814  26.4571797
  80.0498788  50.0660589  26.6177764  78.8298521  49.2988527  40.3649080
  78.1997182  49.9804808  40.5984477  78.7234609  49.1871609  39.4202218
  74.1243494  48.9660323  31.2915004  73.3342548  49.2217852  30.8155115
  74.6154741  49.7808661  31.3967045  76.0758239  49.3304902  28.2498481
  75.2789402  49.4423596  28.7681977  75.8483831  49.6691554  27.3839372
  81.9063907  55.8549605  36.1980996  81.9708339  56.3170013  37.0339167
  81.1974830  55.2246970  36.3263305  72.4081197  49.2190813  33.7229995
  72.6589235  50.1037823  33.9887571  72.9440745  49.0395415  32.9505087
  81.6211924  57.5217713  26.0659976  81.4857599  58.3669249  26.4944824
  82.1621737  57.7236991  25.3025910  78.1079264  43.6009293  42.7274331
  77.7146209  43.0475491  43.4021975  78.9245404  43.9119871  43.1180849
  75.0741322  55.0393151  26.6387901  75.5865842  55.8336401  26.7893466
  75.7264034  54.3419441  26.5721502  76.8836206  58.1558907  28.7210654
  77.0602835  59.0776872  28.5331638  77.6793040  57.8417326  29.1505034
  81.0247225  45.0167172  40.3194588  81.7656938  45.6174325  40.2399050
  81.2565148  44.2744810  39.7612630  76.1688563  50.2023539  38.5972817
  76.0542078  49.3008796  38.8979916  75.3133081  50.4487236  38.2457634
  83.2480401  58.1441279  40.1960318  82.8044255  57.3577658  39.8781223
  83.9097614  58.3320430  39.5304209  78.0067522  59.6737081  34.7220997
  78.5574947  59.5454144  33.9497990  77.1678998  59.9731970  34.3715889
  85.3461639  58.4244079  38.2241719  85.3280114  59.2452960  37.7321988
  86.2681559  58.2998155  38.4491860  81.8034693  55.9388209  39.0665228
  82.3363030  55.1776497  38.8364536  81.2748774  55.6461861  39.8089382
  84.9704388  41.0448275  34.5958869  84.6268657  41.9349916  34.5197980
  85.3383350  40.8549932  33.7328454  73.0390238  53.3681805  27.4147472
  73.8765460  53.7778814  27.1981179  73.2168506  52.4281247  27.3847665
  84.9354671  51.0356886  23.1031305  84.4201294  51.8061491  23.3419692
  84.6631979  50.3622022  23.7264366  82.5201782  45.8806587  28.1616543
  81.6643378  45.4913437  27.9822182  82.9328733  45.9598548  27.3016328
  84.0500928  43.4152930  32.5608103  83.5465724  43.3783065  31.7475908
  84.3431535  44.3245673  32.6204759  80.2943814  43.4991660  31.5674284
  81.1596811  43.3034468  31.2080174  80.3621323  43.2702011  32.4943641
  84.7240974  48.9083978  24.9291086  84.4191109  49.2230127  25.7801229
  85.6771416  48.9865398  24.9718419  83.1687406  55.0674201  26.5784040
  82.6408767  54.3326961  26.2657277  82.6674908  55.8448878  26.3324008
  77.9006133  45.7293868  28.9390651  78.4749885  45.5069049  28.2063844
  78.4877116  45.7982562  29.6919252  86.9585710  51.6167595  29.7455028
  87.4717592  52.2497586  30.2476737  87.6086934  51.0168790  29.3798388
  78.2275720  47.7598329  22.9586536  77.3913033  48.0973015  23.2795811
  78.0880490  47.6247308  22.0213673  80.2028801  42.6035117  27.6665721
  79.5493213  42.2884134  27.0422335  80.1609275  41.9810857  28.3925544
  81.3140006  52.8854412  19.5819013  80.4067067  52.6543665  19.7810162
  81.8111038  52.0892031  19.7692994  84.2208085  61.5951919  22.5015699
  83.5469783  61.8983616  23.1100657  84.6073907  62.3980999  22.1521156
  83.4366541  49.0917050  31.9913368  82.5189103  49.3131997  31.8335056
  83.8526685  49.1663361  31.1325076  84.2201589  50.4908466  27.1216049
  84.9673408  51.0029863  26.8123171  84.4893179  50.1692518  27.9820442
  82.4928239  52.9867006  24.1043003  81.5839458  52.7026039  24.2015473
  82.5223323  53.4066085  23.2446310  87.7247507  56.5973596  27.8734170
  87.2709834  55.7564506  27.9299361  87.0941473  57.2334994  28.2108951
  86.6680426  47.5265582  29.1034838  85.9303183  47.0142968  29.4345080
  86.9207200  47.0865964  28.2918115  86.1680446  58.4350093  28.8083989
  86.4603420  58.9955150  28.0896354  86.6779066  58.7278654  29.5637148
  86.7692053  40.3041834  29.6976607  87.0750930  39.4439197  29.4102522
  87.4944658  40.8959454  29.4975601  73.0616410  50.7072521  28.0858205
  72.8640809  50.1141881  27.3609272  72.5063074  50.4024731  28.8034144
  81.0413133  50.5995627  30.2052798  81.0961743  49.6469463  30.1295275
  80.2304335  50.7555066  30.6894097  82.1904327  54.5275750  21.4431081
  81.7523757  53.8111609  20.9836719  82.9314768  54.7551865  20.8816173
  78.9805493  49.2172687  27.9643177  78.1673359  49.5166857  28.3708369
  79.4764487  48.8228376  28.6817659  81.1314071  59.2130444  29.8977442
  81.0890250  59.4391290  28.9685974  82.0476770  58.9793818  30.0463243
  84.5779705  49.6814511  36.7958071  84.9329093  49.9085984  37.6552537
  85.2251836  50.0132888  36.1735326  78.4719568  46.7891042  33.5804412
  79.1118947  46.6479801  32.8827375  77.6397098  46.5025556  33.2043014
  79.2479872  56.0893473  29.6939404  80.0420470  55.5943793  29.4921979
  78.5371564  55.5611336  29.3307110  84.0674716  58.4711568  34.0451772
  84.1211739  59.0402505  34.8129488  83.1989498  58.6413453  33.6805809
  75.5562635  50.2336554  25.7699157  74.6260223  50.1721010  25.9869119
  75.6520107  49.7112507  24.9735798  75.4748184  46.7591367  28.3577399
  75.7355002  47.6736701  28.2486559  76.2965357  46.2915810  28.5074012
  76.9473110  48.1729124  35.5276223  77.6196163  47.9646487  34.8788872
  76.1202896  47.9751210  35.0881456  82.8498682  44.7991065  37.5441884
  82.2026597  45.4981015  37.4506361  83.6199697  45.2327209  37.9118132
  86.2577480  55.0639918  40.6192437  86.1062986  54.8350469  39.7022521
  86.2482159  56.0210519  40.6323782  83.0262816  52.6371830  35.6038704
  83.9554876  52.7882990  35.4307671  82.6053846  52.7255851  34.7487350
  81.8251148  56.6622495  33.3737242  81.6862233  56.2941279  34.2463180
  81.0365744  57.1770134  33.2021199  82.4199300  61.7631591  24.7162778
  82.5951055  61.2919634  25.5308401  81.7332088  62.3897357  24.9444039
  83.3756363  56.0404097  30.7626079  83.0406196  56.0004867  31.6583729
  82.8760309  55.3748813  30.2896490  77.3500607  51.4471727  36.2878660
  77.2120405  50.7151966  36.8890200  78.2605530  51.3580628  36.0062848
  86.3115555  53.3860132  21.0363139  85.6944725  52.6606960  20.9396192
  85.8432043  54.1469492  20.6930213  79.9782908  51.1591687  35.7762340
  80.6882526  50.5184879  35.7348959  79.9352216  51.4104582  36.6988521
  87.9669686  58.0959040  38.6968919  87.9082232  57.4118260  38.0299502
  88.3689205  58.8378030  38.2449545  78.6911842  48.1456905  37.5957980
  78.1549199  47.6947643  38.2479576  78.1028550  48.2802814  36.8528444
  76.9860385  64.9120954  31.4902638  77.2256983  65.5439478  32.1681657
  76.1429582  64.5608994  31.7767997  78.1014100  47.6045556  20.1584443
  77.2243567  47.4834357  19.7946690  78.5771854  46.8131634  19.9063332
  69.6216241  52.3922716  30.2525950  70.3087280  52.0784446  29.6646966
  69.4664369  53.2964080  29.9793202  74.4250963  47.2812912  34.6810974
  74.3409151  46.6738582  33.9461384  73.6033669  47.7721931  34.6820470
  81.4988247  60.7200076  33.8944142  81.4258418  61.5255048  34.4063447
  81.0565640  60.9192042  33.0692164  81.2878027  59.9571846  27.4046964
  80.5045548  60.4993527  27.4985188  81.9870772  60.4745826  27.8041205
  84.5974677  45.7666476  30.0481169  85.0943376  45.0136438  29.7282239
  83.8261658  45.8030793  29.4824378  83.9586930  60.6186910  36.0502301
  84.6714903  61.2534375  35.9778202  83.4676959  60.7150776  35.2342303
  85.6804457  54.5238163  27.6219593  84.7460736  54.6439626  27.4524297
  85.8581126  53.6210630  27.3579602  81.1809645  47.9083859  29.7752854
  80.8107433  47.3554899  30.4633759  81.6768738  47.3041992  29.2227854
  79.0098844  58.3681354  36.8707872  79.7108303  59.0017837  37.0237266
  78.5393959  58.7096085  36.1103511  87.1353240  56.7099304  25.1555779
  87.4113084  56.5955898  26.0649653  86.2657739  56.3116789  25.1167952
  87.0393671  42.7336069  32.1960528  86.1256751  42.9640296  32.3642735
  87.4686773  42.8174513  33.0474560  86.8100130  50.9225961  34.6960422
  86.1571580  51.1701869  34.0412875  87.1880510  50.1090100  34.3622899
  83.7707304  60.9585655  28.7988592  83.9529698  60.1407310  29.2616345
  84.5940290  61.1753347  28.3613482  84.1049469  59.8853840  26.0603641
  84.6337236  59.3746294  25.4473803  84.3677689  59.5696370  26.9249174
  82.8587703  51.6645772  41.1826459  82.1828340  51.5639902  41.8528834
  83.6815337  51.5084986  41.6462456  74.6066562  57.9017709  33.8038974
  75.1919999  57.1561397  33.9366879  74.4091400  58.2121666  34.6875638
  77.4605217  60.9368956  28.8201417  76.7915592  61.4215084  28.3365457
  77.3218087  61.1838177  29.7344795  81.6010486  62.9712700  35.4184075
  82.1528794  63.1344321  36.1833160  81.9416679  63.5617138  34.7464100
  76.5774979  45.3187850  36.0205960  76.6416306  46.1802681  35.6083358
  76.5142099  44.7061851  35.2878318  76.0527252  47.3910982  39.6678994
  76.6799290  47.0088060  40.2816518  75.1955170  47.1725184  40.0334687
  86.4521360  57.7973957  41.2732730  86.9961264  58.4103916  40.7787684
  85.8708205  58.3553536  41.7899743  72.8292794  49.1987411  25.5997349
  73.1246235  48.2898090  25.5464403  71.9280830  49.1775151  25.2778351
  84.7378873  60.9194675  32.4047757  84.6130013  60.1184415  31.8958703
  85.3957964  61.4140869  31.9161727  76.3587041  47.2743408  31.5824898
  75.6373627  47.8879376  31.4432371  77.1480297  47.8101173  31.5041543
  86.8013781  58.7203695  34.0327307  85.8544117  58.6009047  33.9605634
  87.1496555  57.8326194  34.1153569  79.1613355  44.6097834  37.8565549
  79.6847757  44.8560131  38.6191859  78.9425688  45.4417869  37.4368687
  74.5580636  46.8801509  25.7236674  74.2293342  45.9998888  25.5411780
  74.9120007  46.8249178  26.6113063  83.8060215  58.5156412  30.2331660
  83.6585177  57.5873119  30.4139230  84.6313708  58.5376502  29.7488735
  77.6722459  47.1674479  26.0912152  78.0118532  47.6960400  25.3690760
  78.1194580  47.5054885  26.8670718  87.4094337  59.3384970  31.3196532
  88.3340884  59.1327832  31.1820983  87.2409640  59.0901372  32.2285874
  80.3665900  45.5511530  35.5415220  80.0262720  44.7519343  35.9435900
  79.6604906  45.8513240  34.9692053  81.0182372  42.6360842  33.9942543
  81.8408441  42.1621320  33.8721433  81.2620435  43.4151326  34.4941229
  79.6590606  45.6649100  24.2905444  80.3798969  46.0430353  23.7869161
  79.0355910  46.3837977  24.3940422  83.8021729  46.3694249  25.2263777
  84.0185343  47.2518887  24.9252605  83.3215796  45.9780463  24.4969419
  78.5420950  49.3279963  31.8034521  78.3965531  49.6420266  32.6958803
  78.0646154  49.9464863  31.2505420  80.4017333  46.3182511  31.8515411
  80.3878902  45.4223604  31.5147709  81.1189761  46.3253174  32.4853697
  82.2543464  46.7519851  33.8968538  81.9961242  47.6736921  33.8952869
  81.7228504  46.3550285  34.5869003  87.1989653  59.8570638  26.6758624
  87.3726530  59.2917060  25.9232476  87.6918544  60.6571533  26.4938114
  73.0166613  51.8685307  34.7422183  72.4720081  52.6445115  34.8742457
  73.8945963  52.2156111  34.5841304  79.8054229  45.1996891  27.1202981
  79.9270140  44.2713537  27.3193869  79.5156272  45.2135577  26.2081297
  82.6745420  42.8851801  30.2569701  82.6967116  42.9491134  29.3021681
  83.0913479  42.0456310  30.4510207  73.8032635  50.9955203  37.6352339
  73.0614371  51.1437839  38.2216970  73.4825379  51.2563469  36.7719089
  81.7476297  60.5371181  37.4332729  82.0563424  60.2920328  38.3055429
  82.5451779  60.7417820  36.9451600  81.7696909  62.6909091  29.6638106
  81.3301899  62.1985470  30.3570963  82.5205026  62.1482059  29.4230181
  74.2489248  58.8820632  29.6662734  75.0747268  58.5824404  29.2861378
  73.8983300  58.1128254  30.1152523  79.2170781  58.2347100  31.7360408
  78.5950791  57.5717805  31.4362636  79.8875648  58.2608232  31.0534055
  72.4497853  56.8006958  30.6251668  71.6129762  56.3729133  30.4435669
  72.4221499  56.9939402  31.5622459  79.2895309  46.7128888  41.3292914
  79.3383464  47.5891011  40.9470683  79.8317823  46.1706281  40.7564557
  78.7784288  56.7851024  25.2118868  78.9272409  57.4686488  24.5585541
  79.5850732  56.7656114  25.7268324  87.1851792  50.0893406  39.2386086
  88.0861655  49.9499871  38.9470084  87.2599766  50.2547861  40.1784263
  81.5194597  47.4660261  38.0839272  80.6497907  47.7593827  37.8121861
  81.7554078  48.0500706  38.8046536  76.5336921  52.8116201  26.2179937
  76.2882963  51.9078531  26.4160147  76.7032836  52.8133352  25.2759415
  84.2233631  43.6839878  35.6004693  84.7415575  44.4200904  35.2751181
  83.8688764  43.9903871  36.4351452  75.8032569  48.5444559  23.7166099
  75.1101814  48.6188914  23.0606135  75.5584321  47.7804902  24.2387616
  84.4746225  40.1040160  31.1205589  84.7547979  39.4363349  31.7466016
  85.2596832  40.2969256  30.6080253  82.2779694  59.2799154  22.6830616
  81.7053661  59.8989341  22.2301088  82.8512487  59.8298516  23.2170538
  86.3669463  45.6113377  35.0536565  85.7719395  45.8918390  34.3583054
  86.0819160  46.1007278  35.8253306  85.4976954  59.5636304  23.8139198
  86.4307627  59.4981866  24.0172073  85.4100166  60.3992571  23.3553731
  82.6626492  50.6159967  20.0246668  83.6085597  50.4866175  20.0935086
  82.2840737  49.8774629  20.5016096  82.5465185  54.6677713  41.4847325
  83.4668194  54.8456312  41.6787372  82.5114768  53.7233758  41.3327024
  80.8469409  48.5409943  19.9601553  79.9400865  48.2443056  20.0364267
  81.1245390  48.2439761  19.0935840  71.7647350  49.8616307  30.4100600
  71.4450134  49.0081615  30.1174974  71.2180778  50.0764885  31.1658567
  75.5427257  52.5778748  34.1270106  75.7613267  53.5095855  34.1458140
  75.9553031  52.2186722  34.9124910  82.4631475  43.0846833  26.1145795
  81.6532203  42.7393918  26.4901041  83.1515892  42.7754377  26.7033406
  84.3922023  42.1624880  27.7370091  84.9453062  42.5820333  28.3960114
  84.6292110  41.2360628  27.7793047  80.4155123  48.1511953  43.5172855
  80.3151850  49.1006310  43.4484946  80.1976665  47.8230192  42.6448925
  79.6168194  45.3996878  20.1013533  80.4787358  45.7251777  20.3609350
  79.8018538  44.6128374  19.5886598  71.6335610  53.4819218  32.3793721
  70.9399081  53.0673171  31.8663676  72.3808601  53.5239755  31.7827140
  87.7700831  44.2725405  27.2448756  87.1899500  44.9310209  26.8626808
  87.5036763  43.4502749  26.8336173  86.2204397  43.6730463  29.4470076
  86.7204175  43.7846997  28.6384395  86.8640005  43.3691515  30.0870884
  80.2786393  51.5809092  42.3337917  79.7953474  52.3809452  42.5401806
  80.3647332  51.5917037  41.3805361  73.5472352  53.4137472  30.2559736
  73.5243040  53.5125159  29.3041619  73.8572989  54.2602623  30.5776902
  76.2059730  55.4713627  34.3706351  77.1602984  55.4397569  34.3036282
  76.0072254  55.0104251  35.1856577  76.7959112  54.0414743  36.9377148
  77.6152001  54.5358822  36.9611986  77.0695920  53.1246711  36.9094716
  86.5525709  46.4325495  26.3005104  85.6651564  46.7175146  26.0825299
  86.9679698  46.2719259  25.4532381  74.5609959  61.0133246  31.3876549
  74.4264427  60.2533647  30.8214547  74.1442021  61.7374146  30.9205337
  85.6968922  56.1970170  20.3953124  86.4004772  56.4020172  21.0110779
  84.9731571  56.7646932  20.6602207  86.5266732  51.9480031  26.5155394
  86.4701934  52.4048583  25.6763026  87.0795075  51.1870716  26.3378237
  77.7179085  61.9102563  31.5994991  77.6011469  62.8547996  31.4973681
  76.8971531  61.6076125  31.9880790  87.6055619  56.6352699  22.4451584
  88.4401223  56.2033898  22.2629059  87.4439962  56.4634713  23.3728478
  87.2601512  53.1384812  23.8107923  87.2050315  52.9729084  22.8696367
  86.6347567  53.8460845  23.9670113  84.5747419  55.4433724  43.1361486
  85.4438578  55.6174377  42.7748121  84.0954170  56.2628141  43.0137215
  80.5697637  42.6392921  23.3893242  80.5576307  43.5834761  23.5461512
  81.4621059  42.4563067  23.0952703  78.7433599  62.5630825  34.8150920
  79.6460846  62.5954435  35.1317415  78.5170969  61.6331276  34.8297255
  80.4987201  61.3161812  31.4760998  79.5482832  61.3163673  31.3625371
  80.8019687  60.5694546  30.9597033  84.3849757  39.2335698  27.6439178
  83.6182152  38.6794185  27.7895861  84.7960461  39.3057567  28.5053330
  76.3891518  45.5220494  41.7344360  77.2522979  45.1657299  41.9447684
  75.8156928  45.1834389  42.4219764  86.4480848  70.4536446  31.3049397
  87.2402140  70.1127271  30.8895696  86.6877499  70.5631421  32.2251550
  86.0167823  66.8230228  31.2463962  86.1460204  67.0764707  32.1603374
  85.3365274  67.4157936  30.9268617  84.9637248  64.2952241  31.2915004
  84.1736302  64.5509769  30.8155115  85.4548495  65.1100579  31.3967045
  86.9151993  64.6596820  28.2498481  86.1183157  64.7715514  28.7681977
  86.6877586  64.9983472  27.3839372  83.2474951  64.5482731  33.7229995
  83.4982989  65.4329741  33.9887571  83.7834499  64.3687333  32.9505087
  85.9135076  70.3685069  26.6387901  86.4259597  71.1628319  26.7893466
  86.5657789  69.6711359  26.5721502  87.0082317  65.5315457  38.5972817
  86.8935832  64.6300714  38.8979916  86.1526835  65.7779154  38.2457634
  83.8783993  68.6973723  27.4147472  84.7159215  69.1070731  27.1981179
  84.0562261  67.7573165  27.3847665  83.9010164  66.0364438  28.0858205
  83.7034564  65.4433799  27.3609272  83.3456828  65.7316648  28.8034144
  86.3956390  65.5628472  25.7699157  85.4653978  65.5012928  25.9869119
  86.4913862  65.0404425  24.9735798  86.3141939  62.0883285  28.3577399
  86.5748756  63.0028618  28.2486559  87.1359111  61.6207728  28.5074012
  87.7866864  63.5021042  35.5276223  88.4589918  63.2938404  34.8788872
  86.9596651  63.3043128  35.0881456  80.4609995  67.7214633  30.2525950
  81.1481035  67.4076364  29.6646966  80.3058124  68.6255998  29.9793202
  85.2644717  62.6104830  34.6810974  85.1802906  62.0030500  33.9461384
  84.4427424  63.1013848  34.6820470  85.4460316  73.2309627  33.8038974
  86.0313753  72.4853315  33.9366879  85.2485155  73.5413583  34.6875638
  80.0377971  65.8015227  32.5243418  80.0762071  65.2678818  33.3180536
  79.5318264  65.2750432  31.9054395  87.4168734  60.6479767  36.0205960
  87.4810060  61.5094598  35.6083358  87.3535854  60.0353769  35.2878318
  86.8921006  62.7202900  39.6678994  87.5193045  62.3379977  40.2816518
  86.0348925  62.5017102  40.0334687  83.6686549  64.5279329  25.5997349
  83.9639990  63.6190007  25.5464403  82.7674585  64.5067068  25.2778351
  87.1980796  62.6035326  31.5824898  86.4767382  63.2171293  31.4432371
  87.9874052  63.1393090  31.5041543  85.3974390  62.2093427  25.7236674
  85.0687097  61.3290806  25.5411780  85.7513761  62.1541095  26.6113063
  83.8560367  67.1977225  34.7422183  83.3113835  67.9737033  34.8742457
  84.7339717  67.5448029  34.5841304  84.6426389  66.3247121  37.6352339
  83.9008125  66.4729756  38.2216970  84.3219133  66.5855387  36.7719089
  85.0883003  74.2112550  29.6662734  85.9141023  73.9116321  29.2861378
  84.7377055  73.4420172  30.1152523  83.2891608  72.1298876  30.6251668
  82.4523516  71.7021050  30.4435669  83.2615253  72.3231319  31.5622459
  87.3730676  68.1408119  26.2179937  87.1276718  67.2370449  26.4160147
  87.5426590  68.1425269  25.2759415  86.6426323  63.8736476  23.7166099
  85.9495568  63.9480831  23.0606135  86.3978075  63.1096820  24.2387616
  82.6041104  65.1908224  30.4100600  82.2843889  64.3373532  30.1174974
  82.0574532  65.4056802  31.1658567  86.3821012  67.9070665  34.1270106
  86.6007022  68.8387773  34.1458140  86.7946786  67.5478640  34.9124910
  82.4729364  68.8111136  32.3793721  81.7792836  68.3965088  31.8663676
  83.2202355  68.8531672  31.7827140  84.3866107  68.7429389  30.2559736
  84.3636795  68.8417077  29.3041619  84.6966743  69.5894540  30.5776902
  87.0453485  70.8005544  34.3706351  87.9996738  70.7689487  34.3036282
  86.8466008  70.3396168  35.1856577  87.6352867  69.3706661  36.9377148
  88.4545756  69.8650739  36.9611986  87.9089675  68.4538629  36.9094716
  85.4003713  76.3425164  31.3876549  85.2658181  75.5825565  30.8214547
  84.9835776  77.0666064  30.9205337  82.8887781  63.7044794  37.6369345
  83.5346645  63.1943748  38.1256571  82.6804932  64.4413476  38.2112771
  87.2285272  60.8512411  41.7344360  88.0916734  60.4949216  41.9447684
  86.6550683  60.5126306  42.4219764  57.6686048   8.5113847  14.0699743
  57.5910077   9.4621672  14.1488223  57.0647691   8.1659720  14.7274669
  59.9424417   3.8696000  12.7905283  59.8070091   4.7147536  13.2190130
  60.4834229   4.0715278  12.0271216  55.2048699   4.5037194  15.4455961
  55.3815327   5.4255159  15.2576945  56.0005532   4.1895614  15.8750341
  61.5692893   4.4919567  26.9205625  61.1256747   3.7055945  26.6026529
  62.2310106   4.6798717  26.2549515  56.3280014   6.0215368  21.4466303
  56.8787439   5.8932432  20.6743297  55.4891490   6.3210257  21.0961196
  62.5420577   7.9430206   9.2261006  61.8682276   8.2461903   9.8345963
  62.9286399   8.7459286   8.8766463  64.4892938   4.7828380  15.5329295
  64.7815912   5.3433437  14.8141661  64.9991559   5.0756941  16.2882454
  59.4526563   5.5608731  16.6222748  59.4102742   5.7869577  15.6931280
  60.3689262   5.3272106  16.7708549  62.3887209   4.8189856  20.7697079
  62.4424231   5.3880792  21.5374795  61.5201990   4.9891741  20.4051116
  60.7411792   8.1109878  11.4408085  60.9163548   7.6397922  12.2553707
  60.0544580   8.7375645  11.6689345  55.3072877  11.2599241  18.2147945
  55.5469476  11.8917765  18.8926963  54.4642074  10.9087281  18.5013304
  59.8200739   7.0678364  20.6189449  59.7470911   7.8733335  21.1308753
  59.3778132   7.2670329  19.7937470  59.6090519   6.3050134  14.1292270
  58.8258041   6.8471814  14.2230495  60.3083264   6.8224113  14.5286512
  62.2799423   6.9665198  22.7747607  62.9927395   7.6012663  22.7023509
  61.7889451   7.0629064  21.9587609  57.3311336   4.7159641  23.5953178
  58.0320796   5.3496124  23.7482573  56.8606451   5.0574373  22.8348818
  62.0919796   7.3063942  15.5233899  62.2742191   6.4885598  15.9861651
  62.9152782   7.5231634  15.0858789  62.4261962   6.2332127  12.7848947
  62.9549728   5.7224582  12.1719110  62.6890181   5.9174657  13.6494480
  52.9279054   4.2495996  20.5284281  53.5132491   3.5039684  20.6612185
  52.7303893   4.5599953  21.4120945  55.7817710   7.2847244  15.5446723
  55.1128085   7.7693371  15.0610763  55.6430579   7.5316464  16.4590102
  59.9222978   9.3190987  22.1429382  60.4741286   9.4822609  22.9078467
  60.2629172   9.9095425  21.4709407  63.0591365   7.2672963  19.1293064
  62.9342505   6.4662702  18.6204009  63.7170456   7.7619156  18.6407034
  62.1272707   4.8634699  16.9576966  61.9797669   3.9351406  17.1384536
  62.9526201   4.8854790  16.4734041  65.7306829   5.6863258  18.0441839
  66.6553376   5.4806119  17.9066290  65.5622132   5.4379659  18.9531180
  65.5202145   6.2048925  13.4003930  65.6939023   5.6395348  12.6477783
  66.0131036   7.0049820  13.2183420  60.0688789   6.8849469  24.1578036
  60.3775916   6.6398615  25.0300736  60.8664271   7.0896107  23.6696906
  60.0909401   9.0387378  16.3883413  59.6514392   8.5463757  17.0816269
  60.8417518   8.4960346  16.1475488  52.5701740   5.2298919  16.3908041
  53.3959760   4.9302691  16.0106684  52.2195792   4.4606542  16.8397829
  57.5383274   4.5825387  18.4605714  56.9163283   3.9196092  18.1607942
  58.2088141   4.6086519  17.7779362  50.7710345   3.1485246  17.3496974
  49.9342254   2.7207420  17.1680976  50.7433991   3.3417689  18.2867766
  57.0996781   3.1329311  11.9364175  57.2484901   3.8164775  11.2830848
  57.9063224   3.1134401  12.4513631  60.5992186   5.6277441   9.4075922
  60.0266153   6.2467628   8.9546394  61.1724980   6.1776803   9.9415844
  49.9548102  -0.1702495  19.1039028  49.2611574  -0.5848542  18.5908982
  50.7021093  -0.1281958  18.5072447  54.5272222   1.8191914  21.0951657
  55.4815476   1.7875856  21.0281589  54.3284746   1.3582538  21.9101883
  52.8822451   7.3611534  18.1121855  52.7476919   6.6011934  17.5459853
  52.4654514   8.0852433  17.6450644  56.0391577   8.2580851  18.3240298
  55.9223961   9.2026283  18.2218988  55.2184023   7.9554412  18.7126097
  57.0646091   8.9109112  21.5396226  57.9673338   8.9432723  21.8562721
  56.8383461   7.9809563  21.5542562  58.8199693   7.6640099  18.2006305
  57.8695324   7.6641961  18.0870677  59.1232179   6.9172834  17.6842339
  74.5552387  13.5000637  19.2652067  75.1930797  13.3807385  18.5615407
  74.4373230  14.4481481  19.3240019  71.3642093  13.4528066  19.2013592
  71.0260605  13.3369130  18.3134127  72.2331861  13.0519231  19.1814598
  67.2228909  15.3063542  15.1910483  66.6593774  15.2153479  14.4226771
  67.1081304  14.4863446  15.6712975  71.8461876  14.6062917  25.1599797
  71.8350517  14.2115716  24.2880301  72.0082516  13.8728990  25.7533569
  64.7693341  16.8014734  18.0294703  65.5614633  16.4605558  17.6141003
  65.0089991  16.9109709  18.9496857  66.7284095  16.0623647  10.9012082
  67.5014971  15.5152634  10.7624958  67.0809494  16.9267896  11.1126544
  68.5669137  17.3900029  24.1078981  68.2759003  18.2945660  23.9925648
  69.2026122  17.4316557  24.8223051  69.4925344  14.7676878  20.6980341
  70.0888916  14.5432900  19.9837304  69.5500316  14.0261623  21.3005789
  71.1278202  13.5854566  14.4401596  70.7636409  13.0585187  15.1514518
  71.9845318  13.1953035  14.2668082  73.5259022  17.0761445  21.1028775
  73.2259745  17.9786483  20.9944582  73.1810082  16.8093628  21.9549928
  66.9771504  13.5275241  17.1365480  66.0522000  13.3951455  17.3443171
  67.2255917  14.3069461  17.6335422  64.3380315  13.1708515  17.9709269
  64.4672696  13.4242994  18.8848680  63.6577766  13.7636223  17.6513924
  68.5079802  23.8405765  14.0699743  68.4303832  24.7913590  14.1488223
  67.9041446  23.4951637  14.7274669  70.9997032  11.0133630  26.7261110
  70.2230366  11.5727550  26.7163974  71.6387595  11.4990413  27.2475980
  69.2543404  13.8219084  26.2879077  69.9958089  14.3604128  26.0113900
  68.5480390  14.4485372  26.4450629  74.7298744  15.9648224  24.8851238
  75.1382100  15.5230635  24.1405871  74.0076005  15.3900852  25.1385431
  71.0829814  10.9020831  22.2584795  71.9291009  11.3260244  22.4019444
  71.0228452  10.2454455  22.9523358  75.0527558  16.5249415  18.6403527
  74.4236421  16.6895129  17.9379595  74.6653221  16.9391024  19.4114491
  74.2329259   8.5625199  23.9165969  73.9890191   9.3167260  23.3800245
  74.5089190   8.9410547  24.7513216  76.1867722  15.1063812  22.5943234
  76.3984617  15.7495572  21.9177615  76.1397470  14.2726128  22.1265164
  70.6055520  16.2623823  15.9053612  71.0693866  16.5411526  15.1158235
  70.3412318  15.3607267  15.7226703  67.4979601  15.8095304  18.8433375
  68.0680958  16.2382573  18.2050860  68.0887713  15.5277889  19.5417561
  69.5424406  12.3846975  12.7143177  70.2448450  12.8368019  13.1817104
  69.2105035  11.7430794  13.3423070  67.9904768  10.9758732  27.0894387
  67.3603428  11.6575013  27.3229784  67.8840856  10.8641813  26.1447525
  63.2849740  10.6430528  18.0160311  62.4948794  10.8988056  17.5400422
  63.7760988  11.4578866  18.1212351  77.3013550  17.9835767  20.7665592
  78.1230994  17.5815954  20.4848273  77.2975953  17.8804001  21.7181708
  65.2364486  11.0075107  14.9743788  64.4395649  11.1193801  15.4927283
  65.0090078  11.3461759  14.1084678  71.0670153  17.5319810  22.9226302
  71.1314586  17.9940218  23.7584474  70.3581077  16.9017175  23.0508612
  61.5687443  10.8961018  20.4475302  61.8195482  11.7808028  20.7132878
  62.1046992  10.7165620  19.6750394  70.7818171  19.1987918  12.7905283
  70.6463846  20.0439454  13.2190130  71.3227983  19.4007195  12.0271216
  64.2347568  16.7163356  13.3633208  64.7472089  17.5106606  13.5138772
  64.8870281  16.0189646  13.2966809  66.0442453  19.8329112  15.4455961
  66.2209081  20.7547077  15.2576945  66.8399287  19.5187531  15.8750341
  65.3294810  11.8793744  25.3218124  65.2148325  10.9779001  25.6225223
  64.4739327  12.1257441  24.9702941  72.4086647  19.8211484  26.9205625
  71.9650502  19.0347863  26.6026529  73.0703861  20.0090635  26.2549515
  67.1673769  21.3507286  21.4466303  67.7181194  21.2224349  20.6743297
  66.3285244  21.6502175  21.0961196  74.5067885  20.1014284  24.9487026
  74.4886361  20.9223165  24.4567295  75.4287805  19.9768360  25.1737167
  70.9640940  17.6158414  25.7910534  71.4969276  16.8546702  25.5609842
  70.4355021  17.3232066  26.5334689  62.1996485  15.0452010  14.1392778
  63.0371707  15.4549019  13.9226486  62.3774753  14.1051452  14.1092972
  72.3293652  16.7444406  13.3029346  71.8015014  16.0097166  12.9902584
  71.8281155  17.5219083  13.0569315  77.3086498  14.9393427  18.4196393
  76.6510173  15.6292688  18.5076521  78.1126898  15.3289859  18.7630379
  67.0612380   7.4064073  15.6635958  67.6356132   7.1839254  14.9309151
  67.6483362   7.4752767  16.4164559  73.3814331  23.2722124   9.2261006
  72.7076030  23.5753820   9.8345963  73.7680153  24.0751204   8.8766463
  72.5972788  10.7687255  18.7158675  71.6795349  10.9902202  18.5580363
  73.0132932  10.8433565  17.8570382  76.8853753  18.2743801  14.5979477
  76.4316080  17.4334711  14.6544667  76.2547720  18.9105199  14.9354257
  75.3286693  20.1120298  15.5329295  75.6209667  20.6725355  14.8141661
  75.8385313  20.4048859  16.2882454  62.2222656  12.3842726  14.8103512
  62.0247056  11.7912086  14.0854578  61.6669320  12.0794936  15.5279450
  70.2019380  12.2765832  16.9298105  70.2567990  11.3239668  16.8540581
  69.3910582  12.4325271  17.4139403  68.1411740  10.8942892  14.6888484
  67.3279605  11.1937062  15.0953676  68.6370734  10.4998581  15.4062966
  70.2920318  20.8900649  16.6222748  70.2496497  21.1161495  15.6931280
  71.2083017  20.6564023  16.7708549  73.7385952  11.3584716  23.5203378
  74.0935339  11.5856189  24.3797843  74.3858083  11.6903093  22.8980633
  67.6325815   8.4661247  20.3049719  68.2725194   8.3250006  19.6072682
  66.8003345   8.1795761  19.9288321  79.4953068  16.5479679  19.2363978
  79.9289575  16.4554968  20.0847032  80.2084649  16.5237180  18.5983994
  68.4086119  17.7663678  16.4184711  69.2026717  17.2713998  16.2167286
  67.6977811  17.2381541  16.0552417  73.2280963  20.1481773  20.7697079
  73.2817985  20.7172710  21.5374795  72.3595744  20.3183658  20.4051116
  64.7168882  11.9106759  12.4944464  63.7866470  11.8491215  12.7114426
  64.8126354  11.3882712  11.6981105  64.6354431   8.4361572  15.0822705
  64.8961248   9.3506905  14.9731866  65.4571603   7.9686015  15.2319318
  66.1079356   9.8499329  22.2521530  66.7802410   9.6416692  21.6034179
  65.2809143   9.6521415  21.8126762  80.3568618  16.5903380  21.7696863
  80.5504508  17.4949190  22.0156138  80.2569236  16.1310799  22.6035449
  75.4183726  16.7410123  27.3437744  75.2669233  16.5120674  26.4267828
  75.4088406  17.6980724  27.3569089  72.1869063  14.3142035  22.3284011
  73.1161123  14.4653195  22.1552978  71.7660093  14.4026056  21.4732657
  70.9857395  18.3392700  20.0982548  70.8468480  17.9711484  20.9708486
  70.1971991  18.8540339  19.9266506  71.5805547  23.4401796  11.4408085
  71.7557302  22.9689839  12.2553707  70.8938335  24.0667562  11.6689345
  72.5362610  17.7174302  17.4871386  72.2012442  17.6775072  18.3829036
  72.0366555  17.0519018  17.0141796  66.5106854  13.1241932  23.0123967
  66.3726652  12.3922171  23.6135506  67.4211777  13.0350832  22.7308155
  69.1389154  12.8361892  22.5007647  69.8488773  12.1955084  22.4594265
  69.0958462  13.0874787  23.4233828  77.1275933  19.7729245  25.4214226
  77.0688479  19.0888465  24.7544809  77.5295451  20.5148235  24.9694852
  67.8518088   9.8227110  24.3203286  67.3155445   9.3717848  24.9724883
  67.2634797   9.9573018  23.5773751  66.1466632  26.5891159  18.2147945
  66.3863230  27.2209683  18.8926963  65.3035828  26.2379199  18.5013304
  77.1293340  17.7368829  23.6528206  76.2420119  17.3994751  23.7754605
  77.6991891  17.0051860  23.8896971  58.7822487  14.0692921  16.9771257
  59.4693527  13.7554651  16.3892272  58.6270616  14.9734285  16.7038508
  63.5857210   8.9583117  21.4056281  63.5015398   8.3508787  20.6706691
  62.7639916   9.4492136  21.4065777  70.6594494  22.3970281  20.6189449
  70.5864665  23.2025253  21.1308753  70.2171887  22.5962247  19.7937470
  70.4484273  21.6342051  14.1292270  69.6651795  22.1763732  14.2230495
  71.1477018  22.1516031  14.5286512  73.1193177  22.2957115  22.7747607
  73.8321149  22.9304580  22.7023509  72.6283206  22.3920981  21.9587609
  70.3415892   9.5854064  16.4998160  69.9713680   9.0325104  17.1879066
  70.8374985   8.9812197  15.9473160  68.1705091  20.0451559  23.5953178
  68.8714550  20.6788042  23.7482573  67.7000206  20.3866290  22.8348818
  75.9706377  12.5996166  21.4205729  75.3177827  12.8472074  20.7658181
  76.3486757  11.7860304  21.0868206  72.9313551  22.6355859  15.5233899
  73.1135945  21.8177515  15.9861651  73.7546537  22.8523552  15.0858789
  73.2655716  21.5624045  12.7848947  73.7943482  21.0516499  12.1719110
  73.5283936  21.2466575  13.6494480  72.0193950  13.3415977  27.9071766
  71.3434587  13.2410107  28.5774141  72.8421584  13.1855191  28.3707763
  63.7672809  19.5787914  20.5284281  64.3526246  18.8331602  20.6612185
  63.5697647  19.8891871  21.4120945  66.6211464  22.6139161  15.5446723
  65.9521839  23.0985289  15.0610763  66.4824334  22.8608382  16.4590102
  58.3590464  12.1493514  19.2488724  58.3974563  11.6157105  20.0425842
  57.8530756  11.6228720  18.6299701  70.7616733  24.6482905  22.1429382
  71.3135041  24.8114526  22.9078467  71.1022926  25.2387343  21.4709407
  65.7381226   6.9958055  22.7451266  65.8022552   7.8572885  22.3328664
  65.6748346   6.3832056  22.0123625  65.2133498   9.0681187  26.3924301
  65.8405537   8.6858264  27.0061825  64.3561417   8.8495389  26.7579993
  75.6127607  19.4744162  27.9978036  76.1567511  20.0874121  27.5032991
  75.0314452  20.0323741  28.5145049  61.9899041  10.8757616  12.3242656
  62.2852482   9.9668295  12.2709709  61.0887077  10.8545356  12.0023658
  73.8985120  22.5964880  19.1293064  73.7736259  21.7954620  18.6204009
  74.5564211  23.0911074  18.6407034  65.5193288   8.9513613  18.3070204
  64.7979874   9.5649581  18.1677677  66.3086544   9.4871378  18.2286850
  75.9620028  20.3973900  20.7572614  75.0150364  20.2779252  20.6850941
  76.3102801  19.5096398  20.8398875  68.3219602   6.2868039  24.5810856
  68.8454003   6.5330336  25.3437165  68.1031935   7.1188074  24.1613993
  63.7186883   8.5571714  12.4481981  63.3899589   7.6769093  12.2657087
  64.0726253   8.5019383  13.3358370  72.9666462  20.1926617  16.9576966
  72.8191424  19.2643324  17.1384536  73.7919955  20.2146707  16.4734041
  66.8328706   8.8444684  12.8157458  67.1724778   9.3730605  12.0936067
  67.2800826   9.1825090  13.5916025  76.5700583  21.0155175  18.0441839
  77.4947131  20.8098037  17.9066290  76.4015887  20.7671577  18.9531180
  69.5272147   7.2281734  22.2660526  69.1868967   6.4289547  22.6681206
  68.8211153   7.5283445  21.6937360  67.7027197  11.0050167  18.5279828
  67.5571778  11.3190471  19.4204110  67.2252401  11.6235068  17.9750727
  69.5623580   7.9952715  18.5760718  69.5485149   7.0993809  18.2393016
  70.2796008   8.0023379  19.2099004  71.4149711   8.4290056  20.6213845
  71.1567489   9.3507126  20.6198175  70.8834751   8.0320490  21.3114309
  76.3595900  21.5340843  13.4003930  76.5332777  20.9687265  12.6477783
  76.8524791  22.3341738  13.2183420  62.1772859  13.5455512  21.4667489
  61.6326327  14.3215320  21.5987764  63.0552209  13.8926316  21.3086611
  62.9638881  12.6725408  24.3597646  62.2220617  12.8208044  24.9462277
  62.6431626  12.9333674  23.4964396  70.9082544  22.2141386  24.1578036
  71.2169670  21.9690533  25.0300736  71.7058026  22.4188025  23.6696906
  70.9303156  24.3679296  16.3883413  70.4908146  23.8755675  17.0816269
  71.6811273  23.8252264  16.1475488  63.4095495  20.5590837  16.3908041
  64.2353515  20.2594609  16.0106684  63.0589547  19.7898459  16.8397829
  68.3777028  19.9117305  18.4605714  67.7557037  19.2488010  18.1607942
  69.0481895  19.9378437  17.7779362  61.6104100  18.4777163  17.3496974
  60.7736008  18.0499338  17.1680976  61.5827745  18.6709607  18.2867766
  68.4501556   8.3899093  28.0538220  68.4989711   9.2661216  27.6715990
  68.9924070   7.8476486  27.4809864  78.9356401  18.9340216  27.3339357
  78.1451945  18.9164355  26.7943857  78.6989756  19.4728510  28.0888394
  79.0554276  15.7832683  24.6472086  79.1052281  15.6182690  25.5887609
  78.9468200  14.9159942  24.2569967  67.9390535  18.4621228  11.9364175
  68.0878655  19.1456693  11.2830848  68.7456978  18.4426319  12.4513631
  76.3458039  11.7663611  25.9631393  77.2467901  11.6270076  25.6715390
  76.4206013  11.9318066  26.9029570  70.6800844   9.1430466  24.8084579
  69.8104153   9.4364032  24.5367168  70.9160324   9.7270911  25.5291843
  80.5572473  18.2029624  24.8914108  80.2657281  18.5659605  25.7277568
  79.9444604  17.4896633  24.7127440  78.8059661  13.3262239  23.3594165
  79.2813783  13.5189885  22.5513017  77.8825227  13.3821425  23.1137549
  65.6943168  14.4886406  12.9425244  65.4489210  13.5848736  13.1405454
  65.8639083  14.4903557  12.0004722  64.9638816  10.2214764  10.4411405
  64.2708060  10.2959119   9.7851441  64.7190567   9.4575107  10.9632922
  71.4385941  20.9569359   9.4075922  70.8659908  21.5759546   8.9546394
  72.0118734  21.5068721   9.9415844  77.5061330  10.2027999  21.5922471
  78.4578753  10.3026097  21.6134695  77.3364781   9.4106268  22.1020555
  79.9849408  13.4234119  20.7064771  79.9525728  12.4850119  20.8924455
  80.5950032  13.5018155  19.9730596  71.7071432  16.3447918  28.2092632
  72.6274441  16.5226517  28.4032678  71.6721015  15.4003963  28.0572331
  60.9253597  11.5386511  17.1345906  60.6056381  10.6851820  16.8420280
  60.3787025  11.7535090  17.8903874  64.7033504  14.2548952  20.8515413
  64.9219514  15.1866060  20.8703447  65.1159278  13.8956927  21.6370217
  69.5761369   9.8282158  30.2418162  69.4758096  10.7776515  30.1730253
  69.3582911   9.5000397  29.3694232  60.7941857  15.1589423  19.1039028
  60.1005328  14.7443376  18.5908982  61.5414848  15.2009959  18.5072447
  69.4392639  13.2579297  29.0583224  68.9559721  14.0579657  29.2647113
  69.5253579  13.2687242  28.1050668  62.7078599  15.0907677  16.9805043
  62.6849287  15.1895364  16.0286926  63.0179236  15.9372828  17.3022209
  65.3665977  17.1483832  21.0951657  66.3209231  17.1167774  21.0281589
  65.1678501  16.6874455  21.9101883  65.9565359  15.7184948  23.6622455
  66.7758248  16.2129026  23.6857292  66.2302167  14.8016916  23.6340022
  63.7216206  22.6903451  18.1121855  63.5870674  21.9303852  17.5459853
  63.3048268  23.4144351  17.6450644  66.8785332  23.5872768  18.3240298
  66.7617716  24.5318201  18.2218988  66.0577778  23.2846330  18.7126097
  61.2100273  10.0523082  24.3614652  61.8559137   9.5422036  24.8501877
  61.0017424  10.7891763  24.9358077  73.7353666  17.1203929  29.8606793
  74.6044825  17.2944581  29.4993428  73.2560417  17.9398346  29.7382522
  67.9039846  24.2401030  21.5396226  68.8067092  24.2724640  21.8562721
  67.6777216  23.3101481  21.5542562  69.6593448  22.9932017  18.2006305
  68.7089079  22.9933878  18.0870677  69.9625934  22.2464751  17.6842339
  65.5497764   7.1990699  28.4589666  66.4129226   6.8427504  28.6692991
  64.9763175   6.8604594  29.1465071  85.3946141  28.8292555  19.2652067
  86.0324551  28.7099302  18.5615407  85.2766984  29.7773399  19.3240019
  82.2035848  28.7819983  19.2013592  81.8654359  28.6661048  18.3134127
  83.0725616  28.3811148  19.1814598  78.0622663  30.6355460  15.1910483
  77.4987528  30.5445397  14.4226771  77.9475058  29.8155364  15.6712975
  82.6855631  29.9354835  25.1599797  82.6744271  29.5407633  24.2880301
  82.8476270  29.2020908  25.7533569  75.6087095  32.1306651  18.0294703
  76.4008387  31.7897476  17.6141003  75.8483745  32.2401626  18.9496857
  77.5677849  31.3915564  10.9012082  78.3408725  30.8444552  10.7624958
  77.9203248  32.2559814  11.1126544  79.4062892  32.7191947  24.1078981
  79.1152758  33.6237578  23.9925648  80.0419876  32.7608474  24.8223051
  80.3319099  30.0968795  20.6980341  80.9282671  29.8724818  19.9837304
  80.3894070  29.3553541  21.3005789  81.9671957  28.9146484  14.4401596
  81.6030164  28.3877105  15.1514518  82.8239073  28.5244953  14.2668082
  84.3652777  32.4053362  21.1028775  84.0653500  33.3078401  20.9944582
  84.0203836  32.1385545  21.9549928  77.8165258  28.8567159  17.1365480
  76.8915755  28.7243373  17.3443171  78.0649671  29.6361378  17.6335422
  75.1774069  28.5000433  17.9709269  75.3066450  28.7534912  18.8848680
  74.4971521  29.0928141  17.6513924  79.3473557  39.1697683  14.0699743
  79.2697586  40.1205508  14.1488223  78.7435200  38.8243555  14.7274669
  81.8390786  26.3425548  26.7261110  81.0624120  26.9019468  26.7163974
  82.4781349  26.8282331  27.2475980  80.0937159  29.1511001  26.2879077
  80.8351843  29.6896045  26.0113900  79.3874144  29.7777290  26.4450629
  85.5692498  31.2940142  24.8851238  85.9775854  30.8522552  24.1405871
  84.8469760  30.7192769  25.1385431  81.9223568  26.2312749  22.2584795
  82.7684764  26.6552162  22.4019444  81.8622206  25.5746373  22.9523358
  85.8921313  31.8541332  18.6403527  85.2630175  32.0187047  17.9379595
  85.5046975  32.2682942  19.4114491  85.0723014  23.8917117  23.9165969
  84.8283946  24.6459177  23.3800245  85.3482944  24.2702465  24.7513216
  87.0261476  30.4355729  22.5943234  87.2378372  31.0787489  21.9177615
  86.9791225  29.6018046  22.1265164  84.6287705  23.0473550  19.4979807
  83.7672184  23.3454804  19.7896544  84.6550140  23.2643949  18.5660839
  81.4449275  31.5915741  15.9053612  81.9087620  31.8703444  15.1158235
  81.1806073  30.6899185  15.7226703  78.3373356  31.1387222  18.8433375
  78.9074713  31.5674490  18.2050860  78.9281468  30.8569807  19.5417561
  80.3818161  27.7138893  12.7143177  81.0842204  28.1659937  13.1817104
  80.0498789  27.0722712  13.3423070  78.8298522  26.3050650  27.0894387
  78.1997183  26.9866930  27.3229784  78.7234610  26.1933731  26.1447525
  74.1243495  25.9722446  18.0160311  73.3342549  26.2279974  17.5400422
  74.6154742  26.7870783  18.1212351  76.0758240  26.3367025  14.9743788
  75.2789403  26.4485719  15.4927283  75.8483832  26.6753677  14.1084678
  81.9063908  32.8611728  22.9226302  81.9708340  33.3232135  23.7584474
  81.1974832  32.2309093  23.0508612  72.4081198  26.2252936  20.4475302
  72.6589236  27.1099946  20.7132878  72.9440746  26.0457538  19.6750394
  81.6211925  34.5279836  12.7905283  81.4857600  35.3731371  13.2190130
  82.1621738  34.7299113  12.0271216  78.1079265  20.6071415  29.4519638
  77.7146211  20.0537614  30.1267282  78.9245405  20.9181994  29.8426155
  75.0741323  32.0455274  13.3633208  75.5865843  32.8398524  13.5138772
  75.7264036  31.3481564  13.2966809  76.8836208  35.1621030  15.4455961
  77.0602836  36.0838995  15.2576945  77.6793041  34.8479449  15.8750341
  81.0247226  22.0229294  27.0439894  81.7656939  22.6236448  26.9644357
  81.2565149  21.2806932  26.4857937  76.1688564  27.2085662  25.3218124
  76.0542079  26.3070919  25.6225223  75.3133082  27.4549358  24.9702941
  83.2480402  35.1503402  26.9205625  82.8044256  34.3639781  26.6026529
  83.9097615  35.3382553  26.2549515  78.0067523  36.6799204  21.4466303
  78.5574948  36.5516267  20.6743297  77.1678999  36.9794093  21.0961196
  85.3461640  35.4306202  24.9487026  85.3280115  36.2515083  24.4567295
  86.2681560  35.3060277  25.1737167  81.8034694  32.9450331  25.7910534
  82.3363031  32.1838620  25.5609842  81.2748775  32.6523983  26.5334689
  73.0390240  30.3743928  14.1392778  73.8765462  30.7840936  13.9226486
  73.2168507  29.4343370  14.1092972  84.0500929  20.4215053  19.2853409
  83.5465725  20.3845188  18.4721215  84.3431536  21.3307795  19.3450066
  80.2943815  20.5053782  18.2919591  81.1596812  20.3096591  17.9325480
  80.3621324  20.2764134  19.2188948  83.1687407  32.0736324  13.3029346
  82.6408768  31.3389084  12.9902584  82.6674910  32.8511000  13.0569315
  77.9006134  22.7355990  15.6635958  78.4749886  22.5131172  14.9309151
  78.4877117  22.8044685  16.4164559  84.2208086  38.6014041   9.2261006
  83.5469785  38.9045738   9.8345963  84.6073908  39.4043122   8.8766463
  83.4366542  26.0979173  18.7158675  82.5189104  26.3194120  18.5580363
  83.8526686  26.1725483  17.8570382  87.7247508  33.6035719  14.5979477
  87.2709835  32.7626628  14.6544667  87.0941475  34.2397117  14.9354257
  86.1680447  35.4412215  15.5329295  86.4603421  36.0017272  14.8141661
  86.6779068  35.7340776  16.2882454  73.0616411  27.7134643  14.8103512
  72.8640811  27.1204004  14.0854578  72.5063075  27.4086853  15.5279450
  81.0413134  27.6057750  16.9298105  81.0961744  26.6531586  16.8540581
  80.2304336  27.7617189  17.4139403  78.9805494  26.2234809  14.6888484
  78.1673360  26.5228980  15.0953676  79.4764489  25.8290498  15.4062966
  81.1314072  36.2192566  16.6222748  81.0890251  36.4453413  15.6931280
  82.0476771  35.9855941  16.7708549  84.5779706  26.6876634  23.5203378
  84.9329094  26.9148107  24.3797843  85.2251837  27.0195011  22.8980633
  78.4719569  23.7953165  20.3049719  79.1118948  23.6541924  19.6072682
  77.6397100  23.5087678  19.9288321  79.2479873  33.0955595  16.4184711
  80.0420472  32.6005915  16.2167286  78.5371565  32.5673458  16.0552417
  84.0674718  35.4773691  20.7697079  84.1211740  36.0464627  21.5374795
  83.1989499  35.6475576  20.4051116  75.5562637  27.2398677  12.4944464
  74.6260225  27.1783133  12.7114426  75.6520108  26.7174630  11.6981105
  75.4748186  23.7653490  15.0822705  75.7355003  24.6798823  14.9731866
  76.2965358  23.2977932  15.2319318  76.9473111  25.1791247  22.2521530
  77.6196164  24.9708609  21.6034179  76.1202897  24.9813333  21.8126762
  82.8498683  21.8053188  24.2687191  82.2026598  22.5043138  24.1751667
  83.6199698  22.2389332  24.6363439  86.2577481  32.0702040  27.3437744
  86.1062987  31.8412592  26.4267828  86.2482160  33.0272642  27.3569089
  83.0262817  29.6433953  22.3284011  83.9554877  29.7945113  22.1552978
  82.6053847  29.7317974  21.4732657  81.8251149  33.6684617  20.0982548
  81.6862235  33.3003402  20.9708486  81.0365745  34.1832257  19.9266506
  82.4199301  38.7693714  11.4408085  82.5951057  38.2981757  12.2553707
  81.7332089  39.3959480  11.6689345  83.3756364  33.0466220  17.4871386
  83.0406197  33.0066990  18.3829036  82.8760310  32.3810936  17.0141796
  77.3500608  28.4533850  23.0123967  77.2120406  27.7214089  23.6135506
  78.2605532  28.3642750  22.7308155  79.9782909  28.1653809  22.5007647
  80.6882527  27.5247002  22.4594265  79.9352217  28.4166704  23.4233828
  87.9669687  35.1021163  25.4214226  87.9082234  34.4180383  24.7544809
  88.3689206  35.8440153  24.9694852  78.6911843  25.1519027  24.3203286
  78.1549200  24.7009766  24.9724883  78.1028551  25.2864936  23.5773751
  76.9860386  41.9183077  18.2147945  77.2256985  42.5501601  18.8926963
  76.1429583  41.5671117  18.5013304  69.6216242  29.3984838  16.9771257
  70.3087282  29.0846568  16.3892272  69.4664371  30.3026203  16.7038508
  74.4250964  24.2875035  21.4056281  74.3409153  23.6800705  20.6706691
  73.6033670  24.7784053  21.4065777  81.4988248  37.7262199  20.6189449
  81.4258420  38.5317171  21.1308753  81.0565641  37.9254165  19.7937470
  81.2878028  36.9633969  14.1292270  80.5045550  37.5055649  14.2230495
  81.9870773  37.4807949  14.5286512  83.9586932  37.6249033  22.7747607
  84.6714904  38.2596498  22.7023509  83.4676960  37.7212899  21.9587609
  81.1809647  24.9145981  16.4998160  80.8107434  24.3617022  17.1879066
  81.6768739  24.3104115  15.9473160  79.0098845  35.3743477  23.5953178
  79.7108305  36.0079959  23.7482573  78.5393960  35.7158208  22.8348818
  86.8100131  27.9288084  21.4205729  86.1571581  28.1763991  20.7658181
  87.1880511  27.1152222  21.0868206  83.7707305  37.9647777  15.5233899
  83.9529700  37.1469433  15.9861651  84.5940291  38.1815469  15.0858789
  84.1049471  36.8915962  12.7848947  84.6337237  36.3808417  12.1719110
  84.3677690  36.5758492  13.6494480  82.8587704  28.6707895  27.9071766
  82.1828341  28.5702024  28.5774141  83.6815338  28.5147109  28.3707763
  74.6066563  34.9079832  20.5284281  75.1920000  34.1623519  20.6612185
  74.4091402  35.2183788  21.4120945  77.4605218  37.9431079  15.5446723
  76.7915594  38.4277207  15.0610763  77.3218088  38.1900299  16.4590102
  69.1984218  27.4785432  19.2488724  69.2368318  26.9449022  20.0425842
  68.6924511  26.9520637  18.6299701  81.6010487  39.9774822  22.1429382
  82.1528795  40.1406444  22.9078467  81.9416681  40.5679260  21.4709407
  76.5774980  22.3249972  22.7451266  76.6416307  23.1864803  22.3328664
  76.5142101  21.7123974  22.0123625  76.0527253  24.3973105  26.3924301
  76.6799292  24.0150182  27.0061825  75.1955172  24.1787307  26.7579993
  86.4521361  34.8036080  27.9978036  86.9961265  35.4166038  27.5032991
  85.8708206  35.3615658  28.5145049  72.8292796  26.2049534  12.3242656
  73.1246237  25.2960212  12.2709709  71.9280831  26.1837273  12.0023658
  84.7378874  37.9256798  19.1293064  84.6130014  37.1246538  18.6204009
  85.3957965  38.4202991  18.6407034  76.3587043  24.2805530  18.3070204
  75.6373628  24.8941498  18.1677677  77.1480298  24.8163295  18.2286850
  86.8013783  35.7265818  20.7572614  85.8544118  35.6071169  20.6850941
  87.1496556  34.8388316  20.8398875  79.1613356  21.6159957  24.5810856
  79.6847758  21.8622254  25.3437165  78.9425689  22.4479992  24.1613993
  74.5580637  23.8863632  12.4481981  74.2293343  23.0061011  12.2657087
  74.9120008  23.8311300  13.3358370  83.8060216  35.5218534  16.9576966
  83.6585178  34.5935242  17.1384536  84.6313710  35.5438625  16.4734041
  77.6722460  24.1736601  12.8157458  78.0118533  24.7022523  12.0936067
  78.1194581  24.5117008  13.5916025  87.4094338  36.3447093  18.0441839
  88.3340885  36.1389954  17.9066290  87.2409641  36.0963494  18.9531180
  80.3665901  22.5573652  22.2660526  80.0262722  21.7581465  22.6681206
  79.6604907  22.8575363  21.6937360  81.0182373  19.6422965  20.7187849
  81.8408442  19.1683443  20.5966740  81.2620437  20.4213448  21.2186536
  78.5420952  26.3342085  18.5279828  78.3965532  26.6482388  19.4204110
  78.0646155  26.9526985  17.9750727  80.4017335  23.3244633  18.5760718
  80.3878903  22.4285726  18.2393016  81.1189763  23.3315297  19.2099004
  82.2543465  23.7581973  20.6213845  81.9961243  24.6799044  20.6198175
  81.7228506  23.3612408  21.3114309  87.1989654  36.8632760  13.4003930
  87.3726532  36.2979183  12.6477783  87.6918545  37.6633655  13.2183420
  73.0166614  28.8747430  21.4667489  72.4720082  29.6507238  21.5987764
  73.8945964  29.2218234  21.3086611  73.8032636  28.0017326  24.3597646
  73.0614372  28.1499961  24.9462277  73.4825380  28.2625591  23.4964396
  81.7476298  37.5433304  24.1578036  82.0563425  37.2982451  25.0300736
  82.5451780  37.7479943  23.6696906  81.7696910  39.6971214  16.3883413
  81.3301901  39.2047592  17.0816269  82.5205027  39.1544181  16.1475488
  74.2489249  35.8882755  16.3908041  75.0747269  35.5886526  16.0106684
  73.8983301  35.1190377  16.8397829  79.2170783  35.2409223  18.4605714
  78.5950792  34.5779928  18.1607942  79.8875649  35.2670355  17.7779362
  72.4497854  33.8069081  17.3496974  71.6129763  33.3791255  17.1680976
  72.4221500  34.0001524  18.2867766  79.2895310  23.7191011  28.0538220
  79.3383466  24.5953134  27.6715990  79.8317824  23.1768404  27.4809864
  78.7784289  33.7913146  11.9364175  78.9272410  34.4748611  11.2830848
  79.5850733  33.7718236  12.4513631  87.1851793  27.0955528  25.9631393
  88.0861656  26.9561993  25.6715390  87.2599768  27.2609983  26.9029570
  81.5194599  24.4722383  24.8084579  80.6497908  24.7655949  24.5367168
  81.7554079  25.0562828  25.5291843  76.5336922  29.8178324  12.9425244
  76.2882964  28.9140654  13.1405454  76.7032837  29.8195474  12.0004722
  84.2233632  20.6902000  22.3249999  84.7415576  21.4263027  21.9996488
  83.8688765  20.9965993  23.1596759  75.8032570  25.5506681  10.4411405
  75.1101815  25.6251036   9.7851441  75.5584322  24.7867025  10.9632922
  82.2779695  36.2861277   9.4075922  81.7053662  36.9051464   8.9546394
  82.8512489  36.8360638   9.9415844  86.3669464  22.6175500  21.7781872
  85.7719396  22.8980513  21.0828361  86.0819161  23.1069401  22.5498613
  82.5465186  31.6739835  28.2092632  83.4668196  31.8518434  28.4032678
  82.5114769  30.7295881  28.0572331  71.7647351  26.8678429  17.1345906
  71.4450135  26.0143737  16.8420280  71.2180779  27.0827007  17.8903874
  75.5427259  29.5840870  20.8515413  75.7613268  30.5157978  20.8703447
  75.9553032  29.2248845  21.6370217  80.4155124  25.1574076  30.2418162
  80.3151851  26.1068433  30.1730253  80.1976666  24.8292315  29.3694232
  71.6335611  30.4881341  19.1039028  70.9399082  30.0735293  18.5908982
  72.3808602  30.5301877  18.5072447  80.2786394  28.5871215  29.0583224
  79.7953476  29.3871575  29.2647113  80.3647333  28.5979160  28.1050668
  73.5472354  30.4199594  16.9805043  73.5243042  30.5187282  16.0286926
  73.8572990  31.2664745  17.3022209  76.2059731  32.4775749  21.0951657
  77.1602985  32.4459692  21.0281589  76.0072255  32.0166373  21.9101883
  76.7959114  31.0476865  23.6622455  77.6152003  31.5420944  23.6857292
  77.0695921  30.1308834  23.6340022  74.5609960  38.0195369  18.1121855
  74.4264428  37.2595770  17.5459853  74.1442023  38.7436269  17.6450644
  77.7179086  38.9164686  18.3240298  77.6011470  39.8610118  18.2218988
  76.8971532  38.6138247  18.7126097  72.0494028  25.3814999  24.3614652
  72.6952891  24.8713953  24.8501877  71.8411179  26.1183681  24.9358077
  84.5747420  32.4495847  29.8606793  85.4438580  32.6236499  29.4993428
  84.0954172  33.2690264  29.7382522  78.7433600  39.5692948  21.5396226
  79.6460847  39.6016558  21.8562721  78.5170970  38.6393399  21.5542562
  80.4987202  38.3223934  18.2006305  79.5482833  38.3225796  18.0870677
  80.8019688  37.5756669  17.6842339  76.3891519  22.5282616  28.4589666
  77.2522980  22.1719421  28.6692991  75.8156929  22.1896511  29.1465071
  86.4480850  47.4598569  18.0294703  87.2402142  47.1189394  17.6141003
  86.6877500  47.5693544  18.9496857  86.0167824  43.8292350  17.9709269
  86.1460205  44.0826829  18.8848680  85.3365275  44.4220058  17.6513924
  84.9637249  41.3014363  18.0160311  84.1736303  41.5571892  17.5400422
  85.4548497  42.1162701  18.1212351  86.9151995  41.6658942  14.9743788
  86.1183158  41.7777637  15.4927283  86.6877587  42.0045595  14.1084678
  83.2474952  41.5544854  20.4475302  83.4982991  42.4391864  20.7132878
  83.7834501  41.3749455  19.6750394  85.9135077  47.3747191  13.3633208
  86.4259598  48.1690441  13.5138772  86.5657790  46.6773482  13.2966809
  87.0082319  42.5377579  25.3218124  86.8935834  41.6362837  25.6225223
  86.1526836  42.7841276  24.9702941  83.8783994  45.7035846  14.1392778
  84.7159216  46.1132854  13.9226486  84.0562262  44.7635288  14.1092972
  83.9010165  43.0426561  14.8103512  83.7034565  42.4495922  14.0854578
  83.3456829  42.7378771  15.5279450  86.3956391  42.5690595  12.4944464
  85.4653979  42.5075050  12.7114426  86.4913863  42.0466548  11.6981105
  86.3141940  39.0945408  15.0822705  86.5748757  40.0090741  14.9731866
  87.1359112  38.6269850  15.2319318  87.7866865  40.5083165  22.2521530
  88.4589919  40.3000527  21.6034179  86.9596652  40.3105251  21.8126762
  87.8254141  57.2474994  18.2147945  88.0650739  57.8793518  18.8926963
  86.9823337  56.8963034  18.5013304  80.4609996  44.7276756  16.9771257
  81.1481036  44.4138486  16.3892272  80.3058125  45.6318121  16.7038508
  85.2644719  39.6166953  21.4056281  85.1802907  39.0092622  20.6706691
  84.4427425  40.1075971  21.4065777  85.4460318  50.2371749  20.5284281
  86.0313755  49.4915437  20.6612185  85.2485156  50.5475706  21.4120945
  88.2998973  53.2722997  15.5446723  87.6309348  53.7569124  15.0610763
  88.1611843  53.5192217  16.4590102  80.0377972  42.8077349  19.2488724
  80.0762072  42.2740940  20.0425842  79.5318265  42.2812555  18.6299701
  87.4168735  37.6541890  22.7451266  87.4810061  38.5156721  22.3328664
  87.3535855  37.0415892  22.0123625  86.8921007  39.7265022  26.3924301
  87.5193046  39.3442100  27.0061825  86.0348926  39.5079224  26.7579993
  83.6686550  41.5341452  12.3242656  83.9639991  40.6252130  12.2709709
  82.7674586  41.5129191  12.0023658  87.1980797  39.6097448  18.3070204
  86.4767383  40.2233416  18.1677677  87.9874053  40.1455213  18.2286850
  85.3974392  39.2155549  12.4481981  85.0687098  38.3352928  12.2657087
  85.7513762  39.1603218  13.3358370  83.8560368  44.2039347  21.4667489
  83.3113836  44.9799155  21.5987764  84.7339718  44.5510152  21.3086611
  84.6426390  43.3309244  24.3597646  83.9008126  43.4791879  24.9462277
  84.3219135  43.5917509  23.4964396  85.0883004  51.2174672  16.3908041
  85.9141024  50.9178444  16.0106684  84.7377056  50.4482295  16.8397829
  83.2891609  49.1360999  17.3496974  82.4523517  48.7083173  17.1680976
  83.2615254  49.3293442  18.2867766  87.3730677  45.1470241  12.9425244
  87.1276719  44.2432571  13.1405454  87.5426592  45.1487392  12.0004722
  86.6426325  40.8798599  10.4411405  85.9495569  40.9542954   9.7851441
  86.3978076  40.1158943  10.9632922  82.6041106  42.1970347  17.1345906
  82.2843890  41.3435655  16.8420280  82.0574534  42.4118925  17.8903874
  86.3821013  44.9132788  20.8515413  86.6007023  45.8449896  20.8703447
  86.7946787  44.5540762  21.6370217  82.4729366  45.8173258  19.1039028
  81.7792837  45.4027211  18.5908982  83.2202357  45.8593795  18.5072447
  84.3866108  45.7491512  16.9805043  84.3636796  45.8479199  16.0286926
  84.6966745  46.5956663  17.3022209  87.0453486  47.8067667  21.0951657
  87.9996740  47.7751609  21.0281589  86.8466010  47.3458291  21.9101883
  87.6352868  46.3768783  23.6622455  88.4545757  46.8712862  23.6857292
  87.9089676  45.4600751  23.6340022  85.4003715  53.3487287  18.1121855
  85.2658183  52.5887687  17.5459853  84.9835777  54.0728186  17.6450644
  82.8887782  40.7106917  24.3614652  83.5346646  40.2005871  24.8501877
  82.6804933  41.4475599  24.9358077  87.2285273  37.8574534  28.4589666
  88.0916735  37.5011339  28.6692991  86.6550684  37.5188429  29.1465071
   3.6345796  41.8211163  70.3457024   4.3670968  41.2510380  70.5794854
   2.8785152  41.4332764  70.7863530   2.9161526  38.4544262  73.6622857
   2.2735906  38.7476795  73.0162651   2.4116455  38.3397182  74.4676053
   3.0560504  48.1187692  69.0966661   2.3711542  48.4986593  68.5463695
   3.1404353  48.7283018  69.8298609   1.4257263  48.6419606  73.8684362
   2.2474707  48.2399793  73.5867044   1.4219666  48.5387840  74.8200478
   9.5163256  44.9858354  70.2169334   8.7626965  44.4165753  70.0613338
   9.6510798  44.9521019  71.1639968   3.1938905  46.1243284  64.8648555
   2.4168348  45.7854444  64.4203717   3.8730386  46.1295908  64.1903520
   1.4330212  45.5977266  71.5215163   0.7753886  46.2876527  71.6095292
   2.2370611  45.9873698  71.8649149   3.5927402  45.1386991  67.3271477
   3.4545301  45.3288587  66.3992666   3.2363621  45.9006374  67.7839528
   3.6196782  47.2063518  72.3382748   4.0533288  47.1138807  73.1865802
   4.3328362  47.1821018  71.7002764   4.4812331  47.2487219  74.8715634
   4.6748221  48.1533029  75.1174909   4.3812949  46.7894638  75.7054219
   5.7354394  43.8060885  71.5163538   5.7244271  44.6885601  71.1457471
   4.8671774  43.4532436  71.3218075   2.3526969  42.7009526  67.9833704
   2.8187421  43.5337518  67.9094006   2.8034469  42.2354508  68.6878962
   0.6944297  51.6739014  71.1460609   1.6190844  51.4681876  71.0085060
   0.5259600  51.4255415  72.0549951   6.3379004  44.9561105  68.1213001
   6.7810150  44.2068430  67.7232124   5.4605515  44.9471241  67.7386733
   1.4714786  51.5091446  63.6019599   2.1665690  52.1298139  63.8206914
   1.8137936  50.6586797  63.8771977   3.3706209  48.9591152  65.1306930
   3.8957533  49.2978424  64.4056250   3.2828561  48.0238167  64.9470064
   3.1797990  46.4416522  77.7490856   3.2295995  46.2766529  78.6906379
   3.0711913  45.5743781  77.3588737   4.6816187  48.8613463  77.9932878
   4.3900995  49.2243444  78.8296339   4.0688318  48.1480471  77.8146210
   5.8811869  46.4266343  70.5135448   6.7158760  46.8656147  70.6773008
   6.0170998  45.9504996  69.6943694   2.9303375  43.9846078  76.4612936
   3.4057497  44.1773724  75.6531787   2.0068940  44.0405264  76.2156320
   1.6305044  40.8611838  74.6941241   2.5822467  40.9609936  74.7153466
   1.4608494  40.0690106  75.2039326   1.4114931  51.2156218  60.6007223
   1.3328562  50.8816082  61.4942980   2.2324597  51.7077986  60.5998695
   4.1093122  44.0817958  73.8083541   4.0769442  43.1433958  73.9943225
   4.7193745  44.1601994  73.0749366   4.2587610  40.8729001  73.8541824
   3.7426659  40.0887458  73.6671753   5.1427559  40.5447718  74.0188344
   1.9198337  34.6170017  69.8137637   1.7223158  34.3085105  70.6980969
   2.5298043  35.3431655  69.9435567   9.9269672  45.1433964  72.9489578
  10.6573060  44.8819253  73.5097281   9.3176617  44.4062686  72.9891646
   8.0084969  43.2841827  73.5464029   7.2818132  43.1497792  72.9380521
   7.5932256  43.5918656  74.3520747   3.1890205  38.7926060  69.8423520
   3.9650595  39.2822512  70.1148137   2.4638339  39.2184114  70.2995390
   5.6262764  39.5053679  70.8997461   6.2207254  39.2649415  70.1890769
   5.6989347  38.7860810  71.5270997   3.6221499  40.0723807  67.1669591
   3.3658433  39.6720442  67.9977798   2.9974367  40.7867601  67.0419730
   7.9333836  42.8119880  69.6740882   7.3733394  42.8813069  70.4472444
   7.3277340  42.6360865  68.9540378   0.8905580  48.9706743  62.2715661
   1.7251184  48.5387941  62.0893136   0.7289923  48.7988757  63.1992555
   9.5189855  59.4876394  72.3670838  10.1568265  59.3683141  71.6634178
   9.4010698  60.4357238  72.4258790   6.3279561  59.4403822  72.3032362
   5.9898073  59.3244887  71.4152897   7.1969329  59.0394987  72.2833368
   2.1866377  61.2939299  68.2929253   1.6231242  61.2029235  67.5245541
   2.0718772  60.4739203  68.7731746   7.7665936  64.9610266  63.6043718
   7.1153915  65.5464347  63.2177732   8.5610298  65.4916461  63.6638756
   1.6921563  62.0499403  64.0030853   2.4652439  61.5028390  63.8643728
   2.0446962  62.9143653  64.2145314   4.4562812  60.7552634  73.7999111
   5.0526384  60.5308657  73.0856074   4.5137784  60.0137380  74.4024559
   4.0287840  58.2092069  61.6349302   4.2813361  57.6873591  60.8732765
   3.0912400  58.0458215  61.7375986   9.0731123  57.2127848  69.4424046
   9.8594213  56.7947271  69.0914463   9.3369828  58.1173940  69.6105694
   9.2441201  62.6500698  64.1412702   8.6087034  62.7235325  64.8533607
   8.9138607  63.2394297  63.4631782  14.4739550  57.1503081  70.3457024
  15.2064722  56.5802298  70.5794854  13.7178906  56.7624681  70.7863530
   3.7484129  60.1120175  63.8373677   3.6320387  59.4365079  64.5054762
   3.8586389  59.6252549  63.0205830   6.0915670  59.5730323  67.5420367
   5.7273877  59.0460944  68.2533288   6.9482786  59.1828792  67.3686852
  11.9964971  50.8624655  74.8051633  11.6648296  51.7320066  74.5812848
  11.4010584  50.5460939  75.4845663   5.7321157  54.6020222  62.5381715
   5.8995559  55.4700459  62.9052186   5.5418326  54.7647504  61.6143004
   8.4896490  63.0637201  74.2047546   8.1897213  63.9662240  74.0963353
   8.1447550  62.7969384  75.0568698   1.9408972  59.5150998  70.2384250
   1.0159468  59.3827212  70.4461942   2.1893385  60.2945217  70.7354192
  11.8893634  55.5819741  71.8844983  10.9810511  55.5135150  71.5903744
  11.8381230  56.0591686  72.7126808   5.7110378  57.0577880  63.5228382
   5.5910003  57.5034930  64.3613862   5.0162966  57.4063197  62.9641920
  13.7555281  53.7836180  73.6622857  13.1129661  54.0768713  73.0162651
  13.2510209  53.6689100  74.4676053  11.4095444  57.5299353  64.3508716
  12.3213300  57.7626740  64.1756414  10.9005091  58.1136397  63.7883795
   6.0467282  56.8896588  75.3603566   6.8928477  57.3136001  75.5038215
   5.9865920  56.2330212  76.0542129  10.0165026  62.5125171  71.7422297
   9.3873889  62.6770885  71.0398365   9.6290689  62.9266781  72.5133262
  13.8954258  63.4479609  69.0966661  13.2105297  63.8278511  68.5463695
  13.9798108  64.0574936  69.8298609   9.1966727  54.5500956  77.0184739
   8.9527659  55.3043016  76.4819015   9.4726658  54.9286303  77.8531986
  11.1505190  61.0939568  75.6962005  11.3622085  61.7371328  75.0196386
  11.1034938  60.2601885  75.2283935   8.7531419  53.7057389  72.5998577
   7.8915898  54.0038642  72.8915314   8.7793854  53.9227788  71.6679610
   5.5692988  62.2499579  69.0072383   6.0331334  62.5287282  68.2177005
   5.3049786  61.3483024  68.8245473   4.5061874  58.3722732  65.8161948
   5.2085918  58.8243775  66.2835874   4.1742503  57.7306551  66.4441841
  12.2651018  63.9711524  73.8684362  13.0868462  63.5691711  73.5867044
  12.2613421  63.8679758  74.8200478  20.3557011  60.3150272  70.2169334
  19.6020719  59.7457670  70.0613338  20.4904552  60.2812937  71.1639968
   5.7455639  65.1863674  65.8924053   5.6101314  66.0315210  66.3208901
   6.2865452  65.3882952  65.1289987   9.0948103  48.7094236  74.4222946
   8.7512372  49.5995878  74.3462057   9.4627065  48.5195894  73.5592531
   9.0598385  58.7002847  62.9295382   8.5445009  59.4707452  63.1683769
   8.7875694  58.0267984  63.5528443   6.6445496  53.5452548  67.9880620
   5.7887093  53.1559399  67.8086259   7.0572448  53.6244509  67.1280405
   8.1744643  51.0798891  72.3872180   7.6709439  51.0429027  71.5739985
   8.4675250  51.9891634  72.4468836   4.4187529  51.1637621  71.3938361
   5.2840526  50.9680430  71.0344251   4.4865038  50.9347973  72.3207718
  14.0332659  61.4535202  64.8648555  13.2562102  61.1146362  64.4203717
  14.7124140  61.4587825  64.1903520   8.8484688  56.5729940  64.7555163
   8.5434824  56.8876089  65.6065306   9.8015131  56.6511359  64.7982496
   7.2931120  62.7320163  66.4048117   6.7652482  61.9972922  66.0921354
   6.7918623  63.5094839  66.1588085  12.2723966  60.9269183  71.5215163
  11.6147641  61.6168445  71.6095292  13.0764366  61.3165615  71.8649149
   2.0249848  53.3939829  68.7654728   2.5993600  53.1715011  68.0327921
   2.6120830  53.4628524  69.5183330  11.0829425  59.2813556  69.5719105
  11.5961307  59.9143548  70.0740814  11.7330649  58.6814752  69.2062465
   2.3519435  55.4244290  62.7850613   1.5156747  55.7618977  63.1059888
   2.2124205  55.2893270  61.8477750   4.3272516  50.2681078  67.4929798
   3.6736928  49.9530095  66.8686412   4.2852990  49.6456818  68.2189621
   5.4383721  60.5500373  59.4083090   4.5310782  60.3189627  59.6074239
   5.9354752  59.7537992  59.5957071   8.3451799  69.2597880  62.3279776
   7.6713498  69.5629577  62.9364734   8.7317621  70.0626961  61.9785233
   7.5610256  56.7563012  71.8177445   6.6432817  56.9777959  71.6599133
   7.9770400  56.8309322  70.9589153   8.3445304  58.1554427  66.9480126
   9.0917123  58.6675824  66.6387248   8.6136893  57.8338480  67.8084519
   6.6171954  60.6512968  63.9307080   5.7083173  60.3672001  64.0279550
   6.6467038  61.0712047  63.0710387  11.8491221  64.2619557  67.6998247
  11.3953548  63.4210467  67.7563438  11.2185188  64.8980956  68.0373028
  10.7924141  55.1911544  68.9298915  10.0546898  54.6788930  69.2609157
  11.0450914  54.7511925  68.1182192  10.2924161  66.0996054  68.6348066
  10.5847135  66.6601111  67.9160431  10.8022781  66.3924615  69.3901225
  10.8935768  47.9687796  69.5240684  11.1994645  47.1085159  69.2366599
  11.6188373  48.5605416  69.3239678   5.1656848  58.2641589  70.0316875
   5.2205458  57.3115425  69.9559352   4.3548050  58.4201028  70.5158174
   6.3148042  62.1921712  61.2695158   5.8767472  61.4757571  60.8100796
   7.0558483  62.4197826  60.7080250   3.1049208  56.8818648  67.7907254
   2.2917073  57.1812819  68.1972446   3.6008202  56.4874337  68.5081736
   5.2557786  66.8776405  69.7241519   5.2133965  67.1037252  68.7950051
   6.1720485  66.6439780  69.8727320   8.7023420  57.3460473  76.6222148
   9.0572807  57.5731946  77.4816614   9.3495551  57.6778850  75.9999403
  14.4321157  60.4678909  67.3271477  14.2939055  60.6580505  66.3992666
  14.0757375  61.2298291  67.7839528   2.5963283  54.4537004  73.4068489
   3.2362662  54.3125763  72.7091452   1.7640813  54.1671517  73.0307091
  14.4590536  62.5355436  72.3382748  14.8927043  62.4430725  73.1865802
  15.1722117  62.5112936  71.7002764   3.3723587  63.7539434  69.5203481
   4.1664185  63.2589754  69.3186056   2.6615279  63.2257297  69.1571187
  15.3206086  62.5779136  74.8715634  15.5141976  63.4824947  75.1174909
  15.2206704  62.1186555  75.7054219   6.9742396  52.4637027  77.3705961
   6.3270311  53.1626977  77.2770438   7.7443412  52.8973171  77.7382209
   7.1506531  60.3017792  75.4302781   8.0798591  60.4528951  75.2571748
   6.7297561  60.3901813  74.5751427   6.5443015  69.4277553  64.5426855
   6.7194770  68.9565596  65.3572478   5.8575803  70.0543319  64.7708116
   7.5000078  63.7050059  70.5890156   7.1649910  63.6650829  71.4847806
   7.0004023  63.0394775  70.1160567  10.4359269  61.0506093  60.8627216
   9.8188440  60.3252921  60.7660269   9.9675758  61.8115454  60.5194290
   2.2257815  55.2691518  59.9848520   1.3487282  55.1480318  59.6210767
   2.7015568  54.4777596  59.7327409  12.0930808  63.7244586  76.7546976
  11.2057587  63.3870507  76.8773375  12.6629359  62.9927617  76.9915741
   5.4121741  67.6217808  67.2311041   4.6289263  68.1639488  67.3249265
   6.1114486  68.1391788  67.6305282   8.7218391  53.4312437  69.8745246
   9.2187091  52.6782400  69.5546316   7.9505373  53.4676754  69.3088455
  16.5748149  59.1352803  71.5163538  16.5638025  60.0177518  71.1457471
  15.7065528  58.7824354  71.3218075   9.8048172  62.1884125  67.4483670
   8.8704451  62.3085587  67.2788374   9.9824841  61.2856591  67.1843679
   5.3053360  55.5729820  69.6016931   4.9351148  55.0200861  70.2897836
   5.8012453  54.9687954  69.0491931  13.1920723  58.0301444  67.9833704
  13.6581176  58.8629436  67.9094006  13.6428224  57.5646425  68.6878962
  11.2596955  64.3745265  64.9819856  11.5356798  64.2601860  65.8913730
  10.3901453  63.9762750  64.9432029  11.1637386  50.3982031  72.0224605
  10.2500466  50.6286258  72.1906812  11.5930488  50.4820475  72.8738637
  10.9343845  58.5871923  74.5224499  10.2815295  58.8347830  73.8676952
  11.3124225  57.7736061  74.1886976   7.8951019  68.6231616  68.6252669
   8.0773413  67.8053272  69.0880422   8.7184005  68.8399308  68.1877559
   8.2293184  67.5499801  65.8867718   8.7580951  67.0392256  65.2737880
   8.4921404  67.2342331  66.7513251   8.8622588  68.5840637  72.2311834
   8.7373727  67.7830377  71.7222780   9.5201679  69.0786830  71.7425804
  10.9257496  66.3849657  73.8591384   9.9787832  66.2655008  73.7869711
  11.2740269  65.4972155  73.9417646   7.9303930  66.1802373  70.0595737
   7.7828892  65.2519081  70.2403307   8.7557423  66.2022464  69.5752812
   1.7966174  54.8320440  65.9176229   2.1362246  55.3606362  65.1954837
   2.2438294  55.1700846  66.6934795  11.5338051  67.0030932  71.1460609
  12.4584599  66.7973793  71.0085060  11.3653355  66.7547333  72.0549951
   4.4909615  53.2157491  75.3679297   4.1506435  52.4165304  75.7699977
   3.7848621  53.5159202  74.7956130   5.1426087  50.3006803  73.8206620
   5.9652156  49.8267282  73.6985510   5.3864150  51.0797287  74.3205306
   3.7834321  53.3295062  64.1169522   4.5042684  53.7076315  63.6133238
   3.1599625  54.0483939  64.2204499   7.9265444  54.0340211  65.0527854
   8.1429058  54.9164849  64.7516682   7.4459511  53.6426424  64.3233496
   2.6664665  56.9925924  71.6298598   2.5209246  57.3066227  72.5222880
   2.1889869  57.6110824  71.0769497   4.5261048  53.9828472  71.6779488
   4.5122617  53.0869565  71.3411786   5.2433476  53.9899136  72.3117774
   6.3787179  54.4165812  73.7232615   6.1204957  55.3382883  73.7216946
   5.8472219  54.0196247  74.4133080  11.3233368  67.5216599  66.5022701
  11.4970245  66.9563022  65.7496553  11.8162259  68.3217494  66.3202191
   3.9297944  52.8642852  66.9467058   4.0513855  51.9359499  67.1457946
   3.6399986  52.8781538  66.0345374   6.7989134  50.5497763  70.0833778
   6.8210831  50.6137096  69.1285758   7.2157193  49.7102271  70.2774284
  17.1772759  60.2853022  68.1213001  17.6203905  59.5360348  67.7232124
  16.2999269  60.2763159  67.7386733  12.3108540  66.8383364  63.6019599
  13.0059445  67.4590056  63.8206914  12.6531690  65.9878715  63.8771977
  14.2099963  64.2883069  65.1306930  14.7351287  64.6270342  64.4056250
  14.1222316  63.3530085  64.9470064  14.0191744  61.7708439  77.7490856
  14.0689749  61.6058447  78.6906379  13.9105668  60.9035698  77.3588737
   2.9028003  64.4496985  65.0382945   3.0516123  65.1332449  64.3849618
   3.7094447  64.4302075  65.5532401  11.3095507  57.7539367  79.0650163
  12.2105369  57.6145832  78.7734161  11.3843481  57.9193822  80.0048340
  15.5209941  64.1905381  77.9932878  15.2294749  64.5535361  78.8296339
  14.9082072  63.4772389  77.8146210  16.7205623  61.7558261  70.5135448
  17.5552515  62.1948065  70.6773008  16.8564752  61.2796914  69.6943694
  13.7697129  59.3137995  76.4612936  14.2451251  59.5065642  75.6531787
  12.8462695  59.3697181  76.2156320   8.3477346  51.3485839  75.4268770
   8.8659290  52.0846866  75.1015258   7.9932479  51.6549832  76.2615529
   8.5989940  47.7686122  70.9469666   8.8791694  47.1009311  71.5730093
   9.3840547  47.9615217  70.4344330   6.4023409  66.9445115  62.5094693
   5.8297376  67.5635303  62.0565165   6.9756202  67.4944477  63.0434615
  12.4698798  56.1903756  74.6941241  13.4216221  56.2901853  74.7153466
  12.3002249  55.3982024  75.2039326  10.4913178  53.2759339  74.8800642
   9.8963110  53.5564351  74.1847131  10.2062875  53.7653240  75.6517383
   9.6220668  67.2282266  63.6403275  10.5551342  67.1627827  63.8436150
   9.5343881  68.0638532  63.1817808  12.2508685  66.5448136  60.6007223
  12.1722317  66.2108000  61.4942980  13.0718352  67.0369904  60.5998695
  14.9486876  59.4109875  73.8083541  14.9163196  58.4725876  73.9943225
  15.5587500  59.4893912  73.0749366   6.7870207  58.2805928  59.8510745
   7.7329312  58.1512136  59.9199163   6.4084452  57.5420590  60.3280173
  15.0981365  56.2020919  73.8541824  14.5820413  55.4179375  73.6671753
  15.9821313  55.8739635  74.0188344  12.7592092  49.9461934  69.8137637
  12.5616913  49.6377022  70.6980969  13.3691797  50.6723573  69.9435567
  20.7663426  60.4725882  72.9489578  21.4966815  60.2111170  73.5097281
  20.1570372  59.7354604  72.9891646  18.8478723  58.6133745  73.5464029
  18.1211887  58.4789710  72.9380521  18.4326010  58.9210573  74.3520747
   4.9713124  56.2055905  59.7865630   4.0644580  55.9089017  59.8628344
   5.2489105  55.9085723  58.9199917   6.5875190  50.7492794  65.9409872
   5.7775918  50.4039879  66.3165118   7.2759607  50.4400338  66.5297483
   8.5165738  49.8270841  67.5634168   9.0696777  50.2466295  68.2224191
   8.7535825  48.9006589  67.6057124   3.7411909  53.0642840  59.9277610
   4.6031073  53.3897738  60.1873427   3.9262253  52.2774336  59.4150675
  11.8944545  51.9371366  67.0712833  11.3143214  52.5956170  66.6890885
  11.6280478  51.1148711  66.6600250  10.3448112  51.3376424  69.2734153
  10.8447890  51.4492959  68.4648472  10.9883720  51.0337477  69.9134961
  10.6769423  54.0971457  66.1269181   9.7895278  54.3821107  65.9089376
  11.0923412  53.9365220  65.2796458  14.0283959  54.1217978  69.8423520
  14.8044350  54.6114430  70.1148137  13.3032094  54.5476032  70.2995390
  16.4656518  54.8345597  70.8997461  17.0601009  54.5941333  70.1890769
  16.5383102  54.1152727  71.5270997   9.8212637  63.8616131  60.2217201
  10.5248487  64.0666134  60.8374856   9.0975286  64.4292893  60.4866284
  10.6510447  59.6125993  66.3419471  10.5945648  60.0694544  65.5027103
  11.2038790  58.8516677  66.1642314  14.4615253  55.4015724  67.1669591
  14.2052187  55.0012360  67.9977798  13.8368121  56.1159518  67.0419730
  18.7727591  58.1411798  69.6740882  18.2127149  58.2104987  70.4472444
  18.1671094  57.9652782  68.9540378  11.7299334  64.2998661  62.2715661
  12.5644938  63.8679859  62.0893136  11.5683677  64.1280674  63.1992555
  11.3845226  60.8030774  63.6372000  11.3294030  60.6375045  62.6960444
  10.7591282  61.5106807  63.7934190   4.6941352  50.3038883  63.2157319
   4.6820022  51.2480723  63.3725589   5.5864774  50.1209028  62.9216780
   8.5093471  46.8981659  67.4703255   7.7425867  46.3440146  67.6159938
   8.9204176  46.9703528  68.3317407  20.3583609  74.8168312  72.3670838
  20.9962019  74.6975059  71.6634178  20.2404452  75.7649156  72.4258790
  17.1673316  74.7695740  72.3032362  16.8291827  74.6536804  71.4152897
  18.0363084  74.3686905  72.2833368  13.0260131  76.6231216  68.2929253
  12.4624996  76.5321153  67.5245541  12.9112526  75.8031121  68.7731746
  18.6059690  80.2902184  63.6043718  17.9547670  80.8756264  63.2177732
  19.4004053  80.8208379  63.6638756  12.5315317  77.3791321  64.0030853
  13.3046193  76.8320308  63.8643728  12.8840716  78.2435570  64.2145314
  15.2956567  76.0844552  73.7999111  15.8920139  75.8600574  73.0856074
  15.3531538  75.3429297  74.4024559  14.8681595  73.5383987  61.6349302
  15.1207116  73.0165508  60.8732765  13.9306154  73.3750133  61.7375986
  19.9124878  72.5419766  69.4424046  20.6987967  72.1239189  69.0914463
  20.1763582  73.4465858  69.6105694  20.0834955  77.9792616  64.1412702
  19.4480788  78.0527242  64.8533607  19.7532362  78.5686215  63.4631782
  25.3133305  72.4794999  70.3457024  26.0458477  71.9094216  70.5794854
  24.5572661  72.0916599  70.7863530  14.5877884  75.4412093  63.8373677
  14.4714142  74.7656996  64.5054762  14.6980144  74.9544467  63.0205830
  16.9309425  74.9022240  67.5420367  16.5667632  74.3752861  68.2533288
  17.7876541  74.5120709  67.3686852  22.8358725  66.1916573  74.8051633
  22.5042050  67.0611984  74.5812848  22.2404339  65.8752857  75.4845663
  16.5714912  69.9312140  62.5381715  16.7389314  70.7992376  62.9052186
  16.3812081  70.0939422  61.6143004  19.3290245  78.3929119  74.2047546
  19.0290968  79.2954158  74.0963353  18.9841304  78.1261302  75.0568698
  12.7802726  74.8442916  70.2384250  11.8553223  74.7119130  70.4461942
  13.0287139  75.6237135  70.7354192  22.7287389  70.9111659  71.8844983
  21.8204266  70.8427067  71.5903744  22.6774984  71.3883604  72.7126808
  16.5504132  72.3869797  63.5228382  16.4303758  72.8326848  64.3613862
  15.8556721  72.7355115  62.9641920  24.5949035  69.1128097  73.6622857
  23.9523415  69.4060631  73.0162651  24.0903964  68.9981018  74.4676053
  22.2489199  72.8591271  64.3508716  23.1607055  73.0918657  64.1756414
  21.7398846  73.4428315  63.7883795  16.8861036  72.2188505  75.3603566
  17.7322232  72.6427919  75.5038215  16.8259674  71.5622129  76.0542129
  20.8558781  77.8417089  71.7422297  20.2267643  78.0062803  71.0398365
  20.4684443  78.2558699  72.5133262  24.7348013  78.7771527  69.0966661
  24.0499051  79.1570428  68.5463695  24.8191862  79.3866854  69.8298609
  20.0360482  69.8792874  77.0184739  19.7921414  70.6334934  76.4819015
  20.3120412  70.2578221  77.8531986  21.9898944  76.4231486  75.6962005
  22.2015840  77.0663246  75.0196386  21.9428693  75.5893802  75.2283935
  19.5925173  69.0349307  72.5998577  18.7309652  69.3330560  72.8915314
  19.6187608  69.2519705  71.6679610  16.4086743  77.5791497  69.0072383
  16.8725088  77.8579200  68.2177005  16.1443541  76.6774942  68.8245473
  15.3455629  73.7014649  65.8161948  16.0479672  74.1535693  66.2835874
  15.0136257  73.0598468  66.4441841  23.1044772  79.3003441  73.8684362
  23.9262216  78.8983629  73.5867044  23.1007175  79.1971675  74.8200478
  11.0395708  72.3242781  68.0762558  10.2426872  72.4361476  68.5946054
  10.8121300  72.6629434  67.2103449  31.1950765  75.6442190  70.2169334
  30.4414474  75.0749588  70.0613338  31.3298307  75.6104854  71.1639968
  10.0378791  78.0331030  66.4651978  10.5503311  78.8274280  66.6157543
  10.6901504  77.3357321  66.3985579  19.9341857  64.0386154  74.4222946
  19.5906126  64.9287796  74.3462057  20.3020820  63.8487812  73.5592531
   8.0027708  76.3619684  67.2411549   8.8402930  76.7716693  67.0245256
   8.1805975  75.4219127  67.2111742  19.8992140  74.0294765  62.9295382
  19.3838763  74.7999370  63.1683769  19.6269448  73.3559901  63.5528443
  17.4839251  68.8744466  67.9880620  16.6280847  68.4851316  67.8086259
  17.8966203  68.9536427  67.1280405  19.0138397  66.4090809  72.3872180
  18.5103193  66.3720944  71.5739985  19.3069004  67.3183552  72.4468836
  15.2581283  66.4929539  71.3938361  16.1234280  66.2972348  71.0344251
  15.3258792  66.2639891  72.3207718  24.8726414  76.7827120  64.8648555
  24.0955857  76.4438279  64.4203717  25.5517895  76.7879743  64.1903520
  19.6878443  71.9021857  64.7555163  19.3828579  72.2168006  65.6065306
  20.6408885  71.9803277  64.7982496  18.1324875  78.0612081  66.4048117
  17.6046236  77.3264840  66.0921354  17.6312378  78.8386757  66.1588085
  23.1117721  76.2561101  71.5215163  22.4541395  76.9460362  71.6095292
  23.9158120  76.6457533  71.8649149  12.8643602  68.7231747  68.7654728
  13.4387354  68.5006928  68.0327921  13.4514585  68.7920441  69.5183330
  21.9223180  74.6105474  69.5719105  22.4355061  75.2435466  70.0740814
  22.5724404  74.0106669  69.2062465  13.1913190  70.7536208  62.7850613
  12.3550502  71.0910894  63.1059888  13.0517959  70.6185188  61.8477750
  15.1666270  65.5972996  67.4929798  14.5130682  65.2822013  66.8686412
  15.1246744  64.9748736  68.2189621  16.2777475  75.8792291  59.4083090
  15.3704537  75.6481544  59.6074239  16.7748507  75.0829910  59.5957071
  18.4004011  72.0854929  71.8177445  17.4826572  72.3069876  71.6599133
  18.8164154  72.1601240  70.9589153  19.1839058  73.4846345  66.9480126
  19.9310877  73.9967742  66.6387248  19.4530648  73.1630398  67.8084519
  17.4565708  75.9804886  63.9307080  16.5476928  75.6963918  64.0279550
  17.4860792  76.4003964  63.0710387  22.6884976  79.5911475  67.6998247
  22.2347303  78.7502385  67.7563438  22.0578943  80.2272874  68.0373028
  21.6317895  70.5203461  68.9298915  20.8940652  70.0080847  69.2609157
  21.8844669  70.0803843  68.1182192  21.1317915  81.4287972  68.6348066
  21.4240889  81.9893029  67.9160431  21.6416536  81.7216533  69.3901225
  21.7329523  63.2979713  69.5240684  22.0388400  62.4377077  69.2366599
  22.4582128  63.8897333  69.3239678   8.0253879  73.7010400  67.9122282
   7.8278279  73.1079760  67.1873349   7.4700543  73.3962610  68.6298221
  16.0050602  73.5933506  70.0316875  16.0599212  72.6407343  69.9559352
  15.1941805  73.7492945  70.5158174  17.1541796  77.5213629  61.2695158
  16.7161226  76.8049488  60.8100796  17.8952237  77.7489744  60.7080250
  13.9442962  72.2110566  67.7907254  13.1310828  72.5104737  68.1972446
  14.4401957  71.8166255  68.5081736  19.5417174  72.6752390  76.6222148
  19.8966562  72.9023864  77.4816614  20.1889305  73.0070767  75.9999403
  25.2714911  75.7970826  67.3271477  25.1332810  75.9872422  66.3992666
  24.9151130  76.5590209  67.7839528  13.4357037  69.7828922  73.4068489
  14.0756416  69.6417681  72.7091452  12.6034568  69.4963435  73.0307091
  25.2984291  77.8647353  72.3382748  25.7320797  77.7722642  73.1865802
  26.0115871  77.8404854  71.7002764  14.2117341  79.0831352  69.5203481
  15.0057940  78.5881672  69.3186056  13.5009033  78.5549215  69.1571187
  10.5200105  73.2274434  65.5963234   9.5897693  73.1658889  65.8133196
  10.6157577  72.7050386  64.7999875  10.4385654  69.7529247  68.1841476
  10.6992471  70.6674580  68.0750636  11.2602826  69.2853689  68.3338089
  26.1599840  77.9071054  74.8715634  26.3535730  78.8116865  75.1174909
  26.0600458  77.4478473  75.7054219  17.8136151  67.7928945  77.3705961
  17.1664066  68.4918894  77.2770438  18.5837166  68.2265089  77.7382209
  17.9900285  75.6309710  75.4302781  18.9192345  75.7820869  75.2571748
  17.5691315  75.7193730  74.5751427  18.3393832  79.0341977  70.5890156
  18.0043665  78.9942747  71.4847806  17.8397778  78.3686693  70.1160567
  21.2753024  76.3798011  60.8627216  20.6582194  75.6544839  60.7660269
  20.8069512  77.1407371  60.5194290  13.0651570  70.5983435  59.9848520
  12.1881036  70.4772236  59.6210767  13.5409323  69.8069514  59.7327409
  22.9324563  79.0536503  76.7546976  22.0451342  78.7162425  76.8773375
  23.5023114  78.3219534  76.9915741  19.5612146  68.7604355  69.8745246
  20.0580845  68.0074317  69.5546316  18.7899127  68.7968672  69.3088455
  27.4141903  74.4644721  71.5163538  27.4031780  75.3469436  71.1457471
  26.5459283  74.1116271  71.3218075  20.6441927  77.5176042  67.4483670
  19.7098205  77.6377505  67.2788374  20.8218595  76.6148509  67.1843679
  16.1447115  70.9021738  69.6016931  15.7744902  70.3492778  70.2897836
  16.6406207  70.2979872  69.0491931  24.0314478  73.3593362  67.9833704
  24.4974930  74.1921353  67.9094006  24.4821978  72.8938343  68.6878962
  22.0990709  79.7037183  64.9819856  22.3750553  79.5893777  65.8913730
  21.2295208  79.3054668  64.9432029  22.0031141  65.7273949  72.0224605
  21.0894221  65.9578175  72.1906812  22.4324242  65.8112393  72.8738637
  21.7737599  73.9163841  74.5224499  21.1209049  74.1639748  73.8676952
  22.1517979  73.1027979  74.1886976   7.7930264  72.1925291  65.4261426
   8.0883705  71.2835969  65.3728480   6.8918299  72.1713030  65.1042428
  11.3224511  70.2681287  71.4088975  10.6011096  70.8817255  71.2696448
  12.1117766  70.8039052  71.3305620  21.7651251  81.7141575  73.8591384
  20.8181586  81.5946926  73.7869711  22.1134024  80.8264073  73.9417646
   9.5218105  69.8739388  65.5500751   9.1930811  68.9936767  65.3675857
   9.8757476  69.8187057  66.4377140  18.7697684  81.5094291  70.0595737
  18.6222646  80.5810998  70.2403307  19.5951178  81.5314382  69.5752812
  12.6359928  70.1612358  65.9176229  12.9756001  70.6898279  65.1954837
  13.0832049  70.4992764  66.6934795  22.3731806  82.3322850  71.1460609
  23.2978353  82.1265711  71.0085060  22.2047109  82.0839251  72.0549951
  15.3303369  68.5449409  75.3679297  14.9900190  67.7457222  75.7699977
  14.6242375  68.8451120  74.7956130  15.9819841  65.6298721  73.8206620
  16.8045910  65.1559199  73.6985510  16.2257905  66.4089205  74.3205306
  14.6228075  68.6586980  64.1169522  15.3436438  69.0368232  63.6133238
  13.9993380  69.3775856  64.2204499  18.7659198  69.3632129  65.0527854
  18.9822813  70.2456766  64.7516682  18.2853266  68.9718342  64.3233496
  13.5058420  72.3217842  71.6298598  13.3603000  72.6358145  72.5222880
  13.0283623  72.9402742  71.0769497  15.3654803  69.3120390  71.6779488
  15.3516371  68.4161483  71.3411786  16.0827231  69.3191053  72.3117774
  17.2180933  69.7457730  73.7232615  16.9598711  70.6674801  73.7216946
  16.6865974  69.3488164  74.4133080  14.7691699  68.1934770  66.9467058
  14.8907610  67.2651416  67.1457946  14.4793741  68.2073456  66.0345374
  17.6382889  65.8789680  70.0833778  17.6604586  65.9429014  69.1285758
  18.0550948  65.0394189  70.2774284  28.0166513  75.6144940  68.1213001
  28.4597659  74.8652265  67.7232124  27.1393024  75.6055076  67.7386733
  23.1502295  82.1675281  63.6019599  23.8453199  82.7881974  63.8206914
  23.4925445  81.3170633  63.8771977  25.0493718  79.6174987  65.1306930
  25.5745042  79.9562260  64.4056250  24.9616070  78.6822002  64.9470064
  24.8585499  77.1000357  77.7490856  24.9083504  76.9350364  78.6906379
  24.7499422  76.2327616  77.3588737  22.1489261  73.0831285  79.0650163
  23.0499124  72.9437750  78.7734161  22.2237236  73.2485740  80.0048340
  26.3603696  79.5197299  77.9932878  26.0688504  79.8827279  78.8296339
  25.7475827  78.8064307  77.8146210  27.5599378  77.0850178  70.5135448
  28.3946269  77.5239982  70.6773008  27.6958507  76.6088832  69.6943694
  24.6090884  74.6429913  76.4612936  25.0845006  74.8357559  75.6531787
  23.6856449  74.6989099  76.2156320  11.4974391  75.8054080  66.0444014
  11.2520432  74.9016410  66.2424224  11.6670305  75.8071231  65.1023492
  19.1871100  66.6777757  75.4268770  19.7053044  67.4138784  75.1015258
  18.8326233  66.9841750  76.2615529  10.7670038  71.5382438  63.5430176
  10.0739283  71.6126793  62.8870212  10.5221790  70.7742782  64.0651693
  19.4383695  63.0978039  70.9469666  19.7185448  62.4301228  71.5730093
  20.2234301  63.2907135  70.4344330  23.3092553  71.5195673  74.6941241
  24.2609976  71.6193771  74.7153466  23.1396003  70.7273942  75.2039326
  21.3306932  68.6051256  74.8800642  20.7356864  68.8856269  74.1847131
  21.0456629  69.0945157  75.6517383  23.0902440  81.8740054  60.6007223
  23.0116071  81.5399917  61.4942980  23.9112106  82.3661822  60.5998695
  25.7880631  74.7401793  73.8083541  25.7556951  73.8017794  73.9943225
  26.3981254  74.8185830  73.0749366  17.6263962  73.6097846  59.8510745
  18.5723066  73.4804054  59.9199163  17.2478207  72.8712508  60.3280173
  25.9375119  71.5312836  73.8541824  25.4214168  70.7471293  73.6671753
  26.8215068  71.2031553  74.0188344  23.5985846  65.2753852  69.8137637
  23.4010667  64.9668940  70.6980969  24.2085552  66.0015491  69.9435567
  31.6057181  75.8017800  72.9489578  32.3360569  75.5403088  73.5097281
  30.9964126  75.0646522  72.9891646  29.6872478  73.9425662  73.5464029
  28.9605641  73.8081627  72.9380521  29.2719765  74.2502491  74.3520747
  15.8106879  71.5347822  59.7865630  14.9038334  71.2380935  59.8628344
  16.0882860  71.2377640  58.9199917  17.4268944  66.0784712  65.9409872
  16.6169673  65.7331797  66.3165118  18.1153361  65.7692256  66.5297483
  19.3559493  65.1562759  67.5634168  19.9090531  65.5758212  68.2224191
  19.5929579  64.2298507  67.6057124  14.5805663  68.3934758  59.9277610
  15.4424827  68.7189656  60.1873427  14.7656007  67.6066253  59.4150675
  22.7338300  67.2663284  67.0712833  22.1536969  67.9248088  66.6890885
  22.4674232  66.4440629  66.6600250  21.1841866  66.6668342  69.2734153
  21.6841645  66.7784876  68.4648472  21.8277474  66.3629395  69.9134961
  21.5163178  69.4263374  66.1269181  20.6289033  69.7113025  65.9089376
  21.9317167  69.2657138  65.2796458  24.8677714  69.4509895  69.8423520
  25.6438104  69.9406348  70.1148137  24.1425848  69.8767950  70.2995390
  27.3050273  70.1637515  70.8997461  27.8994763  69.9233251  70.1890769
  27.3776856  69.4444645  71.5270997  20.6606391  79.1908049  60.2217201
  21.3642241  79.3958052  60.8374856  19.9369040  79.7584811  60.4866284
  21.4904202  74.9417910  66.3419471  21.4339403  75.3986462  65.5027103
  22.0432544  74.1808595  66.1642314  25.3009007  70.7307642  67.1669591
  25.0445942  70.3304278  67.9977798  24.6761876  71.4451436  67.0419730
  29.6121345  73.4703715  69.6740882  29.0520903  73.5396905  70.4472444
  29.0064849  73.2944700  68.9540378  22.5693089  79.6290578  62.2715661
  23.4038693  79.1971777  62.0893136  22.4077432  79.4572592  63.1992555
  22.2238981  76.1322692  63.6372000  22.1687785  75.9666963  62.6960444
  21.5985036  76.8398724  63.7934190  15.5335106  65.6330801  63.2157319
  15.5213776  66.5772640  63.3725589  16.4258528  65.4500946  62.9216780
  19.3487226  62.2273577  67.4703255  18.5819622  61.6732064  67.6159938
  19.7597931  62.2995446  68.3317407  36.1527059  87.8086916  70.3457024
  36.8852231  87.2386133  70.5794854  35.3966415  87.4208517  70.7863530
  33.6752480  81.5208490  74.8051633  33.3435805  82.3903901  74.5812848
  33.0798093  81.2044774  75.4845663  33.5681143  86.2403577  71.8844983
  32.6598020  86.1718985  71.5903744  33.5168739  86.7175522  72.7126808
  35.4342789  84.4420015  73.6622857  34.7917170  84.7352548  73.0162651
  34.9297718  84.3272935  74.4676053  30.8754236  85.2084791  77.0184739
  30.6315168  85.9626852  76.4819015  31.1514167  85.5870139  77.8531986
  30.4318928  84.3641224  72.5998577  29.5703407  84.6622478  72.8915314
  30.4581363  84.5811623  71.6679610  30.7735612  79.3678072  74.4222946
  30.4299881  80.2579713  74.3462057  31.1414574  79.1779729  73.5592531
  28.3233005  84.2036384  67.9880620  27.4674602  83.8143234  67.8086259
  28.7359957  84.2828344  67.1280405  29.8532152  81.7382727  72.3872180
  29.3496948  81.7012862  71.5739985  30.1462759  82.6475470  72.4468836
  26.0975038  81.8221457  71.3938361  26.9628035  81.6264265  71.0344251
  26.1652547  81.5931808  72.3207718  26.0060025  80.9264913  67.4929798
  25.3524437  80.6113931  66.8686412  25.9640499  80.3040654  68.2189621
  32.4711650  85.8495379  68.9298915  31.7334407  85.3372765  69.2609157
  32.7238423  85.4095760  68.1182192  32.5723277  78.6271631  69.5240684
  32.8782154  77.7668994  69.2366599  33.2975882  79.2189251  69.3239678
  28.6529905  83.1220862  77.3705961  28.0057820  83.8210812  77.2770438
  29.4230921  83.5557006  77.7382209  30.4005900  84.0896273  69.8745246
  30.8974600  83.3366235  69.5546316  29.6292882  84.1260589  69.3088455
  32.8424895  81.0565866  72.0224605  31.9287975  81.2870093  72.1906812
  33.2717997  81.1404310  72.8738637  26.1697124  83.8741326  75.3679297
  25.8293944  83.0749139  75.7699977  25.4636130  84.1743037  74.7956130
  26.8213595  80.9590639  73.8206620  27.6439665  80.4851117  73.6985510
  27.0651659  81.7381123  74.3205306  29.6052953  84.6924046  65.0527854
  29.8216567  85.5748684  64.7516682  29.1247020  84.3010260  64.3233496
  25.6085453  83.5226688  66.9467058  25.7301364  82.5943334  67.1457946
  25.3187495  83.5365374  66.0345374  28.4776643  81.2081598  70.0833778
  28.4998340  81.2720931  69.1285758  28.8944702  80.3686107  70.2774284
  30.0264855  82.0069674  75.4268770  30.5446799  82.7430701  75.1015258
  29.6719988  82.3133668  76.2615529  30.2777449  78.4269957  70.9469666
  30.5579203  77.7593146  71.5730093  31.0628056  78.6199053  70.4344330
  34.1486307  86.8487591  74.6941241  35.1003730  86.9485689  74.7153466
  33.9789758  86.0565859  75.2039326  32.1700687  83.9343174  74.8800642
  31.5750619  84.2148187  74.1847131  31.8850384  84.4237075  75.6517383
  36.7768874  86.8604754  73.8541824  36.2607922  86.0763211  73.6671753
  37.6608822  86.5323471  74.0188344  34.4379601  80.6045770  69.8137637
  34.2404422  80.2960858  70.6980969  35.0479306  81.3307409  69.9435567
  28.2662699  81.4076630  65.9409872  27.4563427  81.0623715  66.3165118
  28.9547116  81.0984173  66.5297483  30.1953247  80.4854676  67.5634168
  30.7484286  80.9050130  68.2224191  30.4323334  79.5590425  67.6057124
  25.4199418  83.7226675  59.9277610  26.2818582  84.0481574  60.1873427
  25.6049762  82.9358171  59.4150675  33.5732054  82.5955202  67.0712833
  32.9930723  83.2540006  66.6890885  33.3067987  81.7732546  66.6600250
  32.0235621  81.9960259  69.2734153  32.5235399  82.1076794  68.4648472
  32.6671229  81.6921312  69.9134961  32.3556932  84.7555292  66.1269181
  31.4682787  85.0404943  65.9089376  32.7710921  84.5949055  65.2796458
  35.7071468  84.7801813  69.8423520  36.4831859  85.2698265  70.1148137
  34.9819603  85.2059867  70.2995390  38.1444027  85.4929432  70.8997461
  38.7388518  85.2525168  70.1890769  38.2170611  84.7736563  71.5270997
  36.1402762  86.0599560  67.1669591  35.8839696  85.6596195  67.9977798
  35.5155630  86.7743354  67.0419730  40.4515100  88.7995633  69.6740882
  39.8914658  88.8688822  70.4472444  39.8458603  88.6236618  68.9540378
  26.3728861  80.9622718  63.2157319  26.3607531  81.9064558  63.3725589
  27.2652283  80.7792864  62.9216780  30.1880980  77.5565495  67.4703255
  29.4213376  77.0023982  67.6159938  30.5991685  77.6287364  68.3317407
   3.6345797  18.8273286  57.0702331   4.3670969  18.2572503  57.3040160
   2.8785153  18.4394886  57.5108836   2.9161527  15.4606385  60.3868163
   2.2735908  15.7538918  59.7407958   2.4116456  15.3459305  61.1921360
   3.0560505  25.1249814  55.8211968   2.3711543  25.5048715  55.2709001
   3.1404354  25.7345141  56.5543916   1.4257265  25.6481729  60.5929669
   2.2474708  25.2461916  60.3112350   1.4219668  25.5449963  61.5445785
   9.5163258  21.9920477  56.9414640   8.7626966  21.4227875  56.7858645
   9.6510799  21.9583142  57.8885275   3.1938906  23.1305407  51.5893862
   2.4168349  22.7916566  51.1449024   3.8730387  23.1358030  50.9148827
   1.4330213  22.6039388  58.2460470   0.7753888  23.2938650  58.3340598
   2.2370612  22.9935820  58.5894456   3.5927403  22.1449114  54.0516784
   3.4545302  22.3350710  53.1237973   3.2363622  22.9068496  54.5084835
   3.6196783  24.2125641  59.0628055   4.0533290  24.1200930  59.9111109
   4.3328364  24.1883141  58.4248071   4.4812332  24.2549341  61.5960940
   4.6748223  25.1595152  61.8420215   4.3812951  23.7956760  62.4299526
   1.2519648  27.4375207  65.2478303   1.1932194  26.7534427  64.5808886
   1.6539166  28.1794197  64.7958929   5.7354396  20.8123008  58.2408844
   5.7244272  21.6947723  57.8702777   4.8671775  20.4594559  58.0463381
   2.3526970  19.7071649  54.7079010   2.8187422  20.5399640  54.6339313
   2.8034471  19.2416630  55.4124269   0.6944298  28.6801137  57.8705916
   1.6190846  28.4743998  57.7330367   0.5259602  28.4317538  58.7795257
   6.3379006  21.9623227  54.8458307   6.7810152  21.2130552  54.4477430
   5.4605516  21.9533364  54.4632039   1.4714787  28.5153569  50.3264906
   2.1665692  29.1360261  50.5452220   1.8137937  27.6648920  50.6017284
   3.3706210  25.9653274  51.8552236   3.8957534  26.3040547  51.1301557
   3.2828563  25.0300290  51.6715371   3.0600116  26.5986178  67.1603434
   2.2695660  26.5810317  66.6207934   2.8233471  27.1374472  67.9152471
   3.1797991  23.4478644  64.4736163   3.2295996  23.2828652  65.4151686
   3.0711914  22.5805903  64.0834044   4.6816188  25.8675586  64.7178185
   4.3900996  26.2305566  65.5541645   4.0688319  25.1542594  64.5391517
   5.8811870  23.4328466  57.2380755   6.7158762  23.8718270  57.4018315
   6.0170999  22.9567119  56.4189001   2.9303376  20.9908200  63.1858242
   3.4057498  21.1835847  62.3777094   2.0068942  21.0467386  62.9401626
   1.6305045  17.8673960  61.4186548   2.5822468  17.9672058  61.4398772
   1.4608496  17.0752229  61.9284632   1.4114932  28.2218341  47.3252529
   1.3328563  27.8878204  48.2188287   2.2324599  28.7140109  47.3244001
   4.1093123  21.0880080  60.5328848   4.0769443  20.1496081  60.7188532
   4.7193747  21.1664117  59.7994673   4.2587611  17.8791124  60.5787131
   3.7426660  17.0949580  60.3917060   5.1427560  17.5509840  60.7433650
   9.9269673  22.1496087  59.6734885  10.6573061  21.8881375  60.2342588
   9.3176618  21.4124809  59.7136953   8.0084970  20.2903950  60.2709336
   7.2818134  20.1559915  59.6625827   7.5932257  20.5980778  61.0766054
   3.1890206  15.7988183  56.5668827   3.9650596  16.2884635  56.8393444
   2.4638340  16.2246237  57.0240696   5.6262765  16.5115802  57.6242767
   6.2207256  16.2711538  56.9136076   5.6989349  15.7922932  58.2516304
   3.6221500  17.0785929  53.8914897   3.3658434  16.6782565  54.7223105
   2.9974368  17.7929723  53.7665036   7.9333838  19.8182003  56.3986189
   7.3733396  19.8875192  57.1717751   7.3277341  19.6422987  55.6785685
   0.8905581  25.9768865  48.9960968   1.7251185  25.5450064  48.8138442
   0.7289924  25.8050879  49.9237862   9.5189856  36.4938517  59.0916144
  10.1568266  36.3745264  58.3879484   9.4010699  37.4419361  59.1504096
   6.3279562  36.4465945  59.0277669   5.9898074  36.3307009  58.1398204
   7.1969331  36.0457110  59.0078675   2.1866378  38.3001421  55.0174560
   1.6231243  38.2091358  54.2490848   2.0718773  37.4801326  55.4977052
   6.8099345  37.6000796  64.9863874   6.7987986  37.2053595  64.1144378
   6.9719985  36.8666869  65.5797646   7.7665937  41.9672389  50.3289025
   7.1153917  42.5526469  49.9423039   8.5610300  42.4978584  50.3884062
   1.6921564  39.0561526  50.7276159   2.4652440  38.5090513  50.5889035
   2.0446963  39.9205775  50.9390621   3.5306606  40.3837908  63.9343058
   3.2396472  41.2883539  63.8189725   4.1663591  40.4254436  64.6487128
   4.4562813  37.7614757  60.5244418   5.0526386  37.5370779  59.8101381
   4.5137785  37.0199502  61.1269866   4.0287842  35.2154192  48.3594609
   4.2813362  34.6935713  47.5978072   3.0912401  35.0520338  48.4621293
   9.0731125  34.2189970  56.1669352   9.8594214  33.8009394  55.8159769
   9.3369829  35.1236063  56.3351001   9.2441202  39.6562821  50.8658009
   8.6087035  39.7297447  51.5778914   8.9138608  40.2456420  50.1877088
  14.4739552  34.1565204  57.0702331  15.2064724  33.5864420  57.3040160
  13.7178907  33.7686804  57.5108836   3.7484130  37.1182298  50.5618984
   3.6320389  36.4427201  51.2300068   3.8586390  36.6314672  49.7451137
   6.0915671  36.5792445  54.2665673   5.7273879  36.0523066  54.9778595
   6.9482787  36.1890914  54.0932159  11.9964972  27.8686778  61.5296939
  11.6648297  28.7382189  61.3058154  11.4010585  27.5523062  62.2090970
   5.7321158  31.6082345  49.2627022   5.8995561  32.4762581  49.6297493
   5.5418327  31.7709627  48.3388311   8.4896492  40.0699324  60.9292852
   8.1897215  40.9724363  60.8208659   8.1447551  39.8031507  61.7814005
   1.9408973  36.5213121  56.9629557   1.0159470  36.3889335  57.1707248
   2.1893386  37.3007340  57.4599499  11.8893635  32.5881864  58.6090289
  10.9810513  32.5197272  58.3149050  11.8381231  33.0653809  59.4372115
   5.7110379  34.0640002  50.2473689   5.5910004  34.5097053  51.0859169
   5.0162968  34.4125320  49.6887227   3.4717271  46.8343644  53.8963820
   3.3941301  47.7851469  53.9752300   2.8678915  46.4889517  54.5538746
   5.9634501  34.0071510  66.5525187   5.1867835  34.5665430  66.5428051
   6.6025064  34.4928292  67.0740057  13.7555282  30.7898302  60.3868163
  13.1129662  31.0830835  59.7407958  13.2510210  30.6751223  61.1921360
  11.4095445  34.5361476  51.0754023  12.3213302  34.7688862  50.9001720
  10.9005092  35.1198520  50.5129101   4.2180873  36.8156963  66.1143154
   4.9595558  37.3542007  65.8377977   3.5117859  37.4423252  66.2714706
   9.6936213  38.9586103  64.7115315  10.1019569  38.5168514  63.9669948
   8.9713475  38.3838731  64.9649508   6.0467283  33.8958710  62.0848872
   6.8928478  34.3198124  62.2283521   5.9865921  33.2392334  62.7787435
  10.0165028  39.5187294  58.4667604   9.3873890  39.6833008  57.7643672
   9.6290690  39.9328904  59.2378568  13.8954260  40.4541732  55.8211968
  13.2105298  40.8340633  55.2709001  13.9798109  41.0637058  56.5543916
   9.1966728  31.5563078  63.7430046   8.9527660  32.3105139  63.2064322
   9.4726659  31.9348426  64.5777293  11.1505191  38.1001691  62.4207311
  11.3622086  38.7433451  61.7441692  11.1034939  37.2664007  61.9529241
   8.7531420  30.7119511  59.3243884   7.8915899  31.0100765  59.6160621
   8.7793855  30.9289910  58.3924916   5.5692990  39.2561702  55.7317689
   6.0331335  39.5349405  54.9422312   5.3049788  38.3545147  55.5490780
   2.4617071  38.8033184  58.6697452   3.0318428  39.2320452  58.0314937
   3.0525183  38.5215768  59.3681638   4.5061876  35.3784854  52.5407254
   5.2085919  35.8305898  53.0081181   4.1742504  34.7368673  53.1687147
   2.9542237  33.9696611  66.9158464   2.3240898  34.6512892  67.1493861
   2.8478325  33.8579693  65.9711602  12.2651019  40.9773646  60.5929669
  13.0868463  40.5753834  60.3112350  12.2613422  40.8741880  61.5445785
   6.0307623  40.5257690  62.7490379   6.0952055  40.9878097  63.5848551
   5.3218547  39.8955054  62.8772689  20.3557012  37.3212395  56.9414640
  19.6020721  36.7519793  56.7858645  20.4904553  37.2875059  57.8885275
   5.7455640  42.1925797  52.6169360   5.6101315  43.0377333  53.0454207
   6.2865453  42.3945075  51.8535293   2.2322980  28.2717377  69.2783715
   1.8389925  27.7183575  69.9531359   3.0489120  28.5827955  69.6690232
   1.0079922  42.8266991  55.2720038   1.1846551  43.7484956  55.0841022
   1.8036756  42.5125411  55.7014418   5.1490941  29.6875256  66.8703971
   5.8900654  30.2882409  66.7908434   5.3808864  28.9452894  66.3122014
   7.3724117  42.8149364  66.7469702   6.9287971  42.0285742  66.4290606
   8.0341330  43.0028514  66.0813592   2.1311238  44.3445165  61.2730380
   2.6818663  44.2162228  60.5007374   1.2922714  44.6440054  60.9225273
   9.4705355  43.0952163  64.7751103   9.4523830  43.9161045  64.2831372
  10.3925275  42.9706239  65.0001244   5.9278409  40.6096293  65.6174611
   6.4606746  39.8484581  65.3873919   5.3992490  40.3169945  66.3598766
   9.0948104  25.7156359  61.1468253   8.7512373  26.6058001  61.0707364
   9.4627066  25.5258017  60.2837838   9.0598387  35.7064970  49.6540688
   8.5445010  36.4769575  49.8929076   8.7875695  35.0330106  50.2773750
   6.6445498  30.5514671  54.7125927   5.7887094  30.1621521  54.5331565
   7.0572449  30.6306632  53.8525712   8.1744644  28.0861014  59.1117486
   7.6709440  28.0491149  58.2985292   8.4675251  28.9953757  59.1714143
   4.4187530  28.1699744  58.1183668   5.2840527  27.9742552  57.7589557
   4.4865039  27.9410096  59.0453025  14.0332661  38.4597325  51.5893862
  13.2562103  38.1208484  51.1449024  14.7124142  38.4649948  50.9148827
   8.8484690  33.5792062  51.4800469   8.5434825  33.8938211  52.3310613
   9.8015132  33.6573482  51.5227802   7.2931122  39.7382285  53.1293423
   6.7652483  39.0035045  52.8166661   6.7918624  40.5156962  52.8833392
  12.2723968  37.9331306  58.2460470  11.6147642  38.6230567  58.3340598
  13.0764367  38.3227738  58.5894456   2.0249849  30.4001952  55.4900035
   2.5993601  30.1777133  54.7573228   2.6120832  30.4690646  56.2428636
  11.0829426  36.2875679  56.2964411  11.5961308  36.9205670  56.7986121
  11.7330650  35.6876874  55.9307771   2.3519436  32.4306413  49.5095920
   1.5156749  32.7681099  49.8305195   2.2124206  32.2955393  48.5723057
   4.3272517  27.2743201  54.2175104   3.6736929  26.9592218  53.5931719
   4.2852991  26.6518941  54.9434927   5.4383722  37.5562496  46.1328396
   4.5310784  37.3251749  46.3319545   5.9354754  36.7600115  46.3202378
   8.3451801  46.2660003  49.0525083   7.6713499  46.5691700  49.6610040
   8.7317623  47.0689083  48.7030540   7.5610257  33.7625134  58.5422752
   6.6432819  33.9840081  58.3844440   7.9770401  33.8371445  57.6834459
   8.3445305  35.1616550  53.6725432   9.0917124  35.6737947  53.3632554
   8.6136895  34.8400603  54.5329826   6.6171955  37.6575091  50.6552386
   5.7083174  37.3734123  50.7524856   6.6467039  38.0774169  49.7955693
  11.8491223  41.2681680  54.4243554  11.3953550  40.4272590  54.4808744
  11.2185189  41.9043078  54.7618334  10.7924142  32.1973666  55.6544221
  10.0546899  31.6851052  55.9854464  11.0450916  31.7574048  54.8427498
  10.2924162  43.1058177  55.3593372  10.5847136  43.6663234  54.6405738
  10.8022782  43.3986738  56.1146531  10.8935770  24.9749918  56.2485991
  11.1994646  24.1147282  55.9611906  11.6188374  25.5667538  56.0484985
   5.1656849  35.2703711  56.7562182   5.2205459  34.3177548  56.6804658
   4.3548051  35.4263150  57.2403480   6.3148043  39.1983834  47.9940465
   5.8767473  38.4819693  47.5346102   7.0558484  39.4259949  47.4325556
   3.1049209  33.8880771  54.5152561   2.2917075  34.1874941  54.9217753
   3.6008203  33.4936460  55.2327043   5.2557787  43.8838528  56.4486825
   5.2133966  44.1099374  55.5195357   6.1720486  43.6501902  56.5972626
   8.7023421  34.3522595  63.3467455   9.0572809  34.5794069  64.2061920
   9.3495552  34.6840972  62.7244710  14.4321158  37.4741031  54.0516784
  14.2939056  37.6642627  53.1237973  14.0757377  38.2360414  54.5084835
   2.5963284  31.4599126  60.1313796   3.2362663  31.3187886  59.4336759
   1.7640814  31.1733640  59.7552398  14.4590537  39.5417558  59.0628055
  14.8927044  39.4492847  59.9111109  15.1722118  39.5175059  58.4248071
   3.3723588  40.7601557  56.2448788   4.1664186  40.2651877  56.0431363
   2.6615280  40.2319420  55.8816494   8.1918432  43.1419652  60.5961156
   8.2455455  43.7110589  61.3638872   7.3233214  43.3121537  60.2315193
  15.3206087  39.5841259  61.5960940  15.5141977  40.4887069  61.8420215
  15.2206705  39.1248678  62.4299526   6.9742398  29.4699150  64.0951268
   6.3270313  30.1689099  64.0015744   7.7443413  29.9035293  64.4627516
  10.3821196  39.7348002  67.1701821  10.2306702  39.5058553  66.2531905
  10.3725875  40.6918603  67.1833166   7.1506532  37.3079914  62.1548088
   8.0798592  37.4591074  61.9817055   6.7297562  37.3963935  61.2996734
   5.9494864  41.3330579  59.9246625   5.8105950  40.9649363  60.7972563
   5.1609460  41.8478218  59.7530583   6.5443016  46.4339675  51.2672162
   6.7194771  45.9627719  52.0817784   5.8575804  47.0605442  51.4953422
   7.5000079  40.7112182  57.3135463   7.1649912  40.6712952  58.2093113
   7.0004025  40.0456897  56.8405873   1.4744323  36.1179812  62.8388044
   1.3364121  35.3860050  63.4399583   2.3849246  36.0288712  62.5572232
  10.4359271  38.0568216  47.5872523   9.8188441  37.3315044  47.4905575
   9.9675759  38.8177576  47.2439597   4.1026624  35.8299771  62.3271724
   4.8126242  35.1892963  62.2858342   4.0595932  36.0812666  63.2497905
  12.0913402  42.7667124  65.2478303  12.0325948  42.0826344  64.5808886
  12.4932921  43.5086114  64.7958929   2.8155558  32.8164989  64.1467363
   2.2792915  32.3655727  64.7988960   2.2272266  32.9510898  63.4037828
   2.2257817  32.2753640  46.7093827   1.3487283  32.1542441  46.3456074
   2.7015570  31.4839718  46.4572716  12.0930810  40.7306708  63.4792283
  11.2057588  40.3932630  63.6018682  12.6629361  39.9989739  63.7161048
   5.6231963  45.3908161  60.4453526   5.5502134  46.1963132  60.9572830
   5.1809356  45.5900126  59.6201547   5.4121743  44.6279931  53.9556347
   4.6289264  45.1701611  54.0494572   6.1114488  45.1453910  54.3550589
   8.7218393  30.4374560  56.5990553   9.2187092  29.6844522  56.2791623
   7.9505374  30.4738877  56.0333762  16.5748150  36.1414926  58.2408844
  16.5638026  37.0239641  57.8702777  15.7065530  35.7886476  58.0463381
   8.0830646  45.2894995  62.6011685   8.7958619  45.9242459  62.5287586
   7.5920675  45.3858861  61.7851686   9.8048173  39.1946247  54.1728976
   8.8704452  39.3147710  54.0033680   9.9824842  38.2918714  53.9088986
   5.3053361  32.5791943  56.3262237   4.9351149  32.0262983  57.0143143
   5.8012454  31.9750076  55.7737237  13.1920725  35.0363567  54.7079010
  13.6581177  35.8691558  54.6339313  13.6428225  34.5708548  55.4124269
   3.1342560  43.0389438  63.4217255   3.8352019  43.6725921  63.5746650
   2.6637675  43.3804170  62.6612895  11.2596956  41.3807388  51.7065162
  11.5356800  41.2663982  52.6159036  10.3901455  40.9824873  51.6677335
  11.1637387  27.4044153  58.7469912  10.2500467  27.6348380  58.9152119
  11.5930489  27.4882598  59.5983944  10.9343846  35.5934045  61.2469806
  10.2815296  35.8409953  60.5922258  11.3124226  34.7798184  60.9132283
   7.8951020  45.6293739  55.3497976   8.0773414  44.8115395  55.8125728
   8.7184006  45.8461431  54.9122866   8.2293185  44.5561924  52.6113024
   8.7580952  44.0454378  51.9983187   8.4921405  44.2404454  53.4758557
   6.9831419  36.3353857  67.7335843   6.3072056  36.2347986  68.4038218
   7.8059053  36.1793070  68.1971840   1.5848933  45.6077040  55.3710800
   0.9159309  46.0923168  54.8874840   1.4461803  45.8546261  56.2854179
   5.7254202  47.6420784  61.9693459   6.2772510  47.8052405  62.7342544
   6.0660395  48.2325222  61.2973484   0.7018695  29.9895934  62.5715343
   0.7660022  30.8510765  62.1592741   0.6385815  29.3769935  61.8387702
  10.5765076  42.4682041  67.8242113  11.1204980  43.0812000  67.3297068
   9.9951921  43.0261620  68.3409126   8.8622589  45.5902759  58.9557141
   8.7373729  44.7892499  58.4468086   9.5201680  46.0848953  58.4671111
  10.9257498  43.3911780  60.5836691   9.9787833  43.2717131  60.5115018
  11.2740271  42.5034278  60.6662952   3.2857071  29.2805919  64.4074933
   3.8091473  29.5268215  65.1701242   3.0669404  30.1125953  63.9878070
   7.9303931  43.1864496  56.7841043   7.7828893  42.2581203  56.9648613
   8.7557424  43.2084587  56.2998118   1.7966175  31.8382563  52.6421535
   2.1362248  32.3668484  51.9200144   2.2438296  32.1762969  53.4180102
  11.5338053  44.0093055  57.8705916  12.4584600  43.8035916  57.7330367
  11.3653356  43.7609456  58.7795257   4.4909616  30.2219614  62.0924603
   4.1506436  29.4227427  62.4945283   3.7848622  30.5221324  61.5201437
   5.1426088  27.3068926  60.5451926   5.9652157  26.8329404  60.4230817
   5.3864151  28.0859410  61.0450613   3.7834322  30.3357184  50.8414828
   4.5042685  30.7138437  50.3378545   3.1599626  31.0546061  50.9449806
   7.9265445  31.0402333  51.7773160   8.1429060  31.9226971  51.4761989
   7.4459512  30.6488547  51.0478802   2.6664667  33.9988047  58.3543905
   2.5209247  34.3128350  59.2468187   2.1889870  34.6172947  57.8014804
   4.5261049  30.9890595  58.4024795   4.5122618  30.0931688  58.0657093
   5.2433478  30.9961258  59.0363081   6.3787180  31.4227935  60.4477922
   6.1204958  32.3445006  60.4462252   5.8472221  31.0258369  61.1378386
  11.3233369  44.5278722  53.2268007  11.4970246  43.9625144  52.4741860
  11.8162260  45.3279617  53.0447497   3.9297945  29.8704975  53.6712365
   4.0513857  28.9421621  53.8703252   3.6399988  29.8843661  52.7590680
   6.7989136  27.5559885  56.8079085   6.8210833  27.6199218  55.8531064
   7.2157195  26.7164394  57.0019591  17.1772760  37.2915145  54.8458307
  17.6203906  36.5422470  54.4477430  16.2999270  37.2825281  54.4632039
  12.3108541  43.8445486  50.3264906  13.0059446  44.4652179  50.5452220
  12.6531692  42.9940838  50.6017284  14.2099964  41.2945192  51.8552236
  14.7351289  41.6332465  51.1301557  14.1222317  40.3592207  51.6715371
   5.8720013  45.2079266  63.9842113   6.1807140  44.9628412  64.8564813
   6.6695495  45.4125904  63.4960983   5.8940625  47.3617175  56.2147490
   5.4545616  46.8693554  56.9080346   6.6448742  46.8190143  55.9739565
   3.3414497  42.9055184  58.2869791   2.7194507  42.2425889  57.9872019
   4.0119364  42.9316316  57.6043439   3.4139025  31.3836972  67.8802297
   3.4627180  32.2599095  67.4980067   3.9561539  30.8414365  67.3073941
  13.8993871  41.9278096  67.1603434  13.1089414  41.9102234  66.6207934
  13.6627225  42.4666389  67.9152471  14.0191746  38.7770562  64.4736163
  14.0689751  38.6120569  65.4151686  13.9105669  37.9097821  64.0834044
   2.9028004  41.4559108  51.7628252   3.0516125  42.1394572  51.1094925
   3.7094448  41.4364198  52.2777708  11.3095508  34.7601490  65.7895470
  12.2105371  34.6207955  65.4979467  11.3843483  34.9255945  66.7293647
   5.6438313  32.1368345  64.6348656   4.7741623  32.4301911  64.3631245
   5.8797794  32.7208790  65.3555920  15.5209942  41.1967503  64.7178185
  15.2294751  41.5597484  65.5541645  14.9082074  40.4834512  64.5391517
  16.7205625  38.7620383  57.2380755  17.5552516  39.2010187  57.4018315
  16.8564754  38.2859036  56.4189001  13.7697131  36.3200118  63.1858242
  14.2451252  36.5127764  62.3777094  12.8462696  36.3759304  62.9401626
   8.3477347  28.3547962  62.1514076   8.8659291  29.0908989  61.8260565
   7.9932480  28.6611955  62.9860836   8.5989941  24.7748244  57.6714973
   8.8791695  24.1071433  58.2975400   9.3840548  24.9677340  57.1589637
   6.4023410  43.9507238  49.2339999   5.8297377  44.5697425  48.7810471
   6.9756204  44.5006600  49.7679921  12.4698800  33.1965878  61.4186548
  13.4216223  33.2963976  61.4398772  12.3002250  32.4044147  61.9284632
  10.4913179  30.2821461  61.6045949   9.8963111  30.5626474  60.9092438
  10.2062876  30.7715362  62.3762690   9.6220670  44.2344388  50.3648582
  10.5551343  44.1689950  50.5681457   9.5343882  45.0700655  49.9063114
  12.2508686  43.5510259  47.3252529  12.1722318  43.2170122  48.2188287
  13.0718353  44.0432026  47.3244001  14.9486877  36.4171998  60.5328848
  14.9163198  35.4787999  60.7188532  15.5587501  36.4956035  59.7994673
   6.7870208  35.2868051  46.5756052   7.7329313  35.1574259  46.6444470
   6.4084453  34.5482713  47.0525480  15.0981366  33.2083041  60.5787131
  14.5820415  32.4241498  60.3917060  15.9821314  32.8801758  60.7433650
  12.7592093  26.9524057  56.5382944  12.5616914  26.6439145  57.4226276
  13.3691798  27.6785696  56.6680873  20.7663427  37.4788005  59.6734885
  21.4966816  37.2173293  60.2342588  20.1570373  36.7416727  59.7136953
  18.8478724  35.6195867  60.2709336  18.1211888  35.4851832  59.6625827
  18.4326011  35.9272696  61.0766054   6.6708901  39.3385797  68.0356709
   7.5911910  39.5164396  68.2296755   6.6358484  38.3941842  67.8836408
   4.9713125  33.2118027  46.5110937   4.0644581  32.9151140  46.5873651
   5.2489106  32.9147845  45.6445223   6.5875191  27.7554917  52.6655178
   5.7775920  27.4102002  53.0410424   7.2759608  27.4462461  53.2542790
   8.5165739  26.8332964  54.2879475   9.0696778  27.2528417  54.9469498
   8.7535826  25.9068712  54.3302431   4.5398839  32.8220037  70.0682239
   4.4395566  33.7714394  69.9994330   4.3220381  32.4938276  69.1958309
   3.7411910  30.0704962  46.6522916   4.6031074  30.3959861  46.9118734
   3.9262254  29.2836458  46.1395982  11.8944547  28.9433489  53.7958139
  11.3143216  29.6018293  53.4136192  11.6280479  28.1210833  53.3845557
  10.3448113  28.3438547  55.9979460  10.8447891  28.4555081  55.1893778
  10.9883721  28.0399599  56.6380268   4.4030109  36.2517176  68.8847301
   3.9197190  37.0517536  69.0911190   4.4891048  36.2625121  67.9314745
   0.9202828  38.7122827  63.4886532   1.7395717  39.2066906  63.5121369
   1.1939636  37.7954795  63.4604099  10.6769425  31.1033579  52.8514487
   9.7895280  31.3883230  52.6334682  11.0923414  30.9427343  52.0041764
  14.0283961  31.1280100  56.5668827  14.8044351  31.6176553  56.8393444
  13.3032095  31.5538154  57.0240696  16.4656519  31.8407719  57.6242767
  17.0601010  31.6003455  56.9136076  16.5383103  31.1214850  58.2516304
   9.8212638  40.8678254  46.9462507  10.5248488  41.0728256  47.5620163
   9.0975287  41.4355016  47.2111591  10.6510448  36.6188115  53.0664778
  10.5945650  37.0756667  52.2272410  11.2038791  35.8578800  52.8887620
  14.4615254  32.4077847  53.8914897  14.2052188  32.0074483  54.7223105
  13.8368122  33.1221641  53.7665036  18.7727592  35.1473920  56.3986189
  18.2127150  35.2167110  57.1717751  18.1671095  34.9714905  55.6785685
   1.8422801  46.5810647  58.1504375   1.7255185  47.5256080  58.0483065
   1.0215247  46.2784209  58.5390174  11.7299335  41.3060783  48.9960968
  12.5644939  40.8741982  48.8138442  11.5683678  41.1342797  49.9237862
  11.3845228  37.8092896  50.3617307  11.3294031  37.6437168  49.4205751
  10.7591283  38.5168929  50.5179497   8.6991135  40.1141808  69.6870870
   9.5682294  40.2882461  69.3257505   8.2197886  40.9336225  69.5646599
   4.6941353  27.3101005  49.9402625   4.6820023  28.2542845  50.0970896
   5.5864775  27.1271151  49.6462086   2.8677315  47.2338909  61.3660303
   3.7704562  47.2662520  61.6826798   2.6414685  46.3039360  61.3806639
   4.6230917  45.9869896  58.0270382   3.6726548  45.9871757  57.9134754
   4.9263403  45.2402630  57.5106416   8.5093473  23.9043782  54.1948562
   7.7425868  23.3502269  54.3405244   8.9204178  23.9765651  55.0562714
  20.3583611  51.8230434  59.0916144  20.9962021  51.7037182  58.3879484
  20.2404453  52.7711278  59.1504096  13.0260133  53.6293339  55.0174560
  12.4624998  53.5383276  54.2490848  12.9112528  52.8093243  55.4977052
  17.6493100  52.9292714  64.9863874  17.6381741  52.5345512  64.1144378
  17.8113739  52.1958787  65.5797646  10.5724564  55.1244530  57.8558780
  11.3645856  54.7835355  57.4405080  10.8121215  55.2339505  58.7760934
  18.6059691  57.2964306  50.3289025  17.9547671  57.8818387  49.9423039
  19.4004054  57.8270501  50.3884062  12.5315318  54.3853444  50.7276159
  13.3046194  53.8382431  50.5889035  12.8840717  55.2497693  50.9390621
  14.3700361  55.7129826  63.9343058  14.0790227  56.6175457  63.8189725
  15.0057345  55.7546354  64.6487128  15.2956568  53.0906674  60.5244418
  15.8920140  52.8662697  59.8101381  15.3531539  52.3491420  61.1269866
  14.8681596  50.5446110  48.3594609  15.1207117  50.0227631  47.5978072
  13.9306155  50.3812255  48.4621293  19.9124879  49.5481888  56.1669352
  20.6987968  49.1301311  55.8159769  20.1763583  50.4527980  56.3351001
  20.0834956  54.9854738  50.8658009  19.4480789  55.0589365  51.5778914
  19.7532363  55.5748337  50.1877088  25.3133306  49.4857121  57.0702331
  26.0458478  48.9156338  57.3040160  24.5572662  49.0978722  57.5108836
  14.5877885  52.4474216  50.5618984  14.4714143  51.7719119  51.2300068
  14.6980145  51.9606590  49.7451137  16.9309426  51.9084363  54.2665673
  16.5667633  51.3814984  54.9778595  17.7876542  51.5182832  54.0932159
  22.8358727  43.1978695  61.5296939  22.5042051  44.0674106  61.3058154
  22.2404340  42.8814979  62.2090970  16.5714913  46.9374262  49.2627022
  16.7389315  47.8054499  49.6297493  16.3812082  47.1001544  48.3388311
  19.3290246  55.3991241  60.9292852  19.0290969  56.3016280  60.8208659
  18.9841306  55.1323425  61.7814005  12.7802728  51.8505038  56.9629557
  11.8553224  51.7181252  57.1707248  13.0287141  52.6299257  57.4599499
  22.7287390  47.9173782  58.6090289  21.8204267  47.8489190  58.3149050
  22.6774986  48.3945727  59.4372115  16.5504134  49.3931920  50.2473689
  16.4303759  49.8388971  51.0859169  15.8556722  49.7417238  49.6887227
  10.1411539  51.4938312  57.7973346  10.2703920  51.7472791  58.7112757
   9.4608990  52.0866020  57.4778001  14.3111026  62.1635562  53.8963820
  14.2335056  63.1143387  53.9752300  13.7072669  61.8181434  54.5538746
  16.8028256  49.3363427  66.5525187  16.0261590  49.8957347  66.5428051
  17.4418819  49.8220210  67.0740057  24.5949036  46.1190220  60.3868163
  23.9523416  46.4122753  59.7407958  24.0903965  46.0043140  61.1921360
  22.2489200  49.8653393  51.0754023  23.1607056  50.0980780  50.9001720
  21.7398847  50.4490437  50.5129101  15.0574628  52.1448881  66.1143154
  15.7989312  52.6833925  65.8377977  14.3511613  52.7715169  66.2714706
  20.5329968  54.2878021  64.7115315  20.9413324  53.8460432  63.9669948
  19.8107229  53.7130649  64.9649508  16.8861038  49.2250628  62.0848872
  17.7322233  49.6490041  62.2283521  16.8259675  48.5684252  62.7787435
  20.8558782  54.8479212  58.4667604  20.2267645  55.0124926  57.7643672
  20.4684444  55.2620821  59.2378568  24.7348014  55.7833649  55.8211968
  24.0499052  56.1632551  55.2709001  24.8191863  56.3928976  56.5543916
  20.0360483  46.8854996  63.7430046  19.7921415  47.6397057  63.2064322
  20.3120413  47.2640344  64.5777293  21.9898946  53.4293609  62.4207311
  22.2015841  54.0725368  61.7441692  21.9428694  52.5955925  61.9529241
  19.5925175  46.0411429  59.3243884  18.7309654  46.3392683  59.6160621
  19.6187609  46.2581828  58.3924916  16.4086744  54.5853620  55.7317689
  16.8725090  54.8641323  54.9422312  16.1443542  53.6837064  55.5490780
  13.3010825  54.1325101  58.6697452  13.8712182  54.5612370  58.0314937
  13.8918937  53.8507686  59.3681638  15.3455630  50.7076772  52.5407254
  16.0479673  51.1597816  53.0081181  15.0136259  50.0660591  53.1687147
  13.7935992  49.2988529  66.9158464  13.1634652  49.9804810  67.1493861
  13.6872080  49.1871610  65.9711602   9.0880964  48.9660325  57.8424388
   8.2980018  49.2217853  57.3664499   9.5792211  49.7808663  57.9476428
  23.1044774  56.3065564  60.5929669  23.9262217  55.9045751  60.3112350
  23.1007177  56.2033798  61.5445785  11.0395709  49.3304904  54.8007865
  10.2426873  49.4423598  55.3191360  10.8121302  49.6691556  53.9348755
  16.8701377  55.8549607  62.7490379  16.9345810  56.3170014  63.5848551
  16.1612301  55.2246972  62.8772689   7.3718667  49.2190815  60.2739379
   7.6226706  50.1037825  60.5396955   7.9078215  49.0395417  59.5014471
  31.1950767  52.6504312  56.9414640  30.4414475  52.0811710  56.7858645
  31.3298308  52.6166977  57.8885275  16.5849395  57.5217715  52.6169360
  16.4495070  58.3669250  53.0454207  17.1259207  57.7236992  51.8535293
  13.0716734  43.6009295  69.2783715  12.6783680  43.0475493  69.9531359
  13.8882875  43.9119873  69.6690232  10.0378792  55.0393153  53.1897285
  10.5503313  55.8336403  53.3402849  10.6901505  54.3419443  53.1230886
  11.8473677  58.1558909  55.2720038  12.0240305  59.0776874  55.0841022
  12.6430510  57.8417328  55.7014418  15.9884695  45.0167174  66.8703971
  16.7294409  45.6174327  66.7908434  16.2202618  44.2744811  66.3122014
  11.1326033  50.2023541  65.1482201  11.0179549  49.3008798  65.4489300
  10.2770551  50.4487238  64.7967018  18.2117871  58.1441281  66.7469702
  17.7681725  57.3577660  66.4290606  18.8735085  58.3320432  66.0813592
  12.9704992  59.6737083  61.2730380  13.5212417  59.5454146  60.5007374
  12.1316468  59.9731972  60.9225273  20.3099109  58.4244081  64.7751103
  20.2917585  59.2452962  64.2831372  21.2319029  58.2998156  65.0001244
  16.7672163  55.9388211  65.6174611  17.3000500  55.1776499  65.3873919
  16.2386244  55.6461862  66.3598766  19.9341858  41.0448277  61.1468253
  19.5906128  41.9349918  61.0707364  20.3020821  40.8549934  60.2837838
   8.0027709  53.3681807  53.9656855   8.8402931  53.7778815  53.7490563
   8.1805977  52.4281249  53.9357049  19.8992141  51.0356888  49.6540688
  19.3838764  51.8061492  49.8929076  19.6269450  50.3622024  50.2773750
  17.4839252  45.8806588  54.7125927  16.6280848  45.4913439  54.5331565
  17.8966204  45.9598549  53.8525712  19.0138399  43.4152932  59.1117486
  18.5103194  43.3783067  58.2985292  19.3069006  44.3245674  59.1714143
  15.2581285  43.4991661  58.1183668  16.1234281  43.3034470  57.7589557
  15.3258794  43.2702013  59.0453025  24.8726415  53.7889242  51.5893862
  24.0955858  53.4500402  51.1449024  25.5517896  53.7941866  50.9148827
  19.6878444  48.9083980  51.4800469  19.3828580  49.2230129  52.3310613
  20.6408886  48.9865400  51.5227802  18.1324876  55.0674203  53.1293423
  17.6046238  54.3326963  52.8166661  17.6312379  55.8448879  52.8833392
  23.1117722  53.2623224  58.2460470  22.4541397  53.9522485  58.3340598
  23.9158121  53.6519656  58.5894456  12.8643604  45.7293869  55.4900035
  13.4387356  45.5069051  54.7573228  13.4514586  45.7982564  56.2428636
  21.9223181  51.6167596  56.2964411  22.4355063  52.2497588  56.7986121
  22.5724405  51.0168792  55.9307771  13.1913191  47.7598330  49.5095920
  12.3550503  48.0973017  49.8305195  13.0517960  47.6247310  48.5723057
  15.1666271  42.6035118  54.2175104  14.5130684  42.2884135  53.5931719
  15.1246746  41.9810859  54.9434927  16.2777476  52.8854413  46.1328396
  15.3704538  52.6543667  46.3319545  16.7748508  52.0892033  46.3202378
  19.1845555  61.5951921  49.0525083  18.5107254  61.8983617  49.6610040
  19.5711377  62.3981001  48.7030540  18.4004012  49.0917052  58.5422752
  17.4826573  49.3131999  58.3844440  18.8164155  49.1663362  57.6834459
  19.1839060  50.4908468  53.6725432  19.9310878  51.0029865  53.3632554
  19.4530649  50.1692520  54.5329826  17.4565710  52.9867008  50.6552386
  16.5476929  52.7026041  50.7524856  17.4860794  53.4066087  49.7955693
  22.6884977  56.5973598  54.4243554  22.2347304  55.7564508  54.4808744
  22.0578944  57.2334996  54.7618334  21.6317897  47.5265584  55.6544221
  20.8940653  47.0142970  55.9854464  21.8844670  47.0865965  54.8427498
  21.1317916  58.4350094  55.3593372  21.4240891  58.9955152  54.6405738
  21.6416537  58.7278655  56.1146531  21.7329524  40.3041836  56.2485991
  22.0388401  39.4439199  55.9611906  22.4582129  40.8959456  56.0484985
   8.0253880  50.7072522  54.6367589   7.8278280  50.1141883  53.9118655
   7.4700544  50.4024733  55.3543527  16.0050604  50.5995629  56.7562182
  16.0599214  49.6469465  56.6804658  15.1941806  50.7555068  57.2403480
  17.1541798  54.5275752  47.9940465  16.7161227  53.8111611  47.5346102
  17.8952238  54.7551867  47.4325556  13.9442964  49.2172689  54.5152561
  13.1310829  49.5166859  54.9217753  14.4401958  48.8228377  55.2327043
  16.0951542  59.2130446  56.4486825  16.0527720  59.4391292  55.5195357
  17.0114240  58.9793820  56.5972626  19.5417175  49.6814513  63.3467455
  19.8966563  49.9085986  64.2061920  20.1889307  50.0132890  62.7244710
  25.2714912  52.8032949  54.0516784  25.1332811  52.9934545  53.1237973
  24.9151131  53.5652332  54.5084835  13.4357038  46.7891044  60.1313796
  14.0756418  46.6479803  59.4336759  12.6034569  46.5025558  59.7552398
  25.2984292  54.8709476  59.0628055  25.7320799  54.7784765  59.9111109
  26.0115873  54.8466976  58.4248071  14.2117342  56.0893475  56.2448788
  15.0057941  55.5943795  56.0431363  13.5009035  55.5611338  55.8816494
  19.0312187  58.4711570  60.5961156  19.0849209  59.0402506  61.3638872
  18.1626968  58.6413455  60.2315193  10.5200106  50.2336556  52.3208541
   9.5897694  50.1721012  52.5378503  10.6157578  49.7112509  51.5245182
  10.4385655  46.7591369  54.9086782  10.6992472  47.6736702  54.7995943
  11.2602827  46.2915812  55.0583395  11.9110580  48.1729126  62.0785607
  12.5833634  47.9646488  61.4298256  11.0840367  47.9751212  61.6390839
  26.1599841  54.9133177  61.5960940  26.3535732  55.8178987  61.8420215
  26.0600460  54.4540596  62.4299526  17.8136152  44.7991067  64.0951268
  17.1664067  45.4981017  64.0015744  18.5837168  45.2327211  64.4627516
  21.2214950  55.0639919  67.1701821  21.0700457  54.8350471  66.2531905
  21.2119630  56.0210521  67.1833166  17.9900287  52.6371832  62.1548088
  18.9192347  52.7882992  61.9817055  17.5691317  52.7255853  61.2996734
  16.7888618  56.6622497  59.9246625  16.6499704  56.2941281  60.7972563
  16.0003215  57.1770136  59.7530583  17.3836770  61.7631593  51.2672162
  17.5588526  61.2919636  52.0817784  16.6969558  62.3897359  51.4953422
  18.3393833  56.0404099  57.3135463  18.0043666  56.0004869  58.2093113
  17.8397779  55.3748815  56.8405873  12.3138077  51.4471729  62.8388044
  12.1757875  50.7151968  63.4399583  13.2243001  51.3580629  62.5572232
  21.2753025  53.3860134  47.5872523  20.6582196  52.6606962  47.4905575
  20.8069514  54.1469494  47.2439597  14.9420378  51.1591689  62.3271724
  15.6519997  50.5184881  62.2858342  14.8989686  51.4104583  63.2497905
  22.9307157  58.0959042  65.2478303  22.8719703  57.4118262  64.5808886
  23.3326675  58.8378032  64.7958929  13.6549312  48.1456906  64.1467363
  13.1186669  47.6947645  64.7988960  13.0666021  48.2802815  63.4037828
  11.9497856  64.9120956  58.0412022  12.1894454  65.5439480  58.7191040
  11.1067052  64.5608996  58.3277381  13.0651571  47.6045558  46.7093827
  12.1881037  47.4834359  46.3456074  13.5409324  46.8131636  46.4572716
  22.9324564  56.0598626  63.4792283  22.0451343  55.7224548  63.6018682
  23.5023115  55.3281657  63.7161048   4.5853711  52.3922718  56.8035334
   5.2724751  52.0784448  56.2156349   4.4301840  53.2964082  56.5302585
   9.3888433  47.2812914  61.2320358   9.3046622  46.6738584  60.4970768
   8.5671140  47.7721932  61.2329854  16.4625717  60.7200078  60.4453526
  16.3895889  61.5255050  60.9572830  16.0203111  60.9192044  59.6201547
  16.2515497  59.9571848  53.9556347  15.4683019  60.4993528  54.0494572
  16.9508242  60.4745828  54.3550589  19.5612147  45.7666478  56.5990553
  20.0580847  45.0136440  56.2791623  18.7899129  45.8030794  56.0333762
  27.4141905  51.4706843  58.2408844  27.4031781  52.3531559  57.8702777
  26.5459284  51.1178394  58.0463381  18.9224401  60.6186912  62.6011685
  19.6352373  61.2534377  62.5287586  18.4314430  60.7150778  61.7851686
  20.6441928  54.5238165  54.1728976  19.7098207  54.6439627  54.0033680
  20.8218596  53.6210632  53.9088986  16.1447116  47.9083861  56.3262237
  15.7744903  47.3554901  57.0143143  16.6406208  47.3041994  55.7737237
  24.0314479  50.3655484  54.7079010  24.4974931  51.1983476  54.6339313
  24.4821980  49.9000466  55.4124269  13.9736314  58.3681356  63.4217255
  14.6745774  59.0017839  63.5746650  13.5031429  58.7096087  62.6612895
  22.0990710  56.7099305  51.7065162  22.3750554  56.5955900  52.6159036
  21.2295209  56.3116790  51.6677335  22.0031142  42.7336071  58.7469912
  21.0894222  42.9640298  58.9152119  22.4324243  42.8174515  59.5983944
  21.7737600  50.9225963  61.2469806  21.1209051  51.1701871  60.5922258
  22.1517980  50.1090101  60.9132283  18.7344774  60.9585656  55.3497976
  18.9167169  60.1407312  55.8125728  19.5577760  61.1753349  54.9122866
  19.0686940  59.8853841  52.6113024  19.5974706  59.3746296  51.9983187
  19.3315159  59.5696372  53.4758557  17.8225173  51.6645774  67.7335843
  17.1465811  51.5639904  68.4038218  18.6452807  51.5084988  68.1971840
   9.5704033  57.9017711  60.3548358  10.1557469  57.1561399  60.4876262
   9.3728871  58.2121667  61.2385022  12.4242688  60.9368958  55.3710800
  11.7553063  61.4215086  54.8874840  12.2855557  61.1838179  56.2854179
   4.1621687  50.4723311  59.0752801   4.2005787  49.9386902  59.8689919
   3.6561980  49.9458516  58.4563778  16.5647956  62.9712702  61.9693459
  17.1166264  63.1344323  62.7342544  16.9054150  63.5617139  61.2973484
  11.5412450  45.3187851  62.5715343  11.6053776  46.1802682  62.1592741
  11.4779570  44.7061853  61.8387702  11.0164722  47.3910984  66.2188378
  11.6436761  47.0088061  66.8325902  10.1592641  47.1725186  66.5844070
  21.4158831  57.7973959  67.8242113  21.9598735  58.4103917  67.3297068
  20.8345676  58.3553538  68.3409126   7.7930265  49.1987413  52.1506733
   8.0883706  48.2898092  52.0973786   6.8918301  49.1775153  51.8287735
  19.7016344  60.9194677  58.9557141  19.5767483  60.1184417  58.4468086
  20.3595435  61.4140871  58.4671111  11.3224512  47.2743410  58.1334281
  10.6011098  47.8879377  57.9941754  12.1117768  47.8101175  58.0550927
  21.7651252  58.7203697  60.5836691  20.8181588  58.6009048  60.5115018
  22.1134025  57.8326195  60.6662952  14.1250825  44.6097836  64.4074933
  14.6485227  44.8560133  65.1701242  13.9063159  45.4417871  63.9878070
   9.5218106  46.8801511  52.2746058   9.1930813  45.9998890  52.0921164
   9.8757477  46.8249179  53.1622447  18.7697685  58.5156413  56.7841043
  18.6222648  57.5873121  56.9648613  19.5951179  58.5376504  56.2998118
  12.6359930  47.1674481  52.6421535  12.9756002  47.6960402  51.9200144
  13.0832050  47.5054887  53.4180102  22.3731807  59.3384972  57.8705916
  23.2978355  59.1327834  57.7330367  22.2047111  59.0901373  58.7795257
  15.3303370  45.5511531  62.0924603  14.9900191  44.7519344  62.4945283
  14.6242377  45.8513242  61.5201437  15.9819842  42.6360844  60.5451926
  16.8045912  42.1621322  60.4230817  16.2257906  43.4151327  61.0450613
  14.6228077  45.6649102  50.8414828  15.3436439  46.0430355  50.3378545
  13.9993381  46.3837979  50.9449806  18.7659200  46.3694251  51.7773160
  18.9822814  47.2518889  51.4761989  18.2853267  45.9780465  51.0478802
  13.5058421  49.3279964  58.3543905  13.3603002  49.6420267  59.2468187
  13.0283625  49.9464865  57.8014804  15.3654804  46.3182512  58.4024795
  15.3516373  45.4223606  58.0657093  16.0827232  46.3253176  59.0363081
  17.2180935  46.7519853  60.4477922  16.9598712  47.6736923  60.4462252
  16.6865975  46.3550287  61.1378386  22.1627123  59.8570640  53.2268007
  22.3364001  59.2917062  52.4741860  22.6556015  60.6571535  53.0447497
   7.9804083  51.8685309  61.2931566   7.4357551  52.6445117  61.4251841
   8.8583433  52.2156113  61.1350688  14.7691700  45.1996893  53.6712365
  14.8907611  44.2713539  53.8703252  14.4793742  45.2135579  52.7590680
  17.6382890  42.8851803  56.8079085  17.6604587  42.9491136  55.8531064
  18.0550949  42.0456312  57.0019591  28.0166515  52.6207063  54.8458307
  28.4597661  51.8714388  54.4477430  27.1393025  52.6117199  54.4632039
  23.1502296  59.1737404  50.3264906  23.8453200  59.7944097  50.5452220
  23.4925446  58.3232755  50.6017284   8.7670105  50.9955205  64.1861723
   8.0251841  51.1437840  64.7726354   8.4462849  51.2563471  63.3228473
  25.0493719  56.6237110  51.8552236  25.5745043  56.9624382  51.1301557
  24.9616072  55.6884125  51.6715371  16.7113768  60.5371183  63.9842113
  17.0200894  60.2920330  64.8564813  17.5089250  60.7417822  63.4960983
  16.7334380  62.6909093  56.2147490  16.2939370  62.1985472  56.9080346
  17.4842497  62.1482061  55.9739565   9.2126719  58.8820634  56.2172118
  10.0384739  58.5824406  55.8370761   8.8620771  58.1128256  56.6661906
  14.1808252  58.2347102  58.2869791  13.5588261  57.5717807  57.9872019
  14.8513119  58.2608234  57.6043439   7.4135324  56.8006960  57.1761051
   6.5767232  56.3729135  56.9945053   7.3858969  56.9939404  58.1131843
  14.2532779  46.7128890  67.8802297  14.3020935  47.5891013  67.4980067
  14.7955294  46.1706283  67.3073941  24.7387625  57.2570013  67.1603434
  23.9483169  57.2394152  66.6207934  24.5020980  57.7958307  67.9152471
  24.8585500  54.1062480  64.4736163  24.9083505  53.9412487  65.4151686
  24.7499423  53.2389739  64.0834044  13.7421759  56.7851025  51.7628252
  13.8909879  57.4686490  51.1094925  14.5488202  56.7656115  52.2777708
  22.1489262  50.0893408  65.7895470  23.0499125  49.9499872  65.4979467
  22.2237237  50.2547862  66.7293647  16.4832068  47.4660262  64.6348656
  15.6135377  47.7593828  64.3631245  16.7191548  48.0500707  65.3555920
  26.3603697  56.5259421  64.7178185  26.0688505  56.8889402  65.5541645
  25.7475828  55.8126429  64.5391517  27.5599379  54.0912301  57.2380755
  28.3946271  54.5302105  57.4018315  27.6958508  53.6150954  56.4189001
  24.6090885  51.6492036  63.1858242  25.0845007  51.8419682  62.3777094
  23.6856451  51.7051222  62.9401626  11.4974392  52.8116203  52.7689321
  11.2520434  51.9078533  52.9669531  11.6670306  52.8133353  51.8268799
  19.1871102  43.6839879  62.1514076  19.7053046  44.4200906  61.8260565
  18.8326234  43.9903873  62.9860836  10.7670039  48.5444561  50.2675482
  10.0739284  48.6188915  49.6115518  10.5221791  47.7804904  50.7896999
  19.4383696  40.1040162  57.6714973  19.7185450  39.4363351  58.2975400
  20.2234303  40.2969257  57.1589637  17.2417164  59.2799156  49.2339999
  16.6691131  59.8989343  48.7810471  17.8149958  59.8298517  49.7679921
  23.3092554  48.5257796  61.4186548  24.2609977  48.6255894  61.4398772
  23.1396005  47.7336064  61.9284632  21.3306934  45.6113379  61.6045949
  20.7356866  45.8918392  60.9092438  21.0456630  46.1007280  62.3762690
  20.4614424  59.5636306  50.3648582  21.3945097  59.4981868  50.5681457
  20.3737637  60.3992573  49.9063114  23.0902441  58.8802176  47.3252529
  23.0116072  58.5462040  48.2188287  23.9112108  59.3723944  47.3244001
  25.7880632  51.7463916  60.5328848  25.7556952  50.8079916  60.7188532
  26.3981256  51.8247952  59.7994673  17.6263963  50.6159969  46.5756052
  18.5723068  50.4866177  46.6444470  17.2478208  49.8774630  47.0525480
  25.9375120  48.5374959  60.5787131  25.4214169  47.7533416  60.3917060
  26.8215069  48.2093676  60.7433650  23.5985847  42.2815975  56.5382944
  23.4010668  41.9731063  57.4226276  24.2085553  43.0077613  56.6680873
  29.6872479  50.9487785  60.2709336  28.9605643  50.8143750  59.6625827
  29.2719766  51.2564614  61.0766054  17.5102655  54.6677715  68.0356709
  18.4305665  54.8456314  68.2296755  17.4752238  53.7233760  67.8836408
  15.8106880  48.5409945  46.5110937  14.9038335  48.2443058  46.5873651
  16.0882861  48.2439763  45.6445223   6.7284820  49.8616308  56.9609983
   6.4087605  49.0081616  56.6684357   6.1818249  50.0764886  57.7167951
  10.5064728  52.5778749  60.6779490  10.7250738  53.5095857  60.6967524
  10.9190502  52.2186724  61.4634294  17.4268946  43.0846835  52.6655178
  16.6169674  42.7393920  53.0410424  18.1153363  42.7754378  53.2542790
  19.3559494  42.1624881  54.2879475  19.9090533  42.5820335  54.9469498
  19.5929580  41.2360630  54.3302431  15.3792593  48.1511955  70.0682239
  15.2789320  49.1006312  69.9994330  15.1614135  47.8230194  69.1958309
  14.5805665  45.3996880  46.6522916  15.4424829  45.7251778  46.9118734
  14.7656009  44.6128376  46.1395982   6.5973080  53.4819220  58.9303105
   5.9036552  53.0673173  58.4173059   7.3446071  53.5239756  58.3336524
  22.7338301  44.2725407  53.7958139  22.1536970  44.9310211  53.4136192
  22.4674234  43.4502751  53.3845557  21.1841867  43.6730464  55.9979460
  21.6841646  43.7846999  55.1893778  21.8277475  43.3691517  56.6380268
  15.2423863  51.5809094  68.8847301  14.7590945  52.3809454  69.0911190
  15.3284802  51.5917039  67.9314745   8.5109823  53.4137474  56.8069120
   8.4880511  53.5125161  55.8551003   8.8210459  54.2602624  57.1286286
  11.1697201  55.4713629  60.9215734  12.1240454  55.4397571  60.8545666
  10.9709724  55.0104252  61.7365960  11.7596583  54.0414745  63.4886532
  12.5789472  54.5358823  63.5121369  12.0333391  53.1246713  63.4604099
  21.5163179  46.4325497  52.8514487  20.6289034  46.7175148  52.6334682
  21.9317168  46.2719260  52.0041764  24.8677715  46.4572018  56.5668827
  25.6438105  46.9468470  56.8393444  24.1425849  46.8830072  57.0240696
  27.3050274  47.1699637  57.6242767  27.8994765  46.9295373  56.9136076
  27.3776858  46.4506768  58.2516304   9.5247430  61.0133248  57.9385932
   9.3901897  60.2533649  57.3723930   9.1079492  61.7374148  57.4714721
  20.6606393  56.1970172  46.9462507  21.3642243  56.4020174  47.5620163
  19.9369041  56.7646934  47.2111591  21.4904203  51.9480033  53.0664778
  21.4339404  52.4048584  52.2272410  22.0432545  51.1870717  52.8887620
  25.3009009  47.7369765  53.8914897  25.0445943  47.3366400  54.7223105
  24.6761877  48.4513559  53.7665036  29.6121347  50.4765838  56.3986189
  29.0520905  50.5459027  57.1717751  29.0064850  50.3006823  55.6785685
  12.6816555  61.9102565  58.1504375  12.5648940  62.8547998  58.0483065
  11.8609002  61.6076127  58.5390174  22.5693090  56.6352701  48.9960968
  23.4038694  56.2033899  48.8138442  22.4077433  56.4634715  49.9237862
  22.2238982  53.1384814  50.3617307  22.1687786  52.9729086  49.4205751
  21.5985037  53.8460847  50.5179497   7.0131497  48.3752879  64.1878729
   7.6590361  47.8651832  64.6765954   6.8048648  49.1121560  64.7622154
  19.5384889  55.4433726  69.6870870  20.4076049  55.6174378  69.3257505
  19.0591641  56.2628143  69.5646599  15.5335108  42.6392923  49.9402625
  15.5213777  43.5834763  50.0970896  16.4258529  42.4563069  49.6462086
  13.7071070  62.5630827  61.3660303  14.6098316  62.5954437  61.6826798
  13.4808440  61.6331278  61.3806639  15.4624672  61.3161814  58.0270382
  14.5120303  61.3163675  57.9134754  15.7657158  60.5694548  57.5106416
  19.3487227  39.2335700  54.1948562  18.5819623  38.6794186  54.3405244
  19.7597932  39.3057569  55.0562714  11.3528988  45.5220496  68.2853743
  12.2160450  45.1657300  68.4957068  10.7794399  45.1834390  68.9729148
  31.1977365  67.1522352  59.0916144  31.8355775  67.0329099  58.3879484
  31.0798208  68.1003196  59.1504096  28.0067071  67.1049780  59.0277669
  27.6685583  66.9890845  58.1398204  28.8756840  66.7040945  59.0078675
  23.8653887  68.9585256  55.0174560  23.3018752  68.8675193  54.2490848
  23.7506282  68.1385161  55.4977052  28.4886854  68.2584632  64.9863874
  28.4775495  67.8637430  64.1144378  28.6507494  67.5250704  65.5797646
  21.4118319  70.4536448  57.8558780  22.2039611  70.1127273  57.4405080
  21.6514969  70.5631423  58.7760934  29.4453446  72.6256224  50.3289025
  28.7941426  73.2110305  49.9423039  30.2397809  73.1562419  50.3884062
  23.3709073  69.7145361  50.7276159  24.1439949  69.1674348  50.5889035
  23.7234472  70.5789611  50.9390621  25.2094115  71.0421744  63.9343058
  24.9183981  71.9467374  63.8189725  25.8451100  71.0838271  64.6487128
  26.1350322  68.4198592  60.5244418  26.7313895  68.1954614  59.8101381
  26.1925294  67.6783338  61.1269866  25.7075351  65.8738027  48.3594609
  25.9600871  65.3519549  47.5978072  24.7699910  65.7104173  48.4621293
  30.9228711  70.3146656  50.8658009  30.2874544  70.3881283  51.5778914
  30.5926117  70.9040255  50.1877088  25.4271639  67.7766133  50.5618984
  25.3107898  67.1011037  51.2300068  25.5373899  67.2898507  49.7451137
  27.7703180  67.2376280  54.2665673  27.4061388  66.7106901  54.9778595
  28.6270296  66.8474750  54.0932159  27.4108667  62.2666180  49.2627022
  27.5783070  63.1346417  49.6297493  27.2205836  62.4293462  48.3388311
  30.1684001  70.7283159  60.9292852  29.8684724  71.6308198  60.8208659
  29.8235060  70.4615342  61.7814005  23.6196482  67.1796956  56.9629557
  22.6946979  67.0473170  57.1707248  23.8680895  67.9591175  57.4599499
  27.3897888  64.7223838  50.2473689  27.2697513  65.1680888  51.0859169
  26.6950477  65.0709155  49.6887227  20.9805293  66.8230229  57.7973346
  21.1097674  67.0764708  58.7112757  20.3002744  67.4157937  57.4778001
  25.1504780  77.4927479  53.8963820  25.0728810  78.4435305  53.9752300
  24.5466424  77.1473352  54.5538746  27.6422010  64.6655345  66.5525187
  26.8655344  65.2249265  66.5428051  28.2812573  65.1512128  67.0740057
  33.0882954  65.1945311  51.0754023  34.0000811  65.4272698  50.9001720
  32.5792601  65.7782355  50.5129101  25.8968382  67.4740798  66.1143154
  26.6383067  68.0125842  65.8377977  25.1905368  68.1007087  66.2714706
  31.3723722  69.6169939  64.7115315  31.7807078  69.1752349  63.9669948
  30.6500984  69.0422566  64.9649508  27.7254792  64.5542545  62.0848872
  28.5715987  64.9781959  62.2283521  27.6653430  63.8976170  62.7787435
  31.6952537  70.1771129  58.4667604  31.0661399  70.3416843  57.7643672
  31.3078199  70.5912739  59.2378568  35.5741769  71.1125567  55.8211968
  34.8892807  71.4924469  55.2709001  35.6585618  71.7220894  56.5543916
  32.8292700  68.7585526  62.4207311  33.0409595  69.4017286  61.7441692
  32.7822448  67.9247843  61.9529241  27.2480499  69.9145537  55.7317689
  27.7118844  70.1933240  54.9422312  26.9837297  69.0128982  55.5490780
  24.1404580  69.4617019  58.6697452  24.7105937  69.8904287  58.0314937
  24.7312691  69.1799604  59.3681638  26.1849385  66.0368690  52.5407254
  26.8873428  66.4889733  53.0081181  25.8530013  65.3952509  53.1687147
  24.6329746  64.6280446  66.9158464  24.0028407  65.3096727  67.1493861
  24.5265834  64.5163528  65.9711602  19.9274719  64.2952242  57.8424388
  19.1373773  64.5509771  57.3664499  20.4185966  65.1100580  57.9476428
  33.9438528  71.6357482  60.5929669  34.7655972  71.2337669  60.3112350
  33.9400931  71.5325716  61.5445785  21.8789464  64.6596822  54.8007865
  21.0820627  64.7715516  55.3191360  21.6515056  64.9983474  53.9348755
  27.7095132  71.1841525  62.7490379  27.7739564  71.6461932  63.5848551
  27.0006055  70.5538890  62.8772689  18.2112422  64.5482733  60.2739379
  18.4620460  65.4329743  60.5396955  18.7471970  64.3687334  59.5014471
  42.0344521  67.9796230  56.9414640  41.2808230  67.4103628  56.7858645
  42.1692062  67.9458895  57.8885275  27.4243149  72.8509632  52.6169360
  27.2888824  73.6961168  53.0454207  27.9652962  73.0528910  51.8535293
  23.9110489  58.9301212  69.2783715  23.5177434  58.3767411  69.9531359
  24.7276629  59.2411791  69.6690232  20.8772547  70.3685070  53.1897285
  21.3897067  71.1628321  53.3402849  21.5295259  69.6711361  53.1230886
  22.6867431  73.4850827  55.2720038  22.8634060  74.4068791  55.0841022
  23.4824265  73.1709246  55.7014418  26.8278450  60.3459091  66.8703971
  27.5688163  60.9466244  66.7908434  27.0596373  59.6036729  66.3122014
  21.9719788  65.5315459  65.1482201  21.8573303  64.6300716  65.4489300
  21.1164306  65.7779155  64.7967018  29.0511626  73.4733199  66.7469702
  28.6075480  72.6869577  66.4290606  29.7128839  73.6612349  66.0813592
  23.8098747  75.0029000  61.2730380  24.3606172  74.8746064  60.5007374
  22.9710223  75.3023890  60.9225273  31.1492864  73.7535999  64.7751103
  31.1311339  74.5744880  64.2831372  32.0712784  73.6290074  65.0001244
  27.6065918  71.2680128  65.6174611  28.1394255  70.5068416  65.3873919
  27.0779999  70.9753780  66.3598766  18.8421463  68.6973725  53.9656855
  19.6796685  69.1070733  53.7490563  19.0199731  67.7573167  53.9357049
  30.7385896  66.3648805  49.6540688  30.2232519  67.1353410  49.8929076
  30.4663204  65.6913942  50.2773750  26.0975039  58.8283579  58.1183668
  26.9628036  58.6326388  57.7589557  26.1652548  58.5993931  59.0453025
  35.7120170  69.1181160  51.5893862  34.9349612  68.7792320  51.1449024
  36.3911651  69.1233783  50.9148827  30.5272199  64.2375897  51.4800469
  30.2222334  64.5522047  52.3310613  31.4802641  64.3157317  51.5227802
  28.9718631  70.3966121  53.1293423  28.4439992  69.6618880  52.8166661
  28.4706133  71.1740797  52.8833392  33.9511477  68.5915141  58.2460470
  33.2935151  69.2814403  58.3340598  34.7551876  68.9811573  58.5894456
  23.7037358  61.0585787  55.4900035  24.2781110  60.8360969  54.7573228
  24.2908341  61.1274482  56.2428636  24.0306945  63.0890248  49.5095920
  23.1944258  63.4264935  49.8305195  23.8911715  62.9539228  48.5723057
  26.0060026  57.9327036  54.2175104  25.3524438  57.6176053  53.5931719
  25.9640500  57.3102776  54.9434927  27.1171231  68.2146331  46.1328396
  26.2098292  67.9835585  46.3319545  27.6142263  67.4183950  46.3202378
  30.0239310  76.9243838  49.0525083  29.3501008  77.2275535  49.6610040
  30.4105132  77.7272919  48.7030540  28.2959464  68.3158926  50.6552386
  27.3870683  68.0317959  50.7524856  28.3254548  68.7358004  49.7955693
  33.5278732  71.9265515  54.4243554  33.0741059  71.0856425  54.4808744
  32.8972698  72.5626914  54.7618334  31.9711671  73.7642012  55.3593372
  32.2634645  74.3247069  54.6405738  32.4810291  74.0570573  56.1146531
  18.8647635  66.0364440  54.6367589  18.6672034  65.4433801  53.9118655
  18.3094299  65.7316650  55.3543527  26.8444358  65.9287547  56.7562182
  26.8992968  64.9761383  56.6804658  26.0335560  66.0846986  57.2403480
  27.9935552  69.8567670  47.9940465  27.5554982  69.1403529  47.5346102
  28.7345993  70.0843784  47.4325556  24.7836718  64.5464606  54.5152561
  23.9704584  64.8458777  54.9217753  25.2795712  64.1520295  55.2327043
  26.9345296  74.5422363  56.4486825  26.8921475  74.7683210  55.5195357
  27.8507995  74.3085738  56.5972626  30.3810930  65.0106431  63.3467455
  30.7360318  65.2377904  64.2061920  31.0283061  65.3424808  62.7244710
  36.1108667  68.1324867  54.0516784  35.9726565  68.3226463  53.1237973
  35.7544886  68.8944249  54.5084835  24.2750793  62.1182962  60.1313796
  24.9150172  61.9771721  59.4336759  23.4428323  61.8317475  59.7552398
  36.1378046  70.2001394  59.0628055  36.5714553  70.1076683  59.9111109
  36.8509627  70.1758894  58.4248071  25.0511097  71.4185392  56.2448788
  25.8451695  70.9235712  56.0431363  24.3402789  70.8903255  55.8816494
  29.8705941  73.8003488  60.5961156  29.9242964  74.3694424  61.3638872
  29.0020723  73.9705373  60.2315193  21.3593860  65.5628474  52.3208541
  20.4291448  65.5012929  52.5378503  21.4551332  65.0404427  51.5245182
  21.2779409  62.0883287  54.9086782  21.5386227  63.0028620  54.7995943
  22.0996582  61.6207729  55.0583395  22.7504335  63.5021044  62.0785607
  23.4227388  63.2938406  61.4298256  21.9234121  63.3043130  61.6390839
  36.9993596  70.2425094  61.5960940  37.1929486  71.1470905  61.8420215
  36.8994214  69.7832513  62.4299526  28.6529907  60.1282985  64.0951268
  28.0057822  60.8272935  64.0015744  29.4230922  60.5619129  64.4627516
  32.0608705  70.3931837  67.1701821  31.9094211  70.1642389  66.2531905
  32.0513384  71.3502438  67.1833166  28.8294041  67.9663750  62.1548088
  29.7586101  68.1174909  61.9817055  28.4085071  68.0547771  61.2996734
  27.6282373  71.9914414  59.9246625  27.4893459  71.6233199  60.7972563
  26.8396969  72.5062054  59.7530583  28.2230525  77.0923511  51.2672162
  28.3982280  76.6211554  52.0817784  27.5363313  77.7189277  51.4953422
  29.1787588  71.3696017  57.3135463  28.8437421  71.3296787  58.2093113
  28.6791534  70.7040733  56.8405873  23.1531832  66.7763647  62.8388044
  23.0151630  66.0443886  63.4399583  24.0636755  66.6872547  62.5572232
  25.7814133  66.4883606  62.3271724  26.4913751  65.8476798  62.2858342
  25.7383441  66.7396501  63.2497905  33.7700911  73.4250960  65.2478303
  33.7113457  72.7410180  64.5808886  34.1720430  74.1669950  64.7958929
  24.4943067  63.4748824  64.1467363  23.9580424  63.0239563  64.7988960
  23.9059775  63.6094733  63.4037828  22.7891610  80.2412873  58.0412022
  23.0288208  80.8731398  58.7191040  21.9460807  79.8900913  58.3277381
  23.9045326  62.9337476  46.7093827  23.0274792  62.8126276  46.3456074
  24.3803079  62.1423554  46.4572716  33.7718319  71.3890544  63.4792283
  32.8845097  71.0516465  63.6018682  34.3416870  70.6573575  63.7161048
  15.4247466  67.7214635  56.8035334  16.1118505  67.4076365  56.2156349
  15.2695594  68.6256000  56.5302585  20.2282188  62.6104832  61.2320358
  20.1440377  62.0030501  60.4970768  19.4064894  63.1013850  61.2329854
  27.3019472  76.0491996  60.4453526  27.2289643  76.8546967  60.9572830
  26.8596865  76.2483962  59.6201547  27.0909252  75.2863766  53.9556347
  26.3076773  75.8285446  54.0494572  27.7901997  75.8037746  54.3550589
  38.2535659  66.7998761  58.2408844  38.2425535  67.6823476  57.8702777
  37.3853039  66.4470312  58.0463381  29.7618155  75.9478830  62.6011685
  30.4746128  76.5826295  62.5287586  29.2708184  76.0442696  61.7851686
  31.4835682  69.8530083  54.1728976  30.5491961  69.9731545  54.0033680
  31.6612351  68.9502549  53.9088986  26.9840870  63.2375778  56.3262237
  26.6138658  62.6846819  57.0143143  27.4799963  62.6333912  55.7737237
  24.8130069  73.6973273  63.4217255  25.5139528  74.3309756  63.5746650
  24.3425184  74.0388005  62.6612895  32.9384465  72.0391223  51.7065162
  33.2144309  71.9247818  52.6159036  32.0688964  71.6408708  51.6677335
  32.6131355  66.2517881  61.2469806  31.9602805  66.4993788  60.5922258
  32.9911735  65.4382019  60.9132283  29.5738529  76.2877574  55.3497976
  29.7560923  75.4699230  55.8125728  30.3971515  76.5045266  54.9122866
  29.9080694  75.2145759  52.6113024  30.4368461  74.7038214  51.9983187
  30.1708914  74.8988289  53.4758557  28.6618928  66.9937692  67.7335843
  27.9859565  66.8931821  68.4038218  29.4846562  66.8376906  68.1971840
  20.4097787  73.2309628  60.3548358  20.9951224  72.4853316  60.4876262
  20.2122626  73.5413585  61.2385022  23.2636442  76.2660876  55.3710800
  22.5946818  76.7507003  54.8874840  23.1249312  76.5130096  56.2854179
  15.0015442  65.8015229  59.0752801  15.0399541  65.2678819  59.8689919
  14.4955735  65.2750434  58.4563778  27.4041711  78.3004619  61.9693459
  27.9560019  78.4636241  62.7342544  27.7447904  78.8909057  61.2973484
  22.3806204  60.6479769  62.5715343  22.4447531  61.5094600  62.1592741
  22.3173324  60.0353771  61.8387702  21.8558477  62.7202902  66.2188378
  22.4830515  62.3379979  66.8325902  20.9986395  62.5017104  66.5844070
  32.2552585  73.1265877  67.8242113  32.7992489  73.7395835  67.3297068
  31.6739430  73.6845455  68.3409126  18.6324019  64.5279331  52.1506733
  18.9277460  63.6190009  52.0973786  17.7312055  64.5067070  51.8287735
  30.5410098  76.2486595  58.9557141  30.4161238  75.4476335  58.4468086
  31.1989189  76.7432788  58.4671111  22.1618266  62.6035327  58.1334281
  21.4404852  63.2171295  57.9941754  22.9511522  63.1393092  58.0550927
  32.6045007  74.0495615  60.5836691  31.6575342  73.9300966  60.5115018
  32.9527780  73.1618113  60.6662952  24.9644580  59.9389754  64.4074933
  25.4878982  60.1852050  65.1701242  24.7456913  60.7709789  63.9878070
  20.3611861  62.2093428  52.2746058  20.0324567  61.3290807  52.0921164
  20.7151232  62.1541097  53.1622447  29.6091440  73.8448331  56.7841043
  29.4616402  72.9165039  56.9648613  30.4344933  73.8668422  56.2998118
  23.4753684  62.4966398  52.6421535  23.8149757  63.0252319  51.9200144
  23.9225805  62.8346804  53.4180102  33.2125562  74.6676890  57.8705916
  34.1372109  74.4619751  57.7330367  33.0440865  74.4193291  58.7795257
  26.1697125  60.8803449  62.0924603  25.8293945  60.0811262  62.4945283
  25.4636131  61.1805160  61.5201437  26.8213597  57.9652761  60.5451926
  27.6439666  57.4913240  60.4230817  27.0651660  58.7443245  61.0450613
  25.4621831  60.9941020  50.8414828  26.1830194  61.3722273  50.3378545
  24.8387135  61.7129897  50.9449806  29.6052954  61.6986169  51.7773160
  29.8216569  62.5810807  51.4761989  29.1247021  61.3072382  51.0478802
  24.3452176  64.6571882  58.3543905  24.1996756  64.9712185  59.2468187
  23.8677379  65.2756782  57.8014804  26.2048558  61.6474430  58.4024795
  26.1910127  60.7515523  58.0657093  26.9220987  61.6545094  59.0363081
  33.0020878  75.1862557  53.2268007  33.1757755  74.6208980  52.4741860
  33.4949769  75.9863452  53.0447497  18.8197838  67.1977226  61.2931566
  18.2751306  67.9737034  61.4251841  19.6977188  67.5448031  61.1350688
  25.6085454  60.5288810  53.6712365  25.7301366  59.6005456  53.8703252
  25.3187497  60.5427496  52.7590680  33.9896050  74.5029322  50.3264906
  34.6846955  75.1236014  50.5452220  34.3319200  73.6524673  50.6017284
  19.6063860  66.3247123  64.1861723  18.8645596  66.4729758  64.7726354
  19.2856604  66.5855388  63.3228473  35.8887473  71.9529027  51.8552236
  36.4138798  72.2916300  51.1301557  35.8009826  71.0176043  51.6715371
  27.5507522  75.8663101  63.9842113  27.8594649  75.6212248  64.8564813
  28.3483004  76.0709739  63.4960983  27.5728134  78.0201011  56.2147490
  27.1333125  77.5277389  56.9080346  28.3236251  77.4773978  55.9739565
  20.0520473  74.2112551  56.2172118  20.8778493  73.9116323  55.8370761
  19.7014525  73.4420174  56.6661906  25.0202006  73.5639020  58.2869791
  24.3982016  72.9009725  57.9872019  25.6906873  73.5900152  57.6043439
  18.2529078  72.1298878  57.1761051  17.4160987  71.7021052  56.9945053
  18.2252724  72.3231321  58.1131843  25.0926534  62.0420808  67.8802297
  25.1414689  62.9182930  67.4980067  25.6349048  61.4998201  67.3073941
  35.5781380  72.5861931  67.1603434  34.7876923  72.5686070  66.6207934
  35.3414734  73.1250225  67.9152471  35.6979255  69.4354397  64.4736163
  35.7477260  69.2704405  65.4151686  35.5893178  68.5681656  64.0834044
  24.5815513  72.1142943  51.7628252  24.7303634  72.7978407  51.1094925
  25.3881957  72.0948033  52.2777708  32.9883017  65.4185325  65.7895470
  33.8892880  65.2791790  65.4979467  33.0630991  65.5839780  66.7293647
  27.3225822  62.7952180  64.6348656  26.4529132  63.0885746  64.3631245
  27.5585303  63.3792625  65.3555920  37.1997451  71.8551339  64.7178185
  36.9082260  72.2181319  65.5541645  36.5869583  71.1418347  64.5391517
  38.3993134  69.4204219  57.2380755  39.2340025  69.8594023  57.4018315
  38.5352263  68.9442872  56.4189001  35.4484640  66.9783953  63.1858242
  35.9238761  67.1711600  62.3777094  34.5250205  67.0343139  62.9401626
  22.3368146  68.1408121  52.7689321  22.0914188  67.2370451  52.9669531
  22.5064061  68.1425271  51.8268799  21.6063794  63.8736478  50.2675482
  20.9133039  63.9480833  49.6115518  21.3615546  63.1096822  50.7896999
  28.0810919  74.6091073  49.2339999  27.5084886  75.2281261  48.7810471
  28.6543712  75.1590435  49.7679921  31.3008179  74.8928224  50.3648582
  32.2338852  74.8273785  50.5681457  31.2131391  75.7284490  49.9063114
  33.9296195  74.2094094  47.3252529  33.8509827  73.8753958  48.2188287
  34.7505862  74.7015862  47.3244001  36.6274386  67.0755833  60.5328848
  36.5950707  66.1371834  60.7188532  37.2375010  67.1539870  59.7994673
  28.4657717  65.9451886  46.5756052  29.4116822  65.8158094  46.6444470
  28.0871962  65.2066548  47.0525480  42.4450936  68.1371840  59.6734885
  43.1754325  67.8757128  60.2342588  41.8357882  67.4000562  59.7136953
  40.5266233  66.2779703  60.2709336  39.7999397  66.1435668  59.6625827
  40.1113520  66.5856531  61.0766054  28.3496410  69.9969632  68.0356709
  29.2699419  70.1748231  68.2296755  28.3145993  69.0525678  67.8836408
  26.6500634  63.8701863  46.5110937  25.7432090  63.5734975  46.5873651
  26.9276615  63.5731681  45.6445223  17.5678575  65.1908226  56.9609983
  17.2481359  64.3373534  56.6684357  17.0212003  65.4056804  57.7167951
  21.3458482  67.9070667  60.6779490  21.5644492  68.8387775  60.6967524
  21.7584256  67.5478641  61.4634294  26.2186348  63.4803873  70.0682239
  26.1183075  64.4298230  69.9994330  26.0007890  63.1522112  69.1958309
  25.4199419  60.7288798  46.6522916  26.2818583  61.0543696  46.9118734
  25.6049763  59.9420294  46.1395982  17.4366835  68.8111137  58.9303105
  16.7430306  68.3965090  58.4173059  18.1839826  68.8531674  58.3336524
  26.0817618  66.9101012  68.8847301  25.5984699  67.7101372  69.0911190
  26.1678557  66.9208956  67.9314745  19.3503577  68.7429391  56.8069120
  19.3274265  68.8417079  55.8551003  19.6604214  69.5894542  57.1286286
  22.0090955  70.8005546  60.9215734  22.9634209  70.7689489  60.8545666
  21.8103479  70.3396170  61.7365960  22.5990337  69.3706662  63.4886532
  23.4183226  69.8650741  63.5121369  22.8727145  68.4538630  63.4604099
  20.3641184  76.3425166  57.9385932  20.2295652  75.5825567  57.3723930
  19.9473246  77.0666066  57.4714721  31.5000147  71.5262089  46.9462507
  32.2035997  71.7312092  47.5620163  30.7762796  72.0938851  47.2111591
  23.5210310  77.2394483  58.1504375  23.4042694  78.1839915  58.0483065
  22.7002756  76.9368044  58.5390174  33.4086844  71.9644619  48.9960968
  34.2432448  71.5325817  48.8138442  33.2471187  71.7926632  49.9237862
  33.0632737  68.4676732  50.3617307  33.0081540  68.3021003  49.4205751
  32.4378792  69.1752765  50.5179497  17.8525252  63.7044796  64.1878729
  18.4984115  63.1943750  64.6765954  17.6442403  64.4413478  64.7622154
  30.3778644  70.7725644  69.6870870  31.2469803  70.9466296  69.3257505
  29.8985395  71.5920060  69.5646599  26.3728862  57.9684841  49.9402625
  26.3607532  58.9126681  50.0970896  27.2652284  57.7854986  49.6462086
  24.5464824  77.8922745  61.3660303  25.4492071  77.9246355  61.6826798
  24.3202194  76.9623196  61.3806639  26.3018426  76.6453731  58.0270382
  25.3514057  76.6455593  57.9134754  26.6050912  75.8986466  57.5106416
  22.1922743  60.8512413  68.2853743  23.0554204  60.4949218  68.4957068
  21.6188153  60.5126308  68.9729148  42.0371120  82.4814270  59.0916144
  42.6749529  82.3621017  58.3879484  41.9191962  83.4295114  59.1504096
  38.8460826  82.4341698  59.0277669  38.5079337  82.3182762  58.1398204
  39.7150594  82.0332863  59.0078675  34.7047642  84.2877174  55.0174560
  34.1412507  84.1967111  54.2490848  34.5900037  83.4677079  55.4977052
  39.3280609  83.5876549  64.9863874  39.3169250  83.1929348  64.1144378
  39.4901248  82.8542622  65.5797646  32.2512073  85.7828366  57.8558780
  33.0433365  85.4419190  57.4405080  32.4908724  85.8923341  58.7760934
  40.2847200  87.9548142  50.3289025  39.6335180  88.5402222  49.9423039
  41.0791563  88.4854337  50.3884062  34.2102827  85.0437279  50.7276159
  34.9833703  84.4966266  50.5889035  34.5628226  85.9081528  50.9390621
  36.0487870  86.3713661  63.9343058  35.7577736  87.2759292  63.8189725
  36.6844854  86.4130189  64.6487128  36.9744077  83.7490510  60.5244418
  37.5707649  83.5246532  59.8101381  37.0319048  83.0075255  61.1269866
  36.5469105  81.2029945  48.3594609  36.7994626  80.6811466  47.5978072
  35.6093664  81.0396091  48.4621293  41.5912388  80.2065723  56.1669352
  42.3775477  79.7885147  55.8159769  41.8551092  81.1111816  56.3351001
  41.7622465  85.6438574  50.8658009  41.1268298  85.7173200  51.5778914
  41.4319872  86.2332173  50.1877088  46.9920815  80.1440957  57.0702331
  47.7245987  79.5740173  57.3040160  46.2360171  79.7562557  57.5108836
  36.2665394  83.1058051  50.5618984  36.1501652  82.4302954  51.2300068
  36.3767654  82.6190425  49.7451137  38.6096935  82.5668198  54.2665673
  38.2455142  82.0398819  54.9778595  39.4664051  82.1766667  54.0932159
  44.5146235  73.8562531  61.5296939  44.1829560  74.7257942  61.3058154
  43.9191849  73.5398815  62.2090970  38.2502422  77.5958098  49.2627022
  38.4176824  78.4638334  49.6297493  38.0599591  77.7585380  48.3388311
  41.0077755  86.0575077  60.9292852  40.7078478  86.9600116  60.8208659
  40.6628815  85.7907260  61.7814005  34.4590237  82.5088874  56.9629557
  33.5340733  82.3765088  57.1707248  34.7074650  83.2883093  57.4599499
  44.4074899  78.5757617  58.6090289  43.4991776  78.5073025  58.3149050
  44.3562495  79.0529562  59.4372115  38.2291643  80.0515755  50.2473689
  38.1091268  80.4972806  51.0859169  37.5344231  80.4001073  49.6887227
  31.8199048  82.1522147  57.7973346  31.9491429  82.4056626  58.7112757
  31.1396499  82.7449855  57.4778001  38.4815765  79.9947263  66.5525187
  37.7049099  80.5541183  66.5428051  39.1206328  80.4804046  67.0740057
  46.2736545  76.7774055  60.3868163  45.6310925  77.0706589  59.7407958
  45.7691474  76.6626976  61.1921360  43.9276709  80.5237229  51.0754023
  44.8394565  80.7564615  50.9001720  43.4186356  81.1074273  50.5129101
  36.7362137  82.8032716  66.1143154  37.4776821  83.3417760  65.8377977
  36.0299122  83.4299005  66.2714706  42.2117477  84.9461856  64.7115315
  42.6200833  84.5044267  63.9669948  41.4894738  84.3714484  64.9649508
  38.5648547  79.8834463  62.0848872  39.4109742  80.3073877  62.2283521
  38.5047184  79.2268087  62.7787435  42.5346291  85.5063047  58.4667604
  41.9055154  85.6708761  57.7643672  42.1471953  85.9204657  59.2378568
  46.4135523  86.4417485  55.8211968  45.7286561  86.8216386  55.2709001
  46.4979372  87.0512811  56.5543916  41.7147992  77.5438831  63.7430046
  41.4708924  78.2980892  63.2064322  41.9907922  77.9224179  64.5777293
  43.6686455  84.0877444  62.4207311  43.8803350  84.7309204  61.7441692
  43.6216203  83.2539760  61.9529241  41.2712684  76.6995265  59.3243884
  40.4097163  76.9976518  59.6160621  41.2975118  76.9165663  58.3924916
  38.0874253  85.2437455  55.7317689  38.5512599  85.5225158  54.9422312
  37.8231051  84.3420900  55.5490780  34.9798334  84.7908937  58.6697452
  35.5499691  85.2196205  58.0314937  35.5706446  84.5091521  59.3681638
  37.0243139  81.3660607  52.5407254  37.7267182  81.8181651  53.0081181
  36.6923768  80.7244426  53.1687147  35.4723501  79.9572364  66.9158464
  34.8422161  80.6388645  67.1493861  35.3659589  79.8455446  65.9711602
  30.7668473  79.6244160  57.8424388  29.9767527  79.8801689  57.3664499
  31.2579720  80.4392498  57.9476428  44.7832283  86.9649399  60.5929669
  45.6049726  86.5629587  60.3112350  44.7794686  86.8617633  61.5445785
  32.7183218  79.9888739  54.8007865  31.9214382  80.1007434  55.3191360
  32.4908811  80.3275392  53.9348755  38.5488886  86.5133443  62.7490379
  38.6133319  86.9753850  63.5848551  37.8399810  85.8830807  62.8772689
  29.0506176  79.8774651  60.2739379  29.3014214  80.7621660  60.5396955
  29.5865724  79.6979252  59.5014471  52.8738276  83.3088148  56.9414640
  52.1201984  82.7395546  56.7858645  53.0085817  83.2750812  57.8885275
  34.7504243  74.2593130  69.2783715  34.3571189  73.7059328  69.9531359
  35.5670384  74.5703708  69.6690232  31.7166301  85.6976988  53.1897285
  32.2290822  86.4920238  53.3402849  32.3689014  85.0003279  53.1230886
  37.6672204  75.6751009  66.8703971  38.4081918  76.2758162  66.7908434
  37.8990127  74.9328647  66.3122014  32.8113542  80.8607376  65.1482201
  32.6967058  79.9592634  65.4489300  31.9558060  81.1071073  64.7967018
  39.8905380  88.8025117  66.7469702  39.4469234  88.0161495  66.4290606
  40.5522594  88.9904267  66.0813592  41.9886618  89.0827917  64.7751103
  41.9705094  89.9036798  64.2831372  42.9106538  88.9581992  65.0001244
  38.4459672  86.5972046  65.6174611  38.9788009  85.8360334  65.3873919
  37.9173753  86.3045698  66.3598766  41.6129367  71.7032112  61.1468253
  41.2693637  72.5933754  61.0707364  41.9808330  71.5133770  60.2837838
  29.6815218  84.0265642  53.9656855  30.5190440  84.4362651  53.7490563
  29.8593486  83.0865085  53.9357049  41.5779650  81.6940723  49.6540688
  41.0626273  82.4645328  49.8929076  41.3056958  81.0205859  50.2773750
  39.1626761  76.5390424  54.7125927  38.3068357  76.1497274  54.5331565
  39.5753713  76.6182385  53.8525712  40.6925908  74.0736767  59.1117486
  40.1890703  74.0366902  58.2985292  40.9856515  74.9829510  59.1714143
  36.9368794  74.1575497  58.1183668  37.8021790  73.9618306  57.7589557
  37.0046303  73.9285849  59.0453025  46.5513924  84.4473078  51.5893862
  45.7743367  84.1084237  51.1449024  47.2305405  84.4525701  50.9148827
  41.3665953  79.5667815  51.4800469  41.0616089  79.8813964  52.3310613
  42.3196395  79.6449235  51.5227802  39.8112385  85.7258038  53.1293423
  39.2833747  84.9910798  52.8166661  39.3099888  86.5032715  52.8833392
  44.7905231  83.9207059  58.2460470  44.1328906  84.6106320  58.3340598
  45.5945630  84.3103491  58.5894456  34.5431113  76.3877705  55.4900035
  35.1174865  76.1652886  54.7573228  35.1302095  76.4566399  56.2428636
  43.6010690  82.2751432  56.2964411  44.1142572  82.9081423  56.7986121
  44.2511914  81.6752627  55.9307771  34.8700700  78.4182166  49.5095920
  34.0338012  78.7556852  49.8305195  34.7305469  78.2831146  48.5723057
  36.8453780  73.2618954  54.2175104  36.1918193  72.9467971  53.5931719
  36.8034255  72.6394694  54.9434927  37.9564985  83.5438249  46.1328396
  37.0492047  83.3127502  46.3319545  38.4536017  82.7475868  46.3202378
  40.0791521  79.7500887  58.5422752  39.1614082  79.9715834  58.3844440
  40.4951664  79.8247198  57.6834459  40.8626569  81.1492303  53.6725432
  41.6098387  81.6613700  53.3632554  41.1318158  80.8276356  54.5329826
  39.1353219  83.6450844  50.6552386  38.2264438  83.3609876  50.7524856
  39.1648302  84.0649922  49.7955693  44.3672486  87.2557433  54.4243554
  43.9134813  86.4148343  54.4808744  43.7366453  87.8918831  54.7618334
  43.3105406  78.1849419  55.6544221  42.5728162  77.6726805  55.9854464
  43.5632179  77.7449801  54.8427498  42.8105425  89.0933930  55.3593372
  43.1028400  89.6538987  54.6405738  43.3204046  89.3862491  56.1146531
  43.4117033  70.9625671  56.2485991  43.7175910  70.1023035  55.9611906
  44.1369638  71.5543291  56.0484985  29.7041389  81.3656358  54.6367589
  29.5065789  80.7725718  53.9118655  29.1488053  81.0608568  55.3543527
  37.6838113  81.2579464  56.7562182  37.7386723  80.3053301  56.6804658
  36.8729315  81.4138903  57.2403480  38.8329306  85.1859587  47.9940465
  38.3948736  84.4695446  47.5346102  39.5739747  85.4135702  47.4325556
  35.6230473  79.8756524  54.5152561  34.8098338  80.1750694  54.9217753
  36.1189467  79.4812213  55.2327043  41.2204684  80.3398348  63.3467455
  41.5754072  80.5669822  64.2061920  41.8676816  80.6716725  62.7244710
  46.9502421  83.4616784  54.0516784  46.8120320  83.6518380  53.1237973
  46.5938640  84.2236167  54.5084835  35.1144547  77.4474879  60.1313796
  35.7543927  77.3063639  59.4336759  34.2822078  77.1609393  59.7552398
  46.9771801  85.5293311  59.0628055  47.4108308  85.4368600  59.9111109
  47.6903382  85.5050812  58.4248071  35.8904851  86.7477310  56.2448788
  36.6845450  86.2527630  56.0431363  35.1796544  86.2195173  55.8816494
  32.1987615  80.8920392  52.3208541  31.2685203  80.8304847  52.5378503
  32.2945087  80.3696344  51.5245182  32.1173164  77.4175204  54.9086782
  32.3779981  78.3320538  54.7995943  32.9390336  76.9499647  55.0583395
  33.5898089  78.8312962  62.0785607  34.2621143  78.6230324  61.4298256
  32.7627876  78.6335048  61.6390839  47.8387350  85.5717012  61.5960940
  48.0323241  86.4762822  61.8420215  47.7387969  85.1124431  62.4299526
  39.4923661  75.4574903  64.0951268  38.8451576  76.1564852  64.0015744
  40.2624677  75.8911046  64.4627516  42.9002459  85.7223755  67.1701821
  42.7487966  85.4934306  66.2531905  42.8907139  86.6794356  67.1833166
  39.6687796  83.2955667  62.1548088  40.5979856  83.4466827  61.9817055
  39.2478826  83.3839688  61.2996734  38.4676127  87.3206332  59.9246625
  38.3287213  86.9525116  60.7972563  37.6790724  87.8353971  59.7530583
  40.0181342  86.6987935  57.3135463  39.6831175  86.6588705  58.2093113
  39.5185288  86.0332650  56.8405873  33.9925586  82.1055565  62.8388044
  33.8545384  81.3735803  63.4399583  34.9030510  82.0164465  62.5572232
  42.9540534  84.0443969  47.5872523  42.3369705  83.3190797  47.4905575
  42.4857023  84.8053329  47.2439597  36.6207887  81.8175524  62.3271724
  37.3307506  81.1768716  62.2858342  36.5777195  82.0688419  63.2497905
  44.6094666  88.7542877  65.2478303  44.5507212  88.0702097  64.5808886
  45.0114184  89.4961867  64.7958929  35.3336821  78.8040742  64.1467363
  34.7974178  78.3531480  64.7988960  34.7453530  78.9386651  63.4037828
  34.7439080  78.2629393  46.7093827  33.8668546  78.1418194  46.3456074
  35.2196833  77.4715472  46.4572716  44.6112073  86.7182461  63.4792283
  43.7238852  86.3808383  63.6018682  45.1810624  85.9865492  63.7161048
  26.2641220  83.0506553  56.8035334  26.9512260  82.7368283  56.2156349
  26.1089349  83.9547918  56.5302585  31.0675942  77.9396750  61.2320358
  30.9834131  77.3322419  60.4970768  30.2458649  78.4305768  61.2329854
  41.2399656  76.4250313  56.5990553  41.7368356  75.6720275  56.2791623
  40.4686638  76.4614630  56.0333762  49.0929414  82.1290679  58.2408844
  49.0819290  83.0115394  57.8702777  48.2246793  81.7762229  58.0463381
  42.3229437  85.1822000  54.1728976  41.3885716  85.3023463  54.0033680
  42.5006105  84.2794467  53.9088986  37.8234625  78.5667696  56.3262237
  37.4532412  78.0138736  57.0143143  38.3193717  77.9625830  55.7737237
  45.7101988  81.0239320  54.7079010  46.1762440  81.8567311  54.6339313
  46.1609489  80.5584301  55.4124269  43.7778219  87.3683141  51.7065162
  44.0538063  87.2539735  52.6159036  42.9082718  86.9700626  51.6677335
  43.6818651  73.3919907  58.7469912  42.7681731  73.6224133  58.9152119
  44.1111752  73.4758351  59.5983944  43.4525109  81.5809798  61.2469806
  42.7996560  81.8285706  60.5922258  43.8305489  80.7673937  60.9132283
  39.5012682  82.3229610  67.7335843  38.8253319  82.2223739  68.4038218
  40.3240316  82.1668823  68.1971840  25.8409196  81.1307146  59.0752801
  25.8793296  80.5970737  59.8689919  25.3349489  80.6042352  58.4563778
  33.2199959  75.9771687  62.5715343  33.2841285  76.8386518  62.1592741
  33.1567079  75.3645688  61.8387702  32.6952231  78.0494819  66.2188378
  33.3224270  77.6671897  66.8325902  31.8380150  77.8309021  66.5844070
  43.0946340  88.4557795  67.8242113  43.6386244  89.0687753  67.3297068
  42.5133185  89.0137373  68.3409126  29.4717774  79.8571248  52.1506733
  29.7671215  78.9481927  52.0973786  28.5705810  79.8358988  51.8287735
  33.0012021  77.9327245  58.1334281  32.2798607  78.5463213  57.9941754
  33.7905277  78.4685010  58.0550927  43.4438761  89.3787533  60.5836691
  42.4969097  89.2592884  60.5115018  43.7921534  88.4910031  60.6662952
  35.8038334  75.2681672  64.4074933  36.3272736  75.5143968  65.1701242
  35.5850668  76.1001706  63.9878070  31.2005615  77.5385346  52.2746058
  30.8718322  76.6582725  52.0921164  31.5544986  77.4833015  53.1622447
  40.4485194  89.1740249  56.7841043  40.3010157  88.2456956  56.9648613
  41.2738688  89.1960340  56.2998118  34.3147439  77.8258316  52.6421535
  34.6543511  78.3544237  51.9200144  34.7619559  78.1638722  53.4180102
  44.0519316  89.9968808  57.8705916  44.9765864  89.7911669  57.7330367
  43.8834620  89.7485209  58.7795257  37.0090879  76.2095367  62.0924603
  36.6687700  75.4103180  62.4945283  36.3029886  76.5097077  61.5201437
  37.6607351  73.2944679  60.5451926  38.4833421  72.8205157  60.4230817
  37.9045415  74.0735163  61.0450613  36.3015586  76.3232938  50.8414828
  37.0223948  76.7014190  50.3378545  35.6780890  77.0421814  50.9449806
  40.4446709  77.0278086  51.7773160  40.6610323  77.9102724  51.4761989
  39.9640776  76.6364300  51.0478802  35.1845930  79.9863800  58.3543905
  35.0390511  80.3004103  59.2468187  34.7071134  80.6048700  57.8014804
  37.0442313  76.9766348  58.4024795  37.0303882  76.0807441  58.0657093
  37.7614741  76.9837011  59.0363081  38.8968444  77.4103688  60.4477922
  38.6386221  78.3320759  60.4462252  38.3653484  77.0134122  61.1378386
  29.6591592  82.5269144  61.2931566  29.1145060  83.3028952  61.4251841
  30.5370942  82.8739949  61.1350688  36.4479209  75.8580728  53.6712365
  36.5695120  74.9297374  53.8703252  36.1581251  75.8719414  52.7590680
  39.3170399  73.5435638  56.8079085  39.3392096  73.6074971  55.8531064
  39.7338458  72.7040147  57.0019591  49.6954024  83.2790898  54.8458307
  50.1385170  82.5298223  54.4477430  48.8180534  83.2701034  54.4632039
  44.8289805  89.8321239  50.3264906  45.5240709  90.4527932  50.5452220
  45.1712955  88.9816591  50.6017284  30.4457614  81.6539040  64.1861723
  29.7039350  81.8021676  64.7726354  30.1250358  81.9147306  63.3228473
  46.7281228  87.2820945  51.8552236  47.2532552  87.6208218  51.1301557
  46.6403581  86.3467960  51.6715371  35.9320288  77.3712725  67.8802297
  35.9808444  78.2474848  67.4980067  36.4742803  76.8290118  67.3073941
  46.4175134  87.9153849  67.1603434  45.6270678  87.8977987  66.6207934
  46.1808489  88.4542142  67.9152471  46.5373009  84.7646315  64.4736163
  46.5871014  84.5996322  65.4151686  46.4286932  83.8973574  64.0834044
  43.8276771  80.7477243  65.7895470  44.7286634  80.6083708  65.4979467
  43.9024746  80.9131698  66.7293647  38.1619577  78.1244098  64.6348656
  37.2922886  78.4177664  64.3631245  38.3979057  78.7084543  65.3555920
  48.0391206  87.1843256  64.7178185  47.7476014  87.5473237  65.5541645
  47.4263337  86.4710265  64.5391517  49.2386888  84.7496136  57.2380755
  50.0733780  85.1885940  57.4018315  49.3746017  84.2734789  56.4189001
  46.2878394  82.3075871  63.1858242  46.7632516  82.5003517  62.3777094
  45.3643960  82.3635057  62.9401626  33.1761901  83.4700038  52.7689321
  32.9307943  82.5662368  52.9669531  33.3457815  83.4717189  51.8268799
  40.8658611  74.3423715  62.1514076  41.3840555  75.0784742  61.8260565
  40.5113743  74.6487708  62.9860836  32.4457548  79.2028396  50.2675482
  31.7526793  79.2772751  49.6115518  32.2009300  78.4388739  50.7896999
  41.1171205  70.7623997  57.6714973  41.3972959  70.0947186  58.2975400
  41.9021812  70.9553093  57.1589637  44.9880063  79.1841631  61.4186548
  45.9397486  79.2839729  61.4398772  44.8183514  78.3919900  61.9284632
  43.0094443  76.2697214  61.6045949  42.4144375  76.5502227  60.9092438
  42.7244139  76.7591115  62.3762690  44.7689950  89.5386012  47.3252529
  44.6903581  89.2045875  48.2188287  45.5899617  90.0307779  47.3244001
  47.4668141  82.4047751  60.5328848  47.4344461  81.4663752  60.7188532
  48.0768765  82.4831788  59.7994673  39.3051472  81.2743804  46.5756052
  40.2510577  81.1450012  46.6444470  38.9265717  80.5358466  47.0525480
  47.6162629  79.1958794  60.5787131  47.1001678  78.4117251  60.3917060
  48.5002578  78.8677511  60.7433650  45.2773356  72.9399810  56.5382944
  45.0798177  72.6314898  57.4226276  45.8873062  73.6661449  56.6680873
  53.2844691  83.4663758  59.6734885  54.0148079  83.2049046  60.2342588
  52.6751636  82.7292480  59.7136953  51.3659988  81.6071620  60.2709336
  50.6393151  81.4727585  59.6625827  50.9507275  81.9148449  61.0766054
  39.1890164  85.3261550  68.0356709  40.1093174  85.5040149  68.2296755
  39.1539747  84.3817595  67.8836408  37.4894389  79.1993780  46.5110937
  36.5825844  78.9026893  46.5873651  37.7670370  78.9023598  45.6445223
  28.4072329  80.5200144  56.9609983  28.0875114  79.6665452  56.6684357
  27.8605758  80.7348722  57.7167951  32.1852237  83.2362585  60.6779490
  32.4038247  84.1679692  60.6967524  32.5978011  82.8770559  61.4634294
  39.1056455  73.7430670  52.6655178  38.2957183  73.3977755  53.0410424
  39.7940872  73.4338214  53.2542790  41.0347003  72.8208717  54.2879475
  41.5878042  73.2404170  54.9469498  41.2717089  71.8944465  54.3302431
  37.0580102  78.8095790  70.0682239  36.9576829  79.7590147  69.9994330
  36.8401644  78.4814029  69.1958309  36.2593174  76.0580715  46.6522916
  37.1212338  76.3835614  46.9118734  36.4443518  75.2712211  46.1395982
  28.2760589  84.1403055  58.9303105  27.5824061  83.7257008  58.4173059
  29.0233580  84.1823592  58.3336524  44.4125810  74.9309242  53.7958139
  43.8324479  75.5894046  53.4136192  44.1461743  74.1086587  53.3845557
  42.8629376  74.3314300  55.9979460  43.3629155  74.4430834  55.1893778
  43.5064984  74.0275352  56.6380268  36.9211372  82.2392929  68.8847301
  36.4378454  83.0393289  69.0911190  37.0072311  82.2500874  67.9314745
  30.1897332  84.0721309  56.8069120  30.1668020  84.1708996  55.8551003
  30.4997968  84.9186460  57.1286286  32.8484710  86.1297464  60.9215734
  33.8027963  86.0981406  60.8545666  32.6497233  85.6688088  61.7365960
  33.4384092  84.6998580  63.4886532  34.2576981  85.1942659  63.5121369
  33.7120900  83.7830548  63.4604099  43.1950688  77.0909332  52.8514487
  42.3076543  77.3758983  52.6334682  43.6104677  76.9303096  52.0041764
  46.5465224  77.1155853  56.5668827  47.3225614  77.6052306  56.8393444
  45.8213358  77.5413907  57.0240696  48.9837783  77.8283473  57.6242767
  49.5782274  77.5879208  56.9136076  49.0564367  77.1090603  58.2516304
  42.3393902  86.8554007  46.9462507  43.0429752  87.0604009  47.5620163
  41.6156550  87.4230769  47.2111591  43.1691712  82.6063868  53.0664778
  43.1126913  83.0632420  52.2272410  43.7220054  81.8454553  52.8887620
  46.9796518  78.3953600  53.8914897  46.7233452  77.9950236  54.7223105
  46.3549386  79.1097394  53.7665036  51.2908856  81.1349673  56.3986189
  50.7308414  81.2042863  57.1717751  50.6852359  80.9590658  55.6785685
  44.2480599  87.2936536  48.9960968  45.0826203  86.8617735  48.8138442
  44.0864942  87.1218550  49.9237862  43.9026491  83.7968649  50.3617307
  43.8475295  83.6312921  49.4205751  43.2772546  84.5044682  50.5179497
  28.6919006  79.0336714  64.1878729  29.3377870  78.5235668  64.6765954
  28.4836157  79.7705396  64.7622154  41.2172398  86.1017561  69.6870870
  42.0863558  86.2758214  69.3257505  40.7379150  86.9211978  69.5646599
  37.2122617  73.2976758  49.9402625  37.2001286  74.2418598  50.0970896
  38.1046038  73.1146904  49.6462086  41.0274736  69.8919535  54.1948562
  40.2607132  69.3378022  54.3405244  41.4385441  69.9641404  55.0562714
  33.0316497  76.1804331  68.2853743  33.8947959  75.8241136  68.4957068
  32.4581908  75.8418226  68.9729148  57.8314570  95.4732874  57.0702331
  58.5639742  94.9032091  57.3040160  57.0753925  95.0854475  57.5108836
  55.3539990  89.1854448  61.5296939  55.0223315  90.0549859  61.3058154
  54.7585603  88.8690732  62.2090970  55.2468653  93.9049535  58.6090289
  54.3385531  93.8364943  58.3149050  55.1956249  94.3821480  59.4372115
  57.1130300  92.1065973  60.3868163  56.4704680  92.3998506  59.7407958
  56.6085228  91.9918893  61.1921360  52.5541746  92.8730749  63.7430046
  52.3102678  93.6272810  63.2064322  52.8301677  93.2516097  64.5777293
  52.1106438  92.0287182  59.3243884  51.2490917  92.3268436  59.6160621
  52.1368873  92.2457581  58.3924916  45.5897998  89.5885048  69.2783715
  45.1964943  89.0351246  69.9531359  46.4064138  89.8995626  69.6690232
  48.5065959  91.0042927  66.8703971  49.2475672  91.6050080  66.7908434
  48.7383882  90.2620564  66.3122014  52.4523122  87.0324030  61.1468253
  52.1087391  87.9225671  61.0707364  52.8202084  86.8425687  60.2837838
  50.0020516  91.8682342  54.7125927  49.1462112  91.4789192  54.5331565
  50.4147467  91.9474302  53.8525712  51.5319662  89.4028685  59.1117486
  51.0284458  89.3658820  58.2985292  51.8250269  90.3121427  59.1714143
  47.7762548  89.4867414  58.1183668  48.6415545  89.2910223  57.7589557
  47.8440057  89.2577766  59.0453025  47.6847535  88.5910871  54.2175104
  47.0311947  88.2759888  53.5931719  47.6428009  87.9686612  54.9434927
  54.1499160  93.5141337  55.6544221  53.4121917  93.0018723  55.9854464
  54.4025934  93.0741718  54.8427498  54.2510787  86.2917589  56.2485991
  54.5569664  85.4314952  55.9611906  54.9763392  86.8835209  56.0484985
  50.3317416  90.7866820  64.0951268  49.6845331  91.4856770  64.0015744
  51.1018431  91.2202964  64.4627516  52.0793411  91.7542231  56.5990553
  52.5762110  91.0012193  56.2791623  51.3080392  91.7906547  56.0333762
  54.5212405  88.7211824  58.7469912  53.6075485  88.9516051  58.9152119
  54.9505507  88.8050268  59.5983944  46.6432089  90.5973589  64.4074933
  47.1666491  90.8435886  65.1701242  46.4244422  91.4293624  63.9878070
  47.8484634  91.5387284  62.0924603  47.5081454  90.7395097  62.4945283
  47.1423640  91.8388995  61.5201437  48.5001106  88.6236597  60.5451926
  49.3227175  88.1497075  60.4230817  48.7439169  89.4027080  61.0450613
  51.2840463  92.3570004  51.7773160  51.5004077  93.2394642  51.4761989
  50.8034530  91.9656218  51.0478802  47.2872963  91.1872646  53.6712365
  47.4088874  90.2589292  53.8703252  46.9975006  91.2011332  52.7590680
  50.1564154  88.8727556  56.8079085  50.1785851  88.9366889  55.8531064
  50.5732213  88.0332065  57.0019591  51.7052365  89.6715632  62.1514076
  52.2234309  90.4076659  61.8260565  51.3507498  89.9779626  62.9860836
  51.9564959  86.0915915  57.6714973  52.2366713  85.4239104  58.2975400
  52.7415566  86.2845010  57.1589637  55.8273818  94.5133549  61.4186548
  56.7791241  94.6131647  61.4398772  55.6577268  93.7211817  61.9284632
  53.8488197  91.5989132  61.6045949  53.2538129  91.8794145  60.9092438
  53.5637894  92.0883033  62.3762690  58.4556384  94.5250712  60.5787131
  57.9395433  93.7409169  60.3917060  59.3396332  94.1969429  60.7433650
  56.1167111  88.2691728  56.5382944  55.9191932  87.9606816  57.4226276
  56.7266816  88.9953366  56.6680873  49.9450209  89.0722588  52.6655178
  49.1350937  88.7269673  53.0410424  50.6334626  88.7630131  53.2542790
  51.8740757  88.1500634  54.2879475  52.4271796  88.5696088  54.9469498
  52.1110844  87.2236383  54.3302431  47.0986928  91.3872633  46.6522916
  47.9606092  91.7127531  46.9118734  47.2837272  90.6004129  46.1395982
  55.2519565  90.2601160  53.7958139  54.6718234  90.9185964  53.4136192
  54.9855497  89.4378504  53.3845557  53.7023131  89.6606217  55.9979460
  54.2022909  89.7722752  55.1893778  54.3458739  89.3567270  56.6380268
  54.0344443  92.4201250  52.8514487  53.1470298  92.7050901  52.6334682
  54.4498432  92.2595013  52.0041764  57.3858979  92.4447771  56.5668827
  58.1619369  92.9344223  56.8393444  56.6607113  92.8705825  57.0240696
  59.8231537  93.1575390  57.6242767  60.4176028  92.9171126  56.9136076
  59.8958121  92.4382521  58.2516304  57.8190272  93.7245518  53.8914897
  57.5627206  93.3242153  54.7223105  57.1943140  94.4389312  53.7665036
  48.0516371  88.6268676  49.9402625  48.0395041  89.5710516  50.0970896
  48.9439793  88.4438822  49.6462086  51.8668491  85.2211453  54.1948562
  51.1000886  84.6669940  54.3405244  52.2779195  85.2933322  55.0562714
   9.5189857  13.5000639  45.8161451  10.1568267  13.3807387  45.1124791
   9.4010700  14.4481483  45.8749403   6.3279564  13.4528067  45.7522976
   5.9898075  13.3369132  44.8643510   7.1969332  13.0519232  45.7323982
   2.1866379  15.3063544  41.7419867   1.6231244  15.2153481  40.9736154
   2.0718774  14.4863448  42.2222359   6.8099347  14.6062919  51.7109181
   6.7987987  14.2115717  50.8389685   6.9719986  13.8728992  52.3042953
   7.7665938  18.9734511  37.0534331   7.1153918  19.5588592  36.6668345
   8.5610301  19.5040706  37.1129369   1.6921565  16.0623649  37.4521466
   2.4652441  15.5152636  37.3134342   2.0446964  16.9267898  37.6635927
   3.5306608  17.3900031  50.6588365   3.2396474  18.2945662  50.5435031
   4.1663592  17.4316558  51.3732435   4.4562815  14.7676879  47.2489725
   5.0526387  14.5432902  46.5346688   4.5137786  14.0261625  47.8515173
   4.0287843  12.2216315  35.0839916   4.2813364  11.6997836  34.3223379
   3.0912402  12.0582460  35.1866599   9.0731126  11.2252093  42.8914659
   9.8594215  10.8071516  42.5405076   9.3369830  12.1298185  43.0596307
   9.2441203  16.6624943  37.5903316   8.6087036  16.7359570  38.3024220
   8.9138610  17.2518542  36.9122395  14.4739553  11.1627326  43.7947637
  15.2064725  10.5926543  44.0285467  13.7178909  10.7748927  44.2354143
   3.7484132  14.1244421  37.2864291   3.6320390  13.4489324  37.9545375
   3.8586392  13.6376795  36.4696444   6.0915673  13.5854568  40.9910980
   5.7273880  13.0585189  41.7023901   6.9482789  13.1953037  40.8177465
   8.4896493  17.0761446  47.6538159   8.1897216  17.9786485  47.5453966
   8.1447552  16.8093630  48.5059312   1.9408974  13.5275243  43.6874863
   1.0159471  13.3951457  43.8952555   2.1893388  14.3069462  44.1844806
  11.8893637   9.5943987  45.3335596  10.9810514   9.5259395  45.0394357
  11.8381232  10.0715931  46.1617422   5.7110381  11.0702125  36.9718995
   5.5910006  11.5159176  37.8104476   5.0162969  11.4187443  36.4132533
   3.4717273  23.8405767  40.6209126   3.3941302  24.7913592  40.6997607
   2.8678916  23.4951639  41.2784053   5.9634502  11.0133632  53.2770493
   5.1867836  11.5727552  53.2673358   6.6025065  11.4990415  53.7985364
  13.7555283   7.7960425  47.1113470  13.1129663   8.0892958  46.4653265
  13.2510212   7.6813345  47.9166667  11.4095447  11.5423598  37.7999329
  12.3213303  11.7750985  37.6247027  10.9005094  12.1260642  37.2374408
   4.2180875  13.8219085  52.8388460   4.9595559  14.3604129  52.5623284
   3.5117860  14.4485374  52.9960012   9.6936214  15.9648226  51.4360622
  10.1019570  15.5230636  50.6915254   8.9713476  15.3900853  51.6894815
   6.0467284  10.9020833  48.8094179   6.8928480  11.3260246  48.9528828
   5.9865922  10.2454457  49.5032742  10.0165029  16.5249417  45.1912911
   9.3873891  16.6895131  44.4888979   9.6290691  16.9391026  45.9623875
  13.8954261  17.4603854  42.5457275  13.2105299  17.8402756  41.9954308
  13.9798110  18.0699181  43.2789222   9.1966730   8.5625201  50.4675352
   8.9527662   9.3167262  49.9309628   9.4726660   8.9410549  51.3022600
  11.1505192  15.1063813  49.1452618  11.3622088  15.7495573  48.4686999
  11.1034941  14.2726130  48.6774548   8.7531421   7.7181634  46.0489190
   7.8915900   8.0162888  46.3405928   8.7793856   7.9352033  45.1170223
   5.5692991  16.2623825  42.4562996   6.0331336  16.5411528  41.6667618
   5.3049789  15.3607269  42.2736087   2.4617072  15.8095306  45.3942759
   3.0318429  16.2382575  44.7560244   3.0525184  15.5277891  46.0926945
   4.5061877  12.3846977  39.2652561   5.2085920  12.8368021  39.7326487
   4.1742505  11.7430796  39.8932454  12.2651020  17.9835769  47.3174975
  13.0868464  17.5815956  47.0357657  12.2613423  17.8804003  48.2691091
   6.0307624  17.5319812  49.4735686   6.0952056  17.9940219  50.3093858
   5.3218548  16.9017177  49.6017996  20.3557013  14.3274517  43.6659947
  19.6020722  13.7581915  43.5103951  20.4904555  14.2937182  44.6130582
   5.7455642  19.1987920  39.3414666   5.6101316  20.0439455  39.7699514
   6.2865454  19.4007197  38.5780600   1.0079924  19.8329114  41.9965344
   1.1846552  20.7547079  41.8086328   1.8036757  19.5187533  42.4259724
   7.3724118  19.8211486  53.4715008   6.9287972  19.0347865  53.1535913
   8.0341332  20.0090637  52.8058899   2.1311239  21.3507288  47.9975687
   2.6818664  21.2224351  47.2252681   1.2922715  21.6502177  47.6470580
   9.4705356  20.1014286  51.4996410   9.4523831  20.9223167  51.0076679
  10.3925276  19.9768361  51.7246551   5.9278410  17.6158416  52.3419918
   6.4606747  16.8546704  52.1119226   5.3992491  17.3232067  53.0844072
   9.0598388  12.7127093  36.3785995   8.5445011  13.4831697  36.6174382
   8.7875696  12.0392229  37.0019056  14.0332662  15.4659447  38.3139168
  13.2562105  15.1270607  37.8694330  14.7124143  15.4712070  37.6394133
   8.8484691  10.5854185  38.2045776   8.5434827  10.9000334  39.0555919
   9.8015133  10.6635605  38.2473109   7.2931123  16.7444408  39.8538730
   6.7652484  16.0097168  39.5411967   6.7918626  17.5219084  39.6078698
  12.2723969  14.9393429  44.9705776  11.6147643  15.6292690  45.0585905
  13.0764368  15.3289860  45.3139763  11.0829428  13.2937801  43.0209718
  11.5961309  13.9267793  43.5231428  11.7330652  12.6938997  42.6553078
   5.4383723  14.5624618  32.8573703   4.5310785  14.3313872  33.0564852
   5.9354755  13.7662238  33.0447685   8.3451802  23.2722125  35.7770389
   7.6713501  23.5753822  36.3855347   8.7317624  24.0751206  35.4275846
   7.5610259  10.7687257  45.2668059   6.6432820  10.9902204  45.1089747
   7.9770402  10.8433567  44.4079766   8.3445306  12.1678672  40.3970739
   9.0917125  12.6800070  40.0877861   8.6136896  11.8462725  41.2575132
   6.6171956  14.6637213  37.3797693   5.7083176  14.3796246  37.4770163
   6.6467040  15.0836292  36.5201000  11.8491224  18.2743803  41.1488861
  11.3953551  17.4334713  41.2054051  11.2185191  18.9105201  41.4863641
  10.7924143   9.2035789  42.3789528  10.0546900   8.6913175  42.7099771
  11.0450917   8.7636170  41.5672805  10.2924163  20.1120299  42.0838679
  10.5847138  20.6725356  41.3651044  10.8022784  20.4048860  42.8391838
   5.1656851  12.2765834  43.4807488   5.2205460  11.3239670  43.4049965
   4.3548053  12.4325273  43.9648787   6.3148044  16.2045957  34.7185772
   5.8767474  15.4881816  34.2591409   7.0558485  16.4322072  34.1570863
   5.2557788  20.8900650  43.1732132   5.2133967  21.1161497  42.2440664
   6.1720487  20.6564025  43.3217933   8.7023422  11.3584718  50.0712761
   9.0572810  11.5856191  50.9307227   9.3495553  11.6903095  49.4490016
  14.4321159  14.4803154  40.7762090  14.2939058  14.6704750  39.8483279
  14.0757378  15.2422537  41.2330141  14.4590539  16.5479681  45.7873362
  14.8927045  16.4554970  46.6356416  15.1722119  16.5237181  45.1493378
   3.3723589  17.7663679  42.9694095   4.1664188  17.2714000  42.7676670
   2.6615281  17.2381543  42.6061800   8.1918434  20.1481775  47.3206462
   8.2455456  20.7172711  48.0884178   7.3233215  20.3183660  46.9560499
  15.3206088  16.5903382  48.3206247  15.5141978  17.4949192  48.5665522
  15.2206706  16.1310801  49.1544832  10.3821197  16.7410124  53.8947128
  10.2306703  16.5120676  52.9777211  10.3725876  17.6980726  53.9078473
   7.1506533  14.3142037  48.8793394   8.0798593  14.4653197  48.7062361
   6.7297563  14.4026058  48.0242041   5.9494865  18.3392701  46.6491932
   5.8105951  17.9711486  47.5217870   5.1609461  18.8540341  46.4775890
   6.5443017  23.4401798  37.9917468   6.7194773  22.9689841  38.8063091
   5.8575805  24.0667564  38.2198729   7.5000080  17.7174304  44.0380770
   7.1649913  17.6775074  44.9338419   7.0004026  17.0519020  43.5651180
  10.4359272  15.0630338  34.3117829   9.8188443  14.3377167  34.2150882
   9.9675760  15.8239699  33.9684904   4.1026625  12.8361893  49.0517030
   4.8126243  12.1955086  49.0103649   4.0595933  13.0874788  49.9743211
  12.0913404  19.7729247  51.9723610  12.0325950  19.0888467  51.3054193
  12.4932922  20.5148237  51.5204236  12.0930811  17.7368831  50.2037589
  11.2057590  17.3994753  50.3263988  12.6629362  17.0051862  50.4406355
   5.6231964  22.3970283  47.1698832   5.5502136  23.2025255  47.6818137
   5.1809357  22.5962249  46.3446854   5.4121744  21.6342053  40.6801654
   4.6289266  22.1763733  40.7739879   6.1114489  22.1516033  41.0795895
  16.5748151  13.1477048  44.9654151  16.5638028  14.0301764  44.5948084
  15.7065531  12.7948599  44.7708688   8.0830648  22.2957117  49.3256991
   8.7958620  22.9304582  49.2532893   7.5920676  22.3920983  48.5096993
   9.8048175  16.2008370  40.8974283   8.8704453  16.3209832  40.7278987
   9.9824843  15.2980837  40.6334293  13.1920726  12.0425689  41.4324317
  13.6581178  12.8753681  41.3584620  13.6428226  11.5770671  42.1369575
   3.1342561  20.0451561  50.1462562   3.8352021  20.6788044  50.2991956
   2.6637676  20.3866292  49.3858201  11.2596957  18.3869510  38.4310469
  11.5356801  18.2726105  39.3404343  10.3901456  17.9886995  38.3922642
  10.9343847  12.5996168  47.9715112  10.2815297  12.8472076  47.3167565
  11.3124227  11.7860306  47.6377590   7.8951021  22.6355861  42.0743283
   8.0773416  21.8177517  42.5371035   8.7184007  22.8523553  41.6368173
   8.2293187  21.5624046  39.3358331   8.7580953  21.0516501  38.7228493
   8.4921406  21.2466577  40.2003864   6.9831420  13.3415979  54.4581149
   6.3072057  13.2410108  55.1283525   7.8059054  13.1855193  54.9217147
   1.5848935  22.6139163  42.0956107   0.9159310  23.0985291  41.6120147
   1.4461804  22.8608383  43.0099486   5.7254203  24.6482907  48.6938765
   6.2772511  24.8114528  49.4587851   6.0660397  25.2387344  48.0218790
  10.5765077  19.4744164  54.5487420  11.1204981  20.0874122  54.0542375
   9.9951922  20.0323742  55.0654433   8.8622590  22.5964882  45.6802448
   8.7373730  21.7954622  45.1713393   9.5201682  23.0911075  45.1916418
  10.9257499  20.3973902  47.3081998   9.9787834  20.2779253  47.2360324
  11.2740272  19.5096400  47.3908259   7.9303932  20.1926618  43.5086350
   7.7828895  19.2643326  43.6893920   8.7557426  20.2146709  43.0243425
  11.5338054  21.0155177  44.5951223  12.4584601  20.8098038  44.4575674
  11.3653357  20.7671578  45.5040564  11.3233370  21.5340845  39.9513314
  11.4970248  20.9687267  39.1987167  11.8162261  22.3341739  39.7692804
  17.1772761  14.2977268  41.5703614  17.6203907  13.5484593  41.1722737
  16.2999272  14.2887404  41.1877346  12.3108543  20.8507609  37.0510212
  13.0059447  21.4714302  37.2697527  12.6531693  20.0002960  37.3262590
  14.2099966  18.3007315  38.5797543  14.7351290  18.6394587  37.8546863
  14.1222318  17.3654330  38.3960678   5.8720014  22.2141388  50.7087420
   6.1807141  21.9690535  51.5810119   6.6695496  22.4188027  50.2206290
   5.8940627  24.3679298  42.9392796   5.4545617  23.8755676  43.6325653
   6.6448743  23.8252265  42.6984872   3.3414499  19.9117307  45.0115098
   2.7194508  19.2488012  44.7117326   4.0119366  19.9378439  44.3288746
  13.8993872  18.9340218  53.8848741  13.1089416  18.9164357  53.3453240
  13.6627226  19.4728512  54.6397778  14.0191747  15.7832685  51.1981470
  14.0689752  15.6182692  52.1396992  13.9105670  14.9159944  50.8079350
   2.9028006  18.4621230  38.4873559   3.0516126  19.1456695  37.8340231
   3.7094449  18.4426320  39.0023014  11.3095509  11.7663613  52.5140776
  12.2105372  11.6270077  52.2224774  11.3843484  11.9318067  53.4538954
  15.5209944  18.2029626  51.4423491  15.2294752  18.5659607  52.2786952
  14.9082075  17.4896634  51.2636823  16.7205626  15.7682506  43.9626061
  17.5552517  16.2072310  44.1263622  16.8564755  15.2921159  43.1434307
  13.7697132  13.3262241  49.9103549  14.2451254  13.5189887  49.1022401
  12.8462697  13.3821426  49.6646933   6.4023411  20.9569361  35.9585306
   5.8297378  21.5759548  35.5055778   6.9756205  21.5068722  36.4925228
  12.4698801  10.2028001  48.1431855  13.4216224  10.3026098  48.1644079
  12.3002251   9.4106269  48.6529939  10.4913180   7.2883584  48.3291256
   9.8963113   7.5688597  47.6337744  10.2062877   7.7777485  49.1007997
   9.6220671  21.2406511  37.0893888  10.5551344  21.1752072  37.2926764
   9.5343884  22.0762778  36.6308421  12.2508688  20.5572381  34.0497836
  12.1722319  20.2232245  34.9433594  13.0718354  21.0494149  34.0489308
  14.9486879  13.4234120  47.2574154  14.9163199  12.4850121  47.4433838
  15.5587502  13.5018157  46.5239979   6.7870210  12.2930173  33.3001358
   7.7329314  12.1636382  33.3689776   6.4084455  11.5544835  33.7770787
  15.0981367  10.2145164  47.3032438  14.5820416   9.4303621  47.1162366
  15.9821316   9.8863880  47.4678957  20.7663429  14.4850127  46.3980191
  21.4966817  14.2235415  46.9587895  20.1570374  13.7478849  46.4382259
  18.8478726  12.6257990  46.9954642  18.1211889  12.4913955  46.3871134
  18.4326013  12.9334818  47.8011360   6.6708902  16.3447920  54.7602015
   7.5911912  16.5226519  54.9542062   6.6358485  15.4003965  54.6081715
   4.4030110  13.2579299  55.6092607   3.9197192  14.0579659  55.8156496
   4.4891049  13.2687244  54.6560051   0.9202830  15.7184950  50.2131839
   1.7395719  16.2129028  50.2366676   1.1939637  14.8016918  50.1849406
  10.6769426   8.1095702  39.5759794   9.7895281   8.3945352  39.3579989
  11.0923415   7.9489465  38.7287071  14.0283962   8.1342223  43.2914133
  14.8044352   8.6238675  43.5638750  13.3032096   8.5600277  43.7486003
  16.4656521   8.8469842  44.3488074  17.0601011   8.6065578  43.6381382
  16.5383104   8.1276973  44.9761610   9.8212639  17.8740377  33.6707814
  10.5248489  18.0790379  34.2865470   9.0975288  18.4417138  33.9356898
  10.6510450  13.6250238  39.7910084  10.5945651  14.0818789  38.9517717
  11.2038792  12.8640922  39.6132927  14.4615256   9.4139970  40.6160204
  14.2052190   9.0136605  41.4468411  13.8368124  10.1283764  40.4910343
  18.7727593  12.1536043  43.1231495  18.2127151  12.2229232  43.8963057
  18.1671097  11.9777028  42.4030991   1.8422802  23.5872770  44.8749681
   1.7255186  24.5318203  44.7728372   1.0215248  23.2846332  45.2635481
  11.7299337  18.3122906  35.7206274  12.5644941  17.8804104  35.5383749
  11.5683680  18.1404919  36.6483169  11.3845229  14.8155019  37.0862613
  11.3294033  14.6499290  36.1451058  10.7591284  15.5231052  37.2424803
   8.6991136  17.1203931  56.4116176   9.5682296  17.2944583  56.0502811
   8.2197888  17.9398348  56.2891906   2.8677316  24.2401032  48.0905610
   3.7704563  24.2724642  48.4072105   2.6414686  23.3101483  48.1051946
   4.6230918  22.9932018  44.7515689   3.6726549  22.9933880  44.6380061
   4.9263404  22.2464753  44.2351723  13.0260134  30.6355461  41.7419867
  12.4624999  30.5445398  40.9736154  12.9112529  29.8155366  42.2222359
  17.6493101  29.9354837  51.7109181  17.6381742  29.5407635  50.8389685
  17.8113741  29.2020909  52.3042953  10.5724566  32.1306653  44.5804087
  11.3645858  31.7897478  44.1650386  10.8121216  32.2401628  45.5006240
  18.6059693  34.3026429  37.0534331  17.9547672  34.8880509  36.6668345
  19.4004055  34.8332624  37.1129369  12.5315320  31.3915566  37.4521466
  13.3046196  30.8444553  37.3134342  12.8840719  32.2559816  37.6635927
  14.3700362  32.7191948  50.6588365  14.0790228  33.6237579  50.5435031
  15.0057347  32.7608476  51.3732435  15.2956569  30.0968797  47.2489725
  15.8920141  29.8724819  46.5346688  15.3531541  29.3553542  47.8515173
  14.8681597  27.5508232  35.0839916  15.1207118  27.0289754  34.3223379
  13.9306157  27.3874378  35.1866599  14.5877886  29.4536338  37.2864291
  14.4714144  28.7781242  37.9545375  14.6980146  28.9668712  36.4696444
  16.9309427  28.9146485  40.9910980  16.5667634  28.3877106  41.7023901
  17.7876543  28.5244954  40.8177465  22.8358728  20.2040818  48.2542246
  22.5042053  21.0736229  48.0303461  22.2404341  19.8877102  48.9336276
  16.5714914  23.9436385  35.9872328  16.7389316  24.8116622  36.3542799
  16.3812083  24.1063667  35.0633618  12.7802729  28.8567161  43.6874863
  11.8553225  28.7243375  43.8952555  13.0287142  29.6361380  44.1844806
  16.5504135  26.3994043  36.9718995  16.4303760  26.8451093  37.8104476
  15.8556723  26.7479360  36.4132533  10.1411540  28.5000434  44.5218652
  10.2703921  28.7534913  45.4358064   9.4608991  29.0928142  44.2023307
  14.3111027  39.1697684  40.6209126  14.2335057  40.1205509  40.6997607
  13.7072671  38.8243557  41.2784053  16.8028257  26.3425550  53.2770493
  16.0261591  26.9019470  53.2673358  17.4418820  26.8282333  53.7985364
  15.0574629  29.1511003  52.8388460  15.7989314  29.6896047  52.5623284
  14.3511615  29.7777292  52.9960012  16.8861039  26.2312750  48.8094179
  17.7322234  26.6552164  48.9528828  16.8259677  25.5746375  49.5032742
  20.0360484  23.8917119  50.4675352  19.7921416  24.6459179  49.9309628
  20.3120415  24.2702466  51.3022600  19.5925176  23.0473552  46.0489190
  18.7309655  23.3454805  46.3405928  19.6187611  23.2643951  45.1170223
  16.4086745  31.5915742  42.4562996  16.8725091  31.8703445  41.6667618
  16.1443543  30.6899187  42.2736087  13.3010826  31.1387224  45.3942759
  13.8712183  31.5674492  44.7560244  13.8918938  30.8569809  46.0926945
  15.3455631  27.7138895  39.2652561  16.0479675  28.1659938  39.7326487
  15.0136260  27.0722714  39.8932454  13.7935993  26.3050651  53.6403770
  13.1634654  26.9866932  53.8739167  13.6872081  26.1933733  52.6956909
   9.0880965  25.9722447  44.5669695   8.2980019  26.2279976  44.0909805
   9.5792213  26.7870785  44.6721735  11.0395711  26.3367027  41.5253171
  10.2426874  26.4485721  42.0436667  10.8121303  26.6753679  40.6594062
  16.8701378  32.8611730  49.4735686  16.9345811  33.3232137  50.3093858
  16.1612302  32.2309095  49.6017996   7.3718668  26.2252938  46.9984685
   7.6226707  27.1099948  47.2642261   7.9078217  26.0457539  46.2259777
  16.5849396  34.5279837  39.3414666  16.4495071  35.3731373  39.7699514
  17.1259209  34.7299115  38.5780600  13.0716736  20.6071417  56.0029021
  12.6783681  20.0537616  56.6776666  13.8882876  20.9181996  56.3935539
  10.0378793  32.0455275  39.9142591  10.5503314  32.8398526  40.0648156
  10.6901506  31.3481566  39.8476193  11.8473678  35.1621032  41.9965344
  12.0240306  36.0838996  41.8086328  12.6430512  34.8479451  42.4259724
  15.9884697  22.0229296  53.5949278  16.7294410  22.6236449  53.5153740
  16.2202619  21.2806934  53.0367321  11.1326035  27.2085664  51.8727508
  11.0179550  26.3070921  52.1734607  10.2770552  27.4549360  51.5212324
  18.2117872  35.1503404  53.4715008  17.7681727  34.3639782  53.1535913
  18.8735086  35.3382554  52.8058899  12.9704994  36.6799205  47.9975687
  13.5212419  36.5516269  47.2252681  12.1316469  36.9794094  47.6470580
  16.7672165  32.9450333  52.3419918  17.3000501  32.1838621  52.1119226
  16.2386246  32.6523985  53.0844072  19.9341860  18.0510399  47.8713560
  19.5906129  18.9412041  47.7952670  20.3020822  17.8612057  47.0083145
   8.0027710  30.3743930  40.6902162   8.8402932  30.7840938  40.4735870
   8.1805978  29.4343372  40.6602356  19.8992142  28.0419010  36.3785995
  19.3838766  28.8123615  36.6174382  19.6269451  27.3684146  37.0019056
  17.4839253  22.8868711  41.4371233  16.6280850  22.4975561  41.2576872
  17.8966205  22.9660672  40.5771019  19.0138400  20.4215054  45.8362793
  18.5103196  20.3845190  45.0230598  19.3069007  21.3307797  45.8959450
  15.2581286  20.5053784  44.8428975  16.1234283  20.3096593  44.4834864
  15.3258795  20.2764136  45.7698331  19.6878445  25.9146102  38.2045776
  19.3828581  26.2292252  39.0555919  20.6408888  25.9927522  38.2473109
  18.1324877  32.0736326  39.8538730  17.6046239  31.3389085  39.5411967
  17.6312380  32.8511002  39.6078698  12.8643605  22.7355992  42.2145341
  13.4387357  22.5131173  41.4818534  13.4514587  22.8044686  42.9673943
  13.1913192  24.7660453  36.2341227  12.3550504  25.1035140  36.5550501
  13.0517962  24.6309433  35.2968364  15.1666273  19.6097241  40.9420411
  14.5130685  19.2946258  40.3177026  15.1246747  18.9872981  41.6680234
  16.2777478  29.8916536  32.8573703  15.3704539  29.6605789  33.0564852
  16.7748510  29.0954155  33.0447685  19.1845556  38.6014043  35.7770389
  18.5107255  38.9045740  36.3855347  19.5711378  39.4043124  35.4275846
  18.4004013  26.0979174  45.2668059  17.4826574  26.3194121  45.1089747
  18.8164157  26.1725485  44.4079766  17.4565711  29.9929131  37.3797693
  16.5476930  29.7088164  37.4770163  17.4860795  30.4128209  36.5201000
  21.7329525  17.3103958  42.9731297  22.0388402  16.4501322  42.6857212
  22.4582130  17.9021579  42.7730291   8.0253881  27.7134645  41.3612895
   7.8278281  27.1204006  40.6363962   7.4700545  27.4086855  42.0788834
  16.0050605  27.6057751  43.4807488  16.0599215  26.6531588  43.4049965
  15.1941807  27.7617191  43.9648787  17.1541799  31.5337875  34.7185772
  16.7161229  30.8173733  34.2591409  17.8952240  31.7613989  34.1570863
  13.9442965  26.2234811  41.2397867  13.1310830  26.5228982  41.6463059
  14.4401959  25.8290500  41.9572350  16.0951543  36.2192568  43.1732132
  16.0527722  36.4453414  42.2440664  17.0114242  35.9855943  43.3217933
  19.5417177  26.6876636  50.0712761  19.8966564  26.9148109  50.9307227
  20.1889308  27.0195012  49.4490016  13.4357040  23.7953167  46.8559102
  14.0756419  23.6541926  46.1582066  12.6034570  23.5087680  46.4797704
  14.2117344  33.0955597  42.9694095  15.0057942  32.6005917  42.7676670
  13.5009036  32.5673460  42.6061800  19.0312188  35.4773693  47.3206462
  19.0849210  36.0464629  48.0884178  18.1626969  35.6475578  46.9560499
  10.5200107  27.2398679  39.0453847   9.5897695  27.1783134  39.2623810
  10.6157579  26.7174632  38.2490489  10.4385656  23.7653492  41.6332089
  10.6992473  24.6798825  41.5241250  11.2602828  23.2977934  41.7828702
  11.9110581  25.1791249  48.8030914  12.5833635  24.9708611  48.1543562
  11.0840368  24.9813335  48.3636146  17.8136153  21.8053190  50.8196574
  17.1664068  22.5043139  50.7261051  18.5837169  22.2389334  51.1872823
  16.7888620  33.6684619  46.6491932  16.6499705  33.3003404  47.5217870
  16.0003216  34.1832259  46.4775890  17.3836772  38.7693716  37.9917468
  17.5588527  38.2981759  38.8063091  16.6969560  39.3959482  38.2198729
  18.3393835  33.0466222  44.0380770  18.0043667  33.0066992  44.9338419
  17.8397780  32.3810938  43.5651180  12.3138079  28.4533852  49.5633351
  12.1757877  27.7214091  50.1644890  13.2243002  28.3642752  49.2817538
  14.9420379  28.1653811  49.0517030  15.6519998  27.5247003  49.0103649
  14.8989688  28.4166706  49.9743211  13.6549313  25.1519029  50.8712670
  13.1186670  24.7009768  51.5234266  13.0666022  25.2864938  50.1283134
  11.9497857  41.9183078  44.7657329  12.1894455  42.5501603  45.4436347
  11.1067053  41.5671118  45.0522688  13.0651572  24.6107680  33.4339134
  12.1881039  24.4896481  33.0701380  13.5409325  23.8193759  33.1818022
   4.5853712  29.3984840  43.5280641   5.2724752  29.0846570  42.9401656
   4.4301841  30.3026205  43.2547892   9.3888435  24.2875037  47.9565664
   9.3046623  23.6800706  47.2216074   8.5671141  24.7784055  47.9575161
  16.4625719  37.7262201  47.1698832  16.3895890  38.5317172  47.6818137
  16.0203112  37.9254167  46.3446854  16.2515498  36.9633971  40.6801654
  15.4683020  37.5055651  40.7739879  16.9508243  37.4807950  41.0795895
  19.5612148  22.7728600  43.3235859  20.0580848  22.0198563  43.0036930
  18.7899130  22.8092917  42.7579069  18.9224402  37.6249035  49.3256991
  19.6352374  38.2596500  49.2532893  18.4314431  37.7212901  48.5096993
  16.1447117  24.9145983  43.0507544  15.7744905  24.3617024  43.7388450
  16.6406210  24.3104117  42.4982544  13.9736316  35.3743478  50.1462562
  14.6745775  36.0079961  50.2991956  13.5031431  35.7158210  49.3858201
  22.0031143  19.7398194  45.4715218  21.0894223  19.9702421  45.6397425
  22.4324245  19.8236638  46.3229251  18.7344776  37.9647779  42.0743283
  18.9167170  37.1469435  42.5371035  19.5577762  38.1815471  41.6368173
  19.0686941  36.8915964  39.3358331  19.5974708  36.3808419  38.7228493
  19.3315161  36.5758494  40.2003864  17.8225175  28.6707897  54.4581149
  17.1465812  28.5702026  55.1283525  18.6452809  28.5147111  54.9217147
   9.5704034  34.9079833  47.0793665  10.1557471  34.1623521  47.2121569
   9.3728872  35.2183790  47.9630329  12.4242689  37.9431081  42.0956107
  11.7553064  38.4277208  41.6120147  12.2855559  38.1900301  43.0099486
   4.1621689  27.4785434  45.7998108   4.2005788  26.9449024  46.5935226
   3.6561981  26.9520639  45.1809085  16.5647958  39.9774824  48.6938765
  17.1166266  40.1406446  49.4587851  16.9054151  40.5679262  48.0218790
  11.5412451  22.3249974  49.2960650  11.6053777  23.1864805  48.8838048
  11.4779571  21.7123976  48.5633009  11.0164723  24.3973107  52.9433684
  11.6436762  24.0150184  53.5571209  10.1592642  24.1787309  53.3089377
  21.4158832  34.8036082  54.5487420  21.9598736  35.4166040  54.0542375
  20.8345677  35.3615660  55.0654433   7.7930266  26.2049536  38.8752039
   8.0883707  25.2960214  38.8219093   6.8918302  26.1837275  38.5533042
  19.7016345  37.9256800  45.6802448  19.5767484  37.1246540  45.1713393
  20.3595436  38.4202993  45.1916418  11.3224513  24.2805532  44.8579588
  10.6011099  24.8941500  44.7187061  12.1117769  24.8163297  44.7796234
  14.1250827  21.6159959  51.1320240  14.6485228  21.8622255  51.8946549
  13.9063160  22.4479994  50.7123377   9.5218108  23.8863633  38.9991364
   9.1930814  23.0061012  38.8166470   9.8757478  23.8311302  39.8867754
  18.7697687  35.5218536  43.5086350  18.6222649  34.5935243  43.6893920
  19.5951180  35.5438627  43.0243425  12.6359931  24.1736603  39.3666842
  12.9756003  24.7022524  38.6445450  13.0832051  24.5117009  40.1425409
  15.3303372  22.5573654  48.8169910  14.9900192  21.7581467  49.2190590
  14.6242378  22.8575365  48.2446743  15.9819844  19.6422966  47.2697233
  16.8045913  19.1683444  47.1476123  16.2257907  20.4213450  47.7695919
  14.6228078  22.6711225  37.5660135  15.3436441  23.0492478  37.0623852
  13.9993382  23.3900102  37.6695113  18.7659201  23.3756374  38.5018467
  18.9822815  24.2581012  38.2007295  18.2853268  22.9842587  37.7724109
  13.5058422  26.3342087  45.0789212  13.3603003  26.6482390  45.9713493
  13.0283626  26.9526987  44.5260110  15.3654805  23.3244635  45.1270101
  15.3516374  22.4285728  44.7902399  16.0827233  23.3315299  45.7608387
  17.2180936  23.7581975  47.1723229  16.9598714  24.6799046  47.1707559
  16.6865976  23.3612410  47.8623693   7.9804084  28.8747431  48.0176873
   7.4357553  29.6507239  48.1497147   8.8583434  29.2218236  47.8595994
  14.7691701  22.2059015  40.3957671  14.8907612  21.2775661  40.5948559
  14.4793743  22.2197701  39.4835987  17.6382891  19.8913926  43.5324391
  17.6604588  19.9553259  42.5776371  18.0550950  19.0518434  43.7264897
   8.7670106  28.0017328  50.9107030   8.0251842  28.1499963  51.4971660
   8.4462851  28.2625593  50.0473779  16.7113769  37.5433306  50.7087420
  17.0200895  37.2982453  51.5810119  17.5089251  37.7479944  50.2206290
  16.7334381  39.6971215  42.9392796  16.2939371  39.2047594  43.6325653
  17.4842498  39.1544183  42.6984872   9.2126720  35.8882756  42.9417424
  10.0384740  35.5886528  42.5616068   8.8620772  35.1190379  43.3907213
  14.1808253  35.2409225  45.0115098  13.5588262  34.5779930  44.7117326
  14.8513120  35.2670356  44.3288746   7.4135325  33.8069083  43.9006358
   6.5767233  33.3791257  43.7190359   7.3858970  34.0001526  44.8377149
  14.2532781  23.7191013  54.6047604  14.3020936  24.5953135  54.2225374
  14.7955295  23.1768406  54.0319247  13.7421760  33.7913148  38.4873559
  13.8909880  34.4748612  37.8340231  14.5488204  33.7718238  39.0023014
  16.4832069  24.4722385  51.3593963  15.6135378  24.7655951  51.0876551
  16.7191549  25.0562830  52.0801226  11.4974393  29.8178326  39.4934627
  11.2520435  28.9140656  39.6914838  11.6670308  29.8195476  38.5514105
  19.1871103  20.6902002  48.8759383  19.7053047  21.4263029  48.5505872
  18.8326236  20.9965995  49.7106142  10.7670041  25.5506683  36.9920789
  10.0739286  25.6251038  36.3360825  10.5221792  24.7867027  37.5142306
  19.4383697  17.1102284  44.3960280  19.7185451  16.4425474  45.0220706
  20.2234304  17.3031380  43.8834943  17.2417166  36.2861278  35.9585306
  16.6691133  36.9051465  35.5055778  17.8149959  36.8360640  36.4925228
  20.4614425  36.5698428  37.0893888  21.3945099  36.5043990  37.2926764
  20.3737638  37.4054695  36.6308421  17.6263964  27.6222091  33.3001358
  18.5723069  27.4928299  33.3689776  17.2478209  26.8836753  33.7770787
  23.5985849  19.2878097  43.2628250  23.4010670  18.9793185  44.1471582
  24.2085554  20.0139736  43.3926180  17.5102657  31.6739837  54.7602015
  18.4305666  31.8518436  54.9542062  17.4752240  30.7295883  54.6081715
  15.8106881  25.5472067  33.2356244  14.9038337  25.2505180  33.3118957
  16.0882862  25.2501886  32.3690530   6.7284822  26.8678431  43.6855290
   6.4087606  26.0143739  43.3929664   6.1818250  27.0827009  44.4413257
  10.5064729  29.5840872  47.4024797  10.7250739  30.5157980  47.4212830
  10.9190503  29.2248846  48.1879600  17.4268947  20.0908957  39.3900485
  16.6169675  19.7456042  39.7655731  18.1153364  19.7816501  39.9788097
  19.3559495  19.1687004  41.0124782  19.9090534  19.5882457  41.6714805
  19.5929582  18.2422752  41.0547738  15.3792594  25.1574078  56.7927546
  15.2789321  26.1068435  56.7239637  15.1614137  24.8292317  55.9203616
  14.5805666  22.4059003  33.3768223  15.4424830  22.7313901  33.6364040
  14.7656010  21.6190499  32.8641289   6.5973082  30.4881342  45.6548412
   5.9036553  30.0735295  45.1418366   7.3446073  30.5301879  45.0581831
  22.7338302  21.2787529  40.5203446  22.1536971  21.9372333  40.1381498
  22.4674235  20.4564874  40.1090863  21.1841869  20.6792587  42.7224766
  21.6841647  20.7909121  41.9139085  21.8277477  20.3753640  43.3625575
  15.2423865  28.5871216  55.6092607  14.7590946  29.3871577  55.8156496
  15.3284804  28.5979161  54.6560051   8.5109824  30.4199596  43.5314427
   8.4880512  30.5187283  42.5796310   8.8210461  31.2664747  43.8531593
  11.1697202  32.4775751  47.6461041  12.1240456  32.4459694  47.5790973
  10.9709726  32.0166375  48.4611267  11.7596584  31.0476867  50.2131839
  12.5789473  31.5420946  50.2366676  12.0333392  30.1308835  50.1849406
  21.5163180  23.4387620  39.5759794  20.6289035  23.7237270  39.3579989
  21.9317169  23.2781383  38.7287071   9.5247431  38.0195371  44.6631239
   9.3901899  37.2595772  44.0969237   9.1079493  38.7436271  44.1960028
  20.6606394  33.2032294  33.6707814  21.3642244  33.4082297  34.2865470
  19.9369043  33.7709056  33.9356898  12.6816557  38.9164688  44.8749681
  12.5648941  39.8610120  44.7728372  11.8609003  38.6138249  45.2635481
   7.0131498  25.3815001  50.9124036   7.6590362  24.8713955  51.4011261
   6.8048650  26.1183683  51.4867461  19.5384891  32.4495849  56.4116176
  20.4076050  32.6236501  56.0502811  19.0591642  33.2690265  56.2891906
  15.5335109  19.6455046  36.6647932  15.5213779  20.5896886  36.8216203
  16.4258531  19.4625191  36.3707393  13.7071071  39.5692950  48.0905610
  14.6098318  39.6016560  48.4072105  13.4808441  38.6393401  48.1051946
  15.4624673  38.3223936  44.7515689  14.5120304  38.3225798  44.6380061
  15.7657159  37.5756671  44.2351723  19.3487228  16.2397822  40.9193869
  18.5819624  15.6856309  41.0650551  19.7597933  16.3119691  41.7808020
  11.3528989  22.5282618  55.0099050  12.2160451  22.1719423  55.2202374
  10.7794400  22.1896513  55.6974454  23.8653888  45.9647379  41.7419867
  23.3018753  45.8737316  40.9736154  23.7506283  45.1447284  42.2222359
  21.4118320  47.4598571  44.5804087  22.2039612  47.1189395  44.1650386
  21.6514970  47.5693546  45.5006240  29.4453447  49.6318347  37.0534331
  28.7941427  50.2172427  36.6668345  30.2397810  50.1624542  37.1129369
  23.3709074  46.7207484  37.4521466  24.1439950  46.1736471  37.3134342
  23.7234473  47.5851733  37.6635927  25.2094117  48.0483866  50.6588365
  24.9183983  48.9529497  50.5435031  25.8451101  48.0900394  51.3732435
  25.7075352  42.8800150  35.0839916  25.9600873  42.3581671  34.3223379
  24.7699911  42.7166295  35.1866599  30.9228712  47.3208779  37.5903316
  30.2874545  47.3943405  38.3024220  30.5926119  47.9102378  36.9122395
  25.4271641  44.7828256  37.2864291  25.3107899  44.1073159  37.9545375
  25.5373901  44.2960630  36.4696444  20.9805294  43.8292352  44.5218652
  21.1097675  44.0826831  45.4358064  20.3002746  44.4220060  44.2023307
  25.1504782  54.4989602  40.6209126  25.0728811  55.4497427  40.6997607
  24.5466425  54.1535475  41.2784053  25.8968384  44.4802921  52.8388460
  26.6383068  45.0187965  52.5623284  25.1905369  45.1069210  52.9960012
  31.6952538  47.1833252  45.1912911  31.0661400  47.3478966  44.4888979
  31.3078200  47.5974861  45.9623875  27.2480500  46.9207660  42.4562996
  27.7118845  47.1995363  41.6667618  26.9837298  46.0191105  42.2736087
  24.1404581  46.4679142  45.3942759  24.7105938  46.8966410  44.7560244
  24.7312693  46.1861726  46.0926945  24.6329747  41.6342569  53.6403770
  24.0028408  42.3158850  53.8739167  24.5265835  41.5225651  52.6956909
  19.9274720  41.3014365  44.5669695  19.1373774  41.5571894  44.0909805
  20.4185967  42.1162703  44.6721735  27.7095133  48.1903647  49.4735686
  27.7739565  48.6524055  50.3093858  27.0006057  47.5601012  49.6017996
  18.2112423  41.5544855  46.9984685  18.4620461  42.4391865  47.2642261
  18.7471971  41.3749457  46.2259777  27.4243151  49.8571755  39.3414666
  27.2888825  50.7023291  39.7699514  27.9652963  50.0591033  38.5780600
  23.9110490  35.9363335  56.0029021  23.5177436  35.3829533  56.6776666
  24.7276630  36.2473913  56.3935539  20.8772548  47.3747193  39.9142591
  21.3897068  48.1690443  40.0648156  21.5295261  46.6773483  39.8476193
  22.6867433  50.4912949  41.9965344  22.8634061  51.4130914  41.8086328
  23.4824266  50.1771369  42.4259724  21.9719789  42.5377581  51.8727508
  21.8573304  41.6362838  52.1734607  21.1164307  42.7841278  51.5212324
  23.8098748  52.0091123  47.9975687  24.3606173  51.8808186  47.2252681
  22.9710224  52.3086012  47.6470580  27.6065919  48.2742251  52.3419918
  28.1394256  47.5130539  52.1119226  27.0780000  47.9815903  53.0844072
  18.8421465  45.7035847  40.6902162  19.6796687  46.1132856  40.4735870
  19.0199732  44.7635289  40.6602356  28.9718632  47.4028243  39.8538730
  28.4439993  46.6681003  39.5411967  28.4706135  48.1802920  39.6078698
  24.0306947  40.0952371  36.2341227  23.1944259  40.4327057  36.5550501
  23.8911716  39.9601350  35.2968364  27.1171232  45.2208454  32.8573703
  26.2098294  44.9897707  33.0564852  27.6142264  44.4246073  33.0447685
  30.0239311  53.9305961  35.7770389  29.3501010  54.2337658  36.3855347
  30.4105133  54.7335041  35.4275846  28.2959465  45.3221049  37.3797693
  27.3870685  45.0380081  37.4770163  28.3254549  45.7420127  36.5201000
  18.8647636  43.0426563  41.3612895  18.6672036  42.4495923  40.6363962
  18.3094300  42.7378773  42.0788834  26.9345297  51.5484486  43.1732132
  26.8921476  51.7745332  42.2440664  27.8507996  51.3147860  43.3217933
  25.0511098  48.4247515  42.9694095  25.8451697  47.9297835  42.7676670
  24.3402790  47.8965378  42.6061800  21.3593862  42.5690597  39.0453847
  20.4291450  42.5075052  39.2623810  21.4551334  42.0466549  38.2490489
  22.7504336  40.5083167  48.8030914  23.4227389  40.3000529  48.1543562
  21.9234122  40.3105253  48.3636146  28.8294042  44.9725872  48.8793394
  29.7586102  45.1237032  48.7062361  28.4085072  45.0609893  48.0242041
  27.6282374  48.9976537  46.6491932  27.4893460  48.6295321  47.5217870
  26.8396970  49.5124176  46.4775890  28.2230526  54.0985633  37.9917468
  28.3982282  53.6273676  38.8063091  27.5363314  54.7251399  38.2198729
  29.1787589  48.3758139  44.0380770  28.8437422  48.3358909  44.9338419
  28.6791535  47.7102855  43.5651180  23.1531833  43.7825770  49.5633351
  23.0151631  43.0506008  50.1644890  24.0636757  43.6934670  49.2817538
  32.1146781  45.7214174  34.3117829  31.4975951  44.9961002  34.2150882
  31.6463269  46.4823534  33.9684904  24.4943068  40.4810947  50.8712670
  23.9580425  40.0301685  51.5234266  23.9059776  40.6156856  50.1283134
  22.7891611  57.2474996  44.7657329  23.0288210  57.8793520  45.4436347
  21.9460808  56.8963036  45.0522688  23.9045327  39.9399598  33.4339134
  23.0274793  39.8188399  33.0701380  24.3803080  39.1485676  33.1818022
  15.4247467  44.7276758  43.5280641  16.1118507  44.4138488  42.9401656
  15.2695596  45.6318123  43.2547892  20.2282189  39.6166954  47.9565664
  20.1440378  39.0092624  47.2216074  19.4064895  40.1075973  47.9575161
  27.3019473  53.0554118  47.1698832  27.2289645  53.8609090  47.6818137
  26.8596866  53.2546084  46.3446854  27.0909253  52.2925888  40.6801654
  26.3076775  52.8347569  40.7739879  27.7901998  52.8099868  41.0795895
  24.8130070  50.7035396  50.1462562  25.5139530  51.3371879  50.2991956
  24.3425185  51.0450128  49.3858201  32.9384466  49.0453346  38.4310469
  33.2144310  48.9309940  39.3404343  32.0688965  48.6470831  38.3922642
  29.5738530  53.2939697  42.0743283  29.7560925  52.4761353  42.5371035
  30.3971516  53.5107389  41.6368173  29.9080696  52.2207882  39.3358331
  30.4368462  51.7100336  38.7228493  30.1708915  51.9050412  40.2003864
  20.4097788  50.2371751  47.0793665  20.9951225  49.4915439  47.2121569
  20.2122627  50.5475708  47.9630329  23.2636444  53.2722998  42.0956107
  22.5946819  53.7569126  41.6120147  23.1249313  53.5192219  43.0099486
  15.0015443  42.8077351  45.7998108  15.0399543  42.2740942  46.5935226
  14.4955736  42.2812557  45.1809085  27.4041712  55.3066742  48.6938765
  27.9560020  55.4698363  49.4587851  27.7447906  55.8971180  48.0218790
  21.8558478  39.7265024  52.9433684  22.4830517  39.3442102  53.5571209
  20.9986397  39.5079226  53.3089377  18.6324021  41.5341453  38.8752039
  18.9277462  40.6252132  38.8219093  17.7312056  41.5129193  38.5533042
  20.3611862  39.2155551  38.9991364  20.0324568  38.3352930  38.8166470
  20.7151233  39.1603220  39.8867754  18.8197839  44.2039349  48.0176873
  18.2751307  44.9799157  48.1497147  19.6977189  44.5510153  47.8595994
  33.9896052  51.5091444  37.0510212  34.6846956  52.1298137  37.2697527
  34.3319202  50.6586796  37.3262590  19.6063861  43.3309245  50.9107030
  18.8645597  43.4791881  51.4971660  19.2856605  43.5917511  50.0473779
  27.5728135  55.0263133  42.9392796  27.1333126  54.5339512  43.6325653
  28.3236252  54.4836101  42.6984872  20.0520474  51.2174674  42.9417424
  20.8778494  50.9178446  42.5616068  19.7014526  50.4482296  43.3907213
  25.0202008  50.5701142  45.0115098  24.3982017  49.9071847  44.7117326
  25.6906875  50.5962274  44.3288746  18.2529080  49.1361000  43.9006358
  17.4160988  48.7083175  43.7190359  18.2252725  49.3293444  44.8377149
  24.5815515  49.1205066  38.4873559  24.7303635  49.8040530  37.8340231
  25.3881958  49.1010156  39.0023014  22.3368148  45.1470243  39.4934627
  22.0914189  44.2432573  39.6914838  22.5064062  45.1487394  38.5514105
  21.6063795  40.8798601  36.9920789  20.9133040  40.9542956  36.3360825
  21.3615547  40.1158944  37.5142306  28.0810920  51.6153196  35.9585306
  27.5084887  52.2343383  35.5055778  28.6543714  52.1652558  36.4925228
  31.3008180  51.8990346  37.0893888  32.2338853  51.8335908  37.2926764
  31.2131393  52.7346613  36.6308421  33.9296197  51.2156216  34.0497836
  33.8509828  50.8816080  34.9433594  34.7505863  51.7077984  34.0489308
  17.5678576  42.1970349  43.6855290  17.2481360  41.3435657  43.3929664
  17.0212004  42.4118927  44.4413257  21.3458484  44.9132790  47.4024797
  21.5644493  45.8449897  47.4212830  21.7584257  44.5540764  48.1879600
  26.2186349  40.4865995  56.7927546  26.1183076  41.4360352  56.7239637
  26.0007891  40.1584234  55.9203616  17.4366836  45.8173260  45.6548412
  16.7430308  45.4027213  45.1418366  18.1839827  45.8593797  45.0581831
  26.0817619  43.9163134  55.6092607  25.5984701  44.7163494  55.8156496
  26.1678558  43.9271079  54.6560051  19.3503579  45.7491514  43.5314427
  19.3274267  45.8479201  42.5796310  19.6604215  46.5956665  43.8531593
  22.0090957  47.8067669  47.6461041  22.9634210  47.7751611  47.5790973
  21.8103480  47.3458293  48.4611267  22.5990339  46.3768785  50.2131839
  23.4183228  46.8712864  50.2366676  22.8727146  45.4600753  50.1849406
  20.3641185  53.3487288  44.6631239  20.2295653  52.5887689  44.0969237
  19.9473248  54.0728188  44.1960028  31.5000148  48.5324212  33.6707814
  32.2035998  48.7374214  34.2865470  30.7762797  49.1000974  33.9356898
  23.5210311  54.2456605  44.8749681  23.4042695  55.1902038  44.7728372
  22.7002757  53.9430167  45.2635481  33.4086846  48.9706741  35.7206274
  34.2432450  48.5387940  35.5383749  33.2471189  48.7988755  36.6483169
  17.8525253  40.7106919  50.9124036  18.4984116  40.2005873  51.4011261
  17.6442404  41.4475600  51.4867461  24.5464825  54.8984867  48.0905610
  25.4492072  54.9308478  48.4072105  24.3202195  53.9685318  48.1051946
  26.3018427  53.6515854  44.7515689  25.3514058  53.6517715  44.6380061
  26.6050913  52.9048588  44.2351723  22.1922744  37.8574536  55.0099050
  23.0554205  37.5011341  55.2202374  21.6188155  37.5188431  55.6974454
  34.2102829  62.0499402  37.4521466  34.9833705  61.5028389  37.3134342
  34.5628228  62.9143651  37.6635927  29.6815219  61.0327765  40.6902162
  30.5190441  61.4424773  40.4735870  29.8593487  60.0927207  40.6602356
  39.0624281  69.4277551  37.9917468  39.2376036  68.9565594  38.8063091
  38.3757069  70.0543317  38.2198729  33.6285366  72.5766914  44.7657329
  33.8681964  73.2085438  45.4436347  32.7854562  72.2254954  45.0522688
  34.7439081  55.2691516  33.4339134  33.8668548  55.1480317  33.0701380
  35.2196834  54.4777594  33.1818022  26.2641221  60.0568676  43.5280641
  26.9512261  59.7430406  42.9401656  26.1089350  60.9610040  43.2547892
  25.8409198  58.1369269  45.7998108  25.8793297  57.6032860  46.5935226
  25.3349490  57.6104474  45.1809085  38.2435467  70.6358660  48.6938765
  38.7953775  70.7990281  49.4587851  38.5841660  71.2263097  48.0218790
  29.4717775  56.8633371  38.8752039  29.7671216  55.9544049  38.8219093
  28.5705811  56.8421111  38.5533042  31.2005617  54.5447469  38.9991364
  30.8718323  53.6644848  38.8166470  31.5544987  54.4895137  39.8867754
  29.0922834  64.4652918  43.9006358  28.2554742  64.0375092  43.7190359
  29.0646479  64.6585361  44.8377149  36.2593175  53.0642838  33.3768223
  37.1212339  53.3897736  33.6364040  36.4443519  52.2774334  32.8641289
  37.2122618  50.3038881  36.6647932  37.2001288  51.2480721  36.8216203
  38.1046040  50.1209026  36.3707393  35.3858580  70.2276785  48.0905610
  36.2885826  70.2600395  48.4072105  35.1595950  69.2977236  48.1051946
  45.5441397  76.6231214  41.7419867  44.9806262  76.5321151  40.9736154
  45.4293792  75.8031119  42.2222359  50.1674365  75.9230590  51.7109181
  50.1563005  75.5283388  50.8389685  50.3295004  75.1896662  52.3042953
  43.0905829  78.1182406  44.5804087  43.8827121  77.7773231  44.1650386
  43.3302479  78.2277381  45.5006240  51.1240956  80.2902182  37.0534331
  50.4728936  80.8756263  36.6668345  51.9185319  80.8208377  37.1129369
  45.0496583  77.3791319  37.4521466  45.8227459  76.8320306  37.3134342
  45.4021982  78.2435569  37.6635927  46.8881626  78.7067702  50.6588365
  46.5971492  79.6113332  50.5435031  47.5238610  78.7484229  51.3732435
  47.8137833  76.0844550  47.2489725  48.4101405  75.8600572  46.5346688
  47.8712804  75.3429296  47.8515173  47.3862861  73.5383985  35.0839916
  47.6388382  73.0165507  34.3223379  46.4487420  73.3750131  35.1866599
  52.6016221  77.9792614  37.5903316  51.9662054  78.0527241  38.3024220
  52.2713628  78.5686213  36.9122395  57.8314571  72.4794997  43.7947637
  58.5639743  71.9094214  44.0285467  57.0753927  72.0916597  44.2354143
  47.1059150  75.4412091  37.2864291  46.9895408  74.7656995  37.9545375
  47.2161410  74.9544465  36.4696444  49.0896178  69.9312138  35.9872328
  49.2570580  70.7992375  36.3542799  48.8993347  70.0939420  35.0633618
  51.8471511  78.3929117  47.6538159  51.5472234  79.2954156  47.5453966
  51.5022570  78.1261300  48.5059312  49.0685398  72.3869796  36.9718995
  48.9485024  72.8326846  37.8104476  48.3737987  72.7355113  36.4132533
  42.6592803  74.4876187  44.5218652  42.7885184  74.7410666  45.4358064
  41.9790255  75.0803895  44.2023307  46.8292291  85.1573437  40.6209126
  46.7516320  86.1081262  40.6997607  46.2253934  84.8119310  41.2784053
  47.5755893  75.1386756  52.8388460  48.3170577  75.6771800  52.5623284
  46.8692878  75.7653045  52.9960012  53.0511232  77.2815897  51.4360622
  53.4594588  76.8398307  50.6915254  52.3288494  76.7068524  51.6894815
  53.3740047  77.8417087  45.1912911  52.7448909  78.0062801  44.4888979
  52.9865709  78.2558697  45.9623875  57.2529279  78.7771525  42.5457275
  56.5680317  79.1570426  41.9954308  57.3373128  79.3866852  43.2789222
  54.5080210  76.4231484  49.1452618  54.7197106  77.0663244  48.4686999
  54.4609959  75.5893801  48.6774548  45.8192090  77.1262977  45.3942759
  46.3893447  77.5550245  44.7560244  46.4100202  76.8445562  46.0926945
  41.6062229  71.9598200  44.5669695  40.8161283  72.2155729  44.0909805
  42.0973476  72.7746538  44.6721735  55.6226038  79.3003440  47.3174975
  56.4443482  78.8983627  47.0357657  55.6188441  79.1971674  48.2691091
  43.5576974  72.3242780  41.5253171  42.7608137  72.4361474  42.0436667
  43.3302566  72.6629432  40.6594062  49.3882642  78.8487483  49.4735686
  49.4527074  79.3107890  50.3093858  48.6793566  78.2184848  49.6017996
  39.8899932  72.2128691  46.9984685  40.1407970  73.0975701  47.2642261
  40.4259480  72.0333292  46.2259777  63.7132031  75.6442188  43.6659947
  62.9595740  75.0749586  43.5103951  63.8479573  75.6104853  44.6130582
  49.1030659  80.5155590  39.3414666  48.9676334  81.3607126  39.7699514
  49.6440472  80.7174868  38.5780600  42.5560057  78.0331028  39.9142591
  43.0684577  78.8274279  40.0648156  43.2082770  77.3357319  39.8476193
  44.3654942  81.1496785  41.9965344  44.5421570  82.0714749  41.8086328
  45.1611775  80.8355204  42.4259724  43.6507298  73.1961417  51.8727508
  43.5360813  72.2946674  52.1734607  42.7951816  73.4425113  51.5212324
  50.7299136  81.1379157  53.4715008  50.2862990  80.3515535  53.1535913
  51.3916349  81.3258307  52.8058899  45.4886257  82.6674958  47.9975687
  46.0393682  82.5392022  47.2252681  44.6497733  82.9669847  47.6470580
  52.8280374  81.4181957  51.4996410  52.8098849  82.2390838  51.0076679
  53.7500294  81.2936032  51.7246551  49.2853428  78.9326086  52.3419918
  49.8181765  78.1714374  52.1119226  48.7567509  78.6399738  53.0844072
  40.5208974  76.3619683  40.6902162  41.3584196  76.7716691  40.4735870
  40.6987241  75.4219125  40.6602356  52.4173406  74.0294763  36.3785995
  51.9020029  74.7999368  36.6174382  52.1450714  73.3559899  37.0019056
  57.3907680  76.7827118  38.3139168  56.6137123  76.4438277  37.8694330
  58.0699161  76.7879741  37.6394133  50.6506141  78.0612079  39.8538730
  50.1227502  77.3264838  39.5411967  50.1493644  78.8386755  39.6078698
  55.6298987  76.2561099  44.9705776  54.9722661  76.9460361  45.0585905
  56.4339386  76.6457531  45.3139763  45.7094456  70.7536206  36.2341227
  44.8731768  71.0910893  36.5550501  45.5699225  70.6185186  35.2968364
  48.7958741  75.8792289  32.8573703  47.8885803  75.6481542  33.0564852
  49.2929773  75.0829908  33.0447685  51.7026820  84.5889796  35.7770389
  51.0288519  84.8921493  36.3855347  52.0892642  85.3918877  35.4275846
  49.9746974  75.9804884  37.3797693  49.0658194  75.6963917  37.4770163
  50.0042058  76.4003962  36.5201000  55.2066242  79.5911473  41.1488861
  54.7528569  78.7502383  41.2054051  54.5760209  80.2272872  41.4863641
  53.6499181  81.4287970  42.0838679  53.9422155  81.9893027  41.3651044
  54.1597802  81.7216531  42.8391838  49.6723062  77.5213628  34.7185772
  49.2342492  76.8049486  34.2591409  50.4133503  77.7489742  34.1570863
  48.6132806  82.2068321  43.1732132  48.5708985  82.4329167  42.2440664
  49.5295505  81.9731696  43.3217933  52.0598440  72.6752389  50.0712761
  52.4147828  72.9023862  50.9307227  52.7070571  73.0070765  49.4490016
  57.7896177  75.7970825  40.7762090  57.6514076  75.9872421  39.8483279
  57.4332396  76.5590207  41.2330141  57.8165557  77.8647352  45.7873362
  58.2502063  77.7722641  46.6356416  58.5297137  77.8404852  45.1493378
  46.7298607  79.0831350  42.9694095  47.5239206  78.5881670  42.7676670
  46.0190299  78.5549213  42.6061800  51.5493452  81.4649446  47.3206462
  51.6030474  82.0340382  48.0884178  50.6808233  81.6351331  46.9560499
  43.0381371  73.2274432  39.0453847  42.1078959  73.1658887  39.2623810
  43.1338843  72.7050385  38.2490489  44.4291845  71.1667002  48.8030914
  45.1014898  70.9584364  48.1543562  43.6021631  70.9689088  48.3636146
  58.6781106  77.9071052  48.3206247  58.8716996  78.8116863  48.5665522
  58.5781724  77.4478471  49.1544832  53.7396215  78.0577795  53.8947128
  53.5881721  77.8288347  52.9777211  53.7300894  79.0148396  53.9078473
  50.5081551  75.6309708  48.8793394  51.4373611  75.7820867  48.7062361
  50.0872581  75.7193729  48.0242041  49.3069883  79.6560372  46.6491932
  49.1680969  79.2879157  47.5217870  48.5184479  80.1708012  46.4775890
  49.9018035  84.7569469  37.9917468  50.0769791  84.2857512  38.8063091
  49.2150823  85.3835235  38.2198729  50.8575098  79.0341975  44.0380770
  50.5224931  78.9942745  44.9338419  50.3579044  78.3686691  43.5651180
  44.8319342  74.4409605  49.5633351  44.6939140  73.7089844  50.1644890
  45.7424266  74.3518505  49.2817538  53.7934290  76.3798009  34.3117829
  53.1763460  75.6544837  34.2150882  53.3250778  77.1407369  33.9684904
  47.4601643  74.1529564  49.0517030  48.1701261  73.5122756  49.0103649
  47.4170951  74.4042459  49.9743211  55.4488421  81.0896918  51.9723610
  55.3900968  80.4056138  51.3054193  55.8507940  81.8315908  51.5204236
  46.1730577  71.1394782  50.8712670  45.6367934  70.6885521  51.5234266
  45.5847285  71.2740691  50.1283134  44.4679120  87.9058831  44.7657329
  44.7075719  88.5377356  45.4436347  43.6248317  87.5546871  45.0522688
  45.5832836  70.5983433  33.4339134  44.7062302  70.4772234  33.0701380
  46.0590589  69.8069512  33.1818022  55.4505829  79.0536501  50.2037589
  54.5632608  78.7162423  50.3263988  56.0204380  78.3219533  50.4406355
  41.9069698  70.2750790  47.9565664  41.8227887  69.6676459  47.2216074
  41.0852404  70.7659808  47.9575161  48.9806982  83.7137954  47.1698832
  48.9077154  84.5192925  47.6818137  48.5384375  83.9129920  46.3446854
  48.7696762  82.9509724  40.6801654  47.9864284  83.4931404  40.7739879
  49.4689507  83.4683703  41.0795895  59.9323169  74.4644719  44.9654151
  59.9213046  75.3469434  44.5948084  59.0640549  74.1116270  44.7708688
  51.4405666  83.6124788  49.3256991  52.1533638  84.2472253  49.2532893
  50.9495694  83.7088654  48.5096993  53.1623193  77.5176041  40.8974283
  52.2279471  77.6377503  40.7278987  53.3399861  76.6148507  40.6334293
  56.5495744  73.3593360  41.4324317  57.0156196  74.1921351  41.3584620
  57.0003244  72.8938341  42.1369575  46.4917579  81.3619231  50.1462562
  47.1927039  81.9955714  50.2991956  46.0212694  81.7033963  49.3858201
  54.6171975  79.7037181  38.4310469  54.8931819  79.5893776  39.3404343
  53.7476474  79.3054666  38.3922642  54.2918865  73.9163839  47.9715112
  53.6390315  74.1639746  47.3167565  54.6699245  73.1027977  47.6377590
  51.2526039  83.9523532  42.0743283  51.4348434  83.1345188  42.5371035
  52.0759025  84.1691224  41.6368173  51.5868205  82.8791717  39.3358331
  52.1155971  82.3684172  38.7228493  51.8496424  82.5634247  40.2003864
  50.3406438  74.6583650  54.4581149  49.6647075  74.5577779  55.1283525
  51.1634072  74.5022864  54.9217147  42.0885297  80.8955586  47.0793665
  42.6738734  80.1499274  47.2121569  41.8910136  81.2059543  47.9630329
  44.9423952  83.9306834  42.0956107  44.2734328  84.4152961  41.6120147
  44.8036822  84.1776054  43.0099486  49.0829221  85.9650577  48.6938765
  49.6347529  86.1282199  49.4587851  49.4235415  86.5555015  48.0218790
  44.0593714  68.3125727  49.2960650  44.1235041  69.1740558  48.8838048
  43.9960835  67.6999729  48.5633009  53.9340095  80.7911835  54.5487420
  54.4779999  81.4041793  54.0542375  53.3526940  81.3491413  55.0654433
  40.3111530  72.1925289  38.8752039  40.6064971  71.2835967  38.8219093
  39.4099565  72.1713028  38.5533042  52.2197608  83.9132553  45.6802448
  52.0948748  83.1122293  45.1713393  52.8776699  84.4078746  45.1916418
  43.8405777  70.2681285  44.8579588  43.1192362  70.8817253  44.7187061
  44.6299032  70.8039050  44.7796234  54.2832517  81.7141573  47.3081998
  53.3362852  81.5946924  47.2360324  54.6315290  80.8264071  47.3908259
  42.0399371  69.8739386  38.9991364  41.7112077  68.9936765  38.8166470
  42.3938742  69.8187055  39.8867754  51.2878950  81.5094289  43.5086350
  51.1403912  80.5810997  43.6893920  52.1132444  81.5314380  43.0243425
  54.8913072  82.3322848  44.5951223  55.8159619  82.1265709  44.4575674
  54.7228375  82.0839249  45.5040564  54.6808388  82.8508515  39.9513314
  54.8545266  82.2854938  39.1987167  55.1737279  83.6509410  39.7692804
  40.4985348  74.8623184  48.0176873  39.9538816  75.6382992  48.1497147
  41.3764698  75.2093989  47.8595994  60.5347779  75.6144938  41.5703614
  60.9778925  74.8652263  41.1722737  59.6574290  75.6055075  41.1877346
  55.6683561  82.1675280  37.0510212  56.3634465  82.7881972  37.2697527
  56.0106711  81.3170631  37.3262590  41.2851370  73.9893081  50.9107030
  40.5433106  74.1375716  51.4971660  40.9644114  74.2501346  50.0473779
  57.5674984  79.6174985  38.5797543  58.0926308  79.9562258  37.8546863
  57.4797336  78.6822001  38.3960678  49.2295032  83.5309059  50.7087420
  49.5382159  83.2858206  51.5810119  50.0270514  83.7355697  50.2206290
  49.2515644  85.6846968  42.9392796  48.8120635  85.1923347  43.6325653
  50.0023761  85.1419936  42.6984872  41.7307983  81.8758509  42.9417424
  42.5566003  81.5762281  42.5616068  41.3802035  81.1066132  43.3907213
  46.6989517  81.2284978  45.0115098  46.0769526  80.5655683  44.7117326
  47.3694384  81.2546109  44.3288746  39.9316588  79.7944836  43.9006358
  39.0948497  79.3667010  43.7190359  39.9040234  79.9877279  44.8377149
  57.2568890  80.2507889  53.8848741  56.4664433  80.2332028  53.3453240
  57.0202244  80.7896183  54.6397778  57.3766765  77.1000355  51.1981470
  57.4264770  76.9350363  52.1396992  57.2680688  76.2327614  50.8079350
  46.2603024  79.7788901  38.4873559  46.4091144  80.4624365  37.8340231
  47.0669467  79.7593991  39.0023014  58.8784962  79.5197297  51.4423491
  58.5869770  79.8827277  52.2786952  58.2657093  78.8064305  51.2636823
  60.0780644  77.0850177  43.9626061  60.9127535  77.5239981  44.1263622
  60.2139773  76.6088830  43.1434307  57.1272150  74.6429911  49.9103549
  57.6026271  74.8357558  49.1022401  56.2037715  74.6989097  49.6646933
  44.0155656  75.8054079  39.4934627  43.7701698  74.9016409  39.6914838
  44.1851571  75.8071229  38.5514105  43.2851304  71.5382436  36.9920789
  42.5920549  71.6126791  36.3360825  43.0403056  70.7742780  37.5142306
  49.7598429  82.2737031  35.9585306  49.1872396  82.8927219  35.5055778
  50.3331223  82.8236393  36.4925228  55.8273819  71.5195671  48.1431855
  56.7791242  71.6193769  48.1644079  55.6577269  70.7273940  48.6529939
  52.9795689  82.5574182  37.0893888  53.9126362  82.4919743  37.2926764
  52.8918902  83.3930448  36.6308421  55.6083706  81.8740052  34.0497836
  55.5297337  81.5399915  34.9433594  56.4293372  82.3661820  34.0489308
  58.3061897  74.7401791  47.2574154  58.2738217  73.8017792  47.4433838
  58.9162520  74.8185828  46.5239979  50.1445228  73.6097844  33.3001358
  51.0904332  73.4804052  33.3689776  49.7659472  72.8712506  33.7770787
  58.4556385  71.5312835  47.3032438  57.9395434  70.7471291  47.1162366
  59.3396334  71.2031551  47.4678957  64.1238447  75.8017798  46.3980191
  64.8541835  75.5403086  46.9587895  63.5145392  75.0646520  46.4382259
  62.2053744  73.9425661  46.9954642  61.4786907  73.8081626  46.3871134
  61.7901031  74.2502489  47.8011360  50.0283920  77.6615590  54.7602015
  50.9486930  77.8394189  54.9542062  49.9933503  76.7171636  54.6081715
  48.3288145  71.5347821  33.2356244  47.4219600  71.2380933  33.3118957
  48.6064126  71.2377639  32.3690530  43.0245993  75.5716625  47.4024797
  43.2432002  76.5033733  47.4212830  43.4371766  75.2124599  48.1879600
  39.1154345  76.4757095  45.6548412  38.4217817  76.0611048  45.1418366
  39.8627336  76.5177632  45.0581831  47.7605128  74.5746970  55.6092607
  47.2772210  75.3747330  55.8156496  47.8466067  74.5854914  54.6560051
  41.0291088  76.4075349  43.5314427  41.0061776  76.5063036  42.5796310
  41.3391724  77.2540500  43.8531593  43.6878465  78.4651504  47.6461041
  44.6421719  78.4335447  47.5790973  43.4890989  78.0042128  48.4611267
  44.2777848  77.0352620  50.2131839  45.0970737  77.5296699  50.2366676
  44.5514655  76.1184588  50.1849406  42.0428694  84.0071124  44.6631239
  41.9083162  83.2471525  44.0969237  41.6260757  84.7312024  44.1960028
  53.1787657  79.1908047  33.6707814  53.8823507  79.3958050  34.2865470
  52.4550306  79.7584809  33.9356898  54.0085468  74.9417909  39.7910084
  53.9520669  75.3986460  38.9517717  54.5613810  74.1808593  39.6132927
  62.1302611  73.4703714  43.1231495  61.5702169  73.5396903  43.8963057
  61.5246115  73.2944698  42.4030991  45.1997820  84.9040441  44.8749681
  45.0830204  85.8485873  44.7728372  44.3790266  84.6014002  45.2635481
  55.0874355  79.6290576  35.7206274  55.9219959  79.1971775  35.5383749
  54.9258698  79.4572590  36.6483169  54.7420247  76.1322690  37.0862613
  54.6869051  75.9666961  36.1451058  54.1166302  76.8398723  37.2424803
  39.5312762  71.3690754  50.9124036  40.1771625  70.8589708  51.4011261
  39.3229913  72.1059436  51.4867461  52.0566154  78.4371602  56.4116176
  52.9257314  78.6112254  56.0502811  51.5772906  79.2566018  56.2891906
  46.2252334  85.5568703  48.0905610  47.1279581  85.5892313  48.4072105
  45.9989704  84.6269154  48.1051946  47.9805936  84.3099689  44.7515689
  47.0301567  84.3101551  44.6380061  48.2838422  83.5632424  44.2351723
  63.7158630  90.1460228  45.8161451  64.3537040  90.0266975  45.1124791
  63.5979473  91.0941072  45.8749403  60.5248336  90.0987656  45.7522976
  60.1866848  89.9828720  44.8643510  61.3938104  89.6978821  45.7323982
  56.3835152  91.9523132  41.7419867  55.8200017  91.8613069  40.9736154
  56.2687547  91.1323037  42.2222359  61.0068119  91.2522507  51.7109181
  60.9956760  90.8575306  50.8389685  61.1688759  90.5188580  52.3042953
  53.9299584  93.4474324  44.5804087  54.7220876  93.1065148  44.1650386
  54.1696234  93.5569299  45.5006240  55.8890338  92.7083237  37.4521466
  56.6621214  92.1612224  37.3134342  56.2415737  93.5727486  37.6635927
  57.7275380  94.0359619  50.6588365  57.4365246  94.9405250  50.5435031
  58.3632365  94.0776147  51.3732435  58.6531587  91.4136468  47.2489725
  59.2495159  91.1892490  46.5346688  58.7106559  90.6721213  47.8515173
  58.2256615  88.8675903  35.0839916  58.4782136  88.3457424  34.3223379
  57.2881175  88.7042048  35.1866599  63.2699898  87.8711681  42.8914659
  64.0562987  87.4531105  42.5405076  63.5338603  88.7757774  43.0596307
  68.6708325  87.8086915  43.7947637  69.4033497  87.2386131  44.0285467
  67.9147681  87.4208515  44.2354143  57.9452904  90.7704009  37.2864291
  57.8289162  90.0948912  37.9545375  58.0555164  90.2836383  36.4696444
  60.2884445  90.2314156  40.9910980  59.9242652  89.7044777  41.7023901
  61.1451561  89.8412625  40.8177465  66.1933746  81.5208489  48.2542246
  65.8617071  82.3903900  48.0303461  65.5979359  81.2044773  48.9336276
  59.9289932  85.2604056  35.9872328  60.0964334  86.1284292  36.3542799
  59.7387101  85.4231338  35.0633618  56.1377747  90.1734832  43.6874863
  55.2128243  90.0411046  43.8952555  56.3862160  90.9529051  44.1844806
  66.0862409  86.2403575  45.3335596  65.1779286  86.1718983  45.0394357
  66.0350005  86.7175520  46.1617422  59.9079153  87.7161713  36.9718995
  59.7878778  88.1618764  37.8104476  59.2131741  88.0647031  36.4132533
  53.4986558  89.8168105  44.5218652  53.6278939  90.0702584  45.4358064
  52.8184009  90.4095813  44.2023307  60.1603275  87.6593220  53.2770493
  59.3836609  88.2187141  53.2673358  60.7993838  88.1450003  53.7985364
  67.9524055  84.4420013  47.1113470  67.3098436  84.7352546  46.4653265
  67.4478984  84.3272934  47.9166667  65.6064219  88.1883186  37.7999329
  66.5182075  88.4210573  37.6247027  65.0973866  88.7720231  37.2374408
  58.4149647  90.4678674  52.8388460  59.1564332  91.0063718  52.5623284
  57.7086633  91.0944963  52.9960012  63.8904987  92.6107814  51.4360622
  64.2988343  92.1690225  50.6915254  63.1682248  92.0360442  51.6894815
  60.2436057  87.5480421  48.8094179  61.0897252  87.9719835  48.9528828
  60.1834695  86.8914045  49.5032742  63.3935502  85.2084789  50.4675352
  63.1496434  85.9626850  49.9309628  63.6695433  85.5870137  51.3022600
  62.9500194  84.3641222  46.0489190  62.0884673  84.6622476  46.3405928
  62.9762629  84.5811621  45.1170223  59.7661763  92.9083413  42.4562996
  60.2300109  93.1871116  41.6667618  59.5018561  92.0066858  42.2736087
  56.6585844  92.4554895  45.3942759  57.2287201  92.8842163  44.7560244
  57.2493956  92.1737479  46.0926945  58.7030649  89.0306565  39.2652561
  59.4054693  89.4827609  39.7326487  58.3711278  88.3890384  39.8932454
  57.1511011  87.6218322  53.6403770  56.5209671  88.3034603  53.8739167
  57.0447099  87.5101404  52.6956909  52.4455983  87.2890118  44.5669695
  51.6555037  87.5447647  44.0909805  52.9367231  88.1038456  44.6721735
  54.3970729  87.6534697  41.5253171  53.6001892  87.7653392  42.0436667
  54.1696321  87.9921350  40.6594062  60.2276396  94.1779401  49.4735686
  60.2920829  94.6399808  50.3093858  59.5187320  93.5476765  49.6017996
  50.7293686  87.5420608  46.9984685  50.9801725  88.4267618  47.2642261
  51.2653235  87.3625210  46.2259777  56.4291754  81.9239088  56.0029021
  56.0358699  81.3705286  56.6776666  57.2457894  82.2349666  56.3935539
  53.3953811  93.3622946  39.9142591  53.9078332  94.1566196  40.0648156
  54.0476524  92.6649236  39.8476193  59.3459715  83.3396967  53.5949278
  60.0869428  83.9404120  53.5153740  59.5777637  82.5974605  53.0367321
  54.4901053  88.5253334  51.8727508  54.3754568  87.6238591  52.1734607
  53.6345570  88.7717031  51.5212324  60.1247183  94.2618004  52.3419918
  60.6575519  93.5006292  52.1119226  59.5961264  93.9691656  53.0844072
  63.2916878  79.3678070  47.8713560  62.9481147  80.2579712  47.7952670
  63.6595840  79.1779728  47.0083145  51.3602728  91.6911600  40.6902162
  52.1977950  92.1008609  40.4735870  51.5380996  90.7511043  40.6602356
  63.2567160  89.3586681  36.3785995  62.7413784  90.1291286  36.6174382
  62.9844469  88.6851817  37.0019056  60.8414271  84.2036382  41.4371233
  59.9855868  83.8143232  41.2576872  61.2541223  84.2828343  40.5771019
  62.3713418  81.7382725  45.8362793  61.8678214  81.7012860  45.0230598
  62.6644025  82.6475468  45.8959450  58.6156304  81.8221455  44.8428975
  59.4809301  81.6264263  44.4834864  58.6833813  81.5931807  45.7698331
  63.0453463  87.2313773  38.2045776  62.7403599  87.5459922  39.0555919
  63.9983906  87.3095193  38.2473109  61.4899895  93.3903996  39.8538730
  60.9621257  92.6556756  39.5411967  60.9887398  94.1678673  39.6078698
  56.2218623  84.0523663  42.2145341  56.7962375  83.8298844  41.4818534
  56.8089605  84.1212357  42.9673943  65.2798200  89.9397390  43.0209718
  65.7930082  90.5727381  43.5231428  65.9299424  89.3398585  42.6553078
  56.5488210  86.0828124  36.2341227  55.7125522  86.4202810  36.5550501
  56.4092980  85.9477104  35.2968364  58.5241291  80.9264912  40.9420411
  57.8705703  80.6113929  40.3177026  58.4821765  80.3040652  41.6680234
  59.6352495  91.2084207  32.8573703  58.7279557  90.9773460  33.0564852
  60.1323527  90.4121826  33.0447685  61.7579031  87.4146845  45.2668059
  60.8401592  87.6361792  45.1089747  62.1739175  87.4893156  44.4079766
  62.5414079  88.8138261  40.3970739  63.2885898  89.3259658  40.0877861
  62.8105668  88.4922314  41.2575132  60.8140729  91.3096802  37.3797693
  59.9051948  91.0255834  37.4770163  60.8435813  91.7295880  36.5201000
  64.9892916  85.8495377  42.3789528  64.2515673  85.3372763  42.7099771
  65.2419689  85.4095759  41.5672805  65.0904543  78.6271629  42.9731297
  65.3963420  77.7668993  42.6857212  65.8157148  79.2189249  42.7730291
  51.3828899  89.0302316  41.3612895  51.1853299  88.4371676  40.6363962
  50.8275563  88.7254526  42.0788834  59.3625623  88.9225422  43.4807488
  59.4174233  87.9699259  43.4049965  58.5516825  89.0784861  43.9648787
  60.5116817  92.8505545  34.7185772  60.0736247  92.1341404  34.2591409
  61.2527258  93.0781660  34.1570863  57.3017983  87.5402482  41.2397867
  56.4885848  87.8396652  41.6463059  57.7976977  87.1458171  41.9572350
  62.8992195  88.0044306  50.0712761  63.2541582  88.2315780  50.9307227
  63.5464326  88.3362683  49.4490016  56.7932058  85.1120837  46.8559102
  57.4331437  84.9709597  46.1582066  55.9609588  84.8255351  46.4797704
  57.5692362  94.4123268  42.9694095  58.3632960  93.9173588  42.7676670
  56.8584054  93.8841131  42.6061800  53.8775125  88.5566350  39.0453847
  52.9472713  88.4950805  39.2623810  53.9732597  88.0342302  38.2490489
  53.7960674  85.0821162  41.6332089  54.0567491  85.9966496  41.5241250
  54.6177846  84.6145605  41.7828702  55.2685599  86.4958920  48.8030914
  55.9408653  86.2876282  48.1543562  54.4415386  86.2981006  48.3636146
  61.1711171  83.1220860  50.8196574  60.5239086  83.8210810  50.7261051
  61.9412187  83.5557004  51.1872823  61.3475306  90.9601625  48.8793394
  62.2767366  91.1112785  48.7062361  60.9266336  91.0485646  48.0242041
  60.1463638  94.9852290  46.6491932  60.0074723  94.6171074  47.5217870
  59.3578234  95.4999929  46.4775890  55.6713097  89.7701523  49.5633351
  55.5332895  89.0381761  50.1644890  56.5818020  89.6810423  49.2817538
  64.6328044  91.7089927  34.3117829  64.0157215  90.9836755  34.2150882
  64.1644533  92.4699287  33.9684904  58.2995397  89.4821482  49.0517030
  59.0095016  88.8414674  49.0103649  58.2564705  89.7334377  49.9743211
  57.0124331  86.4686700  50.8712670  56.4761688  86.0177438  51.5234266
  56.4241040  86.6032609  50.1283134  56.4226590  85.9275351  33.4339134
  55.5456057  85.8064152  33.0701380  56.8984343  85.1361429  33.1818022
  47.9428730  90.7152511  43.5280641  48.6299770  90.4014241  42.9401656
  47.7876859  91.6193876  43.2547892  52.7463453  85.6042707  47.9565664
  52.6621641  84.9968377  47.2216074  51.9246159  86.0951726  47.9575161
  62.9187166  84.0896271  43.3235859  63.4155866  83.3366233  43.0036930
  62.1474148  84.1260588  42.7579069  59.5022135  86.2313654  43.0507544
  59.1319923  85.6784694  43.7388450  59.9981228  85.6271787  42.4982544
  67.3889498  88.6885277  41.4324317  67.8549951  89.5213269  41.3584620
  67.8396999  88.2230259  42.1369575  65.3606161  81.0565864  45.4715218
  64.4469241  81.2870091  45.6397425  65.7899263  81.1404309  46.3229251
  65.1312620  89.2455756  47.9715112  64.4784070  89.4931664  47.3167565
  65.5093000  88.4319895  47.6377590  61.1800193  89.9875567  54.4581149
  60.5040830  89.8869697  55.1283525  62.0027827  89.8314781  54.9217147
  47.5196707  88.7953104  45.7998108  47.5580806  88.2616695  46.5935226
  47.0136999  88.2688310  45.1809085  54.8987469  83.6417645  49.2960650
  54.9628795  84.5032476  48.8838048  54.8354589  83.0291646  48.5633009
  54.3739741  85.7140777  52.9433684  55.0011780  85.3317855  53.5571209
  53.5167660  85.4954979  53.3089377  51.1505284  87.5217206  38.8752039
  51.4458725  86.6127885  38.8219093  50.2493320  87.5004946  38.5533042
  54.6799531  85.5973203  44.8579588  53.9586117  86.2109171  44.7187061
  55.4692787  86.1330968  44.7796234  57.4825845  82.9327629  51.1320240
  58.0060246  83.1789926  51.8946549  57.2638178  83.7647664  50.7123377
  52.8793126  85.2031304  38.9991364  52.5505832  84.3228683  38.8166470
  53.2332496  85.1478973  39.8867754  55.9934949  85.4904274  39.3666842
  56.3331021  86.0190195  38.6445450  56.4407069  85.8284680  40.1425409
  58.6878390  83.8741325  48.8169910  58.3475210  83.0749138  49.2190590
  57.9817396  84.1743035  48.2446743  59.3394861  80.9590637  47.2697233
  60.1620931  80.4851115  47.1476123  59.5832925  81.7381121  47.7695919
  57.9803096  83.9878895  37.5660135  58.7011458  84.3660148  37.0623852
  57.3568400  84.7067772  37.6695113  62.1234219  84.6924044  38.5018467
  62.3397833  85.5748682  38.2007295  61.6428286  84.3010258  37.7724109
  56.8633440  87.6509758  45.0789212  56.7178021  87.9650061  45.9713493
  56.3858644  88.2694658  44.5260110  58.7229823  84.6412306  45.1270101
  58.7091392  83.7453399  44.7902399  59.4402251  84.6482969  45.7608387
  60.5755954  85.0749646  47.1723229  60.3173732  85.9966716  47.1707559
  60.0440994  84.6780080  47.8623693  51.3379102  90.1915102  48.0176873
  50.7932570  90.9674910  48.1497147  52.2158452  90.5385907  47.8595994
  58.1266719  83.5226686  40.3957671  58.2482630  82.5943332  40.5948559
  57.8368761  83.5365372  39.4835987  60.9957909  81.2081596  43.5324391
  61.0179606  81.2720929  42.5776371  61.4125968  80.3686105  43.7264897
  52.1245124  89.3184998  50.9107030  51.3826860  89.4667634  51.4971660
  51.8037869  89.5793264  50.0473779  57.6107799  85.0358683  54.6047604
  57.6595954  85.9120806  54.2225374  58.1530313  84.4936076  54.0319247
  65.5064282  88.4123201  52.5140776  66.4074144  88.2729666  52.2224774
  65.5812256  88.5777656  53.4538954  59.8407087  85.7890056  51.3593963
  58.9710396  86.0823622  51.0876551  60.0766567  86.3730501  52.0801226
  54.8549411  91.1345996  39.4934627  54.6095453  90.2308326  39.6914838
  55.0245326  91.1363147  38.5514105  62.5446121  82.0069673  48.8759383
  63.0628065  82.7430700  48.5505872  62.1901254  82.3133666  49.7106142
  54.1245059  86.8674354  36.9920789  53.4314303  86.9418709  36.3360825
  53.8796810  86.1034697  37.5142306  62.7958715  78.4269955  44.3960280
  63.0760469  77.7593144  45.0220706  63.5809322  78.6199051  43.8834943
  66.6667573  86.8487589  48.1431855  67.6184996  86.9485687  48.1644079
  66.4971024  86.0565858  48.6529939  64.6881953  83.9343172  48.3291256
  64.0931885  84.2148185  47.6337744  64.4031650  84.4237073  49.1007997
  60.9838982  88.9389762  33.3001358  61.9298087  88.8095970  33.3689776
  60.6053227  88.2004424  33.7770787  69.2950140  86.8604752  47.3032438
  68.7789188  86.0763209  47.1162366  70.1790088  86.5323469  47.4678957
  66.9560867  80.6045768  43.2628250  66.7585688  80.2960856  44.1471582
  67.5660572  81.3307407  43.3926180  60.8677675  92.9907508  54.7602015
  61.7880684  93.1686107  54.9542062  60.8327258  92.0463553  54.6081715
  59.1681899  86.8639738  33.2356244  58.2613355  86.5672851  33.3118957
  59.4457880  86.5669556  32.3690530  50.0859840  88.1846102  43.6855290
  49.7662624  87.3311410  43.3929664  49.5393268  88.3994680  44.4413257
  53.8639747  90.9008543  47.4024797  54.0825757  91.8325650  47.4212830
  54.2765521  90.5416517  48.1879600  60.7843965  81.4076628  39.3900485
  59.9744693  81.0623713  39.7655731  61.4728382  81.0984172  39.9788097
  62.7134513  80.4854675  41.0124782  63.2665552  80.9050128  41.6714805
  62.9504600  79.5590423  41.0547738  58.7367612  86.4741748  56.7927546
  58.6364339  87.4236105  56.7239637  58.5189154  86.1459987  55.9203616
  57.9380684  83.7226673  33.3768223  58.7999848  84.0481572  33.6364040
  58.1231028  82.9358169  32.8641289  49.9548100  91.8049013  45.6548412
  49.2611571  91.3902966  45.1418366  50.7021091  91.8469550  45.0581831
  66.0913320  82.5955200  40.5203446  65.5111989  83.2540004  40.1381498
  65.8249253  81.7732544  40.1090863  64.5416887  81.9960258  42.7224766
  65.0416665  82.1076792  41.9139085  65.1852495  81.6921310  43.3625575
  58.5998882  89.9038887  55.6092607  58.1165964  90.7039247  55.8156496
  58.6859822  89.9146832  54.6560051  51.8684842  91.7367267  43.5314427
  51.8455530  91.8354954  42.5796310  52.1785479  92.5832418  43.8531593
  54.5272220  93.7943422  47.6461041  55.4815474  93.7627364  47.5790973
  54.3284744  93.3334046  48.4611267  55.1171602  92.3644538  50.2131839
  55.9364491  92.8588617  50.2366676  55.3908410  91.4476506  50.1849406
  64.8738198  84.7555290  39.5759794  63.9864053  85.0404941  39.3579989
  65.2892187  84.5949054  38.7287071  68.2252734  84.7801811  43.2914133
  69.0013125  85.2698264  43.5638750  67.5000869  85.2059865  43.7486003
  70.6625293  85.4929430  44.3488074  71.2569784  85.2525166  43.6381382
  70.7351877  84.7736561  44.9761610  64.8479222  90.2709826  39.7910084
  64.7914423  90.7278378  38.9517717  65.4007565  89.5100511  39.6132927
  68.6584028  86.0599558  40.6160204  68.4020962  85.6596194  41.4468411
  68.0336896  86.7743352  40.4910343  50.3706516  86.6982672  50.9124036
  51.0165380  86.1881626  51.4011261  50.1623667  87.4351353  51.4867461
  58.8910127  80.9622716  36.6647932  58.8788797  81.9064556  36.8216203
  59.7833549  80.7792862  36.3707393  62.7062246  77.5565493  40.9193869
  61.9394642  77.0023980  41.0650551  63.1172951  77.6287362  41.7808020
  54.7104007  83.8450289  55.0099050  55.5735469  83.4887094  55.2202374
  54.1369418  83.5064184  55.6974454  20.3583613   5.8354679  32.5406758
  20.9962023   5.7161427  31.8370098  20.2404456   6.7835523  32.5994710
  17.1673319   5.7882108  32.4768282  16.8291831   5.6723172  31.5888817
  18.0363088   5.3873273  32.4569288  13.0260135   7.6417584  28.4665173
  12.4625000   7.5507521  27.6981461  12.9112530   6.8217488  28.9467666
  17.6493102   6.9416959  38.4354488  17.6381743   6.5469758  37.5634991
  17.8113742   6.2083032  39.0288259  10.5724567   9.1368776  31.3049394
  11.3645859   8.7959600  30.8895693  10.8121217   9.2463751  32.2251547
  18.6059694  11.3088552  23.7779638  17.9547674  11.8942632  23.3913652
  19.4004057  11.8394747  23.8374676  14.3700363   9.7254071  37.3833672
  14.0790229  10.6299702  37.2680338  15.0057348   9.7670599  38.0977741
  15.2956570   7.1030920  33.9735031  15.8920143   6.8786942  33.2591994
  15.3531542   6.3615665  34.5760479  19.9124882   3.5606133  29.6159966
  20.6987971   3.1425556  29.2650383  20.1763586   4.4652225  29.7841614
  20.0834959   8.9978984  24.3148622  19.4480792   9.0713610  25.0269527
  19.7532365   9.5872582  23.6367702  25.3133309   3.4981367  30.5192944
  26.0458481   2.9280583  30.7530774  24.5572664   3.1102967  30.9599450
  16.9309428   5.9208608  27.7156287  16.5667636   5.3939229  28.4269208
  17.7876544   5.5307077  27.5422772  19.3290249   9.4115487  34.3783465
  19.0290972  10.3140525  34.2699273  18.9841308   9.1447670  35.2304618
  12.7802730   5.8629283  30.4120170  11.8553227   5.7305498  30.6197862
  13.0287143   6.6423503  30.9090112  22.7287392   1.9298027  32.0580903
  21.8204270   1.8613435  31.7639664  22.6774988   2.4069972  32.8862728
  14.3111028  16.1759807  27.3454433  14.2335058  17.1267632  27.4242914
  13.7072672  15.8305679  28.0029359  16.8028258   3.3487672  40.0015800
  16.0261592   3.9081593  39.9918665  17.4418821   3.8344455  40.5230670
  24.5949039   0.1314465  33.8358777  23.9523419   0.4246998  33.1898571
  24.0903967   0.0167386  34.6411973  22.2489202   3.8777638  24.5244636
  23.1607059   4.1105025  24.3492333  21.7398850   4.4614683  23.9619715
  15.0574630   6.1573126  39.5633767  15.7989315   6.6958170  39.2868591
  14.3511616   6.7839414  39.7205319  20.5329970   8.3002266  38.1605929
  20.9413326   7.8584677  37.4160561  19.8107232   7.7254894  38.4140121
  16.8861040   3.2374873  35.5339485  17.7322235   3.6614287  35.6774134
  16.8259678   2.5808497  36.2278049  20.8558785   8.8603457  31.9158217
  20.2267647   9.0249171  31.2134285  20.4684447   9.2745066  32.6869181
  24.7348017   9.7957895  29.2702581  24.0499055  10.1756796  28.7199614
  24.8191866  10.4053221  30.0034529  20.0360485   0.8979241  37.1920659
  19.7921417   1.6521302  36.6554935  20.3120416   1.2764589  38.0267906
  21.9898948   7.4417854  35.8697925  22.2015843   8.0849614  35.1932306
  21.9428696   6.6080170  35.4019855  19.5925177   0.0535674  32.7734497
  18.7309656   0.3516928  33.0651234  19.6187612   0.2706073  31.8415529
  16.4086747   8.5977865  29.1808303  16.8725092   8.8765568  28.3912925
  16.1443545   7.6961309  28.9981393  13.3010828   8.1449346  32.1188066
  13.8712185   8.5736615  31.4805550  13.8918940   7.8631931  32.8172251
  15.3455633   4.7201017  25.9897868  16.0479676   5.1722061  26.4571794
  15.0136261   4.0784836  26.6177761  23.1044776  10.3189809  34.0420282
  23.9262220   9.9169996  33.7602964  23.1007179  10.2158043  34.9936398
  16.8701380   9.8673852  36.1980993  16.9345812  10.3294260  37.0339164
  16.1612304   9.2371217  36.3263302  31.1950769   6.6628558  30.3905254
  30.4414478   6.0935956  30.2349258  31.3298310   6.6291222  31.3375888
  16.5849397  11.5341960  26.0659973  16.4495072  12.3793496  26.4944821
  17.1259210  11.7361238  25.3025907  10.0378795   9.0517398  26.6387898
  10.5503315   9.8460648  26.7893463  10.6901508   8.3543688  26.5721499
  11.8473679  12.1683154  28.7210651  12.0240308  13.0901119  28.5331635
  12.6430513  11.8541573  29.1505031  18.2117874  12.1565526  40.1960315
  17.7681728  11.3701905  39.8781219  18.8735087  12.3444677  39.5304206
  12.9704995  13.6861328  34.7220993  13.5212420  13.5578391  33.9497987
  12.1316471  13.9856217  34.3715886  20.3099112  12.4368326  38.2241716
  20.2917587  13.2577207  37.7321985  21.2319032  12.3122402  38.4491857
  16.7672166   9.9512456  39.0665225  17.3000503   9.1900744  38.8364533
  16.2386247   9.6586108  39.8089379  24.8726418   7.8013488  25.0384475
  24.0955860   7.4624647  24.5939637  25.5517899   7.8066111  24.3639440
  19.6878447   2.9208225  24.9291083  19.3828582   3.2354374  25.7801226
  20.6408889   2.9989645  24.9718416  18.1324879   9.0798448  26.5784037
  17.6046240   8.3451208  26.2657274  17.6312381   9.8573125  26.3324005
  23.1117725   7.2747469  31.6951083  22.4541399   7.9646730  31.7831212
  23.9158124   7.6643901  32.0385069  21.9223183   5.6291841  29.7455025
  22.4355065   6.2621833  30.2476734  22.5724407   5.0293037  29.3798385
  19.1845558  15.6076166  22.5015696  18.5107256  15.9107863  23.1100654
  19.5711380  16.4105246  22.1521153  18.4004014   3.1041297  31.9913365
  17.4826576   3.3256244  31.8335053  18.8164158   3.1787608  31.1325073
  19.1839062   4.5032713  27.1216045  19.9310881   5.0154110  26.8123167
  19.4530652   4.1816765  27.9820439  17.4565712   6.9991253  24.1043000
  16.5476931   6.7150286  24.2015469  17.4860796   7.4190332  23.2446307
  22.6884980  10.6097843  27.8734167  22.2347307   9.7688753  27.9299358
  22.0578946  11.2459241  28.2108947  21.6317899   1.5389829  29.1034835
  20.8940656   1.0267215  29.4345077  21.8844673   1.0990211  28.2918112
  21.1317919  12.4474340  28.8083985  21.4240893  13.0079397  28.0896351
  21.6416539  12.7402901  29.5637145  16.0050606   4.6119874  30.2052795
  16.0599216   3.6593710  30.1295272  15.1941808   4.7679313  30.6894093
  16.0951544  13.2254691  29.8977439  16.0527723  13.4515537  28.9685971
  17.0114243  12.9918065  30.0463240  19.5417178   3.6938758  36.7958068
  19.8966566   3.9210231  37.6552534  20.1889309   4.0257135  36.1735323
  25.2714915   6.8157194  27.5007397  25.1332813   7.0058790  26.5728586
  24.9151134   7.5776577  27.9575448  25.2984294   8.8833721  32.5118668
  25.7320801   8.7909010  33.3601722  26.0115875   8.8591222  31.8738684
  14.2117345  10.1017720  29.6939401  15.0057943   9.6068040  29.4921976
  13.5009037   9.5735583  29.3307107  19.0312189  12.4835815  34.0451769
  19.0849212  13.0526752  34.8129485  18.1626971  12.6537700  33.6805806
  26.1599844   8.9257422  35.0451554  26.3535734   9.8303232  35.2910829
  26.0600462   8.4664841  35.8790139  21.2214953   9.0764165  40.6192434
  21.0700459   8.8474716  39.7022518  21.2119632  10.0334766  40.6323779
  17.9900289   6.6496077  35.6038701  18.9192349   6.8007237  35.4307668
  17.5691319   6.7380098  34.7487347  16.7888621  10.6746742  33.3737238
  16.6499707  10.3065526  34.2463177  16.0003217  11.1894381  33.2021196
  17.3836773  15.7755838  24.7162775  17.5588528  15.3043881  25.5308398
  16.6969561  16.4021604  24.9444036  18.3393836  10.0528344  30.7626076
  18.0043669  10.0129114  31.6583726  17.8397782   9.3873060  30.2896486
  14.9420381   5.1715934  35.7762337  15.6519999   4.5309126  35.7348955
  14.8989689   5.4228829  36.6988518  22.9307159  12.1083287  38.6968916
  22.8719705  11.4242507  38.0299499  23.3326678  12.8502277  38.2449542
  11.9497858  18.9245201  31.4902635  12.1894456  19.5563725  32.1681654
  11.1067055  18.5733241  31.7767994  22.9324567  10.0722871  36.9282896
  22.0451345   9.7348793  37.0509295  23.5023118   9.3405902  37.1651661
  16.4625720  14.7324323  33.8944139  16.3895891  15.5379295  34.4063444
  16.0203113  14.9316289  33.0692161  16.2515500  13.9696093  27.4046961
  15.4683021  14.5117774  27.4985185  16.9508245  14.4870073  27.8041202
  27.4141907   5.4831088  31.6899458  27.4031783   6.3655804  31.3193391
  26.5459287   5.1302639  31.4953995  18.9224403  14.6311157  36.0502298
  19.6352376  15.2658622  35.9778199  18.4314432  14.7275023  35.2342300
  20.6441930   8.5362410  27.6219589  19.7098209   8.6563873  27.4524294
  20.8218599   7.6334877  27.3579599  24.0314482   4.3779729  28.1569624
  24.4974934   5.2107721  28.0829926  24.4821982   3.9124711  28.8614882
  13.9736317  12.3805601  36.8707869  14.6745777  13.0142084  37.0237263
  13.5031432  12.7220332  36.1103508  22.0990713  10.7223551  25.1555776
  22.3750557  10.6080145  26.0649650  21.2295212  10.3241036  25.1167949
  21.7737603   4.9350208  34.6960419  21.1209053   5.1826116  34.0412872
  22.1517983   4.1214347  34.3622896  18.7344777  14.9709902  28.7988589
  18.9167171  14.1531557  29.2616342  19.5577763  15.1877594  28.3613479
  19.0686942  13.8978087  26.0603638  19.5974709  13.3870541  25.4473800
  19.3315162  13.5820617  26.9249171  17.8225176   5.6770019  41.1826456
  17.1465813   5.5764149  41.8528831  18.6452810   5.5209233  41.6462453
   9.5704035  11.9141956  33.8038971  10.1557472  11.1685644  33.9366875
   9.3728874  12.2245913  34.6875635  12.4242690  14.9493203  28.8201414
  11.7553066  15.4339331  28.3365454  12.2855560  15.1962424  29.7344792
  16.5647959  16.9836947  35.4184072  17.1166267  17.1468568  36.1833157
  16.9054152  17.5741385  34.7464097  21.4158833  11.8098204  41.2732726
  21.9598737  12.4228163  40.7787681  20.8345678  12.3677783  41.7899739
  19.7016346  14.9318922  32.4047754  19.5767486  14.1308662  31.8958700
  20.3595437  15.4265116  31.9161724  21.7651255  12.7327942  34.0327304
  20.8181590  12.6133294  33.9605631  22.1134028  11.8450440  34.1153566
  18.7697688  12.5280659  30.2331657  18.6222650  11.5997366  30.4139227
  19.5951181  12.5500749  29.7488732  22.3731810  13.3509217  31.3196529
  23.2978357  13.1452079  31.1820980  22.2047113  13.1025619  32.2285871
  22.1627126  13.8694885  26.6758621  22.3364003  13.3041307  25.9232473
  22.6556017  14.6695780  26.4938111  28.0166517   6.6331308  28.2948920
  28.4597663   5.8838633  27.8968044  27.1393027   6.6241444  27.9122652
  23.1502298  13.1861649  23.7755519  23.8453203  13.8068342  23.9942834
  23.4925449  12.3357000  24.0507897  25.0493722  10.6361355  25.3042850
  25.5745046  10.9748628  24.5792170  24.9616074   9.7008370  25.1205984
  16.7113770  14.5495428  37.4332726  17.0200897  14.3044575  38.3055426
  17.5089252  14.7542067  36.9451597  16.7334382  16.7033338  29.6638103
  16.2939373  16.2109717  30.3570960  17.4842499  16.1606306  29.4230178
   9.2126721  12.8944879  29.6662731  10.0384741  12.5948651  29.2861375
   8.8620773  12.1252501  30.1152520  14.1808254  12.2471347  31.7360405
  13.5588264  11.5842052  31.4362632  14.8513121  12.2732479  31.0534052
   7.4135326  10.8131205  30.6251665   6.5767235  10.3853380  30.4435666
   7.3858972  11.0063649  31.5622456  24.7387628  11.2694258  40.6094048
  23.9483171  11.2518397  40.0698547  24.5020982  11.8082552  41.3643084
  24.8585503   8.1186725  37.9226776  24.9083508   7.9536732  38.8642299
  24.7499426   7.2513984  37.5324657  13.7421761  10.7975270  25.2118865
  13.8909882  11.4810735  24.5585538  14.5488205  10.7780361  25.7268321
  22.1489265   4.1017653  39.2386083  23.0499128   3.9624118  38.9470081
  22.2237240   4.2672108  40.1784260  26.3603699  10.5383666  38.1668798
  26.0688508  10.9013647  39.0032259  25.7475831   9.8250675  37.9882130
  27.5599382   8.1036546  30.6871368  28.3946273   8.5426350  30.8508928
  27.6958511   7.6275199  29.8679614  24.6090888   5.6616281  36.6348856
  25.0845009   5.8543927  35.8267707  23.6856453   5.7175467  36.3892239
  17.2417167  13.2923401  22.6830613  16.6691134  13.9113588  22.2301084
  17.8149961  13.8422763  23.2170535  23.3092557   2.5382041  34.8677161
  24.2609980   2.6380139  34.8889385  23.1396007   1.7460310  35.3775246
  21.3306936  -0.3762376  35.0536562  20.7356868  -0.0957363  34.3583051
  21.0456633   0.1131525  35.8253303  20.4614427  13.5760551  23.8139195
  21.3945100  13.5106113  24.0172070  20.3737639  14.4116818  23.3553728
  23.0902443  12.8926421  20.7743142  23.0116075  12.5586285  21.6678900
  23.9112110  13.3848189  20.7734615  25.7880634   5.7588161  33.9819461
  25.7556955   4.8204161  34.1679145  26.3981258   5.8372197  33.2485286
  25.9375123   2.5499204  34.0277744  25.4214172   1.7657661  33.8407673
  26.8215071   2.2217921  34.1924264  31.6057184   6.8204168  33.1225498
  32.3360573   6.5589456  33.6833201  30.9964130   6.0832890  33.1627566
  29.6872481   4.9612030  33.7199949  28.9605645   4.8267995  33.1116441
  29.2719768   5.2688859  34.5256667  17.5102658   8.6801960  41.4847322
  18.4305667   8.8580559  41.6787369  17.4752241   7.7358005  41.3327021
  10.5064730   6.5902994  34.1270103  10.7250740   7.5220102  34.1458137
  10.9190504   6.2310969  34.9124907  15.2423866   5.5933339  42.3337914
  14.7590947   6.3933699  42.5401803  15.3284805   5.6041284  41.3805358
  11.1697203   9.4837874  34.3706348  12.1240457   9.4521816  34.3036279
  10.9709727   9.0228498  35.1856573  11.7596585   8.0538990  36.9377145
  12.5789474   8.5483069  36.9611983  12.0333393   7.1370958  36.9094713
  21.5163182   0.4449742  26.3005101  20.6289037   0.7299393  26.0825296
  21.9317171   0.2843506  25.4532378  24.8677718   0.4696263  30.0159440
  25.6438108   0.9592716  30.2884057  24.1425852   0.8954317  30.4731310
  27.3050276   1.1823882  31.0733381  27.8994767   0.9419618  30.3626689
  27.3776860   0.4631013  31.7006917   9.5247432  15.0257493  31.3876545
   9.3901900  14.2657894  30.8214544   9.1079494  15.7498393  30.9205334
  20.6606395  10.2094417  20.3953121  21.3642245  10.4144419  21.0110776
  19.9369044  10.7771179  20.6602204  21.4904205   5.9604278  26.5155391
  21.4339407   6.4172830  25.6763023  22.0432548   5.1994963  26.3378234
  25.3009011   1.7494010  27.3405510  25.0445945   1.3490646  28.1713718
  24.6761879   2.4637804  27.2155650  29.6121349   4.4890083  29.8476802
  29.0520907   4.5583273  30.6208364  29.0064852   4.3131068  29.1276298
  12.6816558  15.9226810  31.5994988  12.5648942  16.8672243  31.4973678
  11.8609004  15.6200372  31.9880787  22.5693092  10.6476946  22.4451581
  23.4038696  10.2158144  22.2629056  22.4077435  10.4758960  23.3728475
  22.2238985   7.1509059  23.8107920  22.1687788   6.9853331  22.8696364
  21.5985040   7.8585092  23.9670110  19.5384892   9.4557971  43.1361483
  20.4076051   9.6298623  42.7748118  19.0591643  10.2752388  43.0137212
  13.7071072  16.5755072  34.8150917  14.6098319  16.6078682  35.1317411
  13.4808442  15.6455523  34.8297252  15.4624674  15.3286059  31.4760995
  14.5120305  15.3287920  31.3625367  15.7657160  14.5818793  30.9597030
  23.8653890  22.9709502  28.4665173  23.3018755  22.8799439  27.6981461
  23.7506285  22.1509406  28.9467666  28.4886857  22.2708877  38.4354488
  28.4775498  21.8761675  37.5634991  28.6507496  21.5374950  39.0288259
  21.4118321  24.4660693  31.3049394  22.2039613  24.1251518  30.8895693
  21.6514972  24.5755668  32.2251547  29.4453448  26.6380469  23.7779638
  28.7941428  27.2234550  23.3913652  30.2397811  27.1686664  23.8374676
  23.3709075  23.7269606  24.1766772  24.1439951  23.1798594  24.0379648
  23.7234474  24.5913856  24.3881234  25.7075353  19.8862273  21.8085222
  25.9600874  19.3643794  21.0468685  24.7699912  19.7228418  21.9111906
  30.7518636  18.8898051  29.6159966  31.5381725  18.4717474  29.2650383
  31.0157340  19.7944143  29.7841614  30.9228713  24.3270901  24.3148622
  30.2874546  24.4005528  25.0269527  30.5926120  24.9164500  23.6367702
  25.4271642  21.7890379  24.0109597  25.3107900  21.1135282  24.6790682
  25.5373902  21.3022753  23.1941750  27.7703183  21.2500526  27.7156287
  27.4061390  20.7231147  28.4269208  28.6270299  20.8598995  27.5422772
  33.6752484  12.5394858  34.9787553  33.3435808  13.4090269  34.7548768
  33.0798097  12.2231142  35.6581583  27.4108670  16.2790425  22.7117635
  27.5783072  17.1470662  23.0788106  27.2205839  16.4417707  21.7878924
  23.6196485  21.1921201  30.4120170  22.6946981  21.0597415  30.6197862
  23.8680898  21.9715420  30.9090112  27.3897891  18.7348083  23.6964302
  27.2697516  19.1805134  24.5349782  26.6950479  19.0833401  23.1377840
  20.9805296  20.8354475  31.2463959  21.1097677  21.0888954  32.1603371
  20.3002747  21.4282183  30.9268614  27.6422013  18.6779590  40.0015800
  26.8655347  19.2373510  39.9918665  28.2812576  19.1636373  40.5230670
  33.0882957  19.2069556  24.5244636  34.0000813  19.4396943  24.3492333
  32.5792604  19.7906600  23.9619715  25.8968385  21.4865043  39.5633767
  26.6383069  22.0250087  39.2868591  25.1905370  22.1131332  39.7205319
  30.8754240  16.2271159  37.1920659  30.6315172  16.9813220  36.6554935
  31.1514170  16.6056507  38.0267906  30.4318932  15.3827592  32.7734497
  29.5703411  15.6808846  33.0651234  30.4581366  15.5997991  31.8415529
  27.2480501  23.9269783  29.1808303  27.7118847  24.2057486  28.3912925
  26.9837299  23.0253227  28.9981393  24.1404582  23.4741264  32.1188066
  24.7105939  23.9028533  31.4805550  24.7312694  23.1923849  32.8172251
  26.1849387  20.0492935  25.9897868  26.8873431  20.5013979  26.4571794
  25.8530016  19.4076754  26.6177761  24.6329749  18.6404692  40.3649077
  24.0028409  19.3220972  40.5984474  24.5265837  18.5287773  39.4202215
  19.9274721  18.3076488  31.2915001  19.1373775  18.5634016  30.8155112
  20.4185968  19.1224825  31.3967042  21.8789467  18.6721067  28.2498478
  21.0820630  18.7839761  28.7681974  21.6515059  19.0107719  27.3839368
  18.2112424  18.5606978  33.7229992  18.4620463  19.4453988  33.9887568
  18.7471973  18.3811580  32.9505084  42.0344524  21.9920475  30.3905254
  41.2808232  21.4227873  30.2349258  42.1692065  21.9583140  31.3375888
  27.4243152  26.8633878  26.0659973  27.2888827  27.7085413  26.4944821
  27.9652964  27.0653155  25.3025907  23.9110491  12.9425457  42.7274328
  23.5177437  12.3891656  43.4021972  24.7276632  13.2536036  43.1180846
  20.8772549  24.3809316  26.6387898  21.3897070  25.1752566  26.7893463
  21.5295262  23.6835606  26.5721499  22.6867434  27.4975072  28.7210651
  22.8634062  28.4193037  28.5331635  23.4824267  27.1833491  29.1505031
  26.8278452  14.3583337  40.3194585  27.5688166  14.9590490  40.2399047
  27.0596375  13.6160974  39.7612627  21.9719790  19.5439704  38.5972814
  21.8573306  18.6424961  38.8979913  21.1164308  19.7903401  38.2457631
  30.7735615  10.3864439  34.5958866  30.4299885  11.2766081  34.5197977
  31.1414578  10.1966097  33.7328451  18.8421466  22.7097970  27.4147468
  19.6796688  23.1194978  27.1981176  19.0199734  21.7697412  27.3847662
  30.7385898  20.3773051  23.1031301  30.2232522  21.1477655  23.3419689
  30.4663207  19.7038187  23.7264363  28.3233009  15.2222751  28.1616540
  27.4674605  14.8329602  27.9822179  28.7359961  15.3014712  27.3016325
  29.8532156  12.7569095  32.5608100  29.3496951  12.7199230  31.7475905
  30.1462763  13.6661837  32.6204756  26.0975042  12.8407824  31.5674281
  26.9628038  12.6450633  31.2080171  26.1652551  12.6118176  32.4943638
  30.5272201  18.2500143  24.9291083  30.2222337  18.5646292  25.7801226
  31.4802643  18.3281563  24.9718416  28.9718633  24.4090366  26.5784037
  28.4439995  23.6743126  26.2657274  28.4706136  25.1865042  26.3324005
  23.7037361  15.0710032  28.9390648  24.2781113  14.8485214  28.2063841
  24.2908343  15.1398727  29.6919249  24.0306948  17.1014493  22.9586533
  23.1944260  17.4389180  23.2795808  23.8911717  16.9663473  22.0213670
  26.0060028  11.9451281  27.6665718  25.3524441  11.6300298  27.0422332
  25.9640503  11.3227022  28.3925540  27.1171233  22.2270576  19.5819010
  26.2098295  21.9959830  19.7810159  27.6142265  21.4308195  19.7692991
  30.0232817  19.8324630  27.1216045  30.7704635  20.3446028  26.8123167
  30.2924406  19.5108683  27.9820439  28.2959467  22.3283171  24.1043000
  27.3870686  22.0442204  24.2015469  28.3254551  22.7482250  23.2446307
  32.4711654  16.8681747  29.1034835  31.7334410  16.3559133  29.4345077
  32.7238427  16.4282128  28.2918112  31.9711673  27.7766257  28.8083985
  32.2634648  28.3371314  28.0896351  32.4810294  28.0694818  29.5637145
  32.5723281   9.6457999  29.6976604  32.8782158   8.7855362  29.4102519
  33.2975886  10.2375619  29.4975598  18.8647637  20.0488685  28.0858202
  18.6672037  19.4558046  27.3609268  18.3094301  19.7440895  28.8034141
  27.9935555  23.8691915  21.4431078  27.5554984  23.1527774  20.9836716
  28.7345995  24.0968030  20.8816170  24.7836721  18.5588851  27.9643174
  23.9704586  18.8583022  28.3708366  25.2795715  18.1644540  28.6817656
  26.9345299  28.5546608  29.8977439  26.8921477  28.7807455  28.9685971
  27.8507997  28.3209983  30.0463240  30.3810932  19.0230676  36.7958068
  30.7360320  19.2502149  37.6552534  31.0283064  19.3549053  36.1735323
  24.2750795  16.1307207  33.5804409  24.9150175  15.9895966  32.8827372
  23.4428326  15.8441720  33.2043011  25.0511099  25.4309637  29.6939401
  25.8451698  24.9359958  29.4921976  24.3402792  24.9027501  29.3307107
  21.3593863  19.5752719  25.7699154  20.4291451  19.5137175  25.9869116
  21.4551335  19.0528672  24.9735795  21.2779412  16.1007532  28.3577396
  21.5386229  17.0152865  28.2486556  22.0996584  15.6331975  28.5074009
  22.7504337  17.5145289  35.5276220  23.4227391  17.3062651  34.8788869
  21.9234124  17.3167375  35.0881453  28.6529909  14.1407230  37.5441881
  28.0057824  14.8397180  37.4506358  29.4230925  14.5743374  37.9118129
  27.6282375  26.0038659  33.3737238  27.4893461  25.6357444  34.2463177
  26.8396972  26.5186299  33.2021196  29.1787590  25.3820262  30.7626076
  28.8437423  25.3421032  31.6583726  28.6791536  24.7164978  30.2896486
  23.1531834  20.7887892  36.2878657  23.0151632  20.0568131  36.8890196
  24.0636758  20.6996792  36.0062845  32.1146782  22.7276296  21.0363136
  31.4975953  22.0023125  20.9396189  31.6463271  23.4885657  20.6930210
  24.4943069  17.4873069  37.5957977  23.9580426  17.0363808  38.2479573
  23.9059778  17.6218978  36.8528441  22.7891613  34.2537119  31.4902635
  23.0288211  34.8855643  32.1681654  21.9460809  33.9025159  31.7767994
  23.9045328  16.9461721  20.1584440  23.0274794  16.8250522  19.7946687
  24.3803081  16.1547799  19.9063329  15.4247468  21.7338880  30.2525947
  16.1118508  21.4200610  29.6646963  15.2695597  22.6380245  29.9793199
  20.2282190  16.6229077  34.6810971  20.1440379  16.0154747  33.9461381
  19.4064897  17.1138095  34.6820467  30.4005904  15.1082641  30.0481166
  30.8974604  14.3552603  29.7282236  29.6292886  15.1446957  29.4824375
  31.4835685  23.8654328  27.6219589  30.5491964  23.9855790  27.4524294
  31.6612353  22.9626795  27.3579599  26.9840873  17.2500024  29.7752851
  26.6138660  16.6971064  30.4633756  27.4799965  16.6458157  29.2227851
  34.8708236  19.7071647  28.1569624  35.3368688  20.5399639  28.0829926
  35.3215737  19.2416629  28.8614882  32.9384467  26.0515468  25.1555776
  33.2144311  25.9372063  26.0649650  32.0688966  25.6532953  25.1167949
  32.8424899  12.0752234  32.1960525  31.9287979  12.3056461  32.3642732
  33.2718000  12.1590678  33.0474557  29.9080697  29.2270004  26.0603638
  30.4368463  28.7162459  25.4473800  30.1708916  28.9112535  26.9249171
  20.4097790  27.2433874  33.8038971  20.9951226  26.4977562  33.9366875
  20.2122628  27.5537830  34.6875635  23.2636445  30.2785121  28.8201414
  22.5946820  30.7631249  28.3365454  23.1249314  30.5254341  29.7344792
  15.0015444  19.8139474  32.5243414  15.0399544  19.2803065  33.3180533
  14.4955737  19.2874679  31.9054392  22.3806207  14.6604014  36.0205957
  22.4447533  15.5218845  35.6083354  22.3173327  14.0478016  35.2878315
  21.8558479  16.7327147  39.6678991  22.4830518  16.3504224  40.2816515
  20.9986398  16.5141349  40.0334683  18.6324022  18.5403576  25.5997346
  18.9277463  17.6314254  25.5464400  17.7312058  18.5191315  25.2778348
  22.1618269  16.6159573  31.5824894  21.4404855  17.2295540  31.4432368
  22.9511525  17.1517337  31.5041540  24.9644582  13.9513999  37.8565546
  25.4878984  14.1976296  38.6191855  24.7456916  14.7834034  37.4368684
  20.3611863  16.2217674  25.7236671  20.0324570  15.3415053  25.5411777
  20.7151234  16.1665342  26.6113060  29.6091442  27.8572576  30.2331657
  29.4616405  26.9289284  30.4139227  30.4344936  27.8792667  29.7488732
  23.4753687  16.5090643  26.0912149  23.8149759  17.0376565  25.3690757
  23.9225807  16.8471050  26.8670715  26.1697127  14.8927694  35.5415217
  25.8293948  14.0935507  35.9435897  25.4636134  15.1929405  34.9692050
  26.8213599  11.9777007  33.9942540  27.6439669  11.5037485  33.8721430
  27.0651663  12.7567490  34.4941226  25.4621834  15.0065265  24.2905441
  26.1830196  15.3846518  23.7869158  24.8387138  15.7254142  24.3940419
  29.6052957  15.7110414  25.2263774  29.8216571  16.5935052  24.9252602
  29.1247024  15.3196627  24.4969416  24.3452178  18.6696127  31.8034518
  24.1996759  18.9836430  32.6958800  23.8677382  19.2881028  31.2505417
  26.2048561  15.6598675  31.8515408  26.1910130  14.7639769  31.5147706
  26.9220989  15.6669339  32.4853694  28.0574692  16.0936015  33.8968535
  27.7992469  17.0153086  33.8952866  27.5259732  15.6966450  34.5868999
  33.0020880  29.1986803  26.6758621  33.1757758  28.6333225  25.9232473
  33.4949772  29.9987697  26.4938111  18.8197840  21.2101472  34.7422180
  18.2751308  21.9861280  34.8742454  19.6977190  21.5572276  34.5841301
  25.6085457  14.5413055  27.1202978  25.7301368  13.6129702  27.3193866
  25.3187499  14.5551741  26.2081293  28.4776647  12.2267966  30.2569698
  28.4998344  12.2907299  29.3021677  28.8944706  11.3872475  30.4510204
  33.9896053  28.5153567  23.7755519  34.6846957  29.1360260  23.9942834
  34.3319203  27.6648918  24.0507897  19.6063862  20.3371368  37.6352336
  18.8645598  20.4854003  38.2216967  19.2856606  20.5979633  36.7719086
  20.0520476  28.2236797  29.6662731  20.8778496  27.9240568  29.2861375
  19.7014528  27.4544419  30.1152520  25.0202009  27.5763265  31.7360405
  24.3982018  26.9133970  31.4362632  25.6906876  27.6024397  31.0534052
  18.2529081  26.1423123  30.6251665  17.4160989  25.7145297  30.4435666
  18.2252726  26.3355566  31.5622456  25.0926536  16.0545053  41.3292911
  25.1414692  16.9307176  40.9470680  25.6349051  15.5122446  40.7564554
  24.5815516  26.1267188  25.2118865  24.7303636  26.8102653  24.5585538
  25.3881959  26.1072278  25.7268321  32.9883020  19.4309571  39.2386083
  33.8892882  19.2916035  38.9470081  33.0630994  19.5964025  40.1784260
  27.3225825  16.8076425  38.0839269  26.4529134  17.1009991  37.8121858
  27.5585305  17.3916870  38.8046533  22.3368149  22.1532366  26.2179934
  22.0914191  21.2494696  26.4160144  22.5064063  22.1549516  25.2759412
  30.0264859  13.0256042  35.6004690  30.5446803  13.7617069  35.2751178
  29.6719991  13.3320035  36.4351449  21.6063796  17.8860723  23.7166096
  20.9133041  17.9605078  23.0606132  21.3615548  17.1221067  24.2387612
  30.2777453   9.4456325  31.1205586  30.5579207   8.7779514  31.7466013
  31.0628060   9.6385420  30.6080250  28.0810921  28.6215319  22.6830613
  27.5084888  29.2405506  22.2301084  28.6543715  29.1714680  23.2170535
  32.1700691  14.9529542  35.0536562  31.5750623  15.2334555  34.3583051
  31.8850387  15.4423443  35.8253303  31.3008181  28.9052469  23.8139195
  32.2338854  28.8398030  24.0172070  31.2131394  29.7408736  23.3553728
  33.9296198  28.2218339  20.7743142  33.8509829  27.8878203  21.6678900
  34.7505865  28.7140107  20.7734615  28.4657720  19.9576131  20.0246665
  29.4116825  19.8282339  20.0935083  28.0871965  19.2190793  20.5016093
  34.4379604  11.6232137  29.9873557  34.2404426  11.3147226  30.8716889
  35.0479310  12.3493776  30.1171487  42.4450939  22.1496085  33.1225498
  43.1754327  21.8881373  33.6833201  41.8357884  21.4124807  33.1627566
  26.6500637  17.8826108  19.9601550  25.7432092  17.5859220  20.0364264
  26.9276618  17.5855926  19.0935837  17.5678577  19.2032471  30.4100597
  17.2481362  18.3497779  30.1174971  17.0212006  19.4181049  31.1658564
  21.3458485  21.9194912  34.1270103  21.5644495  22.8512020  34.1458137
  21.7584259  21.5602887  34.9124907  28.2662703  12.4262997  26.1145792
  27.4563431  12.0810082  26.4901038  28.9547120  12.1170541  26.7033403
  30.1953251  11.5041044  27.7370088  30.7484290  11.9236498  28.3960111
  30.4323337  10.5776792  27.7793044  26.2186350  17.4928118  43.5172852
  26.1183077  18.4422475  43.4484943  26.0007892  17.1646357  42.6448922
  25.4199422  14.7413043  20.1013530  26.2818586  15.0667941  20.3609347
  25.6049766  13.9544539  19.5886595  17.4366837  22.8235383  32.3793718
  16.7430309  22.4089335  31.8663673  18.1839828  22.8655919  31.7827137
  33.5732058  13.6141569  27.2448753  32.9930727  14.2726373  26.8626805
  33.3067991  12.7918914  26.8336170  32.0235624  13.0146627  29.4470073
  32.5235403  13.1263162  28.6384392  32.6671232  12.7107680  30.0870881
  19.3503580  22.7553636  30.2559733  19.3274268  22.8541324  29.3041616
  19.6604216  23.6018787  30.5776899  22.0090958  24.8129791  34.3706348
  22.9634211  24.7813734  34.3036279  21.8103481  24.3520415  35.1856573
  22.5990340  23.3830908  36.9377145  23.4183229  23.8774986  36.9611983
  22.8727148  22.4662876  36.9094713  32.3556936  15.7741660  26.3005101
  31.4682791  16.0591310  26.0825296  32.7710925  15.6135423  25.4532378
  20.3641187  30.3549411  31.3876545  20.2295654  29.5949812  30.8214544
  19.9473249  31.0790311  30.9205334  31.5000150  25.5386334  20.3953121
  32.2036000  25.7436337  21.0110776  30.7762798  26.1063096  20.6602204
  32.3297960  21.2896196  26.5155391  32.2733161  21.7464747  25.6763023
  32.8826302  20.5286880  26.3378234  36.1402766  17.0785928  27.3405510
  35.8839700  16.6782563  28.1713718  35.5155634  17.7929722  27.2155650
  40.4515104  19.8182001  29.8476802  39.8914662  19.8875190  30.6208364
  39.8458607  19.6422985  29.1276298  23.5210312  31.2518728  31.5994988
  23.4042697  32.1964160  31.4973678  22.7002759  30.9492290  31.9880787
  33.4086847  25.9768864  22.4451581  34.2432451  25.5450062  22.2629056
  33.2471190  25.8050877  23.3728475  33.0632739  22.4800977  23.8107920
  33.0081543  22.3145248  22.8696364  32.4378794  23.1877010  23.9670110
  17.8525254  17.7169041  37.6369342  18.4984118  17.2067995  38.1256567
  17.6442405  18.4537723  38.2112768  26.3728865  11.9809086  23.3893239
  26.3607534  12.9250926  23.5461509  27.2652286  11.7979231  23.0952700
  30.1880984   8.5751863  27.6439175  29.4213380   8.0210349  27.7895858
  30.5991689   8.6473731  28.5053327  22.1922745  14.8636658  41.7344357
  23.0554207  14.5073463  41.9447681  21.6188156  14.5250553  42.4219761
  34.7047644  38.3001419  28.4665173  34.1412509  38.2091356  27.6981461
  34.5900039  37.4801324  28.9467666  32.2512076  39.7952611  31.3049394
  33.0433368  39.4543436  30.8895693  32.4908726  39.9047586  32.2251547
  40.2847203  41.9672387  23.7779638  39.6335183  42.5526467  23.3913652
  41.0791566  42.4978582  23.8374676  34.2102830  39.0561524  24.1766772
  34.9833706  38.5090511  24.0379648  34.5628229  39.9205773  24.3881234
  36.5469108  35.2154190  21.8085222  36.7994628  34.6935712  21.0468685
  35.6093667  35.0520336  21.9111906  41.7622468  39.6562819  24.3148622
  41.1268301  39.7297445  25.0269527  41.4319874  40.2456418  23.6367702
  36.2665396  37.1182296  24.0109597  36.1501655  36.4427200  24.6790682
  36.3767656  36.6314670  23.1941750  38.6096937  36.5792443  27.7156287
  38.2455145  36.0523064  28.4269208  39.4664053  36.1890912  27.5422772
  38.2502424  31.6082343  22.7117635  38.4176827  32.4762579  23.0788106
  38.0599593  31.7709625  21.7878924  34.4590239  36.5213119  30.4120170
  33.5340736  36.3889333  30.6197862  34.7074652  37.3007338  30.9090112
  38.2291645  34.0640001  23.6964302  38.1091270  34.5097051  24.5349782
  37.5344234  34.4125318  23.1377840  35.9898537  46.8343642  27.3454433
  35.9122567  47.7851467  27.4242914  35.3860181  46.4889515  28.0029359
  38.0874256  39.2561700  29.1808303  38.5512601  39.5349403  28.3912925
  37.8231054  38.3545145  28.9981393  37.0243142  35.3784853  25.9897868
  37.7267185  35.8305896  26.4571794  36.6923770  34.7368671  26.6177761
  52.8738278  37.3212393  30.3905254  52.1201987  36.7519791  30.2349258
  53.0085819  37.2875057  31.3375888  38.2636906  42.1925795  26.0659973
  38.1282581  43.0377331  26.4944821  38.8046719  42.3945073  25.3025907
  33.5261188  42.8266990  28.7210651  33.7027817  43.7484954  28.5331635
  34.3218022  42.5125409  29.1505031  39.8112388  39.7382284  26.5784037
  39.2833749  39.0035043  26.2657274  39.3099890  40.5156960  26.3324005
  34.8700702  32.4306411  22.9586533  34.0338015  32.7681098  23.2795808
  34.7305472  32.2955391  22.0213670  37.9564988  37.5562494  19.5819010
  37.0492049  37.3251747  19.7810159  38.4536020  36.7600113  19.7692991
  40.8633067  46.2660001  22.5015696  40.1894765  46.5691698  23.1100654
  41.2498889  47.0689081  22.1521153  39.1353221  37.6575089  24.1043000
  38.2264440  37.3734122  24.2015469  39.1648305  38.0774167  23.2446307
  42.8105428  43.1058175  28.8083985  43.1028402  43.6663232  28.0896351
  43.3204048  43.3986736  29.5637145  38.8329309  39.1983832  21.4431078
  38.3948739  38.4819691  20.9836716  39.5739750  39.4259947  20.8816170
  35.6230475  33.8880769  27.9643174  34.8098341  34.1874940  28.3708366
  36.1189469  33.4936458  28.6817656  37.7739053  43.8838526  29.8977439
  37.7315232  44.1099372  28.9685971  38.6901752  43.6501901  30.0463240
  35.8904854  40.7601555  29.6939401  36.6845452  40.2651875  29.4921976
  35.1796546  40.2319418  29.3307107  32.1173166  31.4299450  28.3577396
  32.3779984  32.3444783  28.2486556  32.9390339  30.9623892  28.5074009
  39.0624282  46.4339674  24.7162775  39.2376037  45.9627717  25.5308398
  38.3757070  47.0605440  24.9444036  42.9540537  38.0568214  21.0363136
  42.3369707  37.3315042  20.9396189  42.4857025  38.8177574  20.6930210
  33.6285367  49.5829036  31.4902635  33.8681965  50.2147560  32.1681654
  32.7854564  49.2317076  31.7767994  34.7439083  32.2753638  20.1584440
  33.8668549  32.1542439  19.7946687  35.2196836  31.4839717  19.9063329
  38.1413229  45.3908159  33.8944139  38.0683400  46.1963130  34.4063444
  37.6990622  45.5900125  33.0692161  37.9303009  44.6279929  27.4046961
  37.1470530  45.1701609  27.4985185  38.6295754  45.1453908  27.8041202
  40.4132286  45.6293737  28.7988589  40.5954680  44.8115393  29.2616342
  41.2365272  45.8461429  28.3613479  40.7474451  44.5561922  26.0603638
  41.2762218  44.0454377  25.4473800  41.0102671  44.2404452  26.9249171
  34.1030199  45.6077039  28.8201414  33.4340575  46.0923166  28.3365454
  33.9643069  45.8546259  29.7344792  38.2435468  47.6420782  35.4184072
  38.7953776  47.8052404  36.1833157  38.5841661  48.2325220  34.7464097
  41.3803855  45.5902758  32.4047754  41.2554995  44.7892498  31.8958700
  42.0382946  46.0848951  31.9161724  34.3147441  31.8382561  26.0912149
  34.6543514  32.3668482  25.3690757  34.7619562  32.1762967  26.8670715
  36.3015588  30.3357183  24.2905441  37.0223951  30.7138435  23.7869158
  35.6780892  31.0546060  24.3940419  43.8414635  44.5278720  26.6758621
  44.0151512  43.9625143  25.9232473  44.3343526  45.3279615  26.4938111
  44.8289807  43.8445485  23.7755519  45.5240712  44.4652177  23.9942834
  45.1712958  42.9940836  24.0507897  38.4121891  47.3617173  29.6638103
  37.9726882  46.8693552  30.3570960  39.1630008  46.8190141  29.4230178
  30.8914230  43.5528714  29.6662731  31.7172250  43.2532486  29.2861375
  30.5408282  42.7836337  30.1152520  35.4209270  41.4559106  25.2118865
  35.5697391  42.1394570  24.5585538  36.2275714  41.4364196  25.7268321
  38.9204676  43.9507236  22.6830613  38.3478643  44.5697423  22.2301084
  39.4937469  44.5006598  23.2170535  42.1401936  44.2344386  23.8139195
  43.0732609  44.1689948  24.0172070  42.0525148  45.0700653  23.3553728
  44.7689952  43.5510257  20.7743142  44.6903584  43.2170120  21.6678900
  45.5899619  44.0432025  20.7734615  39.3051474  35.2868049  20.0246665
  40.2510579  35.1574257  20.0935083  38.9265719  34.5482711  20.5016093
  37.4894391  33.2118025  19.9601550  36.5825847  32.9151138  20.0364264
  37.7670372  32.9147844  19.0935837  36.2593176  30.0704961  20.1013530
  37.1212340  30.3959859  20.3609347  36.4443520  29.2836457  19.5886595
  30.1897334  38.0845554  30.2559733  30.1668022  38.1833241  29.3041616
  30.4997971  38.9310705  30.5776899  31.2034941  45.6841329  31.3876545
  31.0689409  44.9241730  30.8214544  30.7867003  46.4082228  30.9205334
  42.3393904  40.8678252  20.3953121  43.0429754  41.0728255  21.0110776
  41.6156553  41.4355014  20.6602204  34.3604067  46.5810646  31.5994988
  34.2436451  47.5256078  31.4973678  33.5396513  46.2784207  31.9880787
  44.2480601  41.3060781  22.4451581  45.0826205  40.8741980  22.2629056
  44.0864944  41.1342795  23.3728475  43.9026494  37.8092895  23.8107920
  43.8475297  37.6437166  22.8696364  43.2772549  38.5168928  23.9670110
  35.3858581  47.2338908  34.8150917  36.2885828  47.2662518  35.1317411
  35.1595951  46.3039358  34.8297252  37.1412183  45.9869894  31.4760995
  36.1907814  45.9871756  31.3625367  37.4444669  45.2402629  30.9597030
  47.3862862  50.5446108  21.8085222  47.6388383  50.0227629  21.0468685
  46.4487421  50.3812253  21.9111906  49.0896179  46.9374261  22.7117635
  49.2570581  47.8054497  23.0788106  48.8993348  47.1001542  21.7878924
  41.6062230  48.9660323  31.2915001  40.8161284  49.2217852  30.8155112
  42.0973477  49.7808661  31.3967042  43.5576975  49.3304902  28.2498478
  42.7608139  49.4423596  28.7681974  43.3302568  49.6691554  27.3839368
  39.8899933  49.2190813  33.7229992  40.1407971  50.1037823  33.9887568
  40.4259481  49.0395415  32.9505084  45.7094457  47.7598329  22.9586533
  44.8731769  48.0973015  23.2795808  45.5699226  47.6247308  22.0213670
  40.5435146  50.7072521  28.0858202  40.3459546  50.1141881  27.3609268
  39.9881810  50.4024731  28.8034141  43.0381372  50.2336554  25.7699154
  42.1078960  50.1721010  25.9869116  43.1338844  49.7112507  24.9735795
  42.9566921  46.7591367  28.3577396  43.2173738  47.6736701  28.2486556
  43.7784093  46.2915810  28.5074009  45.5832837  47.6045556  20.1584440
  44.7062303  47.4834357  19.7946687  46.0590590  46.8131634  19.9063329
  37.1034977  52.3922716  30.2525947  37.7906017  52.0784446  29.6646963
  36.9483106  53.2964080  29.9793199  36.6802953  50.4723309  32.5243414
  36.7187053  49.9386900  33.3180533  36.1743246  49.9458515  31.9054392
  40.3111531  49.1987411  25.5997346  40.6064972  48.2898090  25.5464400
  39.4099567  49.1775151  25.2778348  42.0399372  46.8801509  25.7236671
  41.7112079  45.9998888  25.5411777  42.3938743  46.8249178  26.6113060
  45.1541196  47.1674479  26.0912149  45.4937268  47.6960400  25.3690757
  45.6013316  47.5054885  26.8670715  47.1409343  45.6649100  24.2905441
  47.8617705  46.0430353  23.7869158  46.5174647  46.3837977  24.3940419
  40.4985349  51.8685307  34.7422180  39.9538817  52.6445115  34.8742454
  41.3764699  52.2156111  34.5841301  47.2872966  45.1996891  27.1202978
  47.4088877  44.2713537  27.3193866  46.9975008  45.2135577  26.2081293
  43.2851305  48.5444559  23.7166096  42.5920550  48.6188914  23.0606132
  43.0403057  47.7804902  24.2387612  50.1445229  50.6159967  20.0246665
  51.0904334  50.4866175  20.0935083  49.7659474  49.8774629  20.5016093
  48.3288146  48.5409943  19.9601550  47.4219601  48.2443056  20.0364264
  48.6064127  48.2439761  19.0935837  39.2466086  49.8616307  30.4100597
  38.9268871  49.0081615  30.1174971  38.6999515  50.0764885  31.1658564
  47.0986931  45.3996878  20.1013530  47.9606095  45.7251777  20.3609347
  47.2837275  44.6128374  19.5886595  39.1154346  53.4819218  32.3793718
  38.4217818  53.0673171  31.8663673  39.8627337  53.5239755  31.7827137
  41.0291089  53.4137472  30.2559733  41.0061777  53.5125159  29.3041616
  41.3391725  54.2602623  30.5776899  48.0516374  42.6392921  23.3893239
  48.0395043  43.5834761  23.5461509  48.9439795  42.4563067  23.0952700
  63.7158631  67.1522350  32.5406758  64.3537041  67.0329098  31.8370098
  63.5979474  68.1003194  32.5994710  56.3835153  68.9585255  28.4665173
  55.8200018  68.8675192  27.6981461  56.2687548  68.1385159  28.9467666
  53.9299585  70.4536446  31.3049394  54.7220877  70.1127271  30.8895693
  54.1696235  70.5631421  32.2251547  61.9634712  72.6256222  23.7779638
  61.3122691  73.2110303  23.3913652  62.7579075  73.1562417  23.8374676
  55.8890339  69.7145360  24.1766772  56.6621215  69.1674347  24.0379648
  56.2415738  70.5789609  24.3881234  63.4409977  70.3146654  24.3148622
  62.8055810  70.3881281  25.0269527  63.1107383  70.9040253  23.6367702
  68.6708327  64.8149037  30.5192944  69.4033499  64.2448254  30.7530774
  67.9147682  64.4270638  30.9599450  66.1933747  58.5270611  34.9787553
  65.8617072  59.3966022  34.7548768  65.5979360  58.2106895  35.6581583
  66.0862410  63.2465697  32.0580903  65.1779288  63.1781106  31.7639664
  66.0350006  63.7237642  32.8862728  57.6686046  77.4927478  27.3454433
  57.5910076  78.4435303  27.4242914  57.0647690  77.1473350  28.0029359
  67.9524057  61.4482136  33.8358777  67.3098437  61.7414669  33.1898571
  67.4478985  61.3335056  34.6411973  65.6064220  65.1945309  24.5244636
  66.5182076  65.4272696  24.3492333  65.0973867  65.7782353  23.9619715
  64.2133803  70.1771128  31.9158217  63.5842665  70.3416842  31.2134285
  63.8259465  70.5912737  32.6869181  68.0923035  71.1125565  29.2702581
  67.4074073  71.4924467  28.7199614  68.1766884  71.7220892  30.0034529
  63.3935503  62.2146912  37.1920659  63.1496435  62.9688973  36.6554935
  63.6695434  62.5932260  38.0267906  59.7661765  69.9145536  29.1808303
  60.2300110  70.1933239  28.3912925  59.5018563  69.0128980  28.9981393
  66.4619794  71.6357480  34.0420282  67.2837238  71.2337667  33.7602964
  66.4582197  71.5325714  34.9936398  74.5525787  67.9796228  30.3905254
  73.7989496  67.4103626  30.2349258  74.6873328  67.9458893  31.3375888
  59.9424415  72.8509631  26.0659973  59.8070090  73.6961166  26.4944821
  60.4834228  73.0528908  25.3025907  53.3953813  70.3685069  26.6387898
  53.9078333  71.1628319  26.7893463  54.0476525  69.6711359  26.5721499
  55.2048697  73.4850825  28.7210651  55.3815326  74.4068790  28.5331635
  56.0005531  73.1709244  29.1505031  61.5692892  73.4733197  40.1960315
  61.1256746  72.6869576  39.8781219  62.2310105  73.6612348  39.5304206
  56.3280013  75.0028999  34.7220993  56.8787438  74.8746062  33.9497987
  55.4891489  75.3023888  34.3715886  63.6674130  73.7535997  38.2241716
  63.6492605  74.5744878  37.7321985  64.5894050  73.6290072  38.4491857
  63.2916879  56.3740192  34.5958866  62.9481148  57.2641834  34.5197977
  63.6595841  56.1841850  33.7328451  51.3602729  68.6973723  27.4147468
  52.1977951  69.1070731  27.1981176  51.5380997  67.7573165  27.3847662
  68.2301436  69.1181158  25.0384475  67.4530878  68.7792318  24.5939637
  68.9092917  69.1233781  24.3639440  66.4692743  68.5915140  31.6951083
  65.8116417  69.2814401  31.7831212  67.2733142  68.9811571  32.0385069
  65.2798201  66.9459512  29.7455025  65.7930083  67.5789504  30.2476734
  65.9299425  66.3460708  29.3798385  59.6352497  68.2146329  19.5819010
  58.7279558  67.9835583  19.7810159  60.1323529  67.4183949  19.7692991
  62.5420576  76.9243836  22.5015696  61.8682274  77.2275533  23.1100654
  62.9286398  77.7272917  22.1521153  66.0459998  71.9265514  27.8734167
  65.5922325  71.0856424  27.9299358  65.4153964  72.5626912  28.2108947
  64.9892917  62.8557500  29.1034835  64.2515674  62.3434886  29.4345077
  65.2419691  62.4157881  28.2918112  64.4892937  73.7642010  28.8083985
  64.7815911  74.3247067  28.0896351  64.9991557  74.0570571  29.5637145
  60.5116818  69.8567668  21.4431078  60.0736248  69.1403527  20.9836716
  61.2527259  70.0843783  20.8816170  59.4526562  74.5422361  29.8977439
  59.4102741  74.7683208  28.9685971  60.3689261  74.3085736  30.0463240
  62.8992196  65.0106429  36.7958068  63.2541584  65.2377902  37.6552534
  63.5464327  65.3424806  36.1735323  68.6289933  68.1324865  27.5007397
  68.4907831  68.3226461  26.5728586  68.2726152  68.8944248  27.9575448
  68.6559312  70.2001392  32.5118668  69.0895819  70.1076681  33.3601722
  69.3690893  70.1758892  31.8738684  57.5692363  71.4185390  29.6939401
  58.3632961  70.9235711  29.4921976  56.8584055  70.8903254  29.3307107
  62.3887207  73.8003486  34.0451769  62.4424230  74.3694422  34.8129485
  61.5201989  73.9705371  33.6805806  69.5174862  70.2425093  35.0451554
  69.7110752  71.1470903  35.2910829  69.4175480  69.7832512  35.8790139
  60.1463639  71.9914412  33.3737238  60.0074724  71.6233197  34.2463177
  59.3578235  72.5062052  33.2021196  60.7411791  77.0923509  24.7162775
  60.9163546  76.6211552  25.5308398  60.0544579  77.7189275  24.9444036
  61.6968854  71.3696015  30.7626076  61.3618687  71.3296785  31.6583726
  61.1972800  70.7040731  30.2896486  64.6328046  68.7152049  21.0363136
  64.0157216  67.9898878  20.9396189  64.1644534  69.4761410  20.6930210
  66.2882177  73.4250958  38.6968916  66.2294723  72.7410178  38.0299499
  66.6901696  74.1669948  38.2449542  55.3072876  80.2412872  31.4902635
  55.5469474  80.8731396  32.1681654  54.4642073  79.8900912  31.7767994
  56.4226592  62.9337474  20.1584440  55.5456058  62.8126275  19.7946687
  56.8984345  62.1423552  19.9063329  59.8200738  76.0491994  33.8944139
  59.7470909  76.8546966  34.4063444  59.3778131  76.2483960  33.0692161
  59.6090518  75.2863764  27.4046961  58.8258039  75.8285444  27.4985185
  60.3083263  75.8037744  27.8041202  70.7716925  66.7998759  31.6899458
  70.7606801  67.6823475  31.3193391  69.9034304  66.4470310  31.4953995
  62.2799421  75.9478828  36.0502298  62.9927394  76.5826293  35.9778199
  61.7889450  76.0442694  35.2342300  64.0016948  69.8530081  27.6219589
  63.0673227  69.9731543  27.4524294  64.1793617  68.9502548  27.3579599
  67.3889500  65.6947400  28.1569624  67.8549952  66.5275392  28.0829926
  67.8397000  65.2292382  28.8614882  65.4565731  72.0391221  25.1555776
  65.7325575  71.9247816  26.0649650  64.5870230  71.6408706  25.1167949
  65.3606162  58.0627987  32.1960525  64.4469242  58.2932214  32.3642732
  65.7899264  58.1466431  33.0474557  65.1312621  66.2517879  34.6960419
  64.4784071  66.4993786  34.0412872  65.5093001  65.4382017  34.3622896
  62.0919795  76.2877572  28.7988589  62.2742189  75.4699228  29.2616342
  62.9152781  76.5045264  28.3613479  62.4261960  75.2145757  26.0603638
  62.9549727  74.7038212  25.4473800  62.6890180  74.8988288  26.9249171
  52.9279053  73.2309627  33.8038971  53.5132490  72.4853315  33.9366875
  52.7303891  73.5413583  34.6875635  55.7817708  76.2660874  28.8201414
  55.1128084  76.7507002  28.3365454  55.6430578  76.5130094  29.7344792
  59.9222977  78.3004618  35.4184072  60.4741285  78.4636239  36.1833157
  60.2629170  78.8909055  34.7464097  63.0591364  76.2486593  32.4047754
  62.9342504  75.4476333  31.8958700  63.7170455  76.7432786  31.9161724
  65.1226272  74.0495613  34.0327304  64.1756608  73.9300964  33.9605631
  65.4709046  73.1618111  34.1153566  62.1272706  73.8448329  30.2331657
  61.9797668  72.9165037  30.4139227  62.9526199  73.8668420  29.7488732
  65.7306828  74.6676888  31.3196529  66.6553375  74.4619749  31.1820980
  65.5622131  74.4193289  32.2285871  65.5202144  75.1862556  26.6758621
  65.6939021  74.6208978  25.9232473  66.0131035  75.9863450  26.4938111
  71.3741535  67.9498979  28.2948920  71.8172681  67.2006304  27.8968044
  70.4968045  67.9409115  27.9122652  66.5077316  74.5029320  23.7755519
  67.2028221  75.1236013  23.9942834  66.8500466  73.6524671  24.0507897
  68.4068739  71.9529025  25.3042850  68.9320064  72.2916298  24.5792170
  68.3191092  71.0176041  25.1205984  60.0688788  75.8663099  37.4332726
  60.3775915  75.6212246  38.3055426  60.8664270  76.0709738  36.9451597
  60.0909400  78.0201009  29.6638103  59.6514391  77.5277387  30.3570960
  60.8417517  77.4773976  29.4230178  52.5701739  74.2112550  29.6662731
  53.3959759  73.9116321  29.2861375  52.2195791  73.4420172  30.1152520
  57.5383272  73.5639018  31.7360405  56.9163282  72.9009723  31.4362632
  58.2088139  73.5900150  31.0534052  50.7710344  72.1298876  30.6251665
  49.9342253  71.7021050  30.4435666  50.7433990  72.3231319  31.5622456
  68.0962646  72.5861929  40.6094048  67.3058189  72.5686068  40.0698547
  67.8596000  73.1250223  41.3643084  68.2160521  69.4354396  37.9226776
  68.2658526  69.2704403  38.8642299  68.1074444  68.5681655  37.5324657
  57.0996779  72.1142941  25.2118865  57.2484900  72.7978406  24.5585538
  57.9063223  72.0948031  25.7268321  65.5064283  65.4185324  39.2386083
  66.4074146  65.2791788  38.9470081  65.5812257  65.5839778  40.1784260
  69.7178717  71.8551337  38.1668798  69.4263526  72.2181318  39.0032259
  69.1050849  71.1418345  37.9882130  70.9174400  69.4204217  30.6871368
  71.7521291  69.8594021  30.8508928  71.0533529  68.9442870  29.8679614
  67.9665906  66.9783952  36.6348856  68.4420027  67.1711598  35.8267707
  67.0431471  67.0343137  36.3892239  54.8549412  68.1408119  26.2179934
  54.6095454  67.2370449  26.4160144  55.0245327  68.1425269  25.2759412
  62.5446122  59.0131795  35.6004690  63.0628066  59.7492822  35.2751178
  62.1901255  59.3195789  36.4351449  54.1245060  63.8736476  23.7166096
  53.4314305  63.9480831  23.0606132  53.8796812  63.1096820  24.2387612
  60.5992185  74.6091072  22.6830613  60.0266152  75.2281259  22.2301084
  61.1724978  75.1590433  23.2170535  66.6667575  63.8549712  34.8677161
  67.6184998  63.9547809  34.8889385  66.4971025  63.0627980  35.3775246
  64.6881954  60.9405295  35.0536562  64.0931886  61.2210308  34.3583051
  64.4031651  61.4299196  35.8253303  63.8189445  74.8928222  23.8139195
  64.7520118  74.8273783  24.0172070  63.7312657  75.7284489  23.3553728
  66.4477461  74.2094092  20.7743142  66.3691093  73.8753956  21.6678900
  67.2687128  74.7015860  20.7734615  69.1455652  67.0755831  33.9819461
  69.1131973  66.1371832  34.1679145  69.7556276  67.1539868  33.2485286
  60.9838983  65.9451884  20.0246665  61.9298088  65.8158093  20.0935083
  60.6053228  65.2066546  20.5016093  69.2950141  63.8666875  34.0277744
  68.7789190  63.0825331  33.8407673  70.1790089  63.5385591  34.1924264
  66.9560868  57.6107890  29.9873557  66.7585689  57.3022979  30.8716889
  67.5660573  58.3369529  30.1171487  74.9632202  68.1371838  33.1225498
  75.6935591  67.8757126  33.6833201  74.3539148  67.4000560  33.1627566
  73.0447499  66.2779701  33.7199949  72.3180663  66.1435666  33.1116441
  72.6294786  66.5856529  34.5256667  59.1681900  63.8701861  19.9601550
  58.2613356  63.5734973  20.0364264  59.4457881  63.5731679  19.0935837
  57.9380685  60.7288796  20.1013530  58.7999849  61.0543694  20.3609347
  58.1231029  59.9420292  19.5886595  66.0913322  59.6017322  27.2448753
  65.5111991  60.2602126  26.8626805  65.8249254  58.7794667  26.8336170
  64.5416888  59.0022380  29.4470073  65.0416666  59.1138915  28.6384392
  65.1852496  58.6983433  30.0870881  51.8684843  68.7429389  30.2559733
  51.8455531  68.8417077  29.3041616  52.1785480  69.5894540  30.5776899
  64.8738200  61.7617413  26.3005101  63.9864055  62.0467063  26.0825296
  65.2892189  61.6011176  25.4532378  68.2252736  61.7863934  30.0159440
  69.0013126  62.2760386  30.2884057  67.5000870  62.2121988  30.4731310
  70.6625294  62.4991553  31.0733381  71.2569785  62.2587289  30.3626689
  70.7351878  61.7798684  31.7006917  52.8822450  76.3425164  31.3876545
  52.7476918  75.5825565  30.8214544  52.4654512  77.0666064  30.9205334
  64.0181413  71.5262088  20.3953121  64.7217263  71.7312090  21.0110776
  63.2944062  72.0938849  20.6602204  64.8479223  67.2771949  26.5155391
  64.7914425  67.7340500  25.6763023  65.4007566  66.5162633  26.3378234
  68.6584029  63.0661681  27.3405510  68.4020963  62.6658316  28.1713718
  68.0336897  63.7805475  27.2155650  72.9696367  65.8057754  29.8476802
  72.4095925  65.8750943  30.6208364  72.3639870  65.6298739  29.1276298
  56.0391576  77.2394481  31.5994988  55.9223960  78.1839913  31.4973678
  55.2184022  76.9368043  31.9880787  65.9268110  71.9644617  22.4451581
  66.7613714  71.5325815  22.2629056  65.7652453  71.7926630  23.3728475
  65.5814003  68.4676730  23.8107920  65.5262806  68.3021001  22.8696364
  64.9560058  69.1752763  23.9670110  57.0646090  77.8922743  34.8150917
  57.9673337  77.9246353  35.1317411  56.8383460  76.9623194  34.8297252
  58.8199692  76.6453729  31.4760995  57.8695323  76.6455591  31.3625367
  59.1232178  75.8986464  30.9597030  74.5552386  82.4814268  32.5406758
  75.1930795  82.3621015  31.8370098  74.4373228  83.4295112  32.5994710
  71.3642092  82.4341696  32.4768282  71.0260603  82.3182761  31.5888817
  72.2331860  82.0332861  32.4569288  67.2228907  84.2877172  28.4665173
  66.6593773  84.1967109  27.6981461  67.1081303  83.4677077  28.9467666
  71.8461875  83.5876548  38.4354488  71.8350516  83.1929346  37.5634991
  72.0082514  82.8542620  39.0288259  64.7693339  85.7828364  31.3049394
  65.5614631  85.4419189  30.8895693  65.0089990  85.8923339  32.2251547
  66.7284093  85.0437277  24.1766772  67.5014969  84.4966264  24.0379648
  67.0809492  85.9081527  24.3881234  68.5669136  86.3713659  37.3833672
  68.2759002  87.2759290  37.2680338  69.2026120  86.4130187  38.0977741
  69.4925343  83.7490508  33.9735031  70.0888915  83.5246530  33.2591994
  69.5500314  83.0075253  34.5760479  74.1093654  80.2065722  29.6159966
  74.8956743  79.7885145  29.2650383  74.3732358  81.1111814  29.7841614
  79.5102081  80.1440955  30.5192944  80.2427253  79.5740172  30.7530774
  78.7541437  79.7562555  30.9599450  68.7846660  83.1058049  24.0109597
  68.6682918  82.4302953  24.6790682  68.8948920  82.6190423  23.1941750
  71.1278201  82.5668196  27.7156287  70.7636408  82.0398817  28.4269208
  71.9845317  82.1766665  27.5422772  77.0327501  73.8562529  34.9787553
  76.7010826  74.7257940  34.7548768  76.4373115  73.5398813  35.6581583
  70.7683688  77.5958096  22.7117635  70.9358090  78.4638332  23.0788106
  70.5780857  77.7585378  21.7878924  66.9771502  82.5088872  30.4120170
  66.0521999  82.3765086  30.6197862  67.2255916  83.2883091  30.9090112
  76.9256165  78.5757615  32.0580903  76.0173042  78.5073024  31.7639664
  76.8743761  79.0529560  32.8862728  70.7472909  80.0515754  23.6964302
  70.6272534  80.4972804  24.5349782  70.0525497  80.4001071  23.1377840
  64.3380314  82.1522145  31.2463959  64.4672695  82.4056624  32.1603371
  63.6577765  82.7449853  30.9268614  70.9997031  79.9947261  40.0015800
  70.2230365  80.5541181  39.9918665  71.6387594  80.4804044  40.5230670
  78.7917811  76.7774054  33.8358777  78.1492191  77.0706587  33.1898571
  78.2872740  76.6626974  34.6411973  69.2543403  82.8032714  39.5633767
  69.9958087  83.3417758  39.2868591  68.5480388  83.4299003  39.7205319
  74.7298743  84.9461855  38.1605929  75.1382099  84.5044265  37.4160561
  74.0076004  84.3714482  38.4140121  71.0829813  79.8834461  35.5339485
  71.9291008  80.3073875  35.6774134  71.0228450  79.2268086  36.2278049
  74.2329258  77.5438830  37.1920659  73.9890190  78.2980890  36.6554935
  74.5089188  77.9224177  38.0267906  73.7893950  76.6995263  32.7734497
  72.9278429  76.9976516  33.0651234  73.8156384  76.9165662  31.8415529
  70.6055519  85.2437453  29.1808303  71.0693865  85.5225156  28.3912925
  70.3412317  84.3420898  28.9981393  67.4979600  84.7908935  32.1188066
  68.0680957  85.2196203  31.4805550  68.0887712  84.5091520  32.8172251
  69.5424405  81.3660606  25.9897868  70.2448448  81.8181649  26.4571794
  69.2105034  80.7244425  26.6177761  67.9904767  79.9572362  40.3649077
  67.3603427  80.6388643  40.5984474  67.8840855  79.8455444  39.4202215
  63.2849739  79.6244158  31.2915001  62.4948793  79.8801687  30.8155112
  63.7760986  80.4392496  31.3967042  65.2364484  79.9888738  28.2498478
  64.4395648  80.1007432  28.7681974  65.0090077  80.3275390  27.3839368
  71.0670152  86.5133441  36.1980993  71.1314585  86.9753848  37.0339164
  70.3581076  85.8830806  36.3263302  61.5687442  79.8774649  33.7229992
  61.8195480  80.7621659  33.9887568  62.1046990  79.6979250  32.9505084
  67.2685509  74.2593128  42.7274328  66.8752455  73.7059327  43.4021972
  68.0851650  74.5703707  43.1180846  64.2347567  85.6976986  26.6387898
  64.7472088  86.4920237  26.7893463  64.8870280  85.0003277  26.5721499
  66.0442452  88.8142743  28.7210651  66.2209080  89.7360707  28.5331635
  66.8399285  88.5001162  29.1505031  70.1853470  75.6751007  40.3194585
  70.9263184  76.2758160  40.2399047  70.4171393  74.9328645  39.7612627
  65.3294808  80.8607374  38.5972814  65.2148324  79.9592632  38.8979913
  64.4739326  81.1071071  38.2457631  70.9640938  86.5972044  39.0665225
  71.4969275  85.8360332  38.8364533  70.4355019  86.3045696  39.8089379
  74.1310633  71.7032110  34.5958866  73.7874903  72.5933752  34.5197977
  74.4989596  71.5133768  33.7328451  62.1996484  84.0265641  27.4147468
  63.0371706  84.4362649  27.1981176  62.3774752  83.0865083  27.3847662
  71.6808027  76.5390422  28.1616540  70.8249623  76.1497272  27.9822179
  72.0934979  76.6182383  27.3016325  73.2107174  74.0736765  32.5608100
  72.7071969  74.0366900  31.7475905  73.5037781  74.9829508  32.6204756
  69.4550060  74.1575495  31.5674281  70.3203056  73.9618304  31.2080171
  69.5227568  73.9285847  32.4943638  73.8847219  79.5667813  24.9291083
  73.5797355  79.8813963  25.7801226  74.8377661  79.6449233  24.9718416
  72.3293651  85.7258037  26.5784037  71.8015013  84.9910796  26.2657274
  71.8281154  86.5032713  26.3324005  67.0612379  76.3877703  28.9390648
  67.6356131  76.1652884  28.2063841  67.6483361  76.4566397  29.6919249
  76.1191956  82.2751430  29.7455025  76.6323838  82.9081422  30.2476734
  76.7693180  81.6752625  29.3798385  67.3881966  78.4182164  22.9586533
  66.5519278  78.7556851  23.2795808  67.2486735  78.2831144  22.0213670
  69.3635046  73.2618952  27.6665718  68.7099459  72.9467969  27.0422332
  69.3215521  72.6394692  28.3925540  72.5972787  79.7500885  31.9913365
  71.6795348  79.9715832  31.8335053  73.0132930  79.8247196  31.1325073
  73.3807834  81.1492301  27.1216045  74.1279653  81.6613698  26.8123167
  73.6499424  80.8276354  27.9820439  75.8286672  78.1849417  29.1034835
  75.0909428  77.6726804  29.4345077  76.0813445  77.7449799  28.2918112
  75.9298299  70.9625669  29.6976604  76.2357176  70.1023033  29.4102519
  76.6550904  71.5543290  29.4975598  62.2222655  81.3656356  28.0858202
  62.0247055  80.7725717  27.3609268  61.6669319  81.0608566  28.8034141
  70.2019379  81.2579462  30.2052795  70.2567988  80.3053299  30.1295272
  69.3910581  81.4138902  30.6894093  68.1411739  79.8756522  27.9643174
  67.3279604  80.1750693  28.3708366  68.6370733  79.4812211  28.6817656
  73.7385950  80.3398347  36.7958068  74.0935338  80.5669820  37.6552534
  74.3858082  80.6716723  36.1735323  67.6325813  77.4474878  33.5804409
  68.2725193  77.3063637  32.8827372  66.8003344  77.1609391  33.2043011
  68.4086117  86.7477308  29.6939401  69.2026716  86.2527628  29.4921976
  67.6977810  86.2195171  29.3307107  64.7168881  80.8920390  25.7699154
  63.7866469  80.8304845  25.9869116  64.8126353  80.3696343  24.9735795
  64.6354430  77.4175203  28.3577396  64.8961247  78.3320536  28.2486556
  65.4571602  76.9499645  28.5074009  66.1079355  78.8312960  35.5276220
  66.7802409  78.6230322  34.8788869  65.2809142  78.6335046  35.0881453
  72.0104927  75.4574901  37.5441881  71.3632842  76.1564850  37.4506358
  72.7805943  75.8911045  37.9118129  72.1869062  83.2955666  35.6038701
  73.1161122  83.4466825  35.4307668  71.7660092  83.3839686  34.7487347
  70.9857393  87.3206330  33.3737238  70.8468479  86.9525114  34.2463177
  70.1971990  87.8353970  33.2021196  66.5106852  82.1055563  36.2878657
  66.3726650  81.3735802  36.8890196  67.4211776  82.0164463  36.0062845
  69.1389153  81.8175522  35.7762337  69.8488772  81.1768714  35.7348955
  69.0958461  82.0688417  36.6988518  67.8518087  78.8040740  37.5957977
  67.3155444  78.3531478  38.2479573  67.2634795  78.9386649  36.8528441
  67.2620346  78.2629391  20.1584440  66.3849812  78.1418192  19.7946687
  67.7378099  77.4715470  19.9063329  58.7822486  83.0506551  30.2525947
  59.4693526  82.7368281  29.6646963  58.6270615  83.9547916  29.9793199
  63.5857208  77.9396748  34.6810971  63.5015397  77.3322417  33.9461381
  62.7639915  78.4305766  34.6820467  73.7580922  76.4250311  30.0481166
  74.2549622  75.6720274  29.7282236  72.9867904  76.4614628  29.4824375
  70.3415891  78.5667694  29.7752851  69.9713678  78.0138735  30.4633756
  70.8374983  77.9625828  29.2227851  78.2283254  81.0239318  28.1569624
  78.6943706  81.8567309  28.0829926  78.6790755  80.5584299  28.8614882
  76.1999917  73.3919905  32.1960525  75.2862997  73.6224132  32.3642732
  76.6293018  73.4758349  33.0474557  75.9706375  81.5809797  34.6960419
  75.3177826  81.8285704  34.0412872  76.3486755  80.7673935  34.3622896
  72.0193948  82.3229608  41.1826456  71.3434585  82.2223737  41.8528831
  72.8421582  82.1668822  41.6462453  63.7672808  88.5601544  33.8038971
  64.3526244  87.8145232  33.9366875  63.5697646  88.8705501  34.6875635
  58.3590462  81.1307145  32.5243414  58.3974562  80.5970735  33.3180533
  57.8530755  80.6042350  31.9054392  65.7381225  75.9771685  36.0205957
  65.8022551  76.8386516  35.6083354  65.6748345  75.3645687  35.2878315
  65.2133497  78.0494818  39.6678991  65.8405536  77.6671895  40.2816515
  64.3561416  77.8309020  40.0334683  61.9899040  79.8571247  25.5997346
  62.2852481  78.9481925  25.5464400  61.0887076  79.8358986  25.2778348
  65.5193287  77.9327243  31.5824894  64.7979873  78.5463211  31.4432368
  66.3086543  78.4685008  31.5041540  68.3219600  75.2681670  37.8565546
  68.8454002  75.5143966  38.6191855  68.1031934  76.1001705  37.4368684
  63.7186881  77.5385344  25.7236671  63.3899588  76.6582723  25.5411777
  64.0726252  77.4833013  26.6113060  66.8328705  77.8258314  26.0912149
  67.1724777  78.3544235  25.3690757  67.2800825  78.1638720  26.8670715
  69.5272145  76.2095365  35.5415217  69.1868966  75.4103178  35.9435897
  68.8211152  76.5097076  34.9692050  70.1788617  73.2944677  33.9942540
  71.0014687  72.8205155  33.8721430  70.4226681  74.0735161  34.4941226
  68.8196852  76.3232936  24.2905441  69.5405214  76.7014189  23.7869158
  68.1962156  77.0421813  24.3940419  72.9627975  77.0278085  25.2263774
  73.1791589  77.9102723  24.9252602  72.4822042  76.6364298  24.4969416
  67.7027196  79.9863798  31.8034518  67.5571777  80.3004101  32.6958800
  67.2252400  80.6048698  31.2505417  69.5623579  76.9766346  31.8515408
  69.5485148  76.0807439  31.5147706  70.2796007  76.9837010  32.4853694
  71.4149710  77.4103686  33.8968535  71.1567487  78.3320757  33.8952866
  70.8834750  77.0134121  34.5868999  62.1772858  82.5269142  34.7422180
  61.6326326  83.3028950  34.8742454  63.0552208  82.8739947  34.5841301
  68.9660475  75.8580726  27.1202978  69.0876386  74.9297372  27.3193866
  68.6762517  75.8719412  26.2081293  71.8351665  73.5435637  30.2569698
  71.8573362  73.6074970  29.3021677  72.2519724  72.7040145  30.4510204
  62.9638880  81.6539039  37.6352336  62.2220616  81.8021674  38.2216967
  62.6431624  81.9147304  36.7719086  63.4095494  89.5404467  29.6662731
  64.2353514  89.2408239  29.2861375  63.0589546  88.7712090  30.1152520
  68.3777027  88.8930936  31.7360405  67.7557036  88.2301641  31.4362632
  69.0481894  88.9192067  31.0534052  61.6104099  87.4590794  30.6251665
  60.7736007  87.0312968  30.4435666  61.5827744  87.6523237  31.5622456
  68.4501554  77.3712724  41.3292911  68.4989710  78.2474846  40.9470680
  68.9924069  76.8290117  40.7564554  76.3458037  80.7477241  39.2386083
  77.2467900  80.6083706  38.9470081  76.4206012  80.9131696  40.1784260
  70.6800843  78.1244096  38.0839269  69.8104152  78.4177662  37.8121858
  70.9160323  78.7084541  38.8046533  65.6943167  83.4700037  26.2179934
  65.4489209  82.5662367  26.4160144  65.8639081  83.4717187  25.2759412
  73.3839877  74.3423713  35.6004690  73.9021820  75.0784740  35.2751178
  73.0295009  74.6487706  36.4351449  64.9638814  79.2028394  23.7166096
  64.2708059  79.2772749  23.0606132  64.7190566  78.4388738  24.2387612
  73.6352471  70.7623995  31.1205586  73.9154225  70.0947184  31.7466013
  74.4203078  70.9553091  30.6080250  77.5061329  79.1841629  34.8677161
  78.4578752  79.2839727  34.8889385  77.3364780  78.3919898  35.3775246
  75.5275709  76.2697213  35.0536562  74.9325641  76.5502225  34.3583051
  75.2425405  76.7591114  35.8253303  80.1343895  79.1958793  34.0277744
  79.6182944  78.4117249  33.8407673  81.0183844  78.8677509  34.1924264
  77.7954622  72.9399808  29.9873557  77.5979443  72.6314896  30.8716889
  78.4054328  73.6661447  30.1171487  71.7071430  85.3261548  41.4847322
  72.6274440  85.5040147  41.6787369  71.6721013  84.3817594  41.3327021
  60.9253595  80.5200142  30.4100597  60.6056380  79.6665450  30.1174971
  60.3787024  80.7348720  31.1658564  64.7033503  83.2362583  34.1270103
  64.9219513  84.1679691  34.1458137  65.1159277  82.8770557  34.9124907
  71.6237721  73.7430668  26.1145792  70.8138449  73.3977753  26.4901038
  72.3122138  73.4338212  26.7033403  73.5528269  72.8208715  27.7370088
  74.1059308  73.2404168  28.3960111  73.7898355  71.8944463  27.7793044
  69.5761368  78.8095789  43.5172852  69.4758095  79.7590146  43.4484943
  69.3582910  78.4814028  42.6448922  68.7774440  76.0580714  20.1013530
  69.6393604  76.3835612  20.3609347  68.9624784  75.2712210  19.5886595
  60.7941855  84.1403053  32.3793718  60.1005327  83.7257006  31.8663673
  61.5414846  84.1823590  31.7827137  76.9307076  74.9309240  27.2448753
  76.3505745  75.5894044  26.8626805  76.6643009  74.1086585  26.8336170
  75.3810642  74.3314298  29.4470073  75.8810421  74.4430832  28.6384392
  76.0246250  74.0275351  30.0870881  69.4392638  82.2392927  42.3337914
  68.9559720  83.0393288  42.5401803  69.5253577  82.2500872  41.3805358
  62.7078598  84.0721307  30.2559733  62.6849286  84.1708994  29.3041616
  63.0179234  84.9186458  30.5776899  65.3665976  86.1297462  34.3706348
  66.3209229  86.0981405  34.3036279  65.1678499  85.6688086  35.1856573
  65.9565358  84.6998578  36.9377145  66.7758247  85.1942657  36.9611983
  66.2302166  83.7830546  36.9094713  75.7131954  77.0909331  26.3005101
  74.8257809  77.3758981  26.0825296  76.1285943  76.9303094  25.4532378
  79.0646490  77.1155852  30.0159440  79.8406880  77.6052304  30.2884057
  78.3394624  77.5413906  30.4731310  81.5019049  77.8283471  31.0733381
  82.0963540  77.5879207  30.3626689  81.5745633  77.1090601  31.7006917
  63.7216205  91.6717082  31.3876545  63.5870672  90.9117483  30.8214544
  63.3048267  92.3957982  30.9205334  75.6872978  82.6063866  26.5155391
  75.6308179  83.0632418  25.6763023  76.2401320  81.8454551  26.3378234
  79.4977784  78.3953598  27.3405510  79.2414718  77.9950234  28.1713718
  78.8730652  79.1097392  27.2155650  61.2100272  79.0336712  37.6369342
  61.8559136  78.5235666  38.1256567  61.0017423  79.7705394  38.2112768
  69.7303883  73.2976757  23.3893239  69.7182552  74.2418597  23.5461509
  70.6227304  73.1146902  23.0952700  73.5456002  69.8919533  27.6439175
  72.7788398  69.3378020  27.7895858  73.9566707  69.9641402  28.5053327
  65.5497763  76.1804329  41.7344357  66.4129225  75.8241134  41.9447681
  64.9763174  75.8418224  42.4219761  28.4886858  -0.7229000  25.1599794
  28.4775499  -1.1176202  24.2880298  28.6507498  -1.4562928  25.7533566
  25.2094119   2.0608111  24.1078978  24.9183985   2.9653742  23.9925645
  25.8451104   2.1024639  24.8223048  30.1684004   1.7469527  21.1028772
  29.8684727   2.6494566  20.9944579  29.8235064   1.4801710  21.9549925
  27.6422014  -4.3158287  26.7261107  26.8655348  -3.7564367  26.7163971
  28.2812577  -3.8301504  27.2475977  25.8968386  -1.5072834  26.2879074
  26.6383071  -0.9687790  26.0113897  25.1905372  -0.8806545  26.4450625
  31.3723726   0.6356306  24.8851235  31.7807082   0.1938717  24.1405868
  30.6500987   0.0608934  25.1385428  32.8292704  -0.2228106  22.5943231
  33.0409599   0.4203654  21.9177612  32.7822452  -1.0565789  22.1265161
  33.9438532   2.6543849  20.7665589  34.7655976   2.2524037  20.4848270
  33.9400935   2.5512084  21.7181704  27.7095135   2.2027893  22.9226299
  27.7739568   2.6648300  23.7584471  27.0006059   1.5725258  23.0508609
  29.0511629   4.4919567  26.9205622  28.6075484   3.7055945  26.6026526
  29.7128843   4.6798717  26.2549512  31.1492867   4.7722367  24.9487023
  31.1311343   5.5931248  24.4567292  32.0712788   4.6476442  25.1737164
  27.6065922   2.2866496  25.7910531  28.1394258   1.5254784  25.5609839
  27.0780003   1.9940148  26.5334686  36.1378050   1.2187761  19.2363975
  36.5714557   1.1263051  20.0847029  36.8509631   1.1945262  18.5983991
  29.8705945   4.8189856  20.7697076  29.9242967   5.3880792  21.5374792
  29.0020726   4.9891741  20.4051113  36.9993600   1.2611462  21.7696860
  37.1929490   2.1657273  22.0156135  36.8994218   0.8018881  22.6035445
  32.0608708   1.4118205  27.3437741  31.9094215   1.1828757  26.4267825
  32.0513388   2.3688806  27.3569086  33.7700915   4.4437327  25.4214223
  33.7113461   3.7596548  24.7544806  34.1720433   5.1856317  24.9694849
  33.7718322   2.4076911  23.6528203  32.8845101   2.0702833  23.7754601
  34.3416873   1.6759943  23.8896968  27.3019476   7.0678364  20.6189446
  27.2289647   7.8733335  21.1308750  26.8596869   7.2670329  19.7937467
  29.7618159   6.9665198  22.7747604  30.4746131   7.6012663  22.7023506
  29.2708188   7.0629064  21.9587606  24.8130073   4.7159641  23.5953175
  25.5139532   5.3496124  23.7482569  24.3425188   5.0574373  22.8348815
  28.6618932  -1.9875940  27.9071763  27.9859569  -2.0881811  28.5774138
  29.4846566  -2.1436727  28.3707760  27.4041715   9.3190987  22.1429379
  27.9560023   9.4822609  22.9078464  27.7447908   9.9095425  21.4709404
  32.2552589   4.1452245  27.9978033  32.7992493   4.7582203  27.5032988
  31.6739434   4.7031823  28.5145046  30.5410102   7.2672963  19.1293061
  30.4161241   6.4662702  18.6204006  31.1989193   7.7619156  18.6407031
  32.6045010   5.0681983  20.7572611  31.6575346   4.9487334  20.6850938
  32.9527783   4.1804481  20.8398872  33.2125565   5.6863258  18.0441836
  34.1372113   5.4806119  17.9066287  33.0440869   5.4379659  18.9531177
  27.5507526   6.8849469  24.1578033  27.8594652   6.6398615  25.0300733
  28.3483008   7.0896107  23.6696903  35.5781383   3.6048299  27.3339354
  34.7876927   3.5872438  26.7943854  35.3414738   4.1436592  28.0888391
  35.6979258   0.4540765  24.6472083  35.7477263   0.2890773  25.5887606
  35.5893182  -0.4131976  24.2569964  32.9883021  -3.5628307  25.9631390
  33.8892884  -3.7021842  25.6715387  33.0630995  -3.3973852  26.9029567
  37.1997455   2.8737707  24.8914104  36.9082263   3.2367687  25.7277565
  36.5869586   2.1604715  24.7127437  35.4484643  -2.0029679  23.3594162
  35.9238765  -1.8102032  22.5513014  34.5250209  -1.9470493  23.1137546
  42.4450940  -0.8441792  19.8470804  43.1754329  -1.1056504  20.4078508
  41.8357886  -1.5813070  19.8872872  40.5266237  -2.7033930  20.4445256
  39.7999401  -2.8377965  19.8361747  40.1113524  -2.3957101  21.2501974
  28.3496414   1.0156000  28.2092629  29.2699423   1.1934599  28.4032675
  28.3145997   0.0712045  28.0572328  26.0817622  -2.0712621  29.0583220
  25.5984703  -1.2712261  29.2647109  26.1678561  -2.0604676  28.1050664
  30.3778648   1.7912011  29.8606790  31.2469807   1.9652664  29.4993424
  29.8985399   2.6106428  29.7382519  24.5464828   8.9109112  21.5396223
  25.4492075   8.9432723  21.8562718  24.3202198   7.9809563  21.5542559
  42.0371123  13.5000637  19.2652064  42.6749533  13.3807385  18.5615404
  41.9191966  14.4481481  19.3240016  38.8460830  13.4528066  19.2013589
  38.5079341  13.3369130  18.3134124  39.7150598  13.0519231  19.1814595
  34.7047645  15.3063542  15.1910480  34.1412510  15.2153479  14.4226768
  34.5900040  14.4863446  15.6712972  39.3280613  14.6062917  25.1599794
  39.3169253  14.2115716  24.2880298  39.4901252  13.8728990  25.7533566
  32.2512077  16.8014734  18.0294700  33.0433369  16.4605558  17.6141000
  32.4908727  16.9109709  18.9496854  40.2847204  18.9734510  10.5024945
  39.6335184  19.5588590  10.1158959  41.0791567  19.5040705  10.5619982
  36.0487874  17.3900029  24.1078978  35.7577740  18.2945660  23.9925645
  36.6844858  17.4316557  24.8223048  36.9744081  14.7676878  20.6980338
  37.5707653  14.5432900  19.9837301  37.0319052  14.0261623  21.3005786
  41.5912392  11.2252091  16.3405272  42.3775481  10.8071514  15.9895689
  41.8551096  12.1298183  16.5086921  41.7622469  16.6624942  11.0393929
  41.1268302  16.7359568  11.7514834  41.4319876  17.2518540  10.3613008
  46.9920819  11.1627324  17.2438251  47.7245991  10.5926541  17.4776080
  46.2360175  10.7748925  17.6844756  38.6096939  13.5854566  14.4401593
  38.2455146  13.0585187  15.1514515  39.4664055  13.1953035  14.2668079
  44.5146239   4.8748899  21.7032859  44.1829564   5.7444310  21.4794074
  43.9191853   4.5585183  22.3826890  41.0077759  17.0761445  21.1028772
  40.7078482  17.9786483  20.9944579  40.6628818  16.8093628  21.9549925
  34.4590240  13.5275241  17.1365476  33.5340737  13.3951455  17.3443168
  34.7074653  14.3069461  17.6335419  44.4074903   9.5943985  18.7826209
  43.4991780   9.5259393  18.4884970  44.3562498  10.0715930  19.6108035
  31.8199051  13.1708515  17.9709266  31.9491433  13.4242994  18.8848677
  31.1396503  13.7636223  17.6513921  35.9898539  23.8405765  14.0699740
  35.9122568  24.7913590  14.1488220  35.3860182  23.4951637  14.7274666
  38.4815768  11.0133630  26.7261107  37.7049102  11.5727550  26.7163971
  39.1206331  11.4990413  27.2475977  46.2736549   7.7960423  20.5604083
  45.6310929   8.0892956  19.9143878  45.7691478   7.6813343  21.3657280
  43.9276713  11.5423596  11.2489943  44.8394569  11.7750983  11.0737640
  43.4186360  12.1260641  10.6865021  36.7362141  13.8219084  26.2879074
  37.4776825  14.3604128  26.0113897  36.0299126  14.4485372  26.4450625
  42.2117480  15.9648224  24.8851235  42.6200836  15.5230635  24.1405868
  41.4894742  15.3900852  25.1385428  38.5648550  10.9020831  22.2584792
  39.4109746  11.3260244  22.4019441  38.5047188  10.2454455  22.9523355
  42.5346295  16.5249415  18.6403524  41.9055157  16.6895129  17.9379592
  42.1471957  16.9391024  19.4114488  46.4135527  17.4603853  15.9947888
  45.7286565  17.8402754  15.4444921  46.4979376  18.0699179  16.7279836
  41.7147996   8.5625199  23.9165966  41.4708928   9.3167260  23.3800241
  41.9907926   8.9410547  24.7513213  43.6686458  15.1063812  22.5943231
  43.8803354  15.7495572  21.9177612  43.6216207  14.2726128  22.1265161
  41.2712687   7.7181632  19.4979803  40.4097166   8.0162886  19.7896541
  41.2975122   7.9352031  18.5660836  38.0874257  16.2623823  15.9053609
  38.5512602  16.5411526  15.1158232  37.8231055  15.3607267  15.7226700
  34.9798338  15.8095304  18.8433372  35.5499695  16.2382573  18.2050857
  35.5706450  15.5277889  19.5417558  37.0243143  12.3846975  12.7143174
  37.7267186  12.8368019  13.1817101  36.6923771  11.7430794  13.3423067
  35.4723504  10.9758732  27.0894384  34.8422165  11.6575013  27.3229780
  35.3659592  10.8641813  26.1447522  30.7668477  10.6430528  18.0160308
  29.9767531  10.8988056  17.5400418  31.2579724  11.4578866  18.1212348
  44.7832286  17.9835767  20.7665589  45.6049730  17.5815954  20.4848270
  44.7794689  17.8804001  21.7181704  38.5488890  17.5319810  22.9226299
  38.6133322  17.9940218  23.7584471  37.8399814  16.9017175  23.0508609
  29.0506180  10.8961018  20.4475299  29.3014218  11.7808028  20.7132875
  29.5865728  10.7165620  19.6750390  52.8738279  14.3274516  17.1150560
  52.1201988  13.7581914  16.9594565  53.0085821  14.2937180  18.0621195
  38.2636908  19.1987918  12.7905279  38.1282582  20.0439454  13.2190127
  38.8046720  19.4007195  12.0271213  34.7504247   5.2779498  29.4519635
  34.3571193   4.7245696  30.1267279  35.5670387   5.5890076  29.8426152
  31.7166305  16.7163356  13.3633205  32.2290825  17.5106606  13.5138769
  32.3689018  16.0189646  13.2966806  33.5261190  19.8329112  15.4455958
  33.7027818  20.7547077  15.2576942  34.3218023  19.5187531  15.8750338
  37.6672208   6.6937377  27.0439891  38.4081922   7.2944530  26.9644354
  37.8990131   5.9515015  26.4857934  32.8113546  11.8793744  25.3218121
  32.6967061  10.9779001  25.6225220  31.9558064  12.1257441  24.9702937
  39.8905384  19.8211484  26.9205622  39.4469238  19.0347863  26.6026526
  40.5522597  20.0090635  26.2549512  34.6492505  21.3507286  21.4466300
  35.1999930  21.2224349  20.6743294  33.8103981  21.6502175  21.0961193
  41.9886622  20.1014284  24.9487023  41.9705097  20.9223165  24.4567292
  42.9106542  19.9768360  25.1737164  38.4459676  17.6158414  25.7910531
  38.9788013  16.8546702  25.5609839  37.9173757  17.3232066  26.5334686
  41.6129371   2.7218480  21.3204173  41.2693640   3.6120121  21.2443284
  41.9808334   2.5320137  20.4573758  29.6815222  15.0452010  14.1392775
  30.5190444  15.4549019  13.9226483  29.8593489  14.1051452  14.1092969
  39.1626765   7.5576792  14.8861846  38.3068361   7.1683642  14.7067485
  39.5753717   7.6368752  14.0261632  40.6925911   5.0923135  19.2853406
  40.1890707   5.0553270  18.4721211  40.9856518   6.0015878  19.3450063
  36.9368797   5.1761865  18.2919588  37.8021794   4.9804673  17.9325477
  37.0046306   4.9472216  19.2188945  46.5513928  15.4659445  11.7629782
  45.7743371  15.1270605  11.3184944  47.2305409  15.4712069  11.0884747
  41.3665957  10.5854183  11.6536389  41.0616093  10.9000332  12.5046532
  42.3196399  10.6635603  11.6963722  39.8112389  16.7444406  13.3029343
  39.2833750  16.0097166  12.9902581  39.3099892  17.5219083  13.0569312
  44.7905235  14.9393427  18.4196390  44.1328909  15.6292688  18.5076518
  45.5945634  15.3289859  18.7630376  43.6010694  13.2937799  16.4700331
  44.1142575  13.9267791  16.9722041  44.2511918  12.6938995  16.1043691
  40.8633068  23.2722124   9.2261002  40.1894767  23.5753820   9.8345960
  41.2498890  24.0751204   8.8766459  40.0791525  10.7687255  18.7158672
  39.1614086  10.9902202  18.5580360  40.4951668  10.8433565  17.8570379
  40.8626572  12.1678671  13.8461352  41.6098391  12.6800068  13.5368474
  41.1318162  11.8462723  14.7065746  39.1353222  14.6637211  10.8288306
  38.2264442  14.3796244  10.9260776  39.1648306  15.0836290   9.9691613
  44.3672490  18.2743801  14.5979474  43.9134817  17.4334711  14.6544664
  43.7366457  18.9105199  14.9354254  43.3105409   9.2035787  15.8280141
  42.5728166   8.6913173  16.1590384  43.5632183   8.7636169  15.0163418
  42.8105429  20.1120298  15.5329292  43.1028403  20.6725355  14.8141658
  43.3204050  20.4048859  16.2882451  43.4117037   1.9812039  16.4221911
  43.7175914   1.1209402  16.1347826  44.1369642   2.5729659  16.2220905
  37.6838116  12.2765832  16.9298102  37.7386726  11.3239668  16.8540578
  36.8729319  12.4325271  17.4139400  35.6230476  10.8942892  14.6888481
  34.8098342  11.1937062  15.0953673  36.1189471  10.4998581  15.4062963
  37.7739054  20.8900649  16.6222745  37.7315233  21.1161495  15.6931277
  38.6901753  20.6564023  16.7708546  41.2204688  11.3584716  23.5203374
  41.5754076  11.5856189  24.3797840  41.8676819  11.6903093  22.8980630
  46.9502425  14.4803152  14.2252703  46.8120324  14.6704748  13.2973893
  46.5938644  15.2422535  14.6820755  35.1144551   8.4661247  20.3049716
  35.7543930   8.3250006  19.6072679  34.2822082   8.1795761  19.9288318
  46.9771805  16.5479679  19.2363975  47.4108311  16.4554968  20.0847029
  47.6903385  16.5237180  18.5983991  35.8904855  17.7663678  16.4184708
  36.6845454  17.2713998  16.2167283  35.1796547  17.2381541  16.0552414
  40.7099700  20.1481773  20.7697076  40.7636722  20.7172710  21.5374792
  39.8414481  20.3183658  20.4051113  33.5898093   9.8499329  22.2521527
  34.2621146   9.6416692  21.6034176  32.7627879   9.6521415  21.8126759
  47.8387354  16.5903380  21.7696860  48.0323244  17.4949190  22.0156135
  47.7387972  16.1310799  22.6035445  39.4923665   6.4761270  24.2687188
  38.8451580   7.1751220  24.1751664  40.2624680   6.9097414  24.6363436
  42.9002463  16.7410123  27.3437741  42.7487969  16.5120674  26.4267825
  42.8907142  17.6980724  27.3569086  39.6687799  14.3142035  22.3284007
  40.5979859  14.4653195  22.1552975  39.2478829  14.4026056  21.4732654
  38.4676131  18.3392700  20.0982545  38.3287217  17.9711484  20.9708483
  37.6790727  18.8540339  19.9266503  39.0624283  23.4401796  11.4408082
  39.2376039  22.9689839  12.2553704  38.3757071  24.0667562  11.6689342
  40.0181346  17.7174302  17.4871383  39.6831179  17.6775072  18.3829033
  39.5185292  17.0519018  17.0141793  33.9925590  13.1241932  23.0123964
  33.8545388  12.3922171  23.6135503  34.9030514  13.0350832  22.7308152
  36.6207891  12.8361892  22.5007644  37.3307509  12.1955084  22.4594262
  36.5777199  13.0874787  23.4233824  44.6094670  19.7729245  25.4214223
  44.5507216  19.0888465  24.7544806  45.0114188  20.5148235  24.9694849
  35.3336825   9.8227110  24.3203283  34.7974182   9.3717848  24.9724879
  34.7453533   9.9573018  23.5773747  33.6285368  26.5891159  18.2147942
  33.8681967  27.2209683  18.8926960  32.7854565  26.2379199  18.5013301
  44.6112077  17.7368829  23.6528203  43.7238856  17.3994751  23.7754601
  45.1810628  17.0051860  23.8896968  26.2641224  14.0692921  16.9771254
  26.9512264  13.7554651  16.3892269  26.1089353  14.9734285  16.7038505
  31.0675946   8.9583117  21.4056278  30.9834135   8.3508787  20.6706688
  30.2458652   9.4492136  21.4065774  38.1413230  22.3970281  20.6189446
  38.0683402  23.2025253  21.1308750  37.6990623  22.5962247  19.7937467
  37.9303010  21.6342051  14.1292267  37.1470532  22.1763732  14.2230492
  38.6295755  22.1516031  14.5286508  41.2399660   7.4436681  16.7726473
  41.7368359   6.6906643  16.4527543  40.4686641   7.4800997  16.2069682
  49.0929417  13.1477046  18.4144764  49.0819294  14.0301762  18.0438697
  48.2246797  12.7948597  18.2199301  40.6011914  22.2957115  22.7747604
  41.3139886  22.9304580  22.7023506  40.1101942  22.3920981  21.9587606
  42.3229441  16.2008368  14.3464896  41.3885719  16.3209831  14.1769600
  42.5006109  15.2980835  14.0824906  37.8234629   9.5854064  16.4998157
  37.4532416   9.0325104  17.1879063  38.3193721   8.9812197  15.9473157
  45.7101992  12.0425687  14.8814930  46.1762444  12.8753679  14.8075233
  46.1609492  11.5770669  15.5860189  35.6523827  20.0451559  23.5953175
  36.3533287  20.6788042  23.7482569  35.1818942  20.3866290  22.8348815
  43.7778223  18.3869509  11.8801082  44.0538067  18.2726103  12.7894956
  42.9082722  17.9886993  11.8413255  43.6818655   4.4106274  18.9205832
  42.7681735   4.6410501  19.0888038  44.1111756   4.4944718  19.7719864
  43.4525113  12.5996166  21.4205726  42.7996563  12.8472074  20.7658178
  43.8305493  11.7860304  21.0868203  40.4132287  22.6355859  15.5233896
  40.5954682  21.8177515  15.9861648  41.2365273  22.8523552  15.0858786
  40.7474453  21.5624045  12.7848944  41.2762219  21.0516499  12.1719106
  41.0102672  21.2466575  13.6494477  39.5012686  13.3415977  27.9071763
  38.8253323  13.2410107  28.5774138  40.3240320  13.1855191  28.3707760
  31.2491545  19.5787914  20.5284278  31.8344982  18.8331602  20.6612182
  31.0516384  19.8891871  21.4120942  34.1030201  22.6139161  15.5446720
  33.4340576  23.0985289  15.0610760  33.9643070  22.8608382  16.4590099
  25.8409200  12.1493514  19.2488721  25.8793300  11.6157105  20.0425839
  25.3349493  11.6228720  18.6299698  38.2435469  24.6482905  22.1429379
  38.7953777  24.8114526  22.9078464  38.5841663  25.2387343  21.4709404
  33.2199962   6.9958055  22.7451263  33.2841289   7.8572885  22.3328661
  33.1567083   6.3832056  22.0123622  32.6952235   9.0681187  26.3924298
  33.3224274   8.6858264  27.0061822  31.8380154   8.8495389  26.7579990
  43.0946343  19.4744162  27.9978033  43.6386247  20.0874121  27.5032988
  42.5133188  20.0323741  28.5145046  41.3803856  22.5964880  19.1293061
  41.2554996  21.7954620  18.6204006  42.0382948  23.0911074  18.6407031
  33.0012025   8.9513613  18.3070201  32.2798610   9.5649581  18.1677674
  33.7905280   9.4871378  18.2286847  43.4438765  20.3973900  20.7572611
  42.4969100  20.2779252  20.6850938  43.7921538  19.5096398  20.8398872
  35.8038338   6.2868039  24.5810853  36.3272740   6.5330336  25.3437162
  35.5850671   7.1188074  24.1613990  40.4485198  20.1926617  16.9576963
  40.3010161  19.2643324  17.1384533  41.2738692  20.2146707  16.4734038
  44.0519320  21.0155175  18.0441836  44.9765867  20.8098037  17.9066287
  43.8834623  20.7671577  18.9531177  37.0090883   7.2281734  22.2660523
  36.6687704   6.4289547  22.6681203  36.3029889   7.5283445  21.6937357
  37.6607355   4.3131047  20.7187846  38.4833424   3.8391525  20.5966737
  37.9045419   5.0921531  21.2186533  35.1845934  11.0050167  18.5279825
  35.0390514  11.3190471  19.4204106  34.7071137  11.6235068  17.9750724
  37.0442317   7.9952715  18.5760715  37.0303885   7.0993809  18.2393012
  37.7614745   8.0023379  19.2099001  38.8968447   8.4290056  20.6213842
  38.6386225   9.3507126  20.6198172  38.3653488   8.0320490  21.3114306
  43.8414636  21.5340843  13.4003927  44.0151514  20.9687265  12.6477780
  44.3343527  22.3341738  13.2183417  29.6591596  13.5455512  21.4667486
  29.1145064  14.3215320  21.5987760  30.5370946  13.8926316  21.3086608
  39.3170403   4.5622006  16.9815005  39.3392100   4.6261339  16.0266984
  39.7338462   3.7226515  17.1755511  49.6954027  14.2977266  15.0194227
  50.1385173  13.5484591  14.6213350  48.8180538  14.2887402  14.6367959
  44.8289809  20.8507607  10.5000826  45.5240713  21.4714300  10.7188140
  45.1712959  20.0002958  10.7753204  30.4457618  12.6725408  24.3597643
  29.7039354  12.8208044  24.9462273  30.1250362  12.9333674  23.4964392
  46.7281232  18.3007313  12.0288156  47.2532556  18.6394585  11.3037476
  46.6403584  17.3654328  11.8451291  38.3901280  22.2141386  24.1578033
  38.6988407  21.9690533  25.0300733  39.1876762  22.4188025  23.6696903
  38.4121892  24.3679296  16.3883410  37.9726883  23.8755675  17.0816266
  39.1630009  23.8252264  16.1475485  30.8914231  20.5590837  16.3908038
  31.7172251  20.2594609  16.0106681  30.5408283  19.7898459  16.8397826
  35.8595765  19.9117305  18.4605711  35.2375774  19.2488010  18.1607939
  36.5300632  19.9378437  17.7779359  29.0922837  18.4777163  17.3496971
  28.2554745  18.0499338  17.1680973  29.0646482  18.6709607  18.2867762
  35.9320292   8.3899093  28.0538217  35.9808448   9.2661216  27.6715987
  36.4742806   7.8476486  27.4809860  46.4175138  18.9340216  27.3339354
  45.6270682  18.9164355  26.7943854  46.1808492  19.4728510  28.0888391
  46.5373013  15.7832683  24.6472083  46.5871018  15.6182690  25.5887606
  46.4286936  14.9159942  24.2569964  35.4209272  18.4621228  11.9364172
  35.5697392  19.1456693  11.2830845  36.2275715  18.4426319  12.4513628
  43.8276775  11.7663611  25.9631390  44.7286638  11.6270076  25.6715387
  43.9024750  11.9318066  26.9029567  38.1619581   9.1430466  24.8084576
  37.2922890   9.4364032  24.5367164  38.3979061   9.7270911  25.5291840
  48.0391210  18.2029624  24.8914104  47.7476018  18.5659605  25.7277565
  47.4263341  17.4896633  24.7127437  49.2386892  15.7682504  17.4116675
  50.0733783  16.2072308  17.5754235  49.3746021  15.2921157  16.5924920
  46.2878398  13.3262239  23.3594162  46.7632520  13.5189885  22.5513014
  45.3643963  13.3821425  23.1137546  40.8658614   5.3610082  22.3249996
  41.3840558   6.0971109  21.9996485  40.5113747   5.6674076  23.1596755
  41.1171209   1.7810365  17.8450893  41.3972962   1.1133554  18.4711319
  41.9021816   1.9739461  17.3325557  38.9204677  20.9569359   9.4075919
  38.3478644  21.5759546   8.9546391  39.4937471  21.5068721   9.9415841
  44.9880067  10.2027999  21.5922468  45.9397490  10.3026097  21.6134692
  44.8183517   9.4106268  22.1020552  43.0094446   7.2883582  21.7781869
  42.4144379   7.5688595  21.0828358  42.7244143   7.7777483  22.5498610
  42.1401937  21.2406509  10.5384501  43.0732610  21.1752071  10.7417377
  42.0525150  22.0762776  10.0799034  44.7689954  20.5572379   7.4988449
  44.6903585  20.2232243   8.3924207  45.5899620  21.0494147   7.4979921
  47.4668145  13.4234119  20.7064768  47.4344465  12.4850119  20.8924451
  48.0768768  13.5018155  19.9730593  47.6162633  10.2145162  20.7523051
  47.1001682   9.4303619  20.5652980  48.5002582   9.8863879  20.9169570
  45.2773360   3.9586178  16.7118864  45.0798181   3.6501266  17.5962195
  45.8873066   4.6847817  16.8416793  53.2844695  14.4850126  19.8470804
  54.0148083  14.2235414  20.4078508  52.6751640  13.7478847  19.8872872
  51.3659992  12.6257988  20.4445256  50.6393155  12.4913953  19.8361747
  50.9507279  12.9334817  21.2501974  39.1890168  16.3447918  28.2092629
  40.1093178  16.5226517  28.4032675  39.1539751  15.4003963  28.0572328
  28.4072333  11.5386511  17.1345903  28.0875117  10.6851820  16.8420277
  27.8605761  11.7535090  17.8903871  32.1852241  14.2548952  20.8515410
  32.4038250  15.1866060  20.8703444  32.5978014  13.8956927  21.6370214
  37.0580106   9.8282158  30.2418159  36.9576833  10.7776515  30.1730250
  36.8401648   9.5000397  29.3694229  28.2760593  15.1589423  19.1039025
  27.5824065  14.7443376  18.5908979  29.0233584  15.2009959  18.5072444
  44.4125814   5.9495610  13.9694059  43.8324483   6.6080414  13.5872112
  44.1461747   5.1272954  13.5581477  42.8629380   5.3500667  16.1715379
  43.3629159   5.4617202  15.3629698  43.5064988   5.0461720  16.8116188
  36.9211376  13.2579297  29.0583220  36.4378458  14.0579657  29.2647109
  37.0072315  13.2687242  28.1050664  30.1897336  15.0907677  16.9805040
  30.1668024  15.1895364  16.0286923  30.4997972  15.9372828  17.3022206
  32.8484714  17.1483832  21.0951654  33.8027967  17.1167774  21.0281586
  32.6497237  16.6874455  21.9101880  33.4384096  15.7184948  23.6622452
  34.2576985  16.2129026  23.6857289  33.7120903  14.8016916  23.6340019
  43.1950692   8.1095700  13.0250407  42.3076547   8.3945351  12.8070602
  43.6104681   7.9489463  12.1777684  46.5465228   8.1342221  16.7404747
  47.3225618   8.6238674  17.0129363  45.8213362   8.5600275  17.1976616
  48.9837787   8.8469840  17.7978687  49.5782277   8.6065576  17.0871995
  49.0564370   8.1276971  18.4252224  31.2034942  22.6903451  18.1121852
  31.0689410  21.9303852  17.5459850  30.7867005  23.4144351  17.6450641
  42.3393905  17.8740375   7.1198427  43.0429755  18.0790377   7.7356083
  41.6156554  18.4417137   7.3847511  43.1691716  13.6250236  13.2400698
  43.1126917  14.0818787  12.4008330  43.7220058  12.8640921  13.0623540
  46.9796522   9.4139968  14.0650817  46.7233456   9.0136604  14.8959025
  46.3549390  10.1283762  13.9400956  51.2908859  12.1536041  16.5722108
  50.7308417  12.2229230  17.3453671  50.6852363  11.9777026  15.8521605
  34.3604068  23.5872768  18.3240295  34.2436452  24.5318201  18.2218985
  33.5396514  23.2846330  18.7126094  44.2480603  18.3122904   9.1696887
  45.0826207  17.8804102   8.9874362  44.0864946  18.1404918  10.0973782
  43.9026495  14.8155017  10.5353227  43.8475299  14.6499289   9.5941671
  43.2772550  15.5231050  10.6915416  28.6919010  10.0523082  24.3614649
  29.3377873   9.5422036  24.8501874  28.4836161  10.7891763  24.9358074
  41.2172402  17.1203929  29.8606790  42.0863562  17.2944581  29.4993424
  40.7379154  17.9398346  29.7382519  35.3858582  24.2401030  21.5396223
  36.2885829  24.2724640  21.8562718  35.1595952  23.3101481  21.5542559
  37.1412184  22.9932017  18.2006302  36.1907815  22.9933878  18.0870674
  37.4444670  22.2464751  17.6842336  33.0316501   7.1990699  28.4589663
  33.8947962   6.8427504  28.6692988  32.4581912   6.8604594  29.1465067
  52.8764878  28.8292555  19.2652064  53.5143288  28.7099302  18.5615404
  52.7585721  29.7773399  19.3240016  49.6854584  28.7819983  19.2013589
  49.3473096  28.6661048  18.3134124  50.5544352  28.3811148  19.1814595
  45.5441400  30.6355460  15.1910480  44.9806265  30.5445397  14.4226768
  45.4293795  29.8155364  15.6712972  50.1674367  29.9354835  25.1599794
  50.1563008  29.5407633  24.2880298  50.3295007  29.2020908  25.7533566
  43.0905832  32.1306651  18.0294700  43.8827124  31.7897476  17.6141000
  43.3302482  32.2401626  18.9496854  51.1240959  34.3026427  10.5024945
  50.4728938  34.8880508  10.1158959  51.9185321  34.8332622  10.5619982
  45.0496586  31.3915564  10.9012079  45.8227462  30.8444552  10.7624955
  45.4021985  32.2559814  11.1126540  47.8137835  30.0968795  20.6980338
  48.4101407  29.8724818  19.9837301  47.8712807  29.3553541  21.3005786
  47.3862863  27.5508231   8.5330529  47.6388384  27.0289752   7.7713992
  46.4487423  27.3874376   8.6357213  52.4306146  26.5544009  16.3405272
  53.2169236  26.1363432  15.9895689  52.6944851  27.4590101  16.5086921
  52.6016224  31.9916859  11.0393929  51.9662057  32.0651486  11.7514834
  52.2713630  32.5810458  10.3613008  57.8314573  26.4919242  17.2438251
  58.5639745  25.9218459  17.4776080  57.0753929  26.1040843  17.6844756
  47.1059152  29.4536337  10.7354904  46.9895410  28.7781240  11.4035988
  47.2161412  28.9668710   9.9187057  49.4490693  28.9146484  14.4401593
  49.0848900  28.3877105  15.1514515  50.3057809  28.5244953  14.2668079
  55.3539994  20.2040816  21.7032859  55.0223319  21.0736227  21.4794074
  54.7585607  19.8877100  22.3826890  49.0896180  23.9436383   9.4362942
  49.2570582  24.8116620   9.8033413  48.8993349  24.1063665   8.5124231
  51.8471513  32.4053362  21.1028772  51.5472236  33.3078401  20.9944579
  51.5022573  32.1385545  21.9549925  45.2983995  28.8567159  17.1365476
  44.3734491  28.7243373  17.3443168  45.5468408  29.6361378  17.6335419
  55.2468657  24.9235902  18.7826209  54.3385534  24.8551311  18.4884970
  55.1956253  25.4007847  19.6108035  49.0685401  26.3994041  10.4209609
  48.9485026  26.8451092  11.2595089  48.3737989  26.7479358   9.8623147
  42.6592806  28.5000433  17.9709266  42.7885187  28.7534912  18.8848677
  41.9790257  29.0928141  17.6513921  46.8292293  39.1697683  14.0699740
  46.7516323  40.1205508  14.1488220  46.2253937  38.8243555  14.7274666
  49.3209523  26.3425548  26.7261107  48.5442857  26.9019468  26.7163971
  49.9600086  26.8282331  27.2475977  57.1130303  23.1252341  20.5604083
  56.4704684  23.4184874  19.9143878  56.6085232  23.0105261  21.3657280
  54.7670467  26.8715514  11.2489943  55.6788323  27.1042901  11.0737640
  54.2580114  27.4552558  10.6865021  53.0511235  31.2940142  24.8851235
  53.4594591  30.8522552  24.1405868  52.3288496  30.7192769  25.1385428
  49.4042305  26.2312749  22.2584792  50.2503500  26.6552162  22.4019441
  49.3440943  25.5746373  22.9523355  53.3740049  31.8541332  18.6403524
  52.7448912  32.0187047  17.9379592  52.9865712  32.2682942  19.4114488
  57.2529281  32.7895770  15.9947888  56.5680320  33.1694672  15.4444921
  57.3373131  33.3991097  16.7279836  52.5541750  23.8917117  23.9165966
  52.3102682  24.6459177  23.3800241  52.8301681  24.2702465  24.7513213
  54.5080213  30.4355729  22.5943231  54.7197108  31.0787489  21.9177612
  54.4609961  29.6018046  22.1265161  52.1106442  23.0473550  19.4979803
  51.2490921  23.3454804  19.7896541  52.1368877  23.2643949  18.5660836
  48.9268011  31.5915741  15.9053609  49.3906357  31.8703444  15.1158232
  48.6624809  30.6899185  15.7226700  45.8192092  31.1387222  18.8433372
  46.3893449  31.5674490  18.2050857  46.4100204  30.8569807  19.5417558
  47.8636897  27.7138893  12.7143174  48.5660941  28.1659937  13.1817101
  47.5317526  27.0722712  13.3423067  46.3117259  26.3050650  27.0894384
  45.6815920  26.9866930  27.3229780  46.2053347  26.1933731  26.1447522
  41.6062231  25.9722446  18.0160308  40.8161285  26.2279974  17.5400418
  42.0973479  26.7870783  18.1212348  55.6226041  33.3127685  20.7665589
  56.4443485  32.9107872  20.4848270  55.6188444  33.2095919  21.7181704
  43.5576977  26.3367025  14.9743785  42.7608140  26.4485719  15.4927280
  43.3302569  26.6753677  14.1084675  49.3882644  32.8611728  22.9226299
  49.4527077  33.3232135  23.7584471  48.6793568  32.2309093  23.0508609
  39.8899934  26.2252936  20.4475299  40.1407973  27.1099946  20.7132875
  40.4259483  26.0457538  19.6750390  63.7132034  29.6566433  17.1150560
  62.9595742  29.0873831  16.9594565  63.8479575  29.6229098  18.0621195
  49.1030662  34.5279836  12.7905279  48.9676337  35.3731371  13.2190127
  49.6440475  34.7299113  12.0271213  45.5898002  20.6071415  29.4519635
  45.1964947  20.0537614  30.1267279  46.4064142  20.9181994  29.8426152
  42.5560059  32.0455274  13.3633205  43.0684580  32.8398524  13.5138769
  43.2082772  31.3481564  13.2966806  44.3654944  35.1621030  15.4455958
  44.5421572  36.0838995  15.2576942  45.1611778  34.8479449  15.8750338
  48.5065963  22.0229294  27.0439891  49.2475676  22.6236448  26.9644354
  48.7383885  21.2806932  26.4857934  43.6507301  27.2085662  25.3218121
  43.5360816  26.3070919  25.6225220  42.7951818  27.4549358  24.9702937
  50.7299138  35.1503402  26.9205622  50.2862993  34.3639781  26.6026526
  51.3916352  35.3382553  26.2549512  45.4886260  36.6799204  21.4466300
  46.0393685  36.5516267  20.6743294  44.6497735  36.9794093  21.0961193
  52.8280376  35.4306202  24.9487023  52.8098852  36.2515083  24.4567292
  53.7500297  35.3060277  25.1737164  49.2853431  32.9450331  25.7910531
  49.8181767  32.1838620  25.5609839  48.7567512  32.6523983  26.5334686
  52.4523126  18.0510397  21.3204173  52.1087395  18.9412039  21.2443284
  52.8202088  17.8612055  20.4573758  40.5208976  30.3743928  14.1392775
  41.3584198  30.7840936  13.9226483  40.6987244  29.4343370  14.1092969
  52.4173408  28.0419009   9.8276608  51.9020032  28.8123613  10.0664995
  52.1450717  27.3684145  10.4509670  50.0020519  22.8868709  14.8861846
  49.1462116  22.4975560  14.7067485  50.4147471  22.9660670  14.0261632
  51.5319666  20.4215053  19.2853406  51.0284462  20.3845188  18.4721211
  51.8250273  21.3307795  19.3450063  47.7762552  20.5053782  18.2919588
  48.6415549  20.3096591  17.9325477  47.8440061  20.2764134  19.2188945
  57.3907682  30.7951363  11.7629782  56.6137125  30.4562523  11.3184944
  58.0699163  30.8003986  11.0884747  52.2059711  25.9146101  11.6536389
  51.9009847  26.2292250  12.5046532  53.1590154  25.9927521  11.6963722
  50.6506143  32.0736324  13.3029343  50.1227505  31.3389084  12.9902581
  50.1493646  32.8511000  13.0569312  55.6298989  30.2685344  18.4196390
  54.9722664  30.9584606  18.5076518  56.4339389  30.6581776  18.7630376
  45.3824871  22.7355990  15.6635955  45.9568623  22.5131172  14.9309148
  45.9695853  22.8044685  16.4164556  54.4404448  28.6229717  16.4700331
  54.9536330  29.2559709  16.9722041  55.0905672  28.0230913  16.1043691
  45.7094458  24.7660451   9.6831840  44.8731770  25.1035138  10.0041115
  45.5699228  24.6309431   8.7458977  47.6847539  19.6097239  14.3911024
  47.0311951  19.2946256  13.7667639  47.6428013  18.9872980  15.1170847
  48.7958744  29.8916534   6.3064316  47.8885805  29.6605788   6.5055465
  49.2929775  29.0954153   6.4938298  51.7026822  38.6014041   9.2261002
  51.0288521  38.9045738   9.8345960  52.0892644  39.4043122   8.8766459
  50.9185279  26.0979173  18.7158672  50.0007840  26.3194120  18.5580360
  51.3345423  26.1725483  17.8570379  51.7020327  27.4970588  13.8461352
  52.4492146  28.0091986  13.5368474  51.9711916  27.1754641  14.7065746
  49.9746977  29.9929129  10.8288306  49.0658196  29.7088162  10.9260776
  50.0042061  30.4128208   9.9691613  55.2066244  33.6035719  14.5979474
  54.7528571  32.7626628  14.6544664  54.5760211  34.2397117  14.9354254
  54.1499164  24.5327705  15.8280141  53.4121921  24.0205091  16.1590384
  54.4025937  24.0928086  15.0163418  53.6499184  35.4412215  15.5329292
  53.9422158  36.0017272  14.8141658  54.1597804  35.7340776  16.2882451
  54.2510791  17.3103957  16.4221911  54.5569668  16.4501320  16.1347826
  54.9763396  17.9021577  16.2220905  40.5435147  27.7134643  14.8103509
  40.3459547  27.1204004  14.0854575  39.9881811  27.4086853  15.5279447
  48.5231871  27.6057750  16.9298102  48.5780481  26.6531586  16.8540578
  47.7123073  27.7617189  17.4139400  49.6723065  31.5337873   8.1676385
  49.2342495  30.8173732   7.7082022  50.4133506  31.7613988   7.6061476
  46.4624231  26.2234809  14.6888481  45.6492096  26.5228980  15.0953673
  46.9583225  25.8290498  15.4062963  48.6132809  36.2192566  16.6222745
  48.5708988  36.4453413  15.6931277  49.5295508  35.9855941  16.7708546
  52.0598443  26.6876634  23.5203374  52.4147830  26.9148107  24.3797840
  52.7070574  27.0195011  22.8980630  57.7896180  29.8095070  14.2252703
  57.6514078  29.9996666  13.2973893  57.4332398  30.5714453  14.6820755
  45.9538306  23.7953165  20.3049716  46.5937685  23.6541924  19.6072679
  45.1215836  23.5087678  19.9288318  57.8165559  31.8771597  19.2363975
  58.2502066  31.7846886  20.0847029  58.5297140  31.8529097  18.5983991
  46.7298610  33.0955595  16.4184708  47.5239208  32.6005915  16.2167283
  46.0190302  32.5673458  16.0552414  51.5493454  35.4773691  20.7697076
  51.6030476  36.0464627  21.5374792  50.6808235  35.6475576  20.4051113
  43.0381373  27.2398677  12.4944461  42.1078961  27.1783133  12.7114423
  43.1338845  26.7174630  11.6981102  42.9566922  23.7653490  15.0822702
  43.2173739  24.6798823  14.9731863  43.7784094  23.2977932  15.2319315
  44.4291847  25.1791247  22.2521527  45.1014901  24.9708609  21.6034176
  43.6021634  24.9813333  21.8126759  58.6781109  31.9195297  21.7696860
  58.8716999  32.8241108  22.0156135  58.5781727  31.4602717  22.6035445
  50.3317419  21.8053188  24.2687188  49.6845334  22.5043138  24.1751664
  51.1018435  22.2389332  24.6363436  53.7396217  32.0702040  27.3437741
  53.5881724  31.8412592  26.4267825  53.7300897  33.0272642  27.3569086
  50.5081554  29.6433953  22.3284007  51.4373614  29.7945113  22.1552975
  50.0872584  29.7317974  21.4732654  49.3069886  33.6684617  20.0982545
  49.1680971  33.3003402  20.9708483  48.5184482  34.1832257  19.9266503
  49.9018038  38.7693714  11.4408082  50.0769793  38.2981757  12.2553704
  49.2150826  39.3959480  11.6689342  50.8575101  33.0466220  17.4871383
  50.5224933  33.0066990  18.3829033  50.3579046  32.3810936  17.0141793
  44.8319345  28.4533850  23.0123964  44.6939143  27.7214089  23.6135503
  45.7424268  28.3642750  22.7308152  53.7934292  30.3922254   7.7608443
  53.1763463  29.6669083   7.6641495  53.3250781  31.1531615   7.4175517
  47.4601645  28.1653809  22.5007644  48.1701264  27.5247002  22.4594262
  47.4170953  28.4166704  23.4233824  55.4488424  35.1021163  25.4214223
  55.3900970  34.4180383  24.7544806  55.8507942  35.8440153  24.9694849
  46.1730579  25.1519027  24.3203283  45.6367936  24.7009766  24.9724879
  45.5847288  25.2864936  23.5773747  44.4679123  41.9183077  18.2147942
  44.7075721  42.5501601  18.8926960  43.6248319  41.5671117  18.5013301
  45.5832838  24.6107679   6.8829747  44.7062305  24.4896479   6.5191993
  46.0590591  23.8193757   6.6308635  55.4505831  33.0660747  23.6528203
  54.5632610  32.7286668  23.7754601  56.0204382  32.3343778  23.8896968
  37.1034978  29.3984838  16.9771254  37.7906018  29.0846568  16.3892269
  36.9483107  30.3026203  16.7038505  41.9069701  24.2875035  21.4056278
  41.8227889  23.6800705  20.6706688  41.0852407  24.7784053  21.4065774
  48.9806985  37.7262199  20.6189446  48.9077156  38.5317171  21.1308750
  48.5384378  37.9254165  19.7937467  48.7696764  36.9633969  14.1292267
  47.9864286  37.5055649  14.2230492  49.4689509  37.4807949  14.5286508
  52.0793414  22.7728599  16.7726473  52.5762114  22.0198561  16.4527543
  51.3080396  22.8092915  16.2069682  59.9323172  28.4768964  18.4144764
  59.9213048  29.3593679  18.0438697  59.0640551  28.1240515  18.2199301
  51.4405668  37.6249033  22.7747604  52.1533640  38.2596498  22.7023506
  50.9495697  37.7212899  21.9587606  53.1623195  31.5300286  14.3464896
  52.2279474  31.6501748  14.1769600  53.3399864  30.6272752  14.0824906
  48.6628383  24.9145981  16.4998157  48.2926171  24.3617022  17.1879063
  49.1587476  24.3104115  15.9473157  56.5495746  27.3717605  14.8814930
  57.0156199  28.2045597  14.8075233  57.0003247  26.9062587  15.5860189
  46.4917582  35.3743477  23.5953175  47.1927041  36.0079959  23.7482569
  46.0212697  35.7158208  22.8348815  54.6171978  33.7161426  11.8801082
  54.8931821  33.6018021  12.7894956  53.7476476  33.3178911  11.8413255
  54.5212409  19.7398192  18.9205832  53.6075489  19.9702419  19.0888038
  54.9505511  19.8236636  19.7719864  54.2918868  27.9288084  21.4205726
  53.6390318  28.1763991  20.7658178  54.6699248  27.1152222  21.0868203
  51.2526042  37.9647777  15.5233896  51.4348436  37.1469433  15.9861648
  52.0759028  38.1815469  15.0858786  51.5868207  36.8915962  12.7848944
  52.1155974  36.3808417  12.1719106  51.8496427  36.5758492  13.6494477
  50.3406441  28.6707895  27.9071763  49.6647078  28.5702024  28.5774138
  51.1634075  28.5147109  28.3707760  42.0885300  34.9079832  20.5284278
  42.6738737  34.1623519  20.6612182  41.8910138  35.2183788  21.4120942
  44.9423955  37.9431079  15.5446720  44.2734330  38.4277207  15.0610760
  44.8036825  38.1900299  16.4590099  36.6802955  27.4785432  19.2488721
  36.7187054  26.9449022  20.0425839  36.1743247  26.9520637  18.6299698
  49.0829224  39.9774822  22.1429379  49.6347532  40.1406444  22.9078464
  49.4235417  40.5679260  21.4709404  44.0593717  22.3249972  22.7451263
  44.1235043  23.1864803  22.3328661  43.9960837  21.7123974  22.0123622
  43.5345989  24.3973105  26.3924298  44.1618028  24.0150182  27.0061822
  42.6773908  24.1787307  26.7579990  53.9340098  34.8036080  27.9978033
  54.4780002  35.4166038  27.5032988  53.3526943  35.3615658  28.5145046
  40.3111532  26.2049534  12.3242652  40.6064973  25.2960212  12.2709706
  39.4099568  26.1837273  12.0023655  52.2197611  37.9256798  19.1293061
  52.0948750  37.1246538  18.6204006  52.8776702  38.4202991  18.6407031
  43.8405779  24.2805530  18.3070201  43.1192365  24.8941498  18.1677674
  44.6299035  24.8163295  18.2286847  54.2832519  35.7265818  20.7572611
  53.3362855  35.6071169  20.6850938  54.6315292  34.8388316  20.8398872
  46.6432093  21.6159957  24.5810853  47.1666494  21.8622254  25.3437162
  46.4244426  22.4479992  24.1613990  42.0399374  23.8863632  12.4481978
  41.7112080  23.0061011  12.2657084  42.3938744  23.8311300  13.3358367
  51.2878953  35.5218534  16.9576963  51.1403915  34.5935242  17.1384533
  52.1132446  35.5438625  16.4734038  45.1541197  24.1736601  12.8157455
  45.4937269  24.7022523  12.0936064  45.6013317  24.5117008  13.5916022
  54.8913074  36.3447093  18.0441836  55.8159622  36.1389954  17.9066287
  54.7228378  36.0963494  18.9531177  47.8484638  22.5573652  22.2660523
  47.5081458  21.7581465  22.6681203  47.1423644  22.8575363  21.6937357
  48.5001109  19.6422965  20.7187846  49.3227179  19.1683443  20.5966737
  48.7439173  20.4213448  21.2186533  47.1409344  22.6711223  11.0150748
  47.8617706  23.0492476  10.5114465  46.5174648  23.3900100  11.1185726
  51.2840467  23.3756372  11.9509080  51.5004081  24.2581010  11.6497909
  50.8034534  22.9842585  11.2214722  46.0239688  26.3342085  18.5279825
  45.8784269  26.6482388  19.4204106  45.5464892  26.9526985  17.9750724
  47.8836071  23.3244633  18.5760715  47.8697640  22.4285726  18.2393012
  48.6008499  23.3315297  19.2099001  49.7362202  23.7581973  20.6213842
  49.4779980  24.6799044  20.6198172  49.2047242  23.3612408  21.3114306
  54.6808391  36.8632760  13.4003927  54.8545268  36.2979183  12.6477780
  55.1737282  37.6633655  13.2183417  40.4985350  28.8747430  21.4667486
  39.9538818  29.6507238  21.5987760  41.3764700  29.2218234  21.3086608
  47.2872967  22.2059013  13.8448285  47.4088878  21.2775660  14.0439172
  46.9975009  22.2197699  12.9326600  50.1564157  19.8913924  16.9815005
  50.1785854  19.9553257  16.0266984  50.5732216  19.0518433  17.1755511
  60.5347782  29.6269183  15.0194227  60.9778928  28.8776509  14.6213350
  59.6574292  29.6179320  14.6367959  55.6683563  36.1799525  10.5000826
  56.3634468  36.8006218  10.7188140  56.0106713  35.3294876  10.7753204
  57.5674986  33.6299230  12.0288156  58.0926310  33.9686503  11.3037476
  57.4797339  32.6946246  11.8451291  49.2295035  37.5433304  24.1578033
  49.5382161  37.2982451  25.0300733  50.0270517  37.7479943  23.6696903
  49.2515647  39.6971214  16.3883410  48.8120637  39.2047592  17.0816266
  50.0023764  39.1544181  16.1475485  41.7307986  35.8882755  16.3908038
  42.5566006  35.5886526  16.0106681  41.3802038  35.1190377  16.8397826
  46.6989519  35.2409223  18.4605711  46.0769528  34.5779928  18.1607939
  47.3694386  35.2670355  17.7779359  39.9316591  33.8069081  17.3496971
  39.0948499  33.3791255  17.1680973  39.9040236  34.0001524  18.2867762
  46.7714047  23.7191011  28.0538217  46.8202202  24.5953134  27.6715987
  47.3136561  23.1768404  27.4809860  57.2568892  34.2632134  27.3339354
  56.4664436  34.2456273  26.7943854  57.0202247  34.8020428  28.0888391
  57.3766767  31.1124600  24.6472083  57.4264772  30.9474608  25.5887606
  57.2680691  30.2451859  24.2569964  46.2603026  33.7913146  11.9364172
  46.4091146  34.4748611  11.2830845  47.0669469  33.7718236  12.4513628
  54.6670530  27.0955528  25.9631390  55.5680392  26.9561993  25.6715387
  54.7418504  27.2609983  26.9029567  49.0013335  24.4722383  24.8084576
  48.1316644  24.7655949  24.5367164  49.2372815  25.0562828  25.5291840
  58.8784964  33.5321542  24.8914104  58.5869772  33.8951522  25.7277565
  58.2657095  32.8188550  24.7127437  60.0780646  31.0974422  17.4116675
  60.9127538  31.5364226  17.5754235  60.2139775  30.6213075  16.5924920
  57.1272152  28.6554157  23.3594162  57.6026274  28.8481803  22.5513014
  56.2037718  28.7113342  23.1137546  44.0155659  29.8178324  12.9425241
  43.7701701  28.9140654  13.1405451  44.1851574  29.8195474  12.0004719
  51.7052369  20.6902000  22.3249996  52.2234313  21.4263027  21.9996485
  51.3507502  20.9965993  23.1596755  43.2851307  25.5506681  10.4411402
  42.5920551  25.6251036   9.7851438  43.0403058  24.7867025  10.9632919
  51.9564963  17.1102283  17.8450893  52.2366717  16.4425472  18.4711319
  52.7415570  17.3031378  17.3325557  49.7598432  36.2861277   9.4075919
  49.1872399  36.9051464   8.9546391  50.3331225  36.8360638   9.9415841
  55.8273821  25.5319917  21.5922468  56.7791244  25.6318014  21.6134692
  55.6577272  24.7398185  22.1020552  53.8488201  22.6175500  21.7781869
  53.2538133  22.8980513  21.0828358  53.5637898  23.1069401  22.5498610
  52.9795691  36.5698427  10.5384501  53.9126364  36.5043988  10.7417377
  52.8918904  37.4054694  10.0799034  55.6083708  35.8864297   7.4988449
  55.5297340  35.5524161   8.3924207  56.4293375  36.3786065   7.4979921
  58.3061899  28.7526036  20.7064768  58.2738219  27.8142037  20.8924451
  58.9162523  28.8310073  19.9730593  50.1445230  27.6222089   6.7491972
  51.0904335  27.4928297   6.8180390  49.7659475  26.8836751   7.2261400
  58.4556388  25.5437080  20.7523051  57.9395436  24.7595536  20.5652980
  59.3396336  25.2155796  20.9169570  56.1167115  19.2878095  16.7118864
  55.9191936  18.9793184  17.5962195  56.7266820  20.0139734  16.8416793
  64.1238449  29.8142043  19.8470804  64.8541838  29.5527331  20.4078508
  63.5145395  29.0770765  19.8872872  62.2053746  27.9549906  20.4445256
  61.4786910  27.8205871  19.8361747  61.7901033  28.2626734  21.2501974
  50.0283923  31.6739835  28.2092629  50.9486932  31.8518434  28.4032675
  49.9933506  30.7295881  28.0572328  48.3288147  25.5472066   6.6846857
  47.4219603  25.2505178   6.7609571  48.6064128  25.2501884   5.8181143
  39.2466088  26.8678429  17.1345903  38.9268872  26.0143737  16.8420277
  38.6999516  27.0827007  17.8903871  43.0245995  29.5840870  20.8515410
  43.2432005  30.5157978  20.8703444  43.4371769  29.2248845  21.6370214
  49.9450213  20.0908955  12.8391098  49.1350941  19.7456040  13.2146344
  50.6334630  19.7816499  13.4278710  51.8740761  19.1687002  14.4615395
  52.4271800  19.5882456  15.1205418  52.1110848  18.2422750  14.5038351
  47.8973860  25.1574076  30.2418159  47.7970587  26.1068433  30.1730250
  47.6795403  24.8292315  29.3694229  47.0986932  22.4059001   6.8258836
  47.9606096  22.7313899   7.0854653  47.2837276  21.6190497   6.3131902
  39.1154348  30.4881341  19.1039025  38.4217819  30.0735293  18.5908979
  39.8627339  30.5301877  18.5072444  55.2519568  21.2787527  13.9694059
  54.6718237  21.9372331  13.5872112  54.9855501  20.4564872  13.5581477
  53.7023135  20.6792585  16.1715379  54.2022913  20.7909120  15.3629698
  54.3458743  20.3753638  16.8116188  47.7605131  28.5871215  29.0583220
  47.2772212  29.3871575  29.2647109  47.8466070  28.5979160  28.1050664
  41.0291090  30.4199594  16.9805040  41.0061778  30.5187282  16.0286923
  41.3391727  31.2664745  17.3022206  43.6878468  32.4775749  21.0951654
  44.6421722  32.4459692  21.0281586  43.4890992  32.0166373  21.9101880
  54.0344446  23.4387618  13.0250407  53.1470301  23.7237268  12.8070602
  54.4498435  23.2781381  12.1777684  57.3858982  23.4634139  16.7404747
  58.1619373  23.9530591  17.0129363  56.6607117  23.8892193  17.1976616
  59.8231541  24.1761758  17.7978687  60.4176032  23.9357494  17.0871995
  59.8958125  23.4568889  18.4252224  42.0428697  38.0195369  18.1121852
  41.9083165  37.2595770  17.5459850  41.6260759  38.7436269  17.6450641
  53.1787660  33.2032292   7.1198427  53.8823510  33.4082295   7.7356083
  52.4550309  33.7709054   7.3847511  54.0085470  28.9542154  13.2400698
  53.9520671  29.4110705  12.4008330  54.5613813  28.1932838  13.0623540
  57.8190276  24.7431886  14.0650817  57.5627210  24.3428521  14.8959025
  57.1943144  25.4575680  13.9400956  62.1302614  27.4827959  16.5722108
  61.5702172  27.5521148  17.3453671  61.5246117  27.3068943  15.8521605
  45.1997823  38.9164686  18.3240295  45.0830207  39.8610118  18.2218985
  44.3790269  38.6138247  18.7126094  55.0874357  33.6414822   9.1696887
  55.9219961  33.2096020   8.9874362  54.9258700  33.4696835  10.0973782
  54.7420249  30.1446935  10.5353227  54.6869053  29.9791206   9.5941671
  54.1166305  30.8522968  10.6915416  52.0566157  32.4495847  29.8606790
  52.9257316  32.6236499  29.4993424  51.5772908  33.2690264  29.7382519
  48.0516375  19.6455044  10.1138545  48.0395045  20.5896884  10.2706816
  48.9439797  19.4625189   9.8198006  46.2252337  39.5692948  21.5396223
  47.1279583  39.6016558  21.8562718  45.9989707  38.6393399  21.5542559
  47.9805939  38.3223934  18.2006302  47.0301570  38.3225796  18.0870674
  48.2838425  37.5756669  17.6842336  51.8668494  16.2397821  14.3684482
  51.1000890  15.6856307  14.5141164  52.2779199  16.3119689  15.2298634
  43.8710255  22.5282616  28.4589663  44.7341717  22.1719421  28.6692988
  43.2975666  22.1896511  29.1465067  63.7158632  44.1584473  19.2652064
  64.3537042  44.0391220  18.5615404  63.5979475  45.1065317  19.3240016
  60.5248339  44.1111901  19.2013589  60.1866850  43.9952966  18.3134124
  61.3938107  43.7103066  19.1814595  56.3835154  45.9647377  15.1910480
  55.8200019  45.8737314  14.4226768  56.2687549  45.1447282  15.6712972
  53.9299586  47.4598569  18.0294700  54.7220878  47.1189394  17.6141000
  54.1696236  47.5693544  18.9496854  61.9634713  49.6318345  10.5024945
  61.3122693  50.2172425  10.1158959  62.7579076  50.1624540  10.5619982
  55.8890340  46.7207482  10.9012079  56.6621216  46.1736469  10.7624955
  56.2415739  47.5851731  11.1126540  58.6531590  45.4260713  20.6980338
  59.2495162  45.2016735  19.9837301  58.7106561  44.6845458  21.3005786
  58.2256618  42.8800148   8.5330529  58.4782139  42.3581670   7.7713992
  57.2881177  42.7166294   8.6357213  63.2699901  41.8835927  16.3405272
  64.0562990  41.4655350  15.9895689  63.5338605  42.7882019  16.5086921
  63.4409978  47.3208777  11.0393929  62.8055811  47.3943403  11.7514834
  63.1107385  47.9102376  10.3613008  68.6708328  41.8211160  17.2438251
  69.4033500  41.2510377  17.4776080  67.9147684  41.4332760  17.6844756
  57.9452907  44.7828254  10.7354904  57.8289165  44.1073158  11.4035988
  58.0555167  44.2960628   9.9187057  60.2884448  44.2438401  14.4401593
  59.9242655  43.7169022  15.1514515  61.1451564  43.8536870  14.2668079
  66.1933748  35.5332734  21.7032859  65.8617073  36.4028145  21.4794074
  65.5979362  35.2169018  22.3826890  59.9289935  39.2728301   9.4362942
  60.0964337  40.1408537   9.8033413  59.7387104  39.4355583   8.5124231
  62.6865268  47.7345280  21.1028772  62.3865991  48.6370319  20.9944579
  62.3416327  47.4677463  21.9549925  56.1377749  44.1859077  17.1365476
  55.2128246  44.0535291  17.3443168  56.3862162  44.9653296  17.6335419
  66.0862412  40.2527820  18.7826209  65.1779289  40.1843229  18.4884970
  66.0350007  40.7299765  19.6108035  59.9079155  41.7285958  10.4209609
  59.7878781  42.1743009  11.2595089  59.2131744  42.0771276   9.8623147
  53.4986560  43.8292350  17.9709266  53.6278941  44.0826829  18.8848677
  52.8184012  44.4220058  17.6513921  57.6686048  54.4989600  14.0699740
  57.5910077  55.4497425  14.1488220  57.0647691  54.1535473  14.7274666
  67.9524058  38.4544258  20.5604083  67.3098438  38.7476792  19.9143878
  67.4478987  38.3397179  21.3657280  65.6064222  42.2007432  11.2489943
  66.5182078  42.4334818  11.0737640  65.0973869  42.7844476  10.6865021
  63.8904989  46.6232060  24.8851235  64.2988345  46.1814470  24.1405868
  63.1682251  46.0484687  25.1385428  64.2133804  47.1833250  18.6403524
  63.5842666  47.3478964  17.9379592  63.8259466  47.5974860  19.4114488
  68.0923036  48.1187688  15.9947888  67.4074074  48.4986589  15.4444921
  68.1766885  48.7283015  16.7279836  65.3473967  45.7647647  22.5943231
  65.5590863  46.4079407  21.9177612  65.3003716  44.9309964  22.1265161
  62.9500196  38.3765468  19.4979803  62.0884675  38.6746721  19.7896541
  62.9762631  38.5935867  18.5660836  59.7661766  46.9207658  15.9053609
  60.2300111  47.1995361  15.1158232  59.5018564  46.0191103  15.7226700
  56.6585847  46.4679140  18.8433372  57.2287204  46.8966408  18.2050857
  57.2493959  46.1861724  19.5417558  58.7030652  43.0430811  12.7143174
  59.4054695  43.4951854  13.1817101  58.3711280  42.4014629  13.3423067
  52.4455986  41.3014363  18.0160308  51.6555040  41.5571892  17.5400418
  52.9367233  42.1162701  18.1212348  66.4619795  48.6419602  20.7665589
  67.2837239  48.2399790  20.4848270  66.4582198  48.5387837  21.7181704
  54.3970731  41.6658942  14.9743785  53.6001895  41.7777637  15.4927280
  54.1696323  42.0045595  14.1084675  60.2276399  48.1903646  22.9226299
  60.2920831  48.6524053  23.7584471  59.5187323  47.5601011  23.0508609
  50.7293689  41.5544854  20.4475299  50.9801727  42.4391864  20.7132875
  51.2653237  41.3749455  19.6750390  74.5525788  44.9858351  17.1150560
  73.7989497  44.4165749  16.9594565  74.6873330  44.9521015  18.0621195
  59.9424417  49.8571753  12.7905279  59.8070091  50.7023289  13.2190127
  60.4834229  50.0591031  12.0271213  53.3953814  47.3747191  13.3633205
  53.9078334  48.1690441  13.5138769  54.0476527  46.6773482  13.2966806
  55.2048699  50.4912948  15.4455958  55.3815327  51.4130912  15.2576942
  56.0005532  50.1771367  15.8750338  63.6674131  50.7598120  24.9487023
  63.6492606  51.5807001  24.4567292  64.5894051  50.6352195  25.1737164
  63.2916880  33.3802315  21.3204173  62.9481149  34.2703957  21.2443284
  63.6595843  33.1903973  20.4573758  51.3602731  45.7035846  14.1392775
  52.1977953  46.1132854  13.9226483  51.5380998  44.7635288  14.1092969
  63.2567163  43.3710926   9.8276608  62.7413786  44.1415531  10.0664995
  62.9844471  42.6976062  10.4509670  60.8414274  38.2160627  14.8861846
  59.9855870  37.8267477  14.7067485  61.2541226  38.2952588  14.0261632
  62.3713420  35.7506970  19.2853406  61.8678216  35.7137105  18.4721211
  62.6644027  36.6599713  19.3450063  58.6156306  35.8345700  18.2919588
  59.4809303  35.6388509  17.9325477  58.6833815  35.6056052  19.2188945
  68.2301437  46.1243281  11.7629782  67.4530880  45.7854440  11.3184944
  68.9092918  46.1295904  11.0884747  63.0453466  41.2438018  11.6536389
  62.7403602  41.5584167  12.5046532  63.9983908  41.3219438  11.6963722
  61.4899898  47.4028242  13.3029343  60.9621259  46.6681001  12.9902581
  60.9887401  48.1802918  13.0569312  66.4692744  45.5977262  18.4196390
  65.8116418  46.2876523  18.5076518  67.2733143  45.9873694  18.7630376
  56.2218625  38.0647908  15.6635955  56.7962377  37.8423089  14.9309148
  56.8089608  38.1336602  16.4164556  65.2798203  43.9521635  16.4700331
  65.7930084  44.5851627  16.9722041  65.9299427  43.3522830  16.1043691
  56.5488213  40.0952369   9.6831840  55.7125525  40.4327055  10.0041115
  56.4092982  39.9601349   8.7458977  58.5241293  34.9389157  14.3911024
  57.8705705  34.6238174  13.7667639  58.4821767  34.3164897  15.1170847
  59.6352498  45.2208452   6.3064316  58.7279560  44.9897705   6.5055465
  60.1323530  44.4246071   6.4938298  62.5420577  53.9305959   9.2261002
  61.8682276  54.2337656   9.8345960  62.9286399  54.7335039   8.8766459
  61.7579033  41.4271090  18.7158672  60.8401595  41.6486037  18.5580360
  62.1739177  41.5017401  17.8570379  62.5414081  42.8262506  13.8461352
  63.2885900  43.3383903  13.5368474  62.8105671  42.5046559  14.7065746
  60.8140731  45.3221047  10.8288306  59.9051951  45.0380080  10.9260776
  60.8435815  45.7420125   9.9691613  66.0459999  48.9327636  14.5979474
  65.5922326  48.0918546  14.6544664  65.4153966  49.5689035  14.9354254
  64.9892918  39.8619622  15.8280141  64.2515675  39.3497008  16.1590384
  65.2419692  39.4220004  15.0163418  64.4892938  50.7704133  15.5329292
  64.7815912  51.3309190  14.8141658  64.9991559  51.0632694  16.2882451
  65.0904546  32.6395874  16.4221911  65.3963423  31.7793238  16.1347826
  65.8157151  33.2313494  16.2220905  51.3828902  43.0426561  14.8103509
  51.1853302  42.4495922  14.0854575  50.8275566  42.7378771  15.5279447
  59.3625625  42.9349667  16.9298102  59.4174235  41.9823504  16.8540578
  58.5516828  43.0909106  17.4139400  60.5116819  46.8629790   8.1676385
  60.0736249  46.1465649   7.7082022  61.2527260  47.0905905   7.6061476
  57.3017985  41.5526727  14.6888481  56.4885851  41.8520898  15.0953673
  57.7976980  41.1582416  15.4062963  59.4526563  51.5484484  16.6222745
  59.4102742  51.7745330  15.6931277  60.3689262  51.3147859  16.7708546
  68.6289934  45.1386987  14.2252703  68.4907833  45.3288583  13.2973893
  68.2726153  45.9006370  14.6820755  56.7932060  39.1245083  20.3049716
  57.4331439  38.9833842  19.6072679  55.9609591  38.8379596  19.9288318
  68.6559314  47.2063514  19.2363975  69.0895820  47.1138804  20.0847029
  69.3690894  47.1821015  18.5983991  57.5692364  48.4247513  16.4184708
  58.3632963  47.9297833  16.2167283  56.8584056  47.8965376  16.0552414
  62.3887209  50.8065609  20.7697076  62.4424231  51.3756545  21.5374792
  61.5201990  50.9767494  20.4051113  53.8775128  42.5690595  12.4944461
  52.9472716  42.5075050  12.7114423  53.9732600  42.0466548  11.6981102
  53.7960677  39.0945408  15.0822702  54.0567494  40.0090741  14.9731863
  54.6177849  38.6269850  15.2319315  55.2685602  40.5083165  22.2521527
  55.9408655  40.3000527  21.6034176  54.4415388  40.3105251  21.8126759
  69.5174863  47.2487215  21.7696860  69.7110753  48.1533026  22.0156135
  69.4175481  46.7894634  22.6035445  61.1711174  37.1345106  24.2687188
  60.5239089  37.8335055  24.1751664  61.9412189  37.5681250  24.6363436
  60.1463640  48.9976535  20.0982545  60.0074726  48.6295319  20.9708483
  59.3578236  49.5124174  19.9266503  60.7411792  54.0985631  11.4408082
  60.9163548  53.6273675  12.2553704  60.0544580  54.7251398  11.6689342
  61.6968855  48.3758138  17.4871383  61.3618688  48.3358908  18.3829033
  61.1972801  47.7102854  17.0141793  64.6328047  45.7214172   7.7608443
  64.0157217  44.9961000   7.6641495  64.1644535  46.4823532   7.4175517
  66.2882179  50.4313080  25.4214223  66.2294725  49.7472301  24.7544806
  66.6901697  51.1732070  24.9694849  56.4226593  39.9399596   6.8829747
  55.5456059  39.8188397   6.5191993  56.8984346  39.1485675   6.6308635
  66.2899586  48.3952664  23.6528203  65.4026365  48.0578586  23.7754601
  66.8598137  47.6635696  23.8896968  47.9428733  44.7276756  16.9771254
  48.6299773  44.4138486  16.3892269  47.7876862  45.6318121  16.7038505
  52.7463455  39.6166953  21.4056278  52.6621644  39.0092622  20.6706688
  51.9246161  40.1075971  21.4065774  59.8200739  53.0554117  20.6189446
  59.7470911  53.8609088  21.1308750  59.3778132  53.2546083  19.7937467
  59.6090519  52.2925887  14.1292267  58.8258041  52.8347567  14.2230492
  60.3083264  52.8099866  14.5286508  62.9187169  38.1020516  16.7726473
  63.4155868  37.3490479  16.4527543  62.1474150  38.1384833  16.2069682
  70.7716926  43.8060882  18.4144764  70.7606803  44.6885597  18.0438697
  69.9034306  43.4532433  18.2199301  62.2799423  52.9540951  22.7747604
  62.9927395  53.5888416  22.7023506  61.7889451  53.0504817  21.9587606
  64.0016950  46.8592203  14.3464896  63.0673228  46.9793666  14.1769600
  64.1793618  45.9564670  14.0824906  59.5022138  40.2437899  16.4998157
  59.1319925  39.6908940  17.1879063  59.9981230  39.6396033  15.9473157
  67.3889501  42.7009523  14.8814930  67.8549953  43.5337514  14.8075233
  67.8397001  42.2354504  15.5860189  65.4565732  49.0453344  11.8801082
  65.7325576  48.9309939  12.7894956  64.5870231  48.6470829  11.8413255
  65.3606164  35.0690110  18.9205832  64.4469243  35.2994337  19.0888038
  65.7899265  35.1528554  19.7719864  65.1312622  43.2580002  21.4205726
  64.4784072  43.5055909  20.7658178  65.5093002  42.4444140  21.0868203
  62.0919796  53.2939695  15.5233896  62.2742191  52.4761351  15.9861648
  62.9152782  53.5107387  15.0858786  62.4261962  52.2207880  12.7848944
  62.9549728  51.7100335  12.1719106  62.6890181  51.9050410  13.6494477
  55.7817710  53.2722997  15.5446720  55.1128085  53.7569124  15.0610760
  55.6430579  53.5192217  16.4590099  47.5196709  42.8077349  19.2488721
  47.5580809  42.2740940  20.0425839  47.0137002  42.2812555  18.6299698
  59.9222978  55.3066740  22.1429379  60.4741286  55.4698362  22.9078464
  60.2629172  55.8971178  21.4709404  54.8987471  37.6541890  22.7451263
  54.9628798  38.5156721  22.3328661  54.8354592  37.0415892  22.0123622
  51.1505287  41.5341452  12.3242652  51.4458728  40.6252130  12.2709706
  50.2493322  41.5129191  12.0023655  63.0591365  53.2548716  19.1293061
  62.9342505  52.4538456  18.6204006  63.7170456  53.7494909  18.6407031
  54.6799534  39.6097448  18.3070201  53.9586119  40.2233416  18.1677674
  55.4692789  40.1455213  18.2286847  65.1226274  51.0557736  20.7572611
  64.1756609  50.9363087  20.6850938  65.4709047  50.1680234  20.8398872
  57.4825847  36.9451875  24.5810853  58.0060249  37.1914171  25.3437162
  57.2638180  37.7771909  24.1613990  52.8793128  39.2155549  12.4481978
  52.5505834  38.3352928  12.2657084  53.2332499  39.1603218  13.3358367
  62.1272707  50.8510452  16.9576963  61.9797669  49.9227159  17.1384533
  62.9526201  50.8730543  16.4734038  55.9934951  39.5028519  12.8157455
  56.3331024  40.0314440  12.0936064  56.4407072  39.8408925  13.5916022
  65.7306829  51.6739011  18.0441836  66.6553376  51.4681872  17.9066287
  65.5622132  51.4255412  18.9531177  58.6878392  37.8865570  22.2660523
  58.3475213  37.0873383  22.6681203  57.9817398  38.1867281  21.6937357
  59.3394864  34.9714882  20.7187846  60.1620933  34.4975360  20.5966737
  59.5832928  35.7505366  21.2186533  57.9803098  38.0003141  11.0150748
  58.7011461  38.3784393  10.5114465  57.3568403  38.7192017  11.1185726
  62.1234221  38.7048290  11.9509080  62.3397836  39.5872927  11.6497909
  61.6428289  38.3134503  11.2214722  56.8633443  41.6634003  18.5279825
  56.7178023  41.9774306  19.4204106  56.3858646  42.2818903  17.9750724
  58.7229826  38.6536551  18.5760715  58.7091394  37.7577644  18.2393012
  59.4402254  38.6607215  19.2099001  60.5755956  39.0873891  20.6213842
  60.3173734  40.0090962  20.6198172  60.0440997  38.6904326  21.3114306
  65.5202145  52.1924678  13.4003927  65.6939023  51.6271101  12.6477780
  66.0131036  52.9925573  13.2183417  51.3379105  44.2039347  21.4667486
  50.7932573  44.9799155  21.5987760  52.2158455  44.5510152  21.3086608
  58.1266722  37.5350931  13.8448285  58.2482633  36.6067577  14.0439172
  57.8368764  37.5489617  12.9326600  60.9957912  35.2205842  16.9815005
  61.0179609  35.2845175  16.0266984  61.4125971  34.3810350  17.1755511
  71.3741536  44.9561101  15.0194227  71.8172682  44.2068426  14.6213350
  70.4968047  44.9471237  14.6367959  66.5077318  51.5091443  10.5000826
  67.2028222  52.1298135  10.7188140  66.8500468  50.6586794  10.7753204
  52.1245127  43.3309244  24.3597643  51.3826863  43.4791879  24.9462273
  51.8037871  43.5917509  23.4964392  68.4068741  48.9591148  12.0288156
  68.9320065  49.2978421  11.3037476  68.3191093  48.0238163  11.8451291
  60.0909401  55.0263131  16.3883410  59.6514392  54.5339510  17.0816266
  60.8417518  54.4836099  16.1475485  52.5701740  51.2174672  16.3908038
  53.3959760  50.9178444  16.0106681  52.2195792  50.4482295  16.8397826
  57.5383274  50.5701140  18.4605711  56.9163283  49.9071845  18.1607939
  58.2088141  50.5962272  17.7779359  50.7710345  49.1360999  17.3496971
  49.9342254  48.7083173  17.1680973  50.7433991  49.3293442  18.2867762
  68.2160522  46.4416518  24.6472083  68.2658527  46.2766526  25.5887606
  68.1074445  45.5743777  24.2569964  57.0996781  49.1205064  11.9364172
  57.2484901  49.8040528  11.2830845  57.9063224  49.1010154  12.4513628
  69.7178719  48.8613460  24.8914104  69.4263527  49.2243440  25.7277565
  69.1050850  48.1480468  24.7127437  70.9174401  46.4266339  17.4116675
  71.7521292  46.8656143  17.5754235  71.0533530  45.9504993  16.5924920
  67.9665907  43.9846074  23.3594162  68.4420028  44.1773721  22.5513014
  67.0431472  44.0405260  23.1137546  54.8549414  45.1470241  12.9425241
  54.6095455  44.2432571  13.1405451  55.0245328  45.1487392  12.0004719
  62.5446123  36.0193918  22.3249996  63.0628067  36.7554945  21.9996485
  62.1901256  36.3257911  23.1596755  54.1245061  40.8798599  10.4411402
  53.4314306  40.9542954   9.7851438  53.8796813  40.1158943  10.9632919
  62.7958718  32.4394200  17.8450893  63.0760471  31.7717389  18.4711319
  63.5809324  32.6323296  17.3325557  60.5992186  51.6153194   9.4075919
  60.0266153  52.2343381   8.9546391  61.1724980  52.1652556   9.9415841
  66.6667576  40.8611834  21.5922468  67.6184999  40.9609932  21.6134692
  66.4971026  40.0690103  22.1020552  64.6881955  37.9467418  21.7781869
  64.0931887  38.2272430  21.0828358  64.4031652  38.4361318  22.5498610
  63.8189446  51.8990344  10.5384501  64.7520119  51.8335906  10.7417377
  63.7312659  52.7346611  10.0799034  66.4477463  51.2156215   7.4988449
  66.3691094  50.8816078   8.3924207  67.2687129  51.7077983   7.4979921
  69.1455654  44.0817954  20.7064768  69.1131974  43.1433955  20.8924451
  69.7556277  44.1601991  19.9730593  60.9838985  42.9514007   6.7491972
  61.9298089  42.8220215   6.8180390  60.6053230  42.2128669   7.2261400
  69.2950142  40.8728997  20.7523051  68.7789191  40.0887454  20.5652980
  70.1790091  40.5447714  20.9169570  66.9560869  34.6170013  16.7118864
  66.7585690  34.3085101  17.5962195  67.5660575  35.3431652  16.8416793
  74.9632204  45.1433961  19.8470804  75.6935592  44.8819249  20.4078508
  74.3539149  44.4062683  19.8872872  73.0447501  43.2841823  20.4445256
  72.3180664  43.1497788  19.8361747  72.6294788  43.5918652  21.2501974
  59.1681902  40.8763983   6.6846857  58.2613357  40.5797096   6.7609571
  59.4457883  40.5793801   5.8181143  50.0859842  42.1970347  17.1345903
  49.7662626  41.3435655  16.8420277  49.5393270  42.4118925  17.8903871
  53.8639750  44.9132788  20.8515410  54.0825759  45.8449896  20.8703444
  54.2765523  44.5540762  21.6370214  60.7843967  35.4200873  12.8391098
  59.9744696  35.0747958  13.2146344  61.4728384  35.1108417  13.4278710
  62.7134516  34.4978920  14.4615395  63.2665554  34.9174373  15.1205418
  62.9504602  33.5714668  14.5038351  57.9380686  37.7350919   6.8258836
  58.7999850  38.0605817   7.0854653  58.1231030  36.9482415   6.3131902
  49.9548102  45.8173258  19.1039025  49.2611574  45.4027211  18.5908979
  50.7021093  45.8593795  18.5072444  66.0913323  36.6079445  13.9694059
  65.5111992  37.2664249  13.5872112  65.8249255  35.7856790  13.5581477
  64.5416889  36.0084503  16.1715379  65.0416668  36.1201037  15.3629698
  65.1852497  35.7045556  16.8116188  51.8684845  45.7491512  16.9805040
  51.8455533  45.8479199  16.0286923  52.1785481  46.5956663  17.3022206
  54.5272222  47.8067667  21.0951654  55.4815476  47.7751609  21.0281586
  54.3284746  47.3458291  21.9101880  64.8738201  38.7679535  13.0250407
  63.9864056  39.0529186  12.8070602  65.2892190  38.6073299  12.1777684
  68.2252737  38.7926056  16.7404747  69.0013127  39.2822509  17.0129363
  67.5000871  39.2184111  17.1976616  70.6625296  39.5053676  17.7978687
  71.2569786  39.2649412  17.0871995  70.7351879  38.7860806  18.4252224
  64.0181414  48.5324210   7.1198427  64.7217264  48.7374213   7.7356083
  63.2944063  49.1000972   7.3847511  64.8479225  44.2834071  13.2400698
  64.7914426  44.7402623  12.4008330  65.4007567  43.5224756  13.0623540
  68.6584030  40.0723803  14.0650817  68.4020965  39.6720439  14.8959025
  68.0336899  40.7867597  13.9400956  72.9696368  42.8119876  16.5722108
  72.4095926  42.8813066  17.3453671  72.3639872  42.6360861  15.8521605
  65.9268112  48.9706739   9.1696887  66.7613716  48.5387938   8.9874362
  65.7652455  48.7988753  10.0973782  65.5814004  45.4738853  10.5353227
  65.5262808  45.3083124   9.5941671  64.9560059  46.1814886  10.6915416
  50.3706519  40.7106917  24.3614649  51.0165382  40.2005871  24.8501874
  50.1623670  41.4475599  24.9358074  58.8910129  34.9746962  10.1138545
  58.8788799  35.9188802  10.2706816  59.7833551  34.7917107   9.8198006
  58.8199693  53.6515852  18.2006302  57.8695324  53.6517714  18.0870674
  59.1232179  52.9048587  17.6842336  62.7062249  31.5689738  14.3684482
  61.9394645  31.0148225  14.5141164  63.1172954  31.6411607  15.2298634
  54.7104010  37.8574534  28.4589663  55.5735471  37.5011339  28.6692988
  54.1369421  37.5188429  29.1465067  74.5552387  59.4876390  19.2652064
  75.1930797  59.3683138  18.5615404  74.4373230  60.4357234  19.3240016
  71.3642093  59.4403819  19.2013589  71.0260605  59.3244883  18.3134124
  72.2331861  59.0394984  19.1814595  67.2228909  61.2939295  15.1910480
  66.6593774  61.2029232  14.4226768  67.1081304  60.4739199  15.6712972
  71.8461876  60.5938670  25.1599794  71.8350517  60.1991469  24.2880298
  72.0082516  59.8604743  25.7533566  64.7693341  62.7890487  18.0294700
  65.5614633  62.4481311  17.6141000  65.0089991  62.8985462  18.9496854
  66.7284095  62.0499400  10.9012079  67.5014971  61.5028387  10.7624955
  67.0809494  62.9143649  11.1126540  68.5669137  63.3775782  24.1078978
  68.2759003  64.2821413  23.9925645  69.2026122  63.4192310  24.8223048
  69.4925344  60.7552631  20.6980338  70.0888916  60.5308653  19.9837301
  69.5500316  60.0137376  21.3005786  74.1093655  57.2127844  16.3405272
  74.8956745  56.7947267  15.9895689  74.3732360  58.1173936  16.5086921
  79.5102082  57.1503077  17.2438251  80.2427254  56.5802294  17.4776080
  78.7541438  56.7624678  17.6844756  68.7846661  60.1120172  10.7354904
  68.6682919  59.4365075  11.4035988  68.8948921  59.6252546   9.9187057
  71.1278202  59.5730319  14.4401593  70.7636409  59.0460940  15.1514515
  71.9845318  59.1828788  14.2668079  77.0327503  50.8624652  21.7032859
  76.7010828  51.7320063  21.4794074  76.4373116  50.5460936  22.3826890
  70.7683689  54.6020219   9.4362942  70.9358091  55.4700455   9.8033413
  70.5780858  54.7647500   8.5124231  73.5259022  63.0637198  21.1028772
  73.2259745  63.9662236  20.9944579  73.1810082  62.7969381  21.9549925
  66.9771504  59.5150994  17.1365476  66.0522000  59.3827209  17.3443168
  67.2255917  60.2945214  17.6335419  76.9256166  55.5819738  18.7826209
  76.0173043  55.5135146  18.4884970  76.8743762  56.0591683  19.6108035
  70.7472910  57.0577876  10.4209609  70.6272535  57.5034927  11.2595089
  70.0525498  57.4063194   9.8623147  64.3380315  59.1584268  17.9709266
  64.4672696  59.4118747  18.8848677  63.6577766  59.7511976  17.6513921
  70.9997032  57.0009383  26.7261107  70.2230366  57.5603303  26.7163971
  71.6387595  57.4866166  27.2475977  78.7917812  53.7836176  20.5604083
  78.1492193  54.0768709  19.9143878  78.2872741  53.6689096  21.3657280
  69.2543404  59.8094837  26.2879074  69.9958089  60.3479881  26.0113897
  68.5480390  60.4361125  26.4450625  74.7298744  61.9523977  24.8851235
  75.1382100  61.5106388  24.1405868  74.0076005  61.3776605  25.1385428
  71.0829814  56.8896584  22.2584792  71.9291009  57.3135998  22.4019441
  71.0228452  56.2330208  22.9523355  75.0527558  62.5125168  18.6403524
  74.4236421  62.6770882  17.9379592  74.6653221  62.9266777  19.4114488
  74.2329259  54.5500952  23.9165966  73.9890191  55.3043013  23.3800241
  74.5089190  54.9286300  24.7513213  76.1867722  61.0939565  22.5943231
  76.3984617  61.7371325  21.9177612  76.1397470  60.2601881  22.1265161
  73.7893951  53.7057385  19.4979803  72.9278430  54.0038639  19.7896541
  73.8156386  53.9227784  18.5660836  70.6055520  62.2499576  15.9053609
  71.0693866  62.5287279  15.1158232  70.3412318  61.3483020  15.7226700
  67.4979601  61.7971057  18.8433372  68.0680958  62.2258326  18.2050857
  68.0887713  61.5153642  19.5417558  69.5424406  58.3722728  12.7143174
  70.2448450  58.8243772  13.1817101  69.2105035  57.7306547  13.3423067
  67.9904768  56.9634485  27.0894384  67.3603428  57.6450766  27.3229780
  67.8840856  56.8517566  26.1447522  63.2849740  56.6306281  18.0160308
  62.4948794  56.8863809  17.5400418  63.7760988  57.4454619  18.1212348
  77.3013550  63.9711520  20.7665589  78.1230994  63.5691707  20.4848270
  77.2975953  63.8679754  21.7181704  65.2364486  56.9950860  14.9743785
  64.4395649  57.1069554  15.4927280  65.0090078  57.3337512  14.1084675
  71.0670153  63.5195563  22.9226299  71.1314586  63.9815971  23.7584471
  70.3581077  62.8892928  23.0508609  61.5687443  56.8836771  20.4475299
  61.8195482  57.7683781  20.7132875  62.1046992  56.7041373  19.6750390
  85.3919543  60.3150269  17.1150560  84.6383251  59.7457667  16.9594565
  85.5267084  60.2812933  18.0621195  64.2347568  62.7039109  13.3633205
  64.7472089  63.4982359  13.5138769  64.8870281  62.0065399  13.2966806
  66.0442453  65.8204865  15.4455958  66.2209081  66.7422830  15.2576942
  66.8399287  65.5063284  15.8750338  70.1853472  52.6813130  27.0439891
  70.9263185  53.2820283  26.9644354  70.4171394  51.9390768  26.4857934
  65.3294810  57.8669497  25.3218121  65.2148325  56.9654754  25.6225220
  64.4739327  58.1133194  24.9702937  72.4086647  65.8087237  26.9205622
  71.9650502  65.0223616  26.6026526  73.0703861  65.9966388  26.2549512
  67.1673769  67.3383039  21.4466300  67.7181194  67.2100102  20.6743294
  66.3285244  67.6377928  21.0961193  74.5067885  66.0890037  24.9487023
  74.4886361  66.9098918  24.4567292  75.4287805  65.9644113  25.1737164
  70.9640940  63.6034167  25.7910531  71.4969276  62.8422455  25.5609839
  70.4355021  63.3107819  26.5334686  74.1310635  48.7094233  21.3204173
  73.7874904  49.5995874  21.2443284  74.4989597  48.5195890  20.4573758
  62.1996485  61.0327763  14.1392775  63.0371707  61.4424772  13.9226483
  62.3774753  60.0927205  14.1092969  71.6808028  53.5452545  14.8861846
  70.8249625  53.1559395  14.7067485  72.0934980  53.6244505  14.0261632
  73.2107175  51.0798888  19.2853406  72.7071971  51.0429023  18.4721211
  73.5037782  51.9891631  19.3450063  69.4550061  51.1637618  18.2919588
  70.3203058  50.9680426  17.9325477  69.5227570  50.9347969  19.2188945
  73.8847220  56.5729936  11.6536389  73.5797356  56.8876085  12.5046532
  74.8377663  56.6511356  11.6963722  72.3293652  62.7320159  13.3029343
  71.8015014  61.9972919  12.9902581  71.8281155  63.5094836  13.0569312
  77.3086498  60.9269180  18.4196390  76.6510173  61.6168441  18.5076518
  78.1126898  61.3165612  18.7630376  67.0612380  53.3939826  15.6635955
  67.6356132  53.1715007  14.9309148  67.6483362  53.4628520  16.4164556
  76.1191957  59.2813552  16.4700331  76.6323839  59.9143544  16.9722041
  76.7693181  58.6814748  16.1043691  67.3881967  55.4244287   9.6831840
  66.5519279  55.7618973  10.0041115  67.2486737  55.2893266   8.7458977
  69.3635048  50.2681074  14.3911024  68.7099460  49.9530092  13.7667639
  69.3215522  49.6456815  15.1170847  72.5972788  56.7563008  18.7158672
  71.6795349  56.9777955  18.5580360  73.0132932  56.8309318  17.8570379
  73.3807836  58.1554424  13.8461352  74.1279655  58.6675821  13.5368474
  73.6499425  57.8338476  14.7065746  75.8286673  55.1911540  15.8280141
  75.0909430  54.6788926  16.1590384  76.0813446  54.7511922  15.0163418
  75.9298300  47.9687792  16.4221911  76.2357177  47.1085155  16.1347826
  76.6550905  48.5605412  16.2220905  62.2222656  58.3718479  14.8103509
  62.0247056  57.7787839  14.0854575  61.6669320  58.0670689  15.5279447
  70.2019380  58.2641585  16.9298102  70.2567990  57.3115421  16.8540578
  69.3910582  58.4201024  17.4139400  68.1411740  56.8818645  14.6888481
  67.3279605  57.1812815  15.0953673  68.6370734  56.4874334  15.4062963
  70.2920318  66.8776402  16.6222745  70.2496497  67.1037248  15.6931277
  71.2083017  66.6439776  16.7708546  73.7385952  57.3460469  23.5203374
  74.0935339  57.5731942  24.3797840  74.3858083  57.6778846  22.8980630
  67.6325815  54.4537000  20.3049716  68.2725194  54.3125759  19.6072679
  66.8003345  54.1671514  19.9288318  79.4953068  62.5355432  19.2363975
  79.9289575  62.4430721  20.0847029  80.2084649  62.5112933  18.5983991
  68.4086119  63.7539431  16.4184708  69.2026717  63.2589751  16.2167283
  67.6977811  63.2257294  16.0552414  73.2280963  66.1357526  20.7697076
  73.2817985  66.7048463  21.5374792  72.3595744  66.3059411  20.4051113
  64.7168882  57.8982512  12.4944461  63.7866470  57.8366968  12.7114423
  64.8126354  57.3758465  11.6981102  64.6354431  54.4237325  15.0822702
  64.8961248  55.3382659  14.9731863  65.4571603  53.9561768  15.2319315
  66.1079356  55.8375082  22.2521527  66.7802410  55.6292445  21.6034176
  65.2809143  55.6397168  21.8126759  80.3568618  62.5779133  21.7696860
  80.5504508  63.4824943  22.0156135  80.2569236  62.1186552  22.6035445
  72.0104928  52.4637023  24.2687188  71.3632843  53.1626973  24.1751664
  72.7805944  52.8973167  24.6363436  75.4183726  62.7285876  27.3437741
  75.2669233  62.4996427  26.4267825  75.4088406  63.6856477  27.3569086
  72.1869063  60.3017788  22.3284007  73.1161123  60.4528948  22.1552975
  71.7660093  60.3901809  21.4732654  70.9857395  64.3268453  20.0982545
  70.8468480  63.9587237  20.9708483  70.1971991  64.8416092  19.9266503
  72.5362610  63.7050055  17.4871383  72.2012442  63.6650825  18.3829033
  72.0366555  63.0394771  17.0141793  66.5106854  59.1117685  23.0123964
  66.3726652  58.3797924  23.6135503  67.4211777  59.0226586  22.7308152
  69.1389154  58.8237645  22.5007644  69.8488773  58.1830837  22.4594262
  69.0958462  59.0750540  23.4233824  77.1275933  65.7604998  25.4214223
  77.0688479  65.0764218  24.7544806  77.5295451  66.5023988  24.9694849
  67.8518088  55.8102863  24.3203283  67.3155445  55.3593601  24.9724879
  67.2634797  55.9448771  23.5773747  66.1466632  72.5766912  18.2147942
  66.3863230  73.2085436  18.8926960  65.3035828  72.2254952  18.5013301
  67.2620347  55.2691514   6.8829747  66.3849814  55.1480315   6.5191993
  67.7378100  54.4777592   6.6308635  77.1293340  63.7244582  23.6528203
  76.2420119  63.3870504  23.7754601  77.6991891  62.9927613  23.8896968
  58.7822487  60.0568674  16.9771254  59.4693527  59.7430404  16.3892269
  58.6270616  60.9610038  16.7038505  63.5857210  54.9458870  21.4056278
  63.5015398  54.3384540  20.6706688  62.7639916  55.4367889  21.4065774
  70.6594494  68.3846034  20.6189446  70.5864665  69.1901006  21.1308750
  70.2171887  68.5838000  19.7937467  73.7580923  53.4312434  16.7726473
  74.2549623  52.6782396  16.4527543  72.9867905  53.4676751  16.2069682
  81.6110681  59.1352799  18.4144764  81.6000557  60.0177515  18.0438697
  80.7428060  58.7824350  18.2199301  73.1193177  68.2832868  22.7747604
  73.8321149  68.9180333  22.7023506  72.6283206  68.3796734  21.9587606
  74.8410704  62.1884121  14.3464896  73.9066983  62.3085584  14.1769600
  75.0187373  61.2856588  14.0824906  70.3415892  55.5729817  16.4998157
  69.9713680  55.0200857  17.1879063  70.8374985  54.9687950  15.9473157
  78.2283255  58.0301440  14.8814930  78.6943708  58.8629432  14.8075233
  78.6790756  57.5646422  15.5860189  68.1705091  66.0327312  23.5953175
  68.8714550  66.6663795  23.7482569  67.7000206  66.3742043  22.8348815
  76.1999918  50.3982027  18.9205832  75.2862998  50.6286254  19.0888038
  76.6293020  50.4820471  19.7719864  75.9706377  58.5871919  21.4205726
  75.3177827  58.8347827  20.7658178  76.3486757  57.7736058  21.0868203
  72.0193950  59.3291730  27.9071763  71.3434587  59.2285860  28.5774138
  72.8421584  59.1730944  28.3707760  63.7672809  65.5663667  20.5284278
  64.3526246  64.8207355  20.6612182  63.5697647  65.8767624  21.4120942
  66.6211464  68.6014914  15.5446720  65.9521839  69.0861042  15.0610760
  66.4824334  68.8484135  16.4590099  58.3590464  58.1369267  19.2488721
  58.3974563  57.6032858  20.0425839  57.8530756  57.6104473  18.6299698
  70.7616733  70.6358658  22.1429379  71.3135041  70.7990279  22.9078464
  71.1022926  71.2263096  21.4709404  65.7381226  52.9833808  22.7451263
  65.8022552  53.8448639  22.3328661  65.6748346  52.3707809  22.0123622
  65.2133498  55.0556940  26.3924298  65.8405537  54.6734017  27.0061822
  64.3561417  54.8371142  26.7579990  75.6127607  65.4619915  27.9978033
  76.1567511  66.0749874  27.5032988  75.0314452  66.0199494  28.5145046
  61.9899041  56.8633369  12.3242652  62.2852482  55.9544048  12.2709706
  61.0887077  56.8421109  12.0023655  73.8985120  68.5840633  19.1293061
  73.7736259  67.7830373  18.6204006  74.5564211  69.0786827  18.6407031
  65.5193288  54.9389366  18.3070201  64.7979874  55.5525334  18.1677674
  66.3086544  55.4747131  18.2286847  75.9620028  66.3849653  20.7572611
  75.0150364  66.2655005  20.6850938  76.3102801  65.4972151  20.8398872
  68.3219602  52.2743792  24.5810853  68.8454003  52.5206089  25.3437162
  68.1031935  53.1063827  24.1613990  63.7186883  54.5447467  12.4481978
  63.3899589  53.6644846  12.2657084  64.0726253  54.4895136  13.3358367
  72.9666462  66.1802370  16.9576963  72.8191424  65.2519077  17.1384533
  73.7919955  66.2022460  16.4734038  66.8328706  54.8320437  12.8157455
  67.1724778  55.3606358  12.0936064  67.2800826  55.1700843  13.5916022
  76.5700583  67.0030928  18.0441836  77.4947131  66.7973790  17.9066287
  76.4015887  66.7547330  18.9531177  69.5272147  53.2157487  22.2660523
  69.1868967  52.4165301  22.6681203  68.8211153  53.5159198  21.6937357
  70.1788618  50.3006800  20.7187846  71.0014688  49.8267278  20.5966737
  70.4226682  51.0797284  21.2186533  68.8196853  53.3295058  11.0150748
  69.5405215  53.7076311  10.5114465  68.1962157  54.0483935  11.1185726
  72.9627976  54.0340207  11.9509080  73.1791590  54.9164845  11.6497909
  72.4822043  53.6426421  11.2214722  67.7027197  56.9925921  18.5279825
  67.5571778  57.3066224  19.4204106  67.2252401  57.6110821  17.9750724
  69.5623580  53.9828469  18.5760715  69.5485149  53.0869562  18.2393012
  70.2796008  53.9899132  19.2099001  71.4149711  54.4165809  20.6213842
  71.1567489  55.3382879  20.6198172  70.8834751  54.0196243  21.3114306
  62.1772859  59.5331265  21.4667486  61.6326327  60.3091073  21.5987760
  63.0552209  59.8802069  21.3086608  68.9660476  52.8642849  13.8448285
  69.0876387  51.9359495  14.0439172  68.6762518  52.8781535  12.9326600
  71.8351666  50.5497759  16.9815005  71.8573363  50.6137092  16.0266984
  72.2519725  49.7102268  17.1755511  62.9638881  58.6601161  24.3597643
  62.2220617  58.8083797  24.9462273  62.6431626  58.9209427  23.4964392
  70.9082544  68.2017139  24.1578033  71.2169670  67.9566286  25.0300733
  71.7058026  68.4063778  23.6696903  63.4095495  66.5466590  16.3908038
  64.2353515  66.2470362  16.0106681  63.0589547  65.7774212  16.8397826
  68.3777028  65.8993058  18.4605711  67.7557037  65.2363763  18.1607939
  69.0481895  65.9254190  17.7779359  61.6104100  64.4652916  17.3496971
  60.7736008  64.0375091  17.1680973  61.5827745  64.6585360  18.2867762
  68.4501556  54.3774846  28.0538217  68.4989711  55.2536969  27.6715987
  68.9924070  53.8352239  27.4809860  78.9356401  64.9215969  27.3339354
  78.1451945  64.9040108  26.7943854  78.6989756  65.4604263  28.0888391
  79.0554276  61.7708436  24.6472083  79.1052281  61.6058443  25.5887606
  78.9468200  60.9035695  24.2569964  76.3458039  57.7539364  25.9631390
  77.2467901  57.6145829  25.6715387  76.4206013  57.9193819  26.9029567
  70.6800844  55.1306219  24.8084576  69.8104153  55.4239785  24.5367164
  70.9160324  55.7146664  25.5291840  80.5572473  64.1905377  24.8914104
  80.2657281  64.5535358  25.7277565  79.9444604  63.4772386  24.7127437
  81.7568155  61.7558257  17.4116675  82.5915047  62.1948061  17.5754235
  81.8927284  61.2796910  16.5924920  78.8059661  59.3137992  23.3594162
  79.2813783  59.5065638  22.5513014  77.8825227  59.3697178  23.1137546
  65.6943168  60.4762159  12.9425241  65.4489210  59.5724489  13.1405451
  65.8639083  60.4779310  12.0004719  73.3839878  51.3485835  22.3249996
  73.9021822  52.0846862  21.9996485  73.0295011  51.6549829  23.1596755
  64.9638816  56.2090517  10.4411402  64.2708060  56.2834872   9.7851438
  64.7190567  55.4450860  10.9632919  73.6352472  47.7686118  17.8450893
  73.9154226  47.1009307  18.4711319  74.4203079  47.9615214  17.3325557
  77.5061330  56.1903752  21.5922468  78.4578753  56.2901850  21.6134692
  77.3364781  55.3982021  22.1020552  75.5275710  53.2759335  21.7781869
  74.9325642  53.5564348  21.0828358  75.2425407  53.7653236  22.5498610
  79.9849408  59.4109872  20.7064768  79.9525728  58.4725872  20.8924451
  80.5950032  59.4893908  19.9730593  80.1343897  56.2020915  20.7523051
  79.6182945  55.4179372  20.5652980  81.0183845  55.8739632  20.9169570
  77.7954624  49.9461931  16.7118864  77.5979445  49.6377019  17.5962195
  78.4054329  50.6723570  16.8416793  85.8025958  60.4725879  19.8470804
  86.5329347  60.2111167  20.4078508  85.1932904  59.7354600  19.8872872
  83.8841255  58.6133741  20.4445256  83.1574419  58.4789706  19.8361747
  83.4688542  58.9210570  21.2501974  71.7071432  62.3323671  28.2092629
  72.6274441  62.5102270  28.4032675  71.6721015  61.3879716  28.0572328
  60.9253597  57.5262264  17.1345903  60.6056381  56.6727573  16.8420277
  60.3787025  57.7410843  17.8903871  64.7033504  60.2424705  20.8515410
  64.9219514  61.1741813  20.8703444  65.1159278  59.8832680  21.6370214
  71.6237722  50.7492791  12.8391098  70.8138450  50.4039876  13.2146344
  72.3122139  50.4400335  13.4278710  73.5528270  49.8270838  14.4615395
  74.1059309  50.2466291  15.1205418  73.7898357  48.9006586  14.5038351
  69.5761369  55.8157911  30.2418159  69.4758096  56.7652268  30.1730250
  69.3582911  55.4876150  29.3694229  68.7774441  53.0642836   6.8258836
  69.6393605  53.3897735   7.0854653  68.9624785  52.2774332   6.3131902
  60.7941857  61.1465176  19.1039025  60.1005328  60.7319129  18.5908979
  61.5414848  61.1885712  18.5072444  76.9307077  51.9371363  13.9694059
  76.3505746  52.5956167  13.5872112  76.6643010  51.1148707  13.5581477
  75.3810644  51.3376420  16.1715379  75.8810422  51.4492955  15.3629698
  76.0246252  51.0337473  16.8116188  69.4392639  59.2455050  29.0583220
  68.9559721  60.0455410  29.2647109  69.5253579  59.2562995  28.1050664
  62.7078599  61.0783430  16.9805040  62.6849287  61.1771117  16.0286923
  63.0179236  61.9248581  17.3022206  65.3665977  63.1359585  21.0951654
  66.3209231  63.1043527  21.0281586  65.1678501  62.6750209  21.9101880
  65.9565359  61.7060701  23.6622452  66.7758248  62.2004779  23.6857289
  66.2302167  60.7892669  23.6340019  75.7131955  54.0971453  13.0250407
  74.8257810  54.3821104  12.8070602  76.1285944  53.9365216  12.1777684
  79.0646491  54.1217974  16.7404747  79.8406882  54.6114427  17.0129363
  78.3394626  54.5476028  17.1976616  81.5019050  54.8345593  17.7978687
  82.0963541  54.5941329  17.0871995  81.5745634  54.1152724  18.4252224
  63.7216206  68.6779204  18.1121852  63.5870674  67.9179605  17.5459850
  63.3048268  69.4020104  17.6450641  75.6872979  59.6125989  13.2400698
  75.6308180  60.0694540  12.4008330  76.2401322  58.8516674  13.0623540
  79.4977785  55.4015721  14.0650817  79.2414719  55.0012357  14.8959025
  78.8730653  56.1159515  13.9400956  83.8090123  58.1411794  16.5722108
  83.2489681  58.2104983  17.3453671  83.2033626  57.9652779  15.8521605
  66.8785332  69.5748521  18.3240295  66.7617716  70.5193954  18.2218985
  66.0577778  69.2722083  18.7126094  73.7353666  63.1079682  29.8606790
  74.6044825  63.2820334  29.4993424  73.2560417  63.9274099  29.7382519
  69.7303884  50.3038879  10.1138545  69.7182554  51.2480719  10.2706816
  70.6227306  50.1209025   9.8198006  67.9039846  70.2276783  21.5396223
  68.8067092  70.2600393  21.8562718  67.6777216  69.2977234  21.5542559
  69.6593448  68.9807770  18.2006302  68.7089079  68.9809631  18.0870674
  69.9625934  68.2340504  17.6842336  73.5456003  46.8981656  14.3684482
  72.7788399  46.3440143  14.5141164  73.9566708  46.9703525  15.2298634
  82.6855631  75.9230588  25.1599794  82.6744271  75.5283386  24.2880298
  82.8476270  75.1896661  25.7533566  87.8721257  66.1916569  21.7032859
  87.5404582  67.0611980  21.4794074  87.2766871  65.8752853  22.3826890
  81.8390786  72.3301301  26.7261107  81.0624120  72.8895221  26.7163971
  82.4781349  72.8158084  27.2475977  80.0937159  75.1386754  26.2879074
  80.8351843  75.6771798  26.0113897  79.3874144  75.7653043  26.4450625
  85.0723014  69.8792870  23.9165966  84.8283946  70.6334931  23.3800241
  85.3482944  70.2578218  24.7513213  78.8298522  72.2926403  27.0894384
  78.1997183  72.9742683  27.3229780  78.7234610  72.1809484  26.1447522
  72.4081198  72.2128689  20.4475299  72.6589236  73.0975699  20.7132875
  72.9440746  72.0333291  19.6750390  78.1079265  66.5947168  29.4519635
  77.7146211  66.0413367  30.1267279  78.9245405  66.9057747  29.8426152
  81.0247226  68.0105047  27.0439891  81.7656939  68.6112201  26.9644354
  81.2565149  67.2682685  26.4857934  76.1688564  73.1961415  25.3218121
  76.0542079  72.2946672  25.6225220  75.3133082  73.4425112  24.9702937
  84.9704389  64.0386150  21.3204173  84.6268658  64.9287792  21.2443284
  85.3383352  63.8487808  20.4573758  78.4719569  69.7828918  20.3049716
  79.1118948  69.6417677  19.6072679  77.6397100  69.4963431  19.9288318
  76.9473111  71.1667000  22.2521527  77.6196164  70.9584362  21.6034176
  76.1202897  70.9689086  21.8126759  82.8498683  67.7928941  24.2687188
  82.2026598  68.4918891  24.1751664  83.6199698  68.2265085  24.6363436
  77.3500608  74.4409603  23.0123964  77.2120406  73.7089842  23.6135503
  78.2605532  74.3518503  22.7308152  79.9782909  74.1529562  22.5007644
  80.6882527  73.5122755  22.4594262  79.9352217  74.4042457  23.4233824
  78.6911843  71.1394780  24.3203283  78.1549200  70.6885519  24.9724879
  78.1028551  71.2740689  23.5773747  74.4250964  70.2750788  21.4056278
  74.3409153  69.6676458  20.6706688  73.6033670  70.7659806  21.4065774
  82.8587704  74.6583648  27.9071763  82.1828341  74.5577777  28.5774138
  83.6815338  74.5022862  28.3707760  69.1984218  73.4661185  19.2488721
  69.2368318  72.9324775  20.0425839  68.6924511  72.9396390  18.6299698
  76.5774980  68.3125725  22.7451263  76.6416307  69.1740556  22.3328661
  76.5142101  67.6999727  22.0123622  76.0527253  70.3848858  26.3924298
  76.6799292  70.0025935  27.0061822  75.1955172  70.1663060  26.7579990
  79.1613356  67.6035710  24.5810853  79.6847758  67.8498007  25.3437162
  78.9425689  68.4355745  24.1613990  80.3665901  68.5449405  22.2660523
  80.0262722  67.7457218  22.6681203  79.6604907  68.8451116  21.6937357
  81.0182373  65.6298718  20.7187846  81.8408442  65.1559196  20.5966737
  81.2620437  66.4089201  21.2186533  73.0166614  74.8623183  21.4667486
  72.4720082  75.6382991  21.5987760  73.8945964  75.2093987  21.3086608
  73.8032636  73.9893079  24.3597643  73.0614372  74.1375714  24.9462273
  73.4825380  74.2501344  23.4964392  79.2895310  69.7066764  28.0538217
  79.3383466  70.5828887  27.6715987  79.8317824  69.1644157  27.4809860
  87.1851793  73.0831281  25.9631390  88.0861656  72.9437746  25.6715387
  87.2599768  73.2485736  26.9029567  81.5194599  70.4598136  24.8084576
  80.6497908  70.7531702  24.5367164  81.7554079  71.0438581  25.5291840
  84.2233632  66.6777753  22.3249996  84.7415576  67.4138780  21.9996485
  83.8688765  66.9841746  23.1596755  82.5465186  77.6615588  28.2092629
  83.4668196  77.8394187  28.4032675  82.5114769  76.7171634  28.0572328
  80.4155124  71.1449829  30.2418159  80.3151851  72.0944186  30.1730250
  80.1976666  70.8168068  29.3694229  80.2786394  74.5746968  29.0583220
  79.7953476  75.3747328  29.2647109  80.3647333  74.5854913  28.1050664
  76.7959114  77.0352618  23.6622452  77.6152003  77.5296697  23.6857289
  77.0695921  76.1184587  23.6340019  72.0494028  71.3690752  24.3614649
  72.6952891  70.8589706  24.8501874  71.8411179  72.1059434  24.9358074
  76.3891519  68.5158369  28.4589663  77.2522980  68.1595174  28.6692988
  75.8156929  68.1772264  29.1465067  50.1674368   6.9416958  11.8845101
  50.1563009   6.5469756  11.0125605  50.3295008   6.2083030  12.4778873
  46.8881629   9.7254069  10.8324285  46.5971495  10.6299700  10.7170951
  47.5238614   9.7670597  11.5468355  51.8471515   9.4115485   7.8274079
  51.5472238  10.3140524   7.7189886  51.5022574   9.1447668   8.6795232
  49.3209524   3.3487671  13.4506413  48.5442858   3.9081591  13.4409278
  49.9600087   3.8344454  13.9721283  47.5755896   6.1573124  13.0124380
  48.3170581   6.6958168  12.7359204  46.8692882   6.7839413  13.1695932
  53.0511236   8.3002264  11.6096542  53.4594592   7.8584675  10.8651174
  52.3288498   7.7254892  11.8630735  54.5080214   7.4417852   9.3188538
  54.7197109   8.0849612   8.6422919  54.4609962   6.6080168   8.8510468
  55.6226042  10.3189807   7.4910895  56.4443486   9.9169995   7.2093577
  55.6188445  10.2158042   8.4427011  49.3882646   9.8673851   9.6471606
  49.4527078  10.3294258  10.4829778  48.6793569   9.2371216   9.7753916
  50.7299140  12.1565525  13.6450928  50.2862994  11.3701903  13.3271833
  51.3916353  12.3444675  12.9794819  52.8280378  12.4368325  11.6732329
  52.8098853  13.2577206  11.1812599  53.7500298  12.3122400  11.8982471
  49.2853432   9.9512454  12.5155838  49.8181769   9.1900742  12.2855146
  48.7567513   9.6586106  13.2579992  57.8165560   8.8833719   5.9609282
  58.2502067   8.7909008   6.8092336  58.5297141   8.8591220   5.3229298
  51.5493455  12.4835813   7.4942382  51.6030478  13.0526750   8.2620098
  50.6808237  12.6537699   7.1296419  58.6781110   8.9257420   8.4942167
  58.8717000   9.8303231   8.7401442  58.5781728   8.4664839   9.3280752
  53.7396219   9.0764163  14.0683048  53.5881725   8.8474714  13.1513131
  53.7300898  10.0334764  14.0814393  55.4488425  12.1083285  12.1459530
  55.3900971  11.4242505  11.4790113  55.8507944  12.8502275  11.6940156
  55.4505833  10.0722869  10.3773509  54.5632611   9.7348791  10.4999908
  56.0204384   9.3405900  10.6142275  48.9806986  14.7324322   7.3434752
  48.9077157  15.5379293   7.8554057  48.5384379  14.9316287   6.5182774
  51.4405669  14.6311156   9.4992911  52.1533642  15.2658620   9.4268813
  50.9495698  14.7275022   8.6832913  46.4917583  12.3805599  10.3198482
  47.1927042  13.0142082  10.4727876  46.0212698  12.7220331   9.5594121
  50.3406442   5.6770018  14.6317069  49.6647079   5.5764147  15.3019445
  51.1634076   5.5209231  15.0953067  49.0829225  16.9836945   8.8674685
  49.6347533  17.1468567   9.6323771  49.4235418  17.5741383   8.1954710
  53.9340099  11.8098203  14.7223340  54.4780003  12.4228161  14.2278295
  53.3526944  12.3677781  15.2390353  52.2197612  14.9318921   5.8538367
  52.0948752  14.1308660   5.3449313  52.8776703  15.4265114   5.3652337
  54.2832521  12.7327941   7.4817918  53.3362856  12.6133292   7.4096244
  54.6315294  11.8450439   7.5644179  54.8913076  13.3509216   4.7687143
  55.8159623  13.1452077   4.6311594  54.7228379  13.1025617   5.6776484
  49.2295036  14.5495427  10.8823340  49.5382163  14.3044573  11.7546039
  50.0270518  14.7542065  10.3942210  57.2568894  11.2694257  14.0584661
  56.4664437  11.2518395  13.5189160  57.0202248  11.8082550  14.8133698
  57.3766769   8.1186723  11.3717390  57.4264774   7.9536730  12.3132912
  57.2680692   7.2513982  10.9815270  54.6670531   4.1017651  12.6876696
  55.5680394   3.9624116  12.3960694  54.7418506   4.2672106  13.6274874
  58.8784965  10.5383665  11.6159411  58.5869774  10.9013645  12.4522872
  58.2657097   9.8250673  11.4372743  57.1272154   5.6616279  10.0839469
  57.6026275   5.8543925   9.2758320  56.2037719   5.7175465   9.8382853
  50.0283924   8.6801958  14.9337935  50.9486933   8.8580557  15.1277982
  49.9933507   7.7358003  14.7817635  47.8973862   2.1636198  16.9663465
  47.7970589   3.1130555  16.8975557  47.6795404   1.8354437  16.0939536
  47.7605132   5.5933337  15.7828527  47.2772213   6.3933697  15.9892416
  47.8466071   5.6041282  14.8295971  52.0566158   9.4557969  16.5852096
  52.9257317   9.6298622  16.2238731  51.5772909  10.2752386  16.4627826
  46.2252338  16.5755070   8.2641530  47.1279585  16.6078681   8.5808025
  45.9989708  15.6455521   8.2787866  63.7158634  21.1646595   5.9897371
  64.3537044  21.0453343   5.2860711  63.5979476  22.1127439   6.0485323
  60.5248340  21.1174023   5.9258896  60.1866851  21.0015088   5.0379430
  61.3938108  20.7165189   5.9059902  56.3835156  22.9709500   1.9155786
  55.8200021  22.8799437   1.1472074  56.2687551  22.1509404   2.3958279
  61.0068123  22.2708875  11.8845101  60.9956764  21.8761673  11.0125605
  61.1688762  21.5374948  12.4778873  53.9299587  24.4660691   4.7540007
  54.7220879  24.1251516   4.3386306  54.1696238  24.5755667   5.6742160
  57.7275384  25.0545987  10.8324285  57.4365250  25.9591618  10.7170951
  58.3632368  25.0962515  11.5468355  58.6531591  22.4322836   7.4225645
  59.2495163  22.2078858   6.7082608  58.7106562  21.6907581   8.0251093
  60.2884449  21.2500524   1.1646900  59.9242656  20.7231145   1.8759821
  61.1451565  20.8598993   0.9913385  62.6865269  24.7407402   7.8274079
  62.3865992  25.6432441   7.7189886  62.3416329  24.4739586   8.6795232
  56.1377751  21.1921199   3.8610783  55.2128247  21.0597413   4.0688475
  56.3862164  21.9715419   4.3580726  53.4986562  20.8354473   4.6954572
  53.6278943  21.0888952   5.6093984  52.8184013  21.4282181   4.3759227
  57.6686049  31.5051723   0.7945046  57.5910079  32.4559548   0.8733527
  57.0647692  31.1597595   1.4519973  60.1603279  18.6779588  13.4506413
  59.3836613  19.2373508  13.4409278  60.7993842  19.1636371  13.9721283
  58.4149651  21.4865042  13.0124380  59.1564335  22.0250086  12.7359204
  57.7086636  22.1131330  13.1695932  63.8904991  23.6294182  11.6096542
  64.2988347  23.1876593  10.8651174  63.1682252  23.0546810  11.8630735
  60.2436061  18.5666789   8.9830099  61.0897256  18.9906202   9.1264748
  60.1834698  17.9100413   9.6768662  64.2133805  24.1895373   5.3648831
  63.5842668  24.3541087   4.6624899  63.8259467  24.6036982   6.1359795
  63.3935506  16.2271157  10.6411272  63.1496438  16.9813218  10.1045548
  63.6695436  16.6056505  11.4758519  65.3473969  22.7709770   9.3188538
  65.5590864  23.4141529   8.6422919  65.3003717  21.9372086   8.8510468
  62.9500198  15.3827590   6.2225110  62.0884677  15.6808844   6.5141848
  62.9762632  15.5997989   5.2906143  59.7661767  23.9269781   2.6298916
  60.2300113  24.2057484   1.8403538  59.5018565  23.0253225   2.4472006
  56.6585848  23.4741262   5.5678679  57.2287205  23.9028531   4.9296164
  57.2493960  23.1923847   6.2662865  58.7030653  20.0492933  -0.5611519
  59.4054696  20.5013977  -0.0937593  58.3711282  19.4076752   0.0668374
  57.1511015  18.6404690  13.8139690  56.5209675  19.3220971  14.0475087
  57.0447103  18.5287771  12.8692829  52.4455987  18.3076486   4.7405614
  51.6555041  18.5634014   4.2645725  52.9367234  19.1224824   4.8457655
  66.4619797  25.6481725   7.4910895  67.2837240  25.2461912   7.2093577
  66.4582200  25.5449959   8.4427011  60.2276400  25.1965768   9.6471606
  60.2920833  25.6586176  10.4829778  59.5187324  24.5663133   9.7753916
  50.7293690  18.5606976   7.1720605  50.9801729  19.4453986   7.4378181
  51.2653238  18.3811578   6.3995697  59.9424418  26.8633876  -0.4849414
  59.8070093  27.7085412  -0.0564566  60.4834230  27.0653153  -1.2483480
  56.4291757  12.9425456  16.1764941  56.0358703  12.3891654  16.8512586
  57.2457898  13.2536034  16.5671459  53.3953815  24.3809314   0.0878511
  53.9078336  25.1752564   0.2384076  54.0476528  23.6835604   0.0212113
  55.2048700  27.4975070   2.1701264  55.3815328  28.4193035   1.9822248
  56.0005533  27.1833489   2.5995644  59.3459718  14.3583335  13.7685198
  60.0869432  14.9590488  13.6889660  59.5777641  13.6160973  13.2103240
  54.4901056  19.5439702  12.0463428  54.3754572  18.6424959  12.3470527
  53.6345574  19.7903399  11.6948244  61.5692894  27.4857442  13.6450928
  61.1256748  26.6993821  13.3271833  62.2310108  27.6736593  12.9794819
  56.3280015  29.0153244   8.1711607  56.8787440  28.8870307   7.3988601
  55.4891491  29.3148133   7.8206500  63.6674132  27.7660242  11.6732329
  63.6492608  28.5869123  11.1812599  64.5894052  27.6414317  11.8982471
  60.1247186  25.2804372  12.5155838  60.6575523  24.5192660  12.2855146
  59.5961267  24.9878024  13.2579992  51.3602732  22.7097968   0.8638082
  52.1977954  23.1194977   0.6471789  51.5381000  21.7697410   0.8338276
  62.3713422  12.7569093   6.0098713  61.8678217  12.7199228   5.1966518
  62.6644029  13.6661836   6.0695370  58.6156308  12.8407823   5.0164895
  59.4809304  12.6450631   4.6570784  58.6833817  12.6118174   5.9434251
  61.4899899  24.4090364   0.0274650  60.9621261  23.6743124  -0.2852113
  60.9887402  25.1865041  -0.2185382  66.4692745  22.6039385   5.1441696
  65.8116420  23.2938646   5.2321825  67.2733144  22.9935817   5.4875683
  62.5420578  30.9368082  -4.0493691  61.8682277  31.2399778  -3.4408733
  62.9286400  31.7397162  -4.3988234  61.7579035  18.4333213   5.4403978
  60.8401596  18.6548160   5.2825667  62.1739178  18.5079523   4.5815686
  66.0460000  25.9389759   1.3224781  65.5922327  25.0980669   1.3789971
  65.4153967  26.5751157   1.6599561  64.4892939  27.7766256   2.2574599
  64.7815914  28.3371313   1.5386964  64.9991560  28.0694817   3.0127758
  59.3625627  19.9411790   3.6543408  59.4174237  18.9885626   3.5785885
  58.5516829  20.0971229   4.1384707  57.3017987  18.5588850   1.4133787
  56.4885852  18.8583020   1.8198979  57.7976981  18.1644538   2.1308269
  59.4526565  28.5546607   3.3468052  59.4102743  28.7807453   2.4176584
  60.3689263  28.3209981   3.4953853  62.8992198  19.0230674  10.2448681
  63.2541586  19.2502147  11.1043147  63.5464330  19.3549051   9.6225936
  56.7932061  16.1307205   7.0295022  57.4331441  15.9895964   6.3317985
  55.9609592  15.8441719   6.6533624  68.6559315  24.2125637   5.9609282
  69.0895822  24.1200926   6.8092336  69.3690896  24.1883138   5.3229298
  57.5692365  25.4309636   3.1430015  58.3632964  24.9359956   2.9412590
  56.8584058  24.9027499   2.7797720  62.3887210  27.8127731   7.4942382
  62.4424232  28.3818667   8.2620098  61.5201991  27.9829616   7.1296419
  55.2685603  17.5145287   8.9766833  55.9408657  17.3062649   8.3279482
  54.4415390  17.3167373   8.5372066  69.5174864  24.2549338   8.4942167
  69.7110755  25.1595148   8.7401442  69.4175483  23.7956757   9.3280752
  61.1711175  14.1407228  10.9932494  60.5239090  14.8397178  10.8996971
  61.9412191  14.5743372  11.3608743  64.5789973  24.4056080  14.0683048
  64.4275480  24.1766632  13.1513131  64.5694653  25.3626682  14.0814393
  61.3475310  21.9787993   9.0529314  62.2767370  22.1299153   8.8798281
  60.9266340  22.0672014   8.1977961  60.1463641  26.0038658   6.8227852
  60.0074727  25.6357442   7.6953790  59.3578238  26.5186297   6.6511810
  60.7411793  31.1047754  -1.8346612  60.9163549  30.6335797  -1.0200989
  60.0544581  31.7313520  -1.6065351  61.6968856  25.3820260   4.2116690
  61.3618689  25.3421030   5.1074339  61.1972802  24.7164976   3.7387100
  55.6713100  20.7887890   9.7369271  55.5332898  20.0568129  10.3380810
  56.5818024  20.6996790   9.4553458  58.2995401  20.5007850   9.2252950
  59.0095020  19.8601042   9.1839569  58.2564709  20.7520745  10.1479131
  66.2882180  27.4375203  12.1459530  66.2294726  26.7534423  11.4790113
  66.6901698  28.1794193  11.6940156  57.0124335  17.4873068  11.0448590
  56.4761692  17.0363806  11.6970186  56.4241044  17.6218976  10.3019054
  55.3072879  34.2537117   4.9393248  55.5469477  34.8855641   5.6172267
  54.4642075  33.9025157   5.2258608  66.2899587  25.4014787  10.3773509
  65.4026366  25.0640709  10.4999908  66.8598138  24.6697818  10.6142275
  47.9428734  21.7338879   3.7016561  48.6299774  21.4200609   3.1137576
  47.7876863  22.6380243   3.4283812  52.7463456  16.6229075   8.1301584
  52.6621645  16.0154745   7.3951994  51.9246163  17.1138094   8.1311081
  59.8200740  30.0616239   7.3434752  59.7470912  30.8671211   7.8554057
  59.3778134  30.2608205   6.5182774  59.6090520  29.2988009   0.8537574
  58.8258042  29.8409690   0.9475798  60.3083265  29.8161989   1.2531815
  62.2799424  29.9603073   9.4992911  62.9927396  30.5950538   9.4268813
  61.7889453  30.0566939   8.6832913  59.5022139  17.2500022   3.2243464
  59.1319926  16.6971062   3.9124370  59.9981231  16.6458155   2.6718464
  57.3311337  27.7097517  10.3198482  58.0320797  28.3434000  10.4727876
  56.8606452  28.0512248   9.5594121  65.1312623  20.2642124   8.1451032
  64.4784074  20.5118032   7.4903485  65.5093003  19.4506262   7.8113510
  62.0919797  30.3001817   2.2479203  62.2742192  29.4823473   2.7106955
  62.9152783  30.5169510   1.8104093  62.4261963  29.2270003  -0.4905749
  62.9549729  28.7162457  -1.1035587  62.6890182  28.9112533   0.3739784
  61.1800196  21.0061935  14.6317069  60.5040833  20.9056065  15.3019445
  62.0027830  20.8501149  15.0953067  52.9279056  27.2433872   7.2529585
  53.5132492  26.4977560   7.3857489  52.7303894  27.5537829   8.1366248
  55.7817711  30.2785119   2.2692027  55.1128086  30.7631247   1.7856067
  55.6430580  30.5254340   3.1835405  47.5196710  19.8139472   5.9734028
  47.5580810  19.2803063   6.7671146  47.0137003  19.2874678   5.3545005
  59.9222979  32.3128863   8.8674685  60.4741287  32.4760484   9.6323771
  60.2629173  32.9033301   8.1954710  54.8987473  14.6604013   9.4696570
  54.9628799  15.5218843   9.0573968  54.8354593  14.0478014   8.7368929
  54.3739745  16.7327145  13.1169604  55.0011784  16.3504222  13.7307129
  53.5167664  16.5141347  13.4825297  64.7733854  27.1390120  14.7223340
  65.3173758  27.7520079  14.2278295  64.1920699  27.6969699  15.2390353
  63.0591367  30.2610838   5.8538367  62.9342506  29.4600578   5.3449313
  63.7170458  30.7557032   5.3652337  54.6799535  16.6159571   5.0315508
  53.9586121  17.2295538   4.8922981  55.4692791  17.1517336   4.9532154
  65.1226275  28.0619858   7.4817918  64.1756611  27.9425210   7.4096244
  65.4709048  27.1742356   7.5644179  57.4825848  13.9513997  11.3056159
  58.0060250  14.1976294  12.0682469  57.2638182  14.7834032  10.8859297
  62.1272708  27.8572575   3.6822270  61.9797671  26.9289282   3.8629840
  62.9526202  27.8792665   3.1979345  65.7306830  28.6801133   4.7687143
  66.6553378  28.4743995   4.6311594  65.5622134  28.4317534   5.6776484
  58.6878393  14.8927692   8.9905830  58.3475214  14.0935505   9.3926510
  57.9817400  15.1929403   8.4182663  59.3394865  11.9777005   7.4433153
  60.1620935  11.5037483   7.3212043  59.5832929  12.7567489   7.9431839
  56.8633444  18.6696125   5.2525132  56.7178025  18.9836429   6.1449413
  56.3858648  19.2881026   4.6996030  58.7229827  15.6598673   5.3006021
  58.7091396  14.7639767   4.9638319  59.4402255  15.6669337   5.9344307
  60.5755958  16.0936014   7.3459149  60.3173735  17.0153084   7.3443479
  60.0440998  15.6966448   8.0359613  65.5202146  29.1986801   0.1249234
  65.6939024  28.6333223  -0.6276914  66.0131038  29.9987696  -0.0571276
  51.3379106  21.2101470   8.1912793  50.7932574  21.9861278   8.3233067
  52.2158456  21.5572274   8.0331914  52.1245128  20.3371366  11.0842950
  51.3826864  20.4854001  11.6707580  51.8037872  20.5979632  10.2209699
  60.0688791  29.8787344  10.8823340  60.3775917  29.6336491  11.7546039
  60.8664273  30.0833983  10.3942210  60.0909403  32.0325254   3.1128716
  59.6514393  31.5401633   3.8061573  60.8417520  31.4898222   2.8720791
  52.5701742  28.2236795   3.1153344  53.3959762  27.9240567   2.7351988
  52.2195794  27.4544417   3.5643133  57.5383275  27.5763263   5.1851018
  56.9163284  26.9133968   4.8853246  58.2088142  27.6024395   4.5024666
  50.7710347  26.1423121   4.0742278  49.9342255  25.7145296   3.8926279
  50.7433992  26.3355565   5.0113069  57.6107802  16.0545051  14.7783524
  57.6595958  16.9307174  14.3961294  58.1530317  15.5122444  14.2055167
  68.0962648  26.5986174  14.0584661  67.3058192  26.5810313  13.5189160
  67.8596003  27.1374468  14.8133698  68.2160523  23.4478641  11.3717390
  68.2658528  23.2828648  12.3132912  68.1074446  22.5805900  10.9815270
  57.0996782  26.1267186  -1.3390522  57.2484902  26.8102651  -1.9923849
  57.9063225  26.1072276  -0.8241066  65.5064285  19.4309569  12.6876696
  66.4074148  19.2916034  12.3960694  65.5812260  19.5964024  13.6274874
  59.8407091  16.8076423  11.5329883  58.9710400  17.1009990  11.2612471
  60.0766571  17.3916868  12.2537146  69.7178720  25.8675582  11.6159411
  69.4263528  26.2305563  12.4522872  69.1050851  25.1542590  11.4372743
  67.9665908  20.9908197  10.0839469  68.4420030  21.1835843   9.2758320
  67.0431474  21.0467383   9.8382853  62.5446125  13.0256040   9.0495303
  63.0628069  13.7617067   8.7241792  62.1901257  13.3320034   9.8842062
  60.5992187  28.6215317  -3.8678774  60.0266154  29.2405504  -4.3208302
  61.1724981  29.1714679  -3.3338852  66.6667577  17.8673957   8.3167775
  67.6185000  17.9672055   8.3379999  66.4971028  17.0752225   8.8265859
  64.6881957  14.9529540   8.5027176  64.0931889  15.2334553   7.8073664
  64.4031653  15.4423441   9.2743917  69.1455655  21.0880077   7.4310074
  69.1131975  20.1496077   7.6169758  69.7556279  21.1664113   6.6975899
  60.8677678  24.0093876  14.9337935  61.7880688  24.1872475  15.1277982
  60.8327261  23.0649921  14.7817635  50.0859843  19.2032469   3.8591210
  49.7662628  18.3497778   3.5665584  49.5393272  19.4181048   4.6149177
  53.8639751  21.9194910   7.5760717  54.0825761  22.8512018   7.5948750
  54.2765525  21.5602885   8.3615520  58.7367616  17.4928116  16.9663465
  58.6364343  18.4422473  16.8975557  58.5189158  17.1646355  16.0939536
  49.9548103  22.8235381   5.8284332  49.2611575  22.4089334   5.3154286
  50.7021094  22.8655917   5.2317750  58.5998886  20.9225255  15.7828527
  58.1165968  21.7225615  15.9892416  58.6859825  20.9333200  14.8295971
  51.8684846  22.7553635   3.7050346  51.8455534  22.8541322   2.7532230
  52.1785482  23.6018785   4.0267513  54.5272224  24.8129790   7.8196961
  55.4815477  24.7813732   7.7526892  54.3284747  24.3520413   8.6347187
  55.1171606  23.3830906  10.3867759  55.9364495  23.8774984  10.4102596
  55.3908414  22.4662874  10.3585326  52.8822453  30.3549409   4.8367159
  52.7476920  29.5949810   4.2705157  52.4654515  31.0790309   4.3695948
  56.0391578  31.2518726   5.0485601  55.9223963  32.1964159   4.9464292
  55.2184025  30.9492288   5.4371401  50.3706520  17.7169040  11.0859956
  51.0165384  17.2067994  11.5747181  50.1623671  18.4537721  11.6603381
  62.8959912  24.7849887  16.5852096  63.7651072  24.9590539  16.2238731
  62.4166664  25.6044304  16.4627826  57.0646093  31.9046988   8.2641530
  57.9673339  31.9370598   8.5808025  56.8383463  30.9747439   8.2787866
  58.8199695  30.6577975   4.9251608  57.8695326  30.6579836   4.8115981
  59.1232181  29.9110709   4.4087643  54.7104011  14.8636657  15.1834970
  55.5735473  14.5073462  15.3938294  54.1369422  14.5250551  15.8710374
  74.5552388  36.4938513   5.9897371  75.1930798  36.3745260   5.2860711
  74.4373231  37.4419357   6.0485323  71.3642094  36.4465941   5.9258896
  71.0260606  36.3307006   5.0379430  72.2331863  36.0457106   5.9059902
  67.2228910  38.3001418   1.9155786  66.6593775  38.2091354   1.1472074
  67.1081305  37.4801322   2.3958279  71.8461877  37.6000793  11.8845101
  71.8350518  37.2053591  11.0125605  72.0082517  36.8666865  12.4778873
  64.7693342  39.7952609   4.7540007  65.5614634  39.4543434   4.3386306
  65.0089992  39.9047584   5.6742160  66.7284096  39.0561522  -2.3742614
  67.5014972  38.5090509  -2.5129738  67.0809495  39.9205772  -2.1628153
  68.5669138  40.3837905  10.8324285  68.2759004  41.2883536  10.7170951
  69.2026123  40.4254432  11.5468355  69.4925345  37.7614753   7.4225645
  70.0888918  37.5370776   6.7082608  69.5500317  37.0199499   8.0251093
  71.1278203  36.5792442   1.1646900  70.7636411  36.0523063   1.8759821
  71.9845319  36.1890911   0.9913385  73.5259024  40.0699320   7.8274079
  73.2259747  40.9724359   7.7189886  73.1810083  39.8031503   8.6795232
  66.9771505  36.5213117   3.8610783  66.0522001  36.3889331   4.0688475
  67.2255918  37.3007336   4.3580726  64.3380316  36.1646391   4.6954572
  64.4672697  36.4180869   5.6093984  63.6577767  36.7574099   4.3759227
  70.9997033  34.0071506  13.4506413  70.2230367  34.5665426  13.4409278
  71.6387596  34.4928289  13.9721283  69.2543405  36.8156959  13.0124380
  69.9958090  37.3542003  12.7359204  68.5480391  37.4423248  13.1695932
  74.7298745  38.9586100  11.6096542  75.1382101  38.5168510  10.8651174
  74.0076007  38.3838727  11.8630735  71.0829815  33.8958707   8.9830099
  71.9291010  34.3198120   9.1264748  71.0228453  33.2392331   9.6768662
  75.0527560  39.5187290   5.3648831  74.4236422  39.6833005   4.6624899
  74.6653222  39.9328900   6.1359795  74.2329260  31.5563075  10.6411272
  73.9890192  32.3105135  10.1045548  74.5089191  31.9348423  11.4758519
  76.1867723  38.1001687   9.3188538  76.3984618  38.7433447   8.6422919
  76.1397471  37.2664004   8.8510468  73.7893952  30.7119508   6.2225110
  72.9278431  31.0100761   6.5141848  73.8156387  30.9289907   5.2906143
  70.6055522  39.2561698   2.6298916  71.0693867  39.5349401   1.8403538
  70.3412320  38.3545143   2.4472006  67.4979603  38.8033180   5.5678679
  68.0680960  39.2320448   4.9296164  68.0887714  38.5215765   6.2662865
  69.5424408  35.3784851  -0.5611519  70.2448451  35.8305895  -0.0937593
  69.2105036  34.7368670   0.0668374  67.9904769  33.9696607  13.8139690
  67.3603430  34.6512888  14.0475087  67.8840857  33.8579689  12.8692829
  63.2849742  33.6368404   4.7405614  62.4948796  33.8925932   4.2645725
  63.7760989  34.4516741   4.8457655  77.3013551  40.9773643   7.4910895
  78.1230995  40.5753830   7.2093577  77.2975954  40.8741877   8.4427011
  65.2364487  34.0012983   1.6989091  64.4395650  34.1131677   2.2172587
  65.0090079  34.3399635   0.8329982  71.0670155  40.5257686   9.6471606
  71.1314587  40.9878093  10.4829778  70.3581078  39.8955051   9.7753916
  61.5687445  33.8898894   7.1720605  61.8195483  34.7745904   7.4378181
  62.1046993  33.7103495   6.3995697  67.2685512  28.2717373  16.1764941
  66.8752457  27.7183572  16.8512586  68.0851652  28.5827952  16.5671459
  64.2347570  39.7101232   0.0878511  64.7472090  40.5044482   0.2384076
  64.8870282  39.0127522   0.0212113  66.0442454  42.8266988   2.1701264
  66.2209083  43.7484952   1.9822248  66.8399288  42.5125407   2.5995644
  70.1853473  29.6875252  13.7685198  70.9263186  30.2882406  13.6889660
  70.4171396  28.9452890  13.2103240  65.3294811  34.8731620  12.0463428
  65.2148326  33.9716877  12.3470527  64.4739329  35.1195316  11.6948244
  72.4086649  42.8149360  13.6450928  71.9650503  42.0285739  13.3271833
  73.0703862  43.0028510  12.9794819  67.1673770  44.3445162   8.1711607
  67.7181195  44.2162225   7.3988601  66.3285246  44.6440051   7.8206500
  74.5067887  43.0952160  11.6732329  74.4886362  43.9161041  11.1812599
  75.4287807  42.9706235  11.8982471  70.9640941  40.6096289  12.5155838
  71.4969278  39.8484578  12.2855146  70.4355022  40.3169941  13.2579992
  62.1996486  38.0389886   0.8638082  63.0371708  38.4486894   0.6471789
  62.3774754  37.0989328   0.8338276  73.2107176  28.0861011   6.0098713
  72.7071972  28.0491146   5.1966518  73.5037783  28.9953753   6.0695370
  69.4550062  28.1699740   5.0164895  70.3203059  27.9742549   4.6570784
  69.5227571  27.9410092   5.9434251  72.3293654  39.7382282   0.0274650
  71.8015015  39.0035041  -0.2852113  71.8281156  40.5156958  -0.2185382
  77.3086500  37.9331302   5.1441696  76.6510174  38.6230564   5.2321825
  78.1126899  38.3227734   5.4875683  67.0612381  30.4001948   2.3881261
  67.6356133  30.1777130   1.6554454  67.6483364  30.4690643   3.1409863
  72.5972789  33.7625131   5.4403978  71.6795351  33.9840078   5.2825667
  73.0132933  33.8371441   4.5815686  62.2222658  35.3780601   1.5348815
  62.0247057  34.7849962   0.8099882  61.6669322  35.0732811   2.2524754
  70.2019381  35.2703708   3.6543408  70.2567991  34.3177544   3.5785885
  69.3910583  35.4263147   4.1384707  68.1411741  33.8880767   1.4133787
  67.3279607  34.1874938   1.8198979  68.6370735  33.4936456   2.1308269
  70.2920319  43.8838524   3.3468052  70.2496498  44.1099371   2.4176584
  71.2083018  43.6501899   3.4953853  73.7385953  34.3522592  10.2448681
  74.0935341  34.5794065  11.1043147  74.3858084  34.6840969   9.6225936
  67.6325816  31.4599123   7.0295022  68.2725195  31.3187882   6.3317985
  66.8003346  31.1733636   6.6533624  79.4953069  39.5417555   5.9609282
  79.9289576  39.4492844   6.8092336  80.2084650  39.5175055   5.3229298
  68.4086120  40.7601553   3.1430015  69.2026718  40.2651873   2.9412590
  67.6977812  40.2319416   2.7797720  73.2280964  43.1419649   7.4942382
  73.2817987  43.7110585   8.2620098  72.3595746  43.3121534   7.1296419
  64.7168883  34.9044635  -0.7810233  63.7866471  34.8429091  -0.5640271
  64.8126355  34.3820588  -1.5773591  64.6354432  31.4299448   1.8068009
  64.8961250  32.3444781   1.6977169  65.4571605  30.9623890   1.9564622
  66.1079358  32.8437205   8.9766833  66.7802411  32.6354567   8.3279482
  65.2809144  32.6459291   8.5372066  80.3568619  39.5841255   8.4942167
  80.5504509  40.4887066   8.7401442  80.2569237  39.1248674   9.3280752
  72.0104930  29.4699146  10.9932494  71.3632845  30.1689096  10.8996971
  72.7805945  29.9035290  11.3608743  75.4183728  39.7347998  14.0683048
  75.2669234  39.5058550  13.1513131  75.4088407  40.6918600  14.0814393
  72.1869064  37.3079911   9.0529314  73.1161124  37.4591070   8.8798281
  71.7660094  37.3963932   8.1977961  70.9857396  41.3330575   6.8227852
  70.8468481  40.9649360   7.6953790  70.1971992  41.8478215   6.6511810
  72.5362611  40.7112178   4.2116690  72.2012444  40.6712948   5.1074339
  72.0366557  40.0456894   3.7387100  66.5106855  36.1179808   9.7369271
  66.3726653  35.3860047  10.3380810  67.4211778  36.0288708   9.4553458
  69.1389156  35.8299767   9.2252950  69.8488774  35.1892960   9.1839569
  69.0958464  36.0812662  10.1479131  77.1275934  42.7667121  12.1459530
  77.0688480  42.0826341  11.4790113  77.5295453  43.5086111  11.6940156
  67.8518090  32.8164985  11.0448590  67.3155447  32.3655724  11.6970186
  67.2634798  32.9510894  10.3019054  66.1466633  49.5829035   4.9393248
  66.3863231  50.2147559   5.6172267  65.3035830  49.2317075   5.2258608
  77.1293342  40.7306705  10.3773509  76.2420120  40.3932626  10.4999908
  77.6991893  39.9989736  10.6142275  58.7822489  37.0630796   3.7016561
  59.4693528  36.7492526   3.1137576  58.6270617  37.9672161   3.4283812
  63.5857211  31.9520993   8.1301584  63.5015400  31.3446662   7.3951994
  62.7639917  32.4430011   8.1311081  70.6594495  45.3908157   7.3434752
  70.5864666  46.1963128   7.8554057  70.2171888  45.5900123   6.5182774
  73.1193178  45.2894991   9.4992911  73.8321151  45.9242456   9.4268813
  72.6283207  45.3858857   8.6832913  70.3415893  32.5791939   3.2243464
  69.9713681  32.0262980   3.9124370  70.8374986  31.9750073   2.6718464
  68.1705092  43.0389434  10.3198482  68.8714551  43.6725917  10.4727876
  67.7000207  43.3804166   9.5594121  75.9706378  35.5934042   8.1451032
  75.3177828  35.8409949   7.4903485  76.3486758  34.7798180   7.8113510
  72.0193951  36.3353853  14.6317069  71.3434588  36.2347982  15.3019445
  72.8421585  36.1793067  15.0953067  63.7672810  42.5725789   7.2529585
  64.3526247  41.8269477   7.3857489  63.5697648  42.8829746   8.1366248
  66.6211465  45.6077037   2.2692027  65.9521841  46.0923165   1.7856067
  66.4824335  45.8546257   3.1835405  58.3590465  35.1431390   5.9734028
  58.3974564  34.6094980   6.7671146  57.8530758  34.6166595   5.3545005
  70.7616734  47.6420780   8.8674685  71.3135042  47.8052402   9.6323771
  71.1022927  48.2325218   8.1954710  65.7381227  29.9895930   9.4696570
  65.8022554  30.8510761   9.0573968  65.6748347  29.3769932   8.7368929
  65.2133500  32.0619063  13.1169604  65.8405538  31.6796140  13.7307129
  64.3561418  31.8433265  13.4825297  75.6127608  42.4682038  14.7223340
  76.1567512  43.0811996  14.2278295  75.0314453  43.0261616  15.2390353
  61.9899042  33.8695492  -0.9512041  62.2852483  32.9606170  -1.0044987
  61.0887078  33.8483231  -1.2731039  73.8985121  45.5902756   5.8538367
  73.7736261  44.7892496   5.3449313  74.5564212  46.0848949   5.3652337
  65.5193289  31.9451488   5.0315508  64.7979875  32.5587456   4.8922981
  66.3086545  32.4809253   4.9532154  75.9620030  43.3911776   7.4817918
  75.0150365  43.2717127   7.4096244  76.3102803  42.5034274   7.5644179
  68.3219603  29.2805915  11.3056159  68.8454005  29.5268211  12.0682469
  68.1031936  30.1125950  10.8859297  63.7186884  31.5509590  -0.8272716
  63.3899590  30.6706968  -1.0097610  64.0726255  31.4957258   0.0603673
  72.9666463  43.1864492   3.6822270  72.8191425  42.2581200   3.8629840
  73.7919956  43.2084583   3.1979345  66.8328707  31.8382559  -0.4597238
  67.1724780  32.3668481  -1.1818630  67.2800828  32.1762965   0.3161328
  76.5700585  44.0093051   4.7687143  77.4947132  43.8035912   4.6311594
  76.4015888  43.7609452   5.6776484  69.5272148  30.2219610   8.9905830
  69.1868968  29.4227423   9.3926510  68.8211154  30.5221321   8.4182663
  70.1788620  27.3068922   7.4433153  71.0014689  26.8329401   7.3212043
  70.4226683  28.0859406   7.9431839  67.7027199  33.9988043   5.2525132
  67.5571779  34.3128346   6.1449413  67.2252402  34.6172943   4.6996030
  69.5623581  30.9890591   5.3006021  69.5485150  30.0931684   4.9638319
  70.2796009  30.9961255   5.9344307  71.4149712  31.4227931   7.3459149
  71.1567490  32.3445002   7.3443479  70.8834752  31.0258366   8.0359613
  62.1772861  36.5393388   8.1912793  61.6326329  37.3153195   8.3233067
  63.0552211  36.8864192   8.0331914  62.9638883  35.6663284  11.0842950
  62.2220619  35.8145919  11.6707580  62.6431627  35.9271549  10.2209699
  70.9082545  45.2079262  10.8823340  71.2169672  44.9628409  11.7546039
  71.7058027  45.4125900  10.3942210  63.4095496  43.5528712   3.1153344
  64.2353516  43.2532484   2.7351988  63.0589548  42.7836335   3.5643133
  68.3777029  42.9055181   5.1851018  67.7557039  42.2425886   4.8853246
  69.0481896  42.9316313   4.5024666  61.6104101  41.4715039   4.0742278
  60.7736010  41.0437213   3.8926279  61.5827747  41.6647482   5.0113069
  68.4501557  31.3836969  14.7783524  68.4989712  32.2599092  14.3961294
  68.9924071  30.8414362  14.2055167  78.9356403  41.9278092  14.0584661
  78.1451946  41.9102231  13.5189160  78.6989757  42.4666386  14.8133698
  79.0554278  38.7770558  11.3717390  79.1052283  38.6120566  12.3132912
  78.9468201  37.9097817  10.9815270  76.3458040  34.7601486  12.6876696
  77.2467903  34.6207951  12.3960694  76.4206014  34.9255941  13.6274874
  70.6800845  32.1368341  11.5329883  69.8104155  32.4301907  11.2612471
  70.9160326  32.7208786  12.2537146  80.5572474  41.1967500  11.6159411
  80.2657283  41.5597480  12.4522872  79.9444606  40.4834508  11.4372743
  78.8059663  36.3200115  10.0839469  79.2813784  36.5127761   9.2758320
  77.8825228  36.3759300   9.8382853  65.6943169  37.4824282  -0.3329453
  65.4489211  36.5786612  -0.1349243  65.8639084  37.4841432  -1.2749975
  73.3839879  28.3547958   9.0495303  73.9021823  29.0908985   8.7241792
  73.0295012  28.6611951   9.8842062  64.9638817  33.2152639  -2.8343291
  64.2708062  33.2896994  -3.4903255  64.7190569  32.4512983  -2.3121774
  77.5061332  33.1965875   8.3167775  78.4578755  33.2963972   8.3379999
  77.3364782  32.4044143   8.8265859  75.5275711  30.2821458   8.5027176
  74.9325643  30.5626471   7.8073664  75.2425408  30.7715359   9.2743917
  79.9849409  36.4171994   7.4310074  79.9525730  35.4787995   7.6169758
  80.5950033  36.4956031   6.6975899  71.7071433  39.3385793  14.9337935
  72.6274442  39.5164392  15.1277982  71.6721016  38.3941839  14.7817635
  60.9253598  34.5324387   3.8591210  60.6056382  33.6789695   3.5665584
  60.3787026  34.7472965   4.6149177  64.7033505  37.2486828   7.5760717
  64.9219515  38.1803936   7.5948750  65.1159279  36.8894802   8.3615520
  69.5761371  32.8220034  16.9663465  69.4758098  33.7714391  16.8975557
  69.3582913  32.4938273  16.0939536  60.7941858  38.1527299   5.8284332
  60.1005329  37.7381251   5.3154286  61.5414849  38.1947835   5.2317750
  69.4392641  36.2517173  15.7828527  68.9559722  37.0517533  15.9892416
  69.5253580  36.2625118  14.8295971  62.7078600  38.0845552   3.7050346
  62.6849288  38.1833240   2.7532230  63.0179237  38.9310703   4.0267513
  65.3665978  40.1421707   7.8196961  66.3209232  40.1105650   7.7526892
  65.1678502  39.6812331   8.6347187  65.9565360  38.7122823  10.3867759
  66.7758249  39.2066902  10.4102596  66.2302168  37.7954792  10.3585326
  63.7216207  45.6841327   4.8367159  63.5870675  44.9241728   4.2705157
  63.3048269  46.4082227   4.3695948  66.8785333  46.5810644   5.0485601
  66.7617717  47.5256076   4.9464292  66.0577779  46.2784205   5.4371401
  61.2100275  33.0460957  11.0859956  61.8559138  32.5359911  11.5747181
  61.0017426  33.7829639  11.6603381  73.7353667  40.1141805  16.5852096
  74.6044826  40.2882457  16.2238731  73.2560418  40.9336222  16.4627826
  67.9039847  47.2338906   8.2641530  68.8067094  47.2662516   8.5808025
  67.6777217  46.3039357   8.2787866  69.6593449  45.9869892   4.9251608
  68.7089080  45.9871754   4.8115981  69.9625935  45.2402627   4.4087643
  65.5497766  30.1928574  15.1834970  66.4129227  29.8365379  15.3938294
  64.9763176  29.8542469  15.8710374  82.6855632  52.9292711  11.8845101
  82.6744273  52.5345509  11.0125605  82.8476271  52.1958783  12.4778873
  81.8390788  49.3363424  13.4506413  81.0624122  49.8957344  13.4409278
  82.4781351  49.8220207  13.9721283  80.0937160  52.1448877  13.0124380
  80.8351844  52.6833921  12.7359204  79.3874145  52.7715166  13.1695932
  85.0723015  46.8854993  10.6411272  84.8283947  47.6397053  10.1045548
  85.3482945  47.2640340  11.4758519  78.8298524  49.2988525  13.8139690
  78.1997184  49.9804806  14.0475087  78.7234612  49.1871607  12.8692829
  72.4081199  49.2190812   7.1720605  72.6589237  50.1037822   7.4378181
  72.9440747  49.0395413   6.3995697  78.1079266  43.6009291  16.1764941
  77.7146212  43.0475490  16.8512586  78.9245407  43.9119869  16.5671459
  81.0247227  45.0167170  13.7685198  81.7656941  45.6174323  13.6889660
  81.2565150  44.2744808  13.2103240  76.1688565  50.2023537  12.0463428
  76.0542081  49.3008795  12.3470527  75.3133083  50.4487234  11.6948244
  78.4719570  46.7891041   7.0295022  79.1118950  46.6479800   6.3317985
  77.6397101  46.5025554   6.6533624  76.9473112  48.1729123   8.9766833
  77.6196166  47.9646485   8.3279482  76.1202899  47.9751209   8.5372066
  82.8498684  44.7991064  10.9932494  82.2026599  45.4981013  10.8996971
  83.6199700  45.2327208  11.3608743  77.3500609  51.4471726   9.7369271
  77.2120407  50.7151965  10.3380810  78.2605533  51.3580626   9.4553458
  79.9782910  51.1591685   9.2252950  80.6882529  50.5184877   9.1839569
  79.9352218  51.4104580  10.1479131  78.6911844  48.1456903  11.0448590
  78.1549201  47.6947641  11.6970186  78.1028552  48.2802812  10.3019054
  74.4250965  47.2812911   8.1301584  74.3409154  46.6738580   7.3951994
  73.6033672  47.7721929   8.1311081  82.8587705  51.6645771  14.6317069
  82.1828342  51.5639900  15.3019445  83.6815339  51.5084984  15.0953067
  69.1984219  50.4723307   5.9734028  69.2368319  49.9386898   6.7671146
  68.6924512  49.9458513   5.3545005  76.5774982  45.3187848   9.4696570
  76.6416308  46.1802679   9.0573968  76.5142102  44.7061850   8.7368929
  76.0527254  47.3910980  13.1169604  76.6799293  47.0088058  13.7307129
  75.1955173  47.1725182  13.4825297  79.1613357  44.6097833  11.3056159
  79.6847759  44.8560129  12.0682469  78.9425691  45.4417867  10.8859297
  80.3665902  45.5511528   8.9905830  80.0262723  44.7519341   9.3926510
  79.6604909  45.8513239   8.4182663  81.0182374  42.6360840   7.4433153
  81.8408444  42.1621318   7.3212043  81.2620438  43.4151324   7.9431839
  73.0166615  51.8685305   8.1912793  72.4720083  52.6445113   8.3233067
  73.8945965  52.2156110   8.0331914  73.8032637  50.9955201  11.0842950
  73.0614373  51.1437837  11.6707580  73.4825381  51.2563467  10.2209699
  79.2895311  46.7128886  14.7783524  79.3383467  47.5891009  14.3961294
  79.8317826  46.1706279  14.2055167  87.1851794  50.0893404  12.6876696
  88.0861657  49.9499869  12.3960694  87.2599769  50.2547859  13.6274874
  81.5194600  47.4660259  11.5329883  80.6497909  47.7593825  11.2612471
  81.7554080  48.0500704  12.2537146  84.2233634  43.6839876   9.0495303
  84.7415577  44.4200903   8.7241792  83.8688766  43.9903869   9.8842062
  82.5465187  54.6677711  14.9337935  83.4668197  54.8456310  15.1277982
  82.5114770  53.7233756  14.7817635  80.4155125  48.1511951  16.9663465
  80.3151852  49.1006308  16.8975557  80.1976667  47.8230190  16.0939536
  80.2786395  51.5809090  15.7828527  79.7953477  52.3809450  15.9892416
  80.3647334  51.5917035  14.8295971  76.7959115  54.0414741  10.3867759
  77.6152004  54.5358820  10.4102596  77.0695923  53.1246709  10.3585326
  72.0494029  48.3752875  11.0859956  72.6952893  47.8651829  11.5747181
  71.8411180  49.1121557  11.6603381  84.5747421  55.4433722  16.5852096
  85.4438581  55.6174375  16.2238731  84.0954173  56.2628139  16.4627826
  76.3891520  45.5220492  15.1834970  77.2522982  45.1657297  15.3938294
  75.8156931  45.1834387  15.8710374   3.6345797  64.8149039  57.0702328
   4.3670969  64.2448256  57.3040157   2.8785153  64.4270639  57.5108833
   1.1571218  58.5270613  61.5296936   0.8254542  59.3966024  61.3058151
   0.5616831  58.2106897  62.2090967   2.9161527  61.4482138  60.3868160
   2.2735908  61.7414671  59.7407955   2.4116456  61.3335058  61.1921357
   3.0560505  71.1125567  55.8211965   2.3711543  71.4924469  55.2708998
   3.1404354  71.7220894  56.5543913   1.4257265  71.6357482  60.5929666
   2.2474708  71.2337669  60.3112347   1.4219668  71.5325716  61.5445781
   9.5163258  67.9796230  56.9414637   8.7626966  67.4103628  56.7858642
   9.6510799  67.9458895  57.8885272   3.1938906  69.1181160  51.5893859
   2.4168349  68.7792320  51.1449021   3.8730387  69.1233783  50.9148824
   1.4330213  68.5915141  58.2460467   0.7753888  69.2814403  58.3340595
   2.2370612  68.9811573  58.5894453   3.5927403  68.1324867  54.0516780
   3.4545302  68.3226463  53.1237970   3.2363622  68.8944249  54.5084832
   3.6196783  70.2001394  59.0628052   4.0533290  70.1076683  59.9111106
   4.3328364  70.1758894  58.4248068   4.4812332  70.2425094  61.5960937
   4.6748223  71.1470905  61.8420212   4.3812951  69.7832513  62.4299522
   5.7354396  66.7998761  58.2408841   5.7244272  67.6823476  57.8702774
   4.8671775  66.4470312  58.0463378   2.3526970  65.6947402  54.7079007
   2.8187422  66.5275393  54.6339310   2.8034471  65.2292383  55.4124266
   0.6944298  74.6676890  57.8705913   1.6190846  74.4619751  57.7330364
   0.5259602  74.4193291  58.7795254   6.3379006  67.9498980  54.8458304
   6.7810152  67.2006305  54.4477427   5.4605516  67.9409117  54.4632036
   1.4714787  74.5029322  50.3264903   2.1665692  75.1236014  50.5452217
   1.8137937  73.6524673  50.6017281   3.3706210  71.9529027  51.8552233
   3.8957534  72.2916300  51.1301553   3.2828563  71.0176043  51.6715368
   3.1797991  69.4354397  64.4736160   3.2295996  69.2704405  65.4151683
   3.0711914  68.5681656  64.0834041   4.6816188  71.8551339  64.7178181
   4.3900996  72.2181319  65.5541642   4.0688319  71.1418347  64.5391514
   5.8811870  69.4204219  57.2380752   6.7158762  69.8594023  57.4018312
   6.0170999  68.9442872  56.4188997   2.9303376  66.9783953  63.1858239
   3.4057498  67.1711600  62.3777091   2.0068942  67.0343139  62.9401623
   1.6305045  63.8549714  61.4186545   2.5822468  63.9547811  61.4398769
   1.4608496  63.0627982  61.9284629   1.4114932  74.2094094  47.3252526
   1.3328563  73.8753958  48.2188284   2.2324599  74.7015862  47.3243998
   4.1093123  67.0755833  60.5328845   4.0769443  66.1371834  60.7188528
   4.7193747  67.1539870  59.7994670   4.2587611  63.8666877  60.5787128
   3.7426660  63.0825333  60.3917057   5.1427560  63.5385593  60.7433647
   1.9198338  57.6107892  56.5382941   1.7223160  57.3022980  57.4226272
   2.5298044  58.3369531  56.6680870   9.9269673  68.1371840  59.6734881
  10.6573061  67.8757128  60.2342585   9.3176618  67.4000562  59.7136949
   8.0084970  66.2779703  60.2709333   7.2818134  66.1435668  59.6625824
   7.5932257  66.5856531  61.0766051   3.1890206  61.7863936  56.5668824
   3.9650596  62.2760388  56.8393440   2.4638340  62.2121990  57.0240693
   5.6262765  62.4991555  57.6242764   6.2207256  62.2587291  56.9136073
   5.6989349  61.7798685  58.2516301   3.6221500  63.0661682  53.8914894
   3.3658434  62.6658318  54.7223102   2.9974368  63.7805476  53.7665033
   7.9333838  65.8057756  56.3986185   7.3733396  65.8750945  57.1717748
   7.3277341  65.6298740  55.6785682   0.8905581  71.9644619  48.9960964
   1.7251185  71.5325817  48.8138439   0.7289924  71.7926632  49.9237859
  14.4739552  80.1440957  57.0702328  15.2064724  79.5740173  57.3040157
  13.7178907  79.7562557  57.5108833  11.9964972  73.8562531  61.5296936
  11.6648297  74.7257942  61.3058151  11.4010585  73.5398815  62.2090967
  11.8893635  78.5757617  58.6090286  10.9810513  78.5073025  58.3149047
  11.8381231  79.0529562  59.4372112  13.7555282  76.7774055  60.3868160
  13.1129662  77.0706589  59.7407955  13.2510210  76.6626976  61.1921357
   9.1966728  77.5438831  63.7430043   8.9527660  78.2980892  63.2064318
   9.4726659  77.9224179  64.5777290   8.7531420  76.6995265  59.3243880
   7.8915899  76.9976518  59.6160618   8.7793855  76.9165663  58.3924913
   9.0948104  71.7032112  61.1468250   8.7512373  72.5933754  61.0707361
   9.4627066  71.5133770  60.2837835   6.6445498  76.5390424  54.7125923
   5.7887094  76.1497274  54.5331562   7.0572449  76.6182385  53.8525709
   8.1744644  74.0736767  59.1117483   7.6709440  74.0366902  58.2985288
   8.4675251  74.9829510  59.1714140   4.4187530  74.1575497  58.1183665
   5.2840527  73.9618306  57.7589554   4.4865039  73.9285849  59.0453022
   4.3272517  73.2618954  54.2175101   3.6736929  72.9467971  53.5931716
   4.2852991  72.6394694  54.9434924  10.7924142  78.1849419  55.6544218
  10.0546899  77.6726805  55.9854461  11.0450916  77.7449801  54.8427495
  10.8935770  70.9625671  56.2485988  11.1994646  70.1023035  55.9611903
  11.6188374  71.5543291  56.0484982   6.9742398  75.4574903  64.0951265
   6.3270313  76.1564852  64.0015741   7.7443413  75.8911046  64.4627513
   8.7218393  76.4250313  56.5990550   9.2187092  75.6720275  56.2791620
   7.9505374  76.4614630  56.0333759  11.1637387  73.3919907  58.7469909
  10.2500467  73.6224133  58.9152115  11.5930489  73.4758351  59.5983941
   4.4909616  76.2095367  62.0924600   4.1506436  75.4103180  62.4945280
   3.7848622  76.5097077  61.5201434   5.1426088  73.2944679  60.5451923
   5.9652157  72.8205157  60.4230814   5.3864151  74.0735163  61.0450610
   7.9265445  77.0278086  51.7773157   8.1429060  77.9102724  51.4761986
   7.4459512  76.6364300  51.0478799   3.9297945  75.8580728  53.6712362
   4.0513857  74.9297374  53.8703249   3.6399988  75.8719414  52.7590677
   6.7989136  73.5435638  56.8079082   6.8210833  73.6074971  55.8531061
   7.2157195  72.7040147  57.0019588   8.3477347  74.3423715  62.1514073
   8.8659291  75.0784742  61.8260562   7.9932480  74.6487708  62.9860832
   8.5989941  70.7623997  57.6714970   8.8791695  70.0947186  58.2975396
   9.3840548  70.9553093  57.1589634  12.4698800  79.1841631  61.4186545
  13.4216223  79.2839729  61.4398769  12.3002250  78.3919900  61.9284629
  10.4913179  76.2697214  61.6045946   9.8963111  76.5502227  60.9092435
  10.2062876  76.7591115  62.3762687  15.0981366  79.1958794  60.5787128
  14.5820415  78.4117251  60.3917057  15.9821314  78.8677511  60.7433647
  12.7592093  72.9399810  56.5382941  12.5616914  72.6314898  57.4226272
  13.3691798  73.6661449  56.6680870   6.5875191  73.7430670  52.6655175
   5.7775920  73.3977755  53.0410421   7.2759608  73.4338214  53.2542787
   8.5165739  72.8208717  54.2879472   9.0696778  73.2404170  54.9469495
   8.7535826  71.8944465  54.3302428   3.7411910  76.0580715  46.6522913
   4.6031074  76.3835614  46.9118730   3.9262254  75.2712211  46.1395979
  11.8944547  74.9309242  53.7958136  11.3143216  75.5894046  53.4136189
  11.6280479  74.1086587  53.3845554  10.3448113  74.3314300  55.9979456
  10.8447891  74.4430834  55.1893775  10.9883721  74.0275352  56.6380265
  10.6769425  77.0909332  52.8514484   9.7895280  77.3758983  52.6334679
  11.0923414  76.9303096  52.0041761  14.0283961  77.1155853  56.5668824
  14.8044351  77.6052306  56.8393440  13.3032095  77.5413907  57.0240693
  16.4656519  77.8283473  57.6242764  17.0601010  77.5879208  56.9136073
  16.5383103  77.1090603  58.2516301  14.4615254  78.3953600  53.8914894
  14.2052188  77.9950236  54.7223102  13.8368122  79.1097394  53.7665033
  18.7727592  81.1349673  56.3986185  18.2127150  81.2042863  57.1717748
  18.1671095  80.9590658  55.6785682   4.6941353  73.2976758  49.9402622
   4.6820023  74.2418598  50.0970893   5.5864775  73.1146904  49.6462083
   8.5093473  69.8919535  54.1948559   7.7425868  69.3378022  54.3405241
   8.9204178  69.9641404  55.0562711   3.6345798  41.8211162  43.7947634
   4.3670970  41.2510378  44.0285464   2.8785154  41.4332762  44.2354140
   1.1571219  35.5332736  48.2542243   0.8254544  36.4028147  48.0303458
   0.5616832  35.2169020  48.9336273   2.9161529  38.4544260  47.1113467
   2.2735909  38.7476793  46.4653262   2.4116457  38.3397181  47.9166664
   3.0560506  48.1187690  42.5457271   2.3711545  48.4986591  41.9954305
   3.1404356  48.7283016  43.2789219   1.4257266  48.6419604  47.3174972
   2.2474710  48.2399791  47.0357654   1.4219669  48.5387838  48.2691088
   9.5163259  44.9858353  43.6659944   8.7626967  44.4165751  43.5103948
   9.6510800  44.9521017  44.6130578   3.1938907  46.1243283  38.3139165
   2.4168350  45.7854442  37.8694327   3.8730388  46.1295906  37.6394130
   1.4330214  45.5977264  44.9705773   0.7753889  46.2876525  45.0585902
   2.2370614  45.9873696  45.3139760   3.5927405  45.1386989  40.7762087
   3.4545303  45.3288585  39.8483276   3.2363623  45.9006372  41.2330138
   3.6196784  47.2063516  45.7873359   4.0533291  47.1138805  46.6356413
   4.3328365  47.1821017  45.1493375   4.4812334  47.2487217  48.3206244
   4.6748224  48.1533027  48.5665519   4.3812952  46.7894636  49.1544829
   1.2519649  50.4313082  51.9723607   1.1932195  49.7472302  51.3054190
   1.6539167  51.1732072  51.5204233   5.7354397  43.8060883  44.9654148
   5.7244273  44.6885599  44.5948081   4.8671776  43.4532434  44.7708685
   2.3526971  42.7009524  41.4324314   2.8187424  43.5337516  41.3584617
   2.8034472  42.2354506  42.1369572   0.6944299  51.6739012  44.5951220
   1.6190847  51.4681874  44.4575671   0.5259603  51.4255414  45.5040561
   6.3379007  44.9561103  41.5703611   6.7810153  44.2068428  41.1722734
   5.4605517  44.9471239  41.1877343   1.4714788  51.5091444  37.0510209
   2.1665693  52.1298137  37.2697524   1.8137938  50.6586796  37.3262587
   3.3706211  48.9591150  38.5797540   3.8957535  49.2978423  37.8546860
   3.2828564  48.0238165  38.3960675   3.0600117  49.5924054  53.8848738
   2.2695661  49.5748192  53.3453237   2.8233472  50.1312347  54.6397775
   3.1797992  46.4416520  51.1981467   3.2295997  46.2766527  52.1396989
   3.0711916  45.5743779  50.8079347   4.6816189  48.8613461  51.4423488
   4.3900998  49.2243442  52.2786949   4.0688320  48.1480470  51.2636820
   5.8811872  46.4266341  43.9626058   6.7158763  46.8656145  44.1263619
   6.0171000  45.9504994  43.1434304   2.9303377  43.9846076  49.9103546
   3.4057499  44.1773722  49.1022397   2.0068943  44.0405262  49.6646930
   1.6305046  40.8611836  48.1431852   2.5822469  40.9609934  48.1644076
   1.4608497  40.0690105  48.6529936   1.4114933  51.2156216  34.0497833
   1.3328565  50.8816080  34.9433591   2.2324600  51.7077984  34.0489305
   4.1093124  44.0817956  47.2574151   4.0769444  43.1433957  47.4433835
   4.7193748  44.1601993  46.5239976   4.2587613  40.8728999  47.3032435
   3.7426661  40.0887456  47.1162363   5.1427561  40.5447716  47.4678954
   1.9198340  34.6170015  43.2628247   1.7223161  34.3085103  44.1471579
   2.5298045  35.3431654  43.3926177   9.9269674  45.1433963  46.3980188
  10.6573063  44.8819251  46.9587891   9.3176620  44.4062685  46.4382256
   8.0084971  43.2841825  46.9954639   7.2818135  43.1497790  46.3871131
   7.5932258  43.5918654  47.8011357   3.1890208  38.7926058  43.2914130
   3.9650598  39.2822511  43.5638747   2.4638342  39.2184112  43.7486000
   5.6262766  39.5053677  44.3488071   6.2207257  39.2649413  43.6381379
   5.6989350  38.7860808  44.9761607   3.6221501  40.0723805  40.6160201
   3.3658435  39.6720441  41.4468408   2.9974369  40.7867599  40.4910340
   7.9333839  42.8119878  43.1231492   7.3733397  42.8813068  43.8963054
   7.3277342  42.6360863  42.4030988   0.8905582  48.9706741  35.7206271
   1.7251186  48.5387940  35.5383746   0.7289925  48.7988755  36.6483166
   9.5189857  59.4876392  45.8161448  10.1568267  59.3683140  45.1124788
   9.4010700  60.4357236  45.8749400   6.3279564  59.4403820  45.7522973
   5.9898075  59.3244885  44.8643507   7.1969332  59.0394985  45.7323979
   2.1866379  61.2939297  41.7419863   1.6231244  61.2029234  40.9736151
   2.0718774  60.4739201  42.2222356   6.8099347  60.5938672  51.7109178
   6.7987987  60.1991470  50.8389682   6.9719986  59.8604745  52.3042950
   7.7665938  64.9610264  37.0534328   7.1153918  65.5464345  36.6668342
   8.5610301  65.4916459  37.1129366   1.6921565  62.0499402  37.4521463
   2.4652441  61.5028389  37.3134339   2.0446964  62.9143651  37.6635924
   3.5306608  63.3775784  50.6588362   3.2396474  64.2821415  50.5435028
   4.1663592  63.4192311  51.3732432   4.4562815  60.7552632  47.2489722
   5.0526387  60.5308655  46.5346685   4.5137786  60.0137378  47.8515170
   4.0287843  58.2092068  35.0839913   4.2813364  57.6873589  34.3223376
   3.0912402  58.0458213  35.1866596   9.0731126  57.2127846  42.8914656
   9.8594215  56.7947269  42.5405073   9.3369830  58.1173938  43.0596304
   9.2441203  62.6500696  37.5903313   8.6087036  62.7235323  38.3024217
   8.9138610  63.2394295  36.9122392  14.4739553  57.1503079  43.7947634
  15.2064725  56.5802296  44.0285464  13.7178909  56.7624680  44.2354140
   3.7484132  60.1120174  37.2864288   3.6320390  59.4365077  37.9545372
   3.8586392  59.6252548  36.4696441   6.0915673  59.5730321  40.9910977
   5.7273880  59.0460942  41.7023898   6.9482789  59.1828790  40.8177462
  11.9964973  50.8624653  48.2542243  11.6648298  51.7320064  48.0303458
  11.4010587  50.5460937  48.9336273   5.7321160  54.6020220  35.9872325
   5.8995562  55.4700457  36.3542796   5.5418329  54.7647502  35.0633615
   8.4896493  63.0637199  47.6538156   8.1897216  63.9662238  47.5453963
   8.1447552  62.7969383  48.5059309   1.9408974  59.5150996  43.6874860
   1.0159471  59.3827210  43.8952552   2.1893388  60.2945215  44.1844803
  11.8893637  55.5819740  45.3335593  10.9810514  55.5135148  45.0394354
  11.8381232  56.0591684  46.1617419   5.7110381  57.0577878  36.9718992
   5.5910006  57.5034929  37.8104472   5.0162969  57.4063196  36.4132530
   3.4717273  69.8281520  40.6209123   3.3941302  70.7789345  40.6997604
   2.8678916  69.4827392  41.2784050   5.9634502  57.0009385  53.2770490
   5.1867836  57.5603305  53.2673355   6.6025065  57.4866168  53.7985360
  13.7555283  53.7836178  47.1113467  13.1129663  54.0768711  46.4653262
  13.2510212  53.6689098  47.9166664  11.4095447  57.5299351  37.7999326
  12.3213303  57.7626738  37.6247024  10.9005094  58.1136395  37.2374405
   4.2180875  59.8094838  52.8388457   4.9595559  60.3479882  52.5623281
   3.5117860  60.4361127  52.9960009   9.6936214  61.9523979  51.4360619
  10.1019570  61.5106389  50.6915251   8.9713476  61.3776606  51.6894812
   6.0467284  56.8896586  48.8094176   6.8928480  57.3135999  48.9528825
   5.9865922  56.2330210  49.5032739  10.0165029  62.5125170  45.1912908
   9.3873891  62.6770884  44.4888976   9.6290691  62.9266779  45.9623872
  13.8954261  63.4479607  42.5457271  13.2105299  63.8278509  41.9954305
  13.9798110  64.0574934  43.2789219   9.1966730  54.5500954  50.4675349
   8.9527662  55.3043015  49.9309625   9.4726660  54.9286302  51.3022596
  11.1505192  61.0939566  49.1452615  11.3622088  61.7371326  48.4686996
  11.1034941  60.2601883  48.6774545   8.7531421  53.7057387  46.0489187
   7.8915900  54.0038641  46.3405925   8.7793856  53.9227786  45.1170220
   5.5692991  62.2499578  42.4562993   6.0331336  62.5287281  41.6667615
   5.3049789  61.3483022  42.2736083   2.4617072  61.7971059  45.3942756
   3.0318429  62.2258328  44.7560241   3.0525184  61.5153644  46.0926942
   4.5061877  58.3722730  39.2652558   5.2085920  58.8243774  39.7326484
   4.1742505  57.7306549  39.8932451   2.9542238  56.9634487  53.6403767
   2.3240899  57.6450768  53.8739164   2.8478326  56.8517568  52.6956906
  12.2651020  63.9711522  47.3174972  13.0868464  63.5691709  47.0357654
  12.2613423  63.8679756  48.2691088   6.0307624  63.5195565  49.4735683
   6.0952056  63.9815972  50.3093855   5.3218548  62.8892930  49.6017993
  20.3557013  60.3150270  43.6659944  19.6020722  59.7457668  43.5103948
  20.4904555  60.2812935  44.6130578   5.7455642  65.1863673  39.3414663
   5.6101316  66.0315208  39.7699511   6.2865454  65.3882950  38.5780597
   2.2322981  51.2655253  56.0029018   1.8389927  50.7121451  56.6776663
   3.0489122  51.5765831  56.3935536   1.0079924  65.8204867  41.9965341
   1.1846552  66.7422832  41.8086325   1.8036757  65.5063286  42.4259721
   5.1490942  52.6813132  53.5949275   5.8900656  53.2820285  53.5153737
   5.3808865  51.9390769  53.0367317   7.3724118  65.8087239  53.4715005
   6.9287972  65.0223618  53.1535910   8.0341332  65.9966390  52.8058896
   2.1311239  67.3383041  47.9975684   2.6818664  67.2100104  47.2252678
   1.2922715  67.6377930  47.6470577   9.4705356  66.0890039  51.4996406
   9.4523831  66.9098920  51.0076676  10.3925276  65.9644114  51.7246548
   5.9278410  63.6034169  52.3419915   6.4606747  62.8422457  52.1119223
   5.3992491  63.3107820  53.0844069   9.0948105  48.7094235  47.8713557
   8.7512375  49.5995876  47.7952667   9.4627068  48.5195892  47.0083142
   9.0598388  58.7002846  36.3785992   8.5445011  59.4707450  36.6174379
   8.7875696  58.0267982  37.0019053   6.6445499  53.5452546  41.4371230
   5.7887095  53.1559397  41.2576869   7.0572451  53.6244507  40.5771016
   8.1744646  51.0798890  45.8362790   7.6709441  51.0429025  45.0230595
   8.4675252  51.9891632  45.8959447   4.4187531  51.1637619  44.8428972
   5.2840528  50.9680428  44.4834861   4.4865040  50.9347971  45.7698328
  14.0332662  61.4535200  38.3139165  13.2562105  61.1146360  37.8694327
  14.7124143  61.4587823  37.6394130   8.8484691  56.5729938  38.2045773
   8.5434827  56.8876087  39.0555916   9.8015133  56.6511358  38.2473106
   7.2931123  62.7320161  39.8538727   6.7652484  61.9972921  39.5411964
   6.7918626  63.5094837  39.6078695  12.2723969  60.9269182  44.9705773
  11.6147643  61.6168443  45.0585902  13.0764368  61.3165613  45.3139760
   2.0249850  53.3939827  42.2145338   2.5993602  53.1715009  41.4818531
   2.6120833  53.4628522  42.9673940  11.0829428  59.2813554  43.0209715
  11.5961309  59.9143546  43.5231425  11.7330652  58.6814750  42.6553075
   2.3519438  55.4244288  36.2341224   1.5156750  55.7618975  36.5550498
   2.2124207  55.2893268  35.2968361   4.3272518  50.2681076  40.9420408
   3.6736931  49.9530093  40.3177023   4.2852992  49.6456817  41.6680231
   5.4383723  60.5500371  32.8573700   4.5310785  60.3189625  33.0564849
   5.9354755  59.7537991  33.0447681   8.3451802  69.2597879  35.7770386
   7.6713501  69.5629575  36.3855344   8.7317624  70.0626959  35.4275843
   7.5610259  56.7563010  45.2668055   6.6432820  56.9777957  45.1089744
   7.9770402  56.8309320  44.4079763   8.3445306  58.1554425  40.3970736
   9.0917125  58.6675823  40.0877858   8.6136896  57.8338478  41.2575129
   6.6171956  60.6512966  37.3797690   5.7083176  60.3671999  37.4770160
   6.6467040  61.0712045  36.5200997  11.8491224  64.2619556  41.1488858
  11.3953551  63.4210466  41.2054048  11.2185191  64.8980954  41.4863638
  10.7924143  55.1911542  42.3789525  10.0546900  54.6788928  42.7099768
  11.0450917  54.7511923  41.5672802  10.2924163  66.0996052  42.0838676
  10.5847138  66.6601109  41.3651041  10.8022784  66.3924613  42.8391835
  10.8935771  47.9687794  42.9731294  11.1994648  47.1085157  42.6857209
  11.6188376  48.5605414  42.7730288   5.1656851  58.2641587  43.4807485
   5.2205460  57.3115423  43.4049962   4.3548053  58.4201026  43.9648784
   6.3148044  62.1921710  34.7185769   5.8767474  61.4757569  34.2591406
   7.0558485  62.4197825  34.1570860   3.1049210  56.8818647  41.2397864
   2.2917076  57.1812817  41.6463056   3.6008205  56.4874335  41.9572346
   5.2557788  66.8776403  43.1732129   5.2133967  67.1037250  42.2440661
   6.1720487  66.6439778  43.3217930   8.7023422  57.3460471  50.0712758
   9.0572810  57.5731944  50.9307224   9.3495553  57.6778848  49.4490013
  14.4321159  60.4678907  40.7762087  14.2939058  60.6580503  39.8483276
  14.0757378  61.2298290  41.2330138   2.5963285  54.4537002  46.8559099
   3.2362665  54.3125761  46.1582062   1.7640816  54.1671515  46.4797701
  14.4590539  62.5355434  45.7873359  14.8927045  62.4430723  46.6356413
  15.1722119  62.5112934  45.1493375   3.3723589  63.7539432  42.9694092
   4.1664188  63.2589753  42.7676667   2.6615281  63.2257296  42.6061797
   8.1918434  66.1357528  47.3206459   8.2455456  66.7048464  48.0884175
   7.3233215  66.3059413  46.9560496  15.3206088  62.5779135  48.3206244
  15.5141978  63.4824945  48.5665519  15.2206706  62.1186554  49.1544829
   6.9742399  52.4637025  50.8196571   6.3270314  53.1626975  50.7261048
   7.7443414  52.8973169  51.1872820  10.3821197  62.7285877  53.8947125
  10.2306703  62.4996429  52.9777208  10.3725876  63.6856479  53.9078470
   7.1506533  60.3017790  48.8793391   8.0798593  60.4528950  48.7062358
   6.7297563  60.3901811  48.0242038   5.9494865  64.3268454  46.6491929
   5.8105951  63.9587239  47.5217867   5.1609461  64.8416094  46.4775887
   6.5443017  69.4277551  37.9917465   6.7194773  68.9565594  38.8063088
   5.8575805  70.0543317  38.2198726   7.5000080  63.7050057  44.0380767
   7.1649913  63.6650827  44.9338416   7.0004026  63.0394773  43.5651177
   1.4744324  59.1117687  49.5633348   1.3364122  58.3797926  50.1644887
   2.3849248  59.0226587  49.2817535  10.4359272  61.0506092  34.3117826
   9.8188443  60.3252920  34.2150879   9.9675760  61.8115452  33.9684900
   4.1026625  58.8237647  49.0517027   4.8126243  58.1830839  49.0103646
   4.0595933  59.0750541  49.9743208  12.0913404  65.7605000  51.9723607
  12.0325950  65.0764220  51.3054190  12.4932922  66.5023990  51.5204233
   2.8155559  55.8102864  50.8712667   2.2792916  55.3593603  51.5234263
   2.2272267  55.9448773  50.1283131   2.2257818  55.2691516  33.4339130
   1.3487284  55.1480317  33.0701377   2.7015571  54.4777594  33.1818019
  12.0930811  63.7244584  50.2037586  11.2057590  63.3870506  50.3263985
  12.6629362  62.9927615  50.4406352   5.6231964  68.3846036  47.1698829
   5.5502136  69.1901008  47.6818134   5.1809357  68.5838002  46.3446851
   5.4121744  67.6217806  40.6801651   4.6289266  68.1639486  40.7739875
   6.1114489  68.1391786  41.0795892   8.7218394  53.4312436  43.3235856
   9.2187093  52.6782398  43.0036927   7.9505375  53.4676752  42.7579066
  16.5748151  59.1352801  44.9654148  16.5638028  60.0177517  44.5948081
  15.7065531  58.7824352  44.7708685   8.0830648  68.2832870  49.3256988
   8.7958620  68.9180335  49.2532890   7.5920676  68.3796736  48.5096990
   9.8048175  62.1884123  40.8974280   8.8704453  62.3085585  40.7278984
   9.9824843  61.2856590  40.6334290   5.3053363  55.5729819  43.0507541
   4.9351150  55.0200859  43.7388447   5.8012455  54.9687952  42.4982541
  13.1920726  58.0301442  41.4324314  13.6581178  58.8629434  41.3584617
  13.6428226  57.5646424  42.1369572   3.1342561  66.0327314  50.1462559
   3.8352021  66.6663797  50.2991953   2.6637676  66.3742045  49.3858198
  11.2596957  64.3745263  38.4310466  11.5356801  64.2601858  39.3404340
  10.3901456  63.9762748  38.3922639  11.1637389  50.3982029  45.4715215
  10.2500469  50.6286256  45.6397422  11.5930490  50.4820473  46.3229248
  10.9343847  58.5871921  47.9715109  10.2815297  58.8347829  47.3167562
  11.3124227  57.7736059  47.6377587   7.8951021  68.6231614  42.0743280
   8.0773416  67.8053270  42.5371032   8.7184007  68.8399307  41.6368170
   8.2293187  67.5499799  39.3358328   8.7580953  67.0392254  38.7228490
   8.4921406  67.2342330  40.2003861   6.9831420  59.3291732  54.4581146
   6.3072057  59.2285861  55.1283522   7.8059054  59.1730946  54.9217144
   1.5848935  68.6014916  42.0956104   0.9159310  69.0861044  41.6120144
   1.4461804  68.8484137  43.0099482   5.7254203  70.6358660  48.6938762
   6.2772511  70.7990281  49.4587848   6.0660397  71.2263097  48.0218787
   0.7018696  52.9833809  49.2960647   0.7660023  53.8448640  48.8838045
   0.6385817  52.3707811  48.5633006  10.5765077  65.4619917  54.5487417
  11.1204981  66.0749875  54.0542372   9.9951922  66.0199496  55.0654430
   8.8622590  68.5840635  45.6802444   8.7373730  67.7830375  45.1713390
   9.5201682  69.0786828  45.1916414  10.9257499  66.3849655  47.3081995
   9.9787834  66.2655006  47.2360321  11.2740272  65.4972153  47.3908256
   3.2857072  52.2743794  51.1320236   3.8091474  52.5206091  51.8946546
   3.0669405  53.1063829  50.7123374   7.9303932  66.1802371  43.5086347
   7.7828895  65.2519079  43.6893917   8.7557426  66.2022462  43.0243422
   1.7966176  54.8320439  39.3666839   2.1362249  55.3606360  38.6445447
   2.2438297  55.1700845  40.1425405  11.5338054  67.0030930  44.5951220
  12.4584601  66.7973791  44.4575671  11.3653357  66.7547331  45.5040561
   4.4909617  53.2157489  48.8169907   4.1506438  52.4165302  49.2190587
   3.7848623  53.5159200  48.2446740   5.1426089  50.3006802  47.2697230
   5.9652158  49.8267280  47.1476120   5.3864153  51.0797285  47.7695916
   3.7834324  53.3295060  37.5660132   4.5042686  53.7076313  37.0623849
   3.1599628  54.0483937  37.6695110   7.9265446  54.0340209  38.5018464
   8.1429061  54.9164847  38.2007292   7.4459514  53.6426422  37.7724106
   2.6664668  56.9925922  45.0789209   2.5209249  57.3066225  45.9713490
   2.1889871  57.6110823  44.5260107   4.5261051  53.9828470  45.1270098
   4.5122619  53.0869564  44.7902396   5.2433479  53.9899134  45.7608384
   6.3787181  54.4165810  47.1723226   6.1204959  55.3382881  47.1707556
   5.8472222  54.0196245  47.8623690  11.3233370  67.5216598  39.9513311
  11.4970248  66.9563020  39.1987163  11.8162261  68.3217492  39.7692801
   3.9297947  52.8642851  40.3957668   4.0513858  51.9359497  40.5948556
   3.6399989  52.8781537  39.4835984   6.7989137  50.5497761  43.5324388
   6.8210834  50.6137094  42.5776368   7.2157196  49.7102270  43.7264894
  17.1772761  60.2853021  41.5703611  17.6203907  59.5360346  41.1722734
  16.2999272  60.2763157  41.1877343  12.3108543  66.8383362  37.0510209
  13.0059447  67.4590055  37.2697524  12.6531693  65.9878713  37.3262587
  14.2099966  64.2883068  38.5797540  14.7351290  64.6270340  37.8546860
  14.1222318  63.3530083  38.3960675   5.8720014  68.2017141  50.7087417
   6.1807141  67.9566288  51.5810116   6.6695496  68.4063780  50.2206287
   5.8940627  70.3555051  42.9392793   5.4545617  69.8631430  43.6325650
   6.6448743  69.8128018  42.6984868   3.3414499  65.8993060  45.0115095
   2.7194508  65.2363765  44.7117323   4.0119366  65.9254192  44.3288743
   3.4139026  54.3774848  54.6047601   3.4627182  55.2536971  54.2225371
   3.9561540  53.8352241  54.0319244  13.8993872  64.9215971  53.8848738
  13.1089416  64.9040110  53.3453237  13.6627226  65.4604265  54.6397775
  14.0191747  61.7708438  51.1981467  14.0689752  61.6058445  52.1396989
  13.9105670  60.9035697  50.8079347   2.9028006  64.4496983  38.4873555
   3.0516126  65.1332448  37.8340228   3.7094449  64.4302073  39.0023011
  11.3095509  57.7539366  52.5140773  12.2105372  57.6145830  52.2224771
  11.3843484  57.9193820  53.4538951   5.6438315  55.1306220  51.3593960
   4.7741624  55.4239786  51.0876548   5.8797795  55.7146665  52.0801223
  15.5209944  64.1905379  51.4423488  15.2294752  64.5535360  52.2786949
  14.9082075  63.4772387  51.2636820  16.7205626  61.7558259  43.9626058
  17.5552517  62.1948063  44.1263619  16.8564755  61.2796912  43.1434304
  13.7697132  59.3137994  49.9103546  14.2451254  59.5065640  49.1022397
  12.8462697  59.3697180  49.6646930   8.3477348  51.3485837  48.8759380
   8.8659292  52.0846864  48.5505869   7.9932481  51.6549831  49.7106139
   8.5989943  47.7686120  44.3960277   8.8791696  47.1009309  45.0220703
   9.3840550  47.9615215  43.8834940   6.4023411  66.9445114  35.9585303
   5.8297378  67.5635301  35.5055775   6.9756205  67.4944475  36.4925225
  12.4698801  56.1903754  48.1431852  13.4216224  56.2901851  48.1644076
  12.3002251  55.3982022  48.6529936  10.4913180  53.2759337  48.3291253
   9.8963113  53.5564350  47.6337741  10.2062877  53.7653238  49.1007994
   9.6220671  67.2282264  37.0893885  10.5551344  67.1627826  37.2926761
   9.5343884  68.0638531  36.6308418  12.2508688  66.5448134  34.0497833
  12.1722319  66.2107998  34.9433591  13.0718354  67.0369902  34.0489305
  14.9486879  59.4109873  47.2574151  14.9163199  58.4725874  47.4433835
  15.5587502  59.4893910  46.5239976   6.7870210  58.2805926  33.3001355
   7.7329314  58.1512135  33.3689773   6.4084455  57.5420588  33.7770784
  15.0981367  56.2020917  47.3032435  14.5820416  55.4179374  47.1162363
  15.9821316  55.8739634  47.4678954  12.7592094  49.9461932  43.2628247
  12.5616915  49.6377021  44.1471579  13.3691800  50.6723571  43.3926177
  20.7663429  60.4725880  46.3980188  21.4966817  60.2111168  46.9587891
  20.1570374  59.7354602  46.4382256  18.8478726  58.6133743  46.9954639
  18.1211889  58.4789708  46.3871131  18.4326013  58.9210572  47.8011357
   6.6708902  62.3323673  54.7602012   7.5911912  62.5102272  54.9542059
   6.6358485  61.3879718  54.6081712   4.9713127  56.2055903  33.2356241
   4.0644582  55.9089016  33.3118954   5.2489108  55.9085721  32.3690527
   6.5875192  50.7492793  39.3900482   5.7775921  50.4039878  39.7655728
   7.2759609  50.4400336  39.9788093   8.5165741  49.8270839  41.0124779
   9.0696779  50.2466293  41.6714802   8.7535827  48.9006587  41.0547735
   4.5398840  55.8157913  56.7927542   4.4395567  56.7652270  56.7239634
   4.3220382  55.4876152  55.9203613   3.7411911  53.0642838  33.3768220
   4.6031075  53.3897736  33.6364037   3.9262256  52.2774334  32.8641286
  11.8944548  51.9371365  40.5203443  11.3143217  52.5956169  40.1381495
  11.6280481  51.1148709  40.1090860  10.3448114  51.3376422  42.7224763
  10.8447893  51.4492957  41.9139082  10.9883722  51.0337475  43.3625572
   4.4030110  59.2455052  55.6092604   3.9197192  60.0455412  55.8156493
   4.4891049  59.2562997  54.6560048   0.9202830  61.7060703  50.2131836
   1.7395719  62.2004781  50.2366673   1.1939637  60.7892671  50.1849403
  10.6769426  54.0971455  39.5759791   9.7895281  54.3821106  39.3579986
  11.0923415  53.9365218  38.7287068  14.0283962  54.1217976  43.2914130
  14.8044352  54.6114428  43.5638747  13.3032096  54.5476030  43.7486000
  16.4656521  54.8345595  44.3488071  17.0601011  54.5941331  43.6381379
  16.5383104  54.1152726  44.9761607   9.8212639  63.8616130  33.6707811
  10.5248489  64.0666132  34.2865467   9.0975288  64.4292891  33.9356895
  10.6510450  59.6125991  39.7910081  10.5945651  60.0694542  38.9517714
  11.2038792  58.8516675  39.6132924  14.4615256  55.4015723  40.6160201
  14.2052190  55.0012358  41.4468408  13.8368124  56.1159517  40.4910340
  18.7727593  58.1411796  43.1231492  18.2127151  58.2104985  43.8963054
  18.1671097  57.9652781  42.4030988   1.8422802  69.5748523  44.8749678
   1.7255186  70.5193956  44.7728369   1.0215248  69.2722085  45.2635478
  11.7299337  64.2998659  35.7206271  12.5644941  63.8679857  35.5383746
  11.5683680  64.1280672  36.6483166  11.3845229  60.8030772  37.0862610
  11.3294033  60.6375044  36.1451055  10.7591284  61.5106805  37.2424800
   8.6991136  63.1079684  56.4116173   9.5682296  63.2820336  56.0502808
   8.2197888  63.9274101  56.2891903   4.6941354  50.3038881  36.6647929
   4.6820024  51.2480721  36.8216200   5.5864776  50.1209026  36.3707390
   2.8677316  70.2276785  48.0905607   3.7704563  70.2600395  48.4072102
   2.6414686  69.2977236  48.1051943   4.6230918  68.9807771  44.7515685
   3.6726549  68.9809633  44.6380058   4.9263404  68.2340506  44.2351720
   8.5093474  46.8981658  40.9193866   7.7425870  46.3440144  41.0650548
   8.9204179  46.9703526  41.7808017  20.3583612  74.8168310  45.8161448
  20.9962022  74.6975057  45.1124788  20.2404455  75.7649154  45.8749400
  17.1673318  74.7695738  45.7522973  16.8291830  74.6536803  44.8643507
  18.0363086  74.3686903  45.7323979  13.0260134  76.6231214  41.7419863
  12.4624999  76.5321151  40.9736151  12.9112529  75.8031119  42.2222356
  17.6493101  75.9230590  51.7109178  17.6381742  75.5283388  50.8389682
  17.8113741  75.1896662  52.3042950  10.5724566  78.1182406  44.5804084
  11.3645858  77.7773231  44.1650383  10.8121216  78.2277381  45.5006237
  18.6059693  80.2902182  37.0534328  17.9547672  80.8756263  36.6668342
  19.4004055  80.8208377  37.1129366  12.5315320  77.3791319  37.4521463
  13.3046196  76.8320306  37.3134339  12.8840719  78.2435569  37.6635924
  14.3700362  78.7067702  50.6588362  14.0790228  79.6113332  50.5435028
  15.0057347  78.7484229  51.3732432  15.2956569  76.0844550  47.2489722
  15.8920141  75.8600572  46.5346685  15.3531541  75.3429296  47.8515170
  14.8681597  73.5383985  35.0839913  15.1207118  73.0165507  34.3223376
  13.9306157  73.3750131  35.1866596  19.9124880  72.5419764  42.8914656
  20.6987970  72.1239187  42.5405073  20.1763585  73.4465856  43.0596304
  20.0834958  77.9792614  37.5903313  19.4480791  78.0527241  38.3024217
  19.7532364  78.5686213  36.9122392  25.3133307  72.4794997  43.7947634
  26.0458479  71.9094214  44.0285464  24.5572663  72.0916597  44.2354140
  14.5877886  75.4412091  37.2864288  14.4714144  74.7656995  37.9545372
  14.6980146  74.9544465  36.4696441  16.9309427  74.9022238  40.9910977
  16.5667634  74.3752859  41.7023898  17.7876543  74.5120707  40.8177462
  22.8358728  66.1916571  48.2542243  22.5042053  67.0611982  48.0303458
  22.2404341  65.8752855  48.9336273  16.5714914  69.9312138  35.9872325
  16.7389316  70.7992375  36.3542796  16.3812083  70.0939420  35.0633615
  19.3290247  78.3929117  47.6538156  19.0290970  79.2954156  47.5453963
  18.9841307  78.1261300  48.5059309  12.7802729  74.8442914  43.6874860
  11.8553225  74.7119128  43.8952552  13.0287142  75.6237133  44.1844803
  22.7287391  70.9111657  45.3335593  21.8204268  70.8427066  45.0394354
  22.6774987  71.3883602  46.1617419  16.5504135  72.3869796  36.9718992
  16.4303760  72.8326846  37.8104472  15.8556723  72.7355113  36.4132530
  10.1411540  74.4876187  44.5218649  10.2703921  74.7410666  45.4358061
   9.4608991  75.0803895  44.2023304  16.8028257  72.3301303  53.2770490
  16.0261591  72.8895223  53.2673355  17.4418820  72.8158086  53.7985360
  24.5949038  69.1128096  47.1113467  23.9523418  69.4060629  46.4653262
  24.0903966  68.9981016  47.9166664  22.2489201  72.8591269  37.7999326
  23.1607057  73.0918656  37.6247024  21.7398848  73.4428313  37.2374405
  15.0574629  75.1386756  52.8388457  15.7989314  75.6771800  52.5623281
  14.3511615  75.7653045  52.9960009  20.5329969  77.2815897  51.4360619
  20.9413325  76.8398307  50.6915251  19.8107230  76.7068524  51.6894812
  16.8861039  72.2188503  48.8094176  17.7322234  72.6427917  48.9528825
  16.8259677  71.5622128  49.5032739  20.8558783  77.8417087  45.1912908
  20.2267646  78.0062801  44.4888976  20.4684446  78.2558697  45.9623872
  24.7348015  78.7771525  42.5457271  24.0499054  79.1570426  41.9954305
  24.8191865  79.3866852  43.2789219  20.0360484  69.8792872  50.4675349
  19.7921416  70.6334932  49.9309625  20.3120415  70.2578219  51.3022596
  21.9898947  76.4231484  49.1452615  22.2015842  77.0663244  48.4686996
  21.9428695  75.5893801  48.6774545  19.5925176  69.0349305  46.0489187
  18.7309655  69.3330558  46.3405925  19.6187611  69.2519704  45.1170220
  16.4086745  77.5791495  42.4562993  16.8725091  77.8579198  41.6667615
  16.1443543  76.6774940  42.2736083  13.3010826  77.1262977  45.3942756
  13.8712183  77.5550245  44.7560241  13.8918938  76.8445562  46.0926942
  15.3455631  73.7014648  39.2652558  16.0479675  74.1535691  39.7326484
  15.0136260  73.0598467  39.8932451  13.7935993  72.2926404  53.6403767
  13.1634654  72.9742685  53.8739164  13.6872081  72.1809486  52.6956906
   9.0880965  71.9598200  44.5669691   8.2980019  72.2155729  44.0909802
   9.5792213  72.7746538  44.6721732  23.1044775  79.3003440  47.3174972
  23.9262219  78.8983627  47.0357654  23.1007178  79.1971674  48.2691088
  11.0395711  72.3242780  41.5253168  10.2426874  72.4361474  42.0436664
  10.8121303  72.6629432  40.6594059  16.8701378  78.8487483  49.4735683
  16.9345811  79.3107890  50.3093855  16.1612302  78.2184848  49.6017993
   7.3718668  72.2128691  46.9984682   7.6226707  73.0975701  47.2642258
   7.9078217  72.0333292  46.2259774  31.1950768  75.6442188  43.6659944
  30.4414476  75.0749586  43.5103948  31.3298309  75.6104853  44.6130578
  13.0716736  66.5947170  56.0029018  12.6783681  66.0413369  56.6776663
  13.8882876  66.9057749  56.3935536  10.0378793  78.0331028  39.9142588
  10.5503314  78.8274279  40.0648153  10.6901506  77.3357319  39.8476190
  15.9884697  68.0105049  53.5949275  16.7294410  68.6112202  53.5153737
  16.2202619  67.2682687  53.0367317  11.1326035  73.1961417  51.8727505
  11.0179550  72.2946674  52.1734604  10.2770552  73.4425113  51.5212321
  18.2117872  81.1379157  53.4715005  17.7681727  80.3515535  53.1535910
  18.8735086  81.3258307  52.8058896  20.3099110  81.4181957  51.4996406
  20.2917586  82.2390838  51.0076676  21.2319031  81.2936032  51.7246548
  16.7672165  78.9326086  52.3419915  17.3000501  78.1714374  52.1119223
  16.2386246  78.6399738  53.0844069  19.9341860  64.0386152  47.8713557
  19.5906129  64.9287794  47.7952667  20.3020822  63.8487810  47.0083142
   8.0027710  76.3619683  40.6902159   8.8402932  76.7716691  40.4735866
   8.1805978  75.4219125  40.6602353  19.8992142  74.0294763  36.3785992
  19.3838766  74.7999368  36.6174379  19.6269451  73.3559899  37.0019053
  17.4839253  68.8744464  41.4371230  16.6280850  68.4851314  41.2576869
  17.8966205  68.9536425  40.5771016  19.0138400  66.4090807  45.8362790
  18.5103196  66.3720943  45.0230595  19.3069007  67.3183550  45.8959447
  15.2581286  66.4929537  44.8428972  16.1234283  66.2972346  44.4834861
  15.3258795  66.2639889  45.7698328  24.8726416  76.7827118  38.3139165
  24.0955859  76.4438277  37.8694327  25.5517897  76.7879741  37.6394130
  19.6878445  71.9021855  38.2045773  19.3828581  72.2168005  39.0555916
  20.6408888  71.9803275  38.2473106  18.1324877  78.0612079  39.8538727
  17.6046239  77.3264838  39.5411964  17.6312380  78.8386755  39.6078695
  23.1117723  76.2561099  44.9705773  22.4541398  76.9460361  45.0585902
  23.9158123  76.6457531  45.3139760  12.8643605  68.7231745  42.2145338
  13.4387357  68.5006927  41.4818531  13.4514587  68.7920440  42.9673940
  21.9223182  74.6105472  43.0209715  22.4355064  75.2435464  43.5231425
  22.5724406  74.0106667  42.6553075  13.1913192  70.7536206  36.2341224
  12.3550504  71.0910893  36.5550498  13.0517962  70.6185186  35.2968361
  15.1666273  65.5972994  40.9420408  14.5130685  65.2822011  40.3177023
  15.1246747  64.9748734  41.6680231  16.2777478  75.8792289  32.8573700
  15.3704539  75.6481542  33.0564849  16.7748510  75.0829908  33.0447681
  18.4004013  72.0854927  45.2668055  17.4826574  72.3069874  45.1089744
  18.8164157  72.1601238  44.4079763  19.1839061  73.4846343  40.3970736
  19.9310880  73.9967740  40.0877858  19.4530650  73.1630396  41.2575129
  17.4565711  75.9804884  37.3797690  16.5476930  75.6963917  37.4770160
  17.4860795  76.4003962  36.5200997  22.6884978  79.5911473  41.1488858
  22.2347305  78.7502383  41.2054048  22.0578945  80.2272872  41.4863638
  21.6317898  70.5203459  42.3789525  20.8940655  70.0080846  42.7099768
  21.8844671  70.0803841  41.5672802  21.1317918  81.4287970  42.0838676
  21.4240892  81.9893027  41.3651041  21.6416538  81.7216531  42.8391835
  21.7329525  63.2979711  42.9731294  22.0388402  62.4377075  42.6857209
  22.4582130  63.8897332  42.7730288   8.0253881  73.7010398  41.3612892
   7.8278281  73.1079759  40.6363959   7.4700545  73.3962608  42.0788831
  16.0050605  73.5933504  43.4807485  16.0599215  72.6407341  43.4049962
  15.1941807  73.7492944  43.9648784  17.1541799  77.5213628  34.7185769
  16.7161229  76.8049486  34.2591406  17.8952240  77.7489742  34.1570860
  13.9442965  72.2110564  41.2397864  13.1310830  72.5104735  41.6463056
  14.4401959  71.8166253  41.9572346  19.5417177  72.6752389  50.0712758
  19.8966564  72.9023862  50.9307224  20.1889308  73.0070765  49.4490013
  25.2714914  75.7970825  40.7762087  25.1332812  75.9872421  39.8483276
  24.9151132  76.5590207  41.2330138  13.4357040  69.7828920  46.8559099
  14.0756419  69.6417679  46.1582062  12.6034570  69.4963433  46.4797701
  25.2984293  77.8647352  45.7873359  25.7320800  77.7722641  46.6356413
  26.0115874  77.8404852  45.1493375  14.2117344  79.0831350  42.9694092
  15.0057942  78.5881670  42.7676667  13.5009036  78.5549213  42.6061797
  10.5200107  73.2274432  39.0453844   9.5897695  73.1658887  39.2623806
  10.6157579  72.7050385  38.2490486  10.4385656  69.7529245  41.6332086
  10.6992473  70.6674578  41.5241246  11.2602828  69.2853687  41.7828699
  11.9110581  71.1667002  48.8030911  12.5833635  70.9584364  48.1543559
  11.0840368  70.9689088  48.3636143  26.1599843  77.9071052  48.3206244
  26.3535733  78.8116863  48.5665519  26.0600461  77.4478471  49.1544829
  17.8136153  67.7928943  50.8196571  17.1664068  68.4918892  50.7261048
  18.5837169  68.2265087  51.1872820  21.2214951  78.0577795  53.8947125
  21.0700458  77.8288347  52.9777208  21.2119631  79.0148396  53.9078470
  17.9900288  75.6309708  48.8793391  18.9192348  75.7820867  48.7062358
  17.5691318  75.7193729  48.0242038  16.7888620  79.6560372  46.6491929
  16.6499705  79.2879157  47.5217867  16.0003216  80.1708012  46.4775887
  18.3393835  79.0341975  44.0380767  18.0043667  78.9942745  44.9338416
  17.8397780  78.3686691  43.5651177  12.3138079  74.4409605  49.5633348
  12.1757877  73.7089844  50.1644887  13.2243002  74.3518505  49.2817535
  21.2753026  76.3798009  34.3117826  20.6582197  75.6544837  34.2150879
  20.8069515  77.1407369  33.9684900  14.9420379  74.1529564  49.0517027
  15.6519998  73.5122756  49.0103646  14.8989688  74.4042459  49.9743208
  22.9307158  81.0896918  51.9723607  22.8719704  80.4056138  51.3054190
  23.3326676  81.8315908  51.5204233  13.6549313  71.1394782  50.8712667
  13.1186670  70.6885521  51.5234263  13.0666022  71.2740691  50.1283131
  13.0651572  70.5983433  33.4339130  12.1881039  70.4772234  33.0701377
  13.5409325  69.8069512  33.1818019  22.9324565  79.0536501  50.2037586
  22.0451344  78.7162423  50.3263985  23.5023116  78.3219533  50.4406352
   4.5853712  75.3860593  43.5280638   5.2724752  75.0722323  42.9401653
   4.4301841  76.2901958  43.2547889   9.3888435  70.2750790  47.9565661
   9.3046623  69.6676459  47.2216071   8.5671141  70.7659808  47.9575158
  19.5612148  68.7604353  43.3235856  20.0580848  68.0074316  43.0036927
  18.7899130  68.7968670  42.7579066  27.4141906  74.4644719  44.9654148
  27.4031782  75.3469434  44.5948081  26.5459285  74.1116270  44.7708685
  20.6441929  77.5176041  40.8974280  19.7098208  77.6377503  40.7278984
  20.8218598  76.6148507  40.6334290  16.1447117  70.9021736  43.0507541
  15.7744905  70.3492777  43.7388447  16.6406210  70.2979870  42.4982541
  24.0314480  73.3593360  41.4324314  24.4974933  74.1921351  41.3584617
  24.4821981  72.8938341  42.1369572  22.0990712  79.7037181  38.4310466
  22.3750555  79.5893776  39.3404340  21.2295210  79.3054666  38.3922639
  22.0031143  65.7273947  45.4715215  21.0894223  65.9578174  45.6397422
  22.4324245  65.8112391  46.3229248  21.7737602  73.9163839  47.9715109
  21.1209052  74.1639746  47.3167562  22.1517982  73.1027977  47.6377587
  17.8225175  74.6583650  54.4581146  17.1465812  74.5577779  55.1283522
  18.6452809  74.5022864  54.9217144   4.1621689  73.4661187  45.7998105
   4.2005788  72.9324777  46.5935223   3.6561981  72.9396392  45.1809082
  11.5412451  68.3125727  49.2960647  11.6053777  69.1740558  48.8838045
  11.4779571  67.6999729  48.5633006  11.0164723  70.3848860  52.9433681
  11.6436762  70.0025937  53.5571206  10.1592642  70.1663062  53.3089374
  21.4158832  80.7911835  54.5487417  21.9598736  81.4041793  54.0542372
  20.8345677  81.3491413  55.0654430   7.7930266  72.1925289  38.8752036
   8.0883707  71.2835967  38.8219090   6.8918302  72.1713028  38.5533038
  11.3224513  70.2681285  44.8579585  10.6011099  70.8817253  44.7187058
  12.1117769  70.8039050  44.7796231  21.7651253  81.7141573  47.3081995
  20.8181589  81.5946924  47.2360321  22.1134026  80.8264071  47.3908256
  14.1250827  67.6035712  51.1320236  14.6485228  67.8498008  51.8946546
  13.9063160  68.4355747  50.7123374   9.5218108  69.8739386  38.9991361
   9.1930814  68.9936765  38.8166467   9.8757478  69.8187055  39.8867750
  18.7697687  81.5094289  43.5086347  18.6222649  80.5810997  43.6893917
  19.5951180  81.5314380  43.0243422  12.6359931  70.1612356  39.3666839
  12.9756003  70.6898277  38.6445447  13.0832051  70.4992762  40.1425405
  22.3731808  82.3322848  44.5951220  23.2978356  82.1265709  44.4575671
  22.2047112  82.0839249  45.5040561  15.3303372  68.5449407  48.8169907
  14.9900192  67.7457220  49.2190587  14.6242378  68.8451118  48.2446740
  15.9819844  65.6298719  47.2697230  16.8045913  65.1559198  47.1476120
  16.2257907  66.4089203  47.7695916  14.6228078  68.6586978  37.5660132
  15.3436441  69.0368231  37.0623849  13.9993382  69.3775855  37.6695110
  18.7659201  69.3632127  38.5018464  18.9822815  70.2456765  38.2007292
  18.2853268  68.9718340  37.7724106  13.5058422  72.3217840  45.0789209
  13.3603003  72.6358143  45.9713490  13.0283626  72.9402740  44.5260107
  15.3654805  69.3120388  45.1270098  15.3516374  68.4161481  44.7902396
  16.0827233  69.3191052  45.7608384  17.2180936  69.7457728  47.1723226
  16.9598714  70.6674799  47.1707556  16.6865976  69.3488163  47.8623690
   7.9804084  74.8623184  48.0176870   7.4357553  75.6382992  48.1497144
   8.8583434  75.2093989  47.8595991  14.7691701  68.1934768  40.3957668
  14.8907612  67.2651414  40.5948556  14.4793743  68.2073454  39.4835984
  17.6382891  65.8789679  43.5324388  17.6604588  65.9429012  42.5776368
  18.0550950  65.0394187  43.7264894  28.0166516  75.6144938  41.5703611
  28.4597662  74.8652263  41.1722734  27.1393026  75.6055075  41.1877343
  23.1502297  82.1675280  37.0510209  23.8453202  82.7881972  37.2697524
  23.4925447  81.3170631  37.3262587   8.7670106  73.9893081  50.9107027
   8.0251842  74.1375716  51.4971657   8.4462851  74.2501346  50.0473776
  25.0493720  79.6174985  38.5797540  25.5745044  79.9562258  37.8546860
  24.9616073  78.6822001  38.3960675  14.2532781  69.7066766  54.6047601
  14.3020936  70.5828888  54.2225371  14.7955295  69.1644159  54.0319244
  24.7387626  80.2507889  53.8848738  23.9483170  80.2332028  53.3453237
  24.5020981  80.7896183  54.6397775  24.8585501  77.1000355  51.1981467
  24.9083506  76.9350363  52.1396989  24.7499425  76.2327614  50.8079347
  22.1489264  73.0831283  52.5140773  23.0499127  72.9437748  52.2224771
  22.2237238  73.2485738  53.4538951  16.4832069  70.4598138  51.3593960
  15.6135378  70.7531704  51.0876548  16.7191549  71.0438583  52.0801223
  26.3603698  79.5197297  51.4423488  26.0688506  79.8827277  52.2786949
  25.7475829  78.8064305  51.2636820  27.5599381  77.0850177  43.9626058
  28.3946272  77.5239981  44.1263619  27.6958509  76.6088830  43.1434304
  24.6090886  74.6429911  49.9103546  25.0845008  74.8357558  49.1022397
  23.6856452  74.6989097  49.6646930  11.4974393  75.8054079  39.4934624
  11.2520435  74.9016409  39.6914834  11.6670308  75.8071229  38.5514102
  19.1871103  66.6777755  48.8759380  19.7053047  67.4138782  48.5505869
  18.8326236  66.9841748  49.7106139  10.7670041  71.5382436  36.9920786
  10.0739286  71.6126791  36.3360822  10.5221792  70.7742780  37.5142303
  19.4383697  63.0978037  44.3960277  19.7185451  62.4301227  45.0220703
  20.2234304  63.2907133  43.8834940  23.3092555  71.5195671  48.1431852
  24.2609978  71.6193769  48.1644076  23.1396006  70.7273940  48.6529936
  21.3306935  68.6051255  48.3291253  20.7356867  68.8856267  47.6337741
  21.0456632  69.0945156  49.1007994  23.0902442  81.8740052  34.0497833
  23.0116074  81.5399915  34.9433591  23.9112109  82.3661820  34.0489305
  25.7880633  74.7401791  47.2574151  25.7556953  73.8017792  47.4433835
  26.3981257  74.8185828  46.5239976  17.6263964  73.6097844  33.3001355
  18.5723069  73.4804052  33.3689773  17.2478209  72.8712506  33.7770784
  25.9375122  71.5312835  47.3032435  25.4214170  70.7471291  47.1162363
  26.8215070  71.2031551  47.4678954  23.5985849  65.2753850  43.2628247
  23.4010670  64.9668938  44.1471579  24.2085554  66.0015489  43.3926177
  31.6057183  75.8017798  46.3980188  32.3360572  75.5403086  46.9587891
  30.9964129  75.0646520  46.4382256  29.6872480  73.9425661  46.9954639
  28.9605644  73.8081626  46.3871131  29.2719767  74.2502489  47.8011357
  17.5102657  77.6615590  54.7602012  18.4305666  77.8394189  54.9542059
  17.4752240  76.7171636  54.6081712  15.8106881  71.5347821  33.2356241
  14.9038337  71.2380933  33.3118954  16.0882862  71.2377639  32.3690527
   6.7284822  72.8554184  43.6855287   6.4087606  72.0019492  43.3929661
   6.1818250  73.0702762  44.4413254  10.5064729  75.5716625  47.4024794
  10.7250739  76.5033733  47.4212827  10.9190503  75.2124599  48.1879597
  17.4268947  66.0784710  39.3900482  16.6169675  65.7331795  39.7655728
  18.1153364  65.7692254  39.9788093  19.3559495  65.1562757  41.0124779
  19.9090534  65.5758210  41.6714802  19.5929582  64.2298505  41.0547735
  15.3792594  71.1449831  56.7927542  15.2789321  72.0944188  56.7239634
  15.1614137  70.8168070  55.9203613  14.5805666  68.3934756  33.3768220
  15.4424830  68.7189654  33.6364037  14.7656010  67.6066252  32.8641286
   6.5973082  76.4757095  45.6548409   5.9036553  76.0611048  45.1418363
   7.3446073  76.5177632  45.0581827  22.7338302  67.2663282  40.5203443
  22.1536971  67.9248086  40.1381495  22.4674235  66.4440627  40.1090860
  21.1841869  66.6668340  42.7224763  21.6841647  66.7784874  41.9139082
  21.8277477  66.3629393  43.3625572  15.2423865  74.5746970  55.6092604
  14.7590946  75.3747330  55.8156493  15.3284804  74.5854914  54.6560048
   8.5109824  76.4075349  43.5314423   8.4880512  76.5063036  42.5796307
   8.8210461  77.2540500  43.8531590  11.1697202  78.4651504  47.6461038
  12.1240456  78.4335447  47.5790969  10.9709726  78.0042128  48.4611264
  11.7596584  77.0352620  50.2131836  12.5789473  77.5296699  50.2366673
  12.0333392  76.1184588  50.1849403  21.5163180  69.4263373  39.5759791
  20.6289035  69.7113023  39.3579986  21.9317169  69.2657136  38.7287068
  24.8677716  69.4509894  43.2914130  25.6438107  69.9406346  43.5638747
  24.1425851  69.8767948  43.7486000  27.3050275  70.1637513  44.3488071
  27.8994766  69.9233249  43.6381379  27.3776859  69.4444643  44.9761607
  20.6606394  79.1908047  33.6707811  21.3642244  79.3958050  34.2865467
  19.9369043  79.7584809  33.9356895  21.4904204  74.9417909  39.7910081
  21.4339405  75.3986460  38.9517714  22.0432547  74.1808593  39.6132924
  25.3009010  70.7307640  40.6160201  25.0445944  70.3304276  41.4468408
  24.6761878  71.4451434  40.4910340  29.6121348  73.4703714  43.1231492
  29.0520906  73.5396903  43.8963054  29.0064851  73.2944698  42.4030988
  22.5693091  79.6290576  35.7206271  23.4038695  79.1971775  35.5383746
  22.4077434  79.4572590  36.6483166  22.2238983  76.1322690  37.0862610
  22.1687787  75.9666961  36.1451055  21.5985039  76.8398723  37.2424800
   7.0131498  71.3690754  50.9124033   7.6590362  70.8589708  51.4011258
   6.8048650  72.1059436  51.4867458  19.5384891  78.4371602  56.4116173
  20.4076050  78.6112254  56.0502808  19.0591642  79.2566018  56.2891903
  15.5335109  65.6330799  36.6647929  15.5213779  66.5772639  36.8216200
  16.4258531  65.4500944  36.3707390  19.3487228  62.2273575  40.9193866
  18.5819624  61.6732062  41.0650548  19.7597933  62.2995444  41.7808017
  11.3528989  68.5158371  55.0099047  12.2160451  68.1595176  55.2202371
  10.7794400  68.1772266  55.6974451  36.1527062  87.8086915  43.7947634
  36.8852234  87.2386131  44.0285464  35.3966418  87.4208515  44.2354140
  33.6752482  81.5208489  48.2542243  33.3435807  82.3903900  48.0303458
  33.0798096  81.2044773  48.9336273  33.5681146  86.2403575  45.3335593
  32.6598023  86.1718983  45.0394354  33.5168741  86.7175520  46.1617419
  35.4342792  84.4420013  47.1113467  34.7917172  84.7352546  46.4653262
  34.9297721  84.3272934  47.9166664  30.8754239  85.2084789  50.4675349
  30.6315171  85.9626850  49.9309625  31.1514169  85.5870137  51.3022596
  30.4318930  84.3641222  46.0489187  29.5703409  84.6622476  46.3405925
  30.4581365  84.5811621  45.1170220  23.9110490  81.9239088  56.0029018
  23.5177436  81.3705286  56.6776663  24.7276630  82.2349666  56.3935536
  26.8278451  83.3396967  53.5949275  27.5688165  83.9404120  53.5153737
  27.0596374  82.5974605  53.0367317  30.7735614  79.3678070  47.8713557
  30.4299883  80.2579712  47.7952667  31.1414577  79.1779728  47.0083142
  28.3233008  84.2036382  41.4371230  27.4674604  83.8143232  41.2576869
  28.7359960  84.2828343  40.5771016  29.8532154  81.7382725  45.8362790
  29.3496950  81.7012860  45.0230595  30.1462761  82.6475468  45.8959447
  26.0975040  81.8221455  44.8428972  26.9628037  81.6264263  44.4834861
  26.1652549  81.5931807  45.7698328  26.0060027  80.9264912  40.9420408
  25.3524439  80.6113929  40.3177023  25.9640501  80.3040652  41.6680231
  32.4711652  85.8495377  42.3789525  31.7334409  85.3372763  42.7099768
  32.7238426  85.4095759  41.5672802  32.5723280  78.6271629  42.9731294
  32.8782157  77.7668993  42.6857209  33.2975885  79.2189249  42.7730288
  28.6529908  83.1220860  50.8196571  28.0057823  83.8210810  50.7261048
  29.4230923  83.5557004  51.1872820  30.4005903  84.0896271  43.3235856
  30.8974602  83.3366233  43.0036927  29.6292884  84.1260588  42.7579066
  32.8424898  81.0565864  45.4715215  31.9287978  81.2870091  45.6397422
  33.2717999  81.1404309  46.3229248  24.9644581  82.9327629  51.1320236
  25.4878983  83.1789926  51.8946546  24.7456914  83.7647664  50.7123374
  26.1697126  83.8741325  48.8169907  25.8293947  83.0749138  49.2190587
  25.4636132  84.1743035  48.2446740  26.8213598  80.9590637  47.2697230
  27.6439667  80.4851115  47.1476120  27.0651662  81.7381121  47.7695916
  29.6052955  84.6924044  38.5018464  29.8216570  85.5748682  38.2007292
  29.1247023  84.3010258  37.7724106  25.6085456  83.5226686  40.3957668
  25.7301367  82.5943332  40.5948556  25.3187498  83.5365372  39.4835984
  28.4776646  81.2081596  43.5324388  28.4998343  81.2720929  42.5776368
  28.8944705  80.3686105  43.7264894  30.0264857  82.0069673  48.8759380
  30.5446801  82.7430700  48.5505869  29.6719990  82.3133666  49.7106139
  30.2777452  78.4269955  44.3960277  30.5579205  77.7593144  45.0220703
  31.0628058  78.6199051  43.8834940  34.1486310  86.8487589  48.1431852
  35.1003733  86.9485687  48.1644076  33.9789760  86.0565858  48.6529936
  32.1700689  83.9343172  48.3291253  31.5750621  84.2148185  47.6337741
  31.8850386  84.4237073  49.1007994  36.7768876  86.8604752  47.3032435
  36.2607925  86.0763209  47.1162363  37.6608825  86.5323469  47.4678954
  34.4379603  80.6045768  43.2628247  34.2404424  80.2960856  44.1471579
  35.0479309  81.3307407  43.3926177  28.2662701  81.4076628  39.3900482
  27.4563430  81.0623713  39.7655728  28.9547118  81.0984172  39.9788093
  30.1953250  80.4854675  41.0124779  30.7484288  80.9050128  41.6714802
  30.4323336  79.5590423  41.0547735  25.4199420  83.7226673  33.3768220
  26.2818584  84.0481572  33.6364037  25.6049765  82.9358169  32.8641286
  33.5732057  82.5955200  40.5203443  32.9930726  83.2540004  40.1381495
  33.3067990  81.7732544  40.1090860  32.0235623  81.9960258  42.7224763
  32.5235402  82.1076792  41.9139082  32.6671231  81.6921310  43.3625572
  32.3556935  84.7555290  39.5759791  31.4682790  85.0404941  39.3579986
  32.7710924  84.5949054  38.7287068  35.7071471  84.7801811  43.2914130
  36.4831861  85.2698264  43.5638747  34.9819605  85.2059865  43.7486000
  38.1444030  85.4929430  44.3488071  38.7388520  85.2525166  43.6381379
  38.2170613  84.7736561  44.9761607  36.1402765  86.0599558  40.6160201
  35.8839699  85.6596194  41.4468408  35.5155633  86.7743352  40.4910340
  40.4515102  88.7995631  43.1231492  39.8914660  88.8688821  43.8963054
  39.8458606  88.6236616  42.4030988  26.3728863  80.9622716  36.6647929
  26.3607533  81.9064556  36.8216200  27.2652285  80.7792862  36.3707390
  30.1880983  77.5565493  40.9193866  29.4213379  77.0023980  41.0650548
  30.5991688  77.6287362  41.7808017   3.6345800  18.8273284  30.5192941
   4.3670972  18.2572501  30.7530771   2.8785155  18.4394885  30.9599447
   2.9161530  15.4606383  33.8358774   2.2735910  15.7538916  33.1898568
   2.4116458  15.3459303  34.6411970   3.0560508  25.1249812  29.2702578
   2.3711546  25.5048714  28.7199611   3.1404357  25.7345139  30.0034526
   1.4257267  25.6481727  34.0420279   2.2474711  25.2461914  33.7602961
   1.4219670  25.5449961  34.9936395   9.5163260  21.9920475  30.3905250
   8.7626969  21.4227873  30.2349255   9.6510801  21.9583140  31.3375885
   3.1938909  23.1305405  25.0384472   2.4168352  22.7916565  24.5939634
   3.8730390  23.1358028  24.3639437   1.4330216  22.6039386  31.6951080
   0.7753890  23.2938648  31.7831208   2.2370615  22.9935818  32.0385066
   3.5927406  22.1449112  27.5007394   3.4545304  22.3350708  26.5728583
   3.2363625  22.9068495  27.9575445   3.6196785  24.2125639  32.5118665
   4.0533292  24.1200928  33.3601719   4.3328366  24.1883139  31.8738681
   4.4812335  24.2549339  35.0451551   4.6748225  25.1595150  35.2910826
   4.3812953  23.7956759  35.8790136   1.2519650  27.4375205  38.6968913
   1.1932196  26.7534425  38.0299496   1.6539169  28.1794195  38.2449539
   5.7354398  20.8123006  31.6899454   5.7244274  21.6947722  31.3193388
   4.8671778  20.4594557  31.4953992   2.3526973  19.7071647  28.1569621
   2.8187425  20.5399639  28.0829923   2.8034473  19.2416629  28.8614879
   0.6944301  28.6801135  31.3196526   1.6190848  28.4743996  31.1820977
   0.5259604  28.4317536  32.2285868   6.3379008  21.9623225  28.2948917
   6.7810154  21.2130551  27.8968041   5.4605518  21.9533362  27.9122649
   1.4714789  28.5153567  23.7755516   2.1665694  29.1360260  23.9942831
   1.8137940  27.6648918  24.0507894   3.3706213  25.9653272  25.3042847
   3.8957537  26.3040545  24.5792167   3.2828565  25.0300288  25.1205981
   3.0600119  26.5986176  40.6094045   2.2695662  26.5810315  40.0698544
   2.8233473  27.1374470  41.3643081   3.1797994  23.4478642  37.9226773
   3.2295999  23.2828650  38.8642296   3.0711917  22.5805902  37.5324654
   4.6816190  25.8675584  38.1668795   4.3900999  26.2305565  39.0032256
   4.0688322  25.1542592  37.9882127   5.8811873  23.4328464  30.6871365
   6.7158764  23.8718268  30.8508925   6.0171002  22.9567117  29.8679611
   2.9303379  20.9908199  36.6348853   3.4057500  21.1835845  35.8267704
   2.0068944  21.0467384  36.3892236   1.6305048  17.8673959  34.8677158
   2.5822471  17.9672056  34.8889382   1.4608498  17.0752227  35.3775243
   1.4114934  28.2218339  20.7743139   1.3328566  27.8878203  21.6678897
   2.2324601  28.7140107  20.7734612   4.1093125  21.0880078  33.9819458
   4.0769446  20.1496079  34.1679142   4.7193749  21.1664115  33.2485283
   4.2587614  17.8791122  34.0277741   3.7426663  17.0949578  33.8407670
   5.1427563  17.5509838  34.1924261   9.9269675  22.1496085  33.1225495
  10.6573064  21.8881373  33.6833198   9.3176621  21.4124807  33.1627563
   8.0084972  20.2903948  33.7199946   7.2818136  20.1559913  33.1116438
   7.5932259  20.5980776  34.5256664   3.1890209  15.7988181  30.0159437
   3.9650599  16.2884633  30.2884054   2.4638343  16.2246235  30.4731306
   5.6262767  16.5115800  31.0733378   6.2207258  16.2711536  30.3626686
   5.6989351  15.7922931  31.7006914   3.6221502  17.0785928  27.3405507
   3.3658437  16.6782563  28.1713715   2.9974370  17.7929722  27.2155646
   7.9333840  19.8182001  29.8476799   7.3733398  19.8875190  30.6208361
   7.3277344  19.6422985  29.1276295   0.8905583  25.9768864  22.4451578
   1.7251187  25.5450062  22.2629053   0.7289926  25.8050877  23.3728472
   9.5189859  36.4938515  32.5406754  10.1568269  36.3745262  31.8370095
   9.4010701  37.4419359  32.5994707   6.3279565  36.4465943  32.4768279
   5.9898076  36.3307008  31.5888814   7.1969333  36.0457108  32.4569285
   2.1866381  38.3001419  28.4665170   1.6231246  38.2091356  27.6981458
   2.0718776  37.4801324  28.9467663   6.8099348  37.6000795  38.4354485
   6.7987989  37.2053593  37.5634988   6.9719987  36.8666867  39.0288256
   7.7665939  41.9672387  23.7779635   7.1153919  42.5526467  23.3913649
   8.5610302  42.4978582  23.8374672   1.6921566  39.0561524  24.1766769
   2.4652442  38.5090511  24.0379645   2.0446965  39.9205773  24.3881231
   3.5306609  40.3837906  37.3833669   3.2396475  41.2883537  37.2680335
   4.1663593  40.4254434  38.0977738   4.4562816  37.7614755  33.9735028
   5.0526388  37.5370777  33.2591991   4.5137787  37.0199500  34.5760476
   4.0287844  35.2154190  21.8085219   4.2813365  34.6935712  21.0468682
   3.0912403  35.0520336  21.9111903   9.0731127  34.2189969  29.6159963
   9.8594216  33.8009392  29.2650380   9.3369831  35.1236061  29.7841611
   9.2441204  39.6562819  24.3148619   8.6087037  39.7297445  25.0269524
   8.9138611  40.2456418  23.6367699  14.4739554  34.1565202  30.5192941
  15.2064726  33.5864419  30.7530771  13.7178910  33.7686802  30.9599447
   3.7484133  37.1182296  24.0109594   3.6320391  36.4427200  24.6790679
   3.8586393  36.6314670  23.1941747   6.0915674  36.5792443  27.7156283
   5.7273881  36.0523064  28.4269205   6.9482790  36.1890912  27.5422769
  11.9964975  27.8686776  34.9787550  11.6648299  28.7382187  34.7548765
  11.4010588  27.5523060  35.6581580   5.7321161  31.6082343  22.7117632
   5.8995563  32.4762579  23.0788103   5.5418330  31.7709625  21.7878921
   8.4896494  40.0699322  34.3783462   8.1897217  40.9724361  34.2699270
   8.1447554  39.8031505  35.2304615   1.9408976  36.5213119  30.4120167
   1.0159472  36.3889333  30.6197859   2.1893389  37.3007338  30.9090109
  11.8893638  32.5881862  32.0580900  10.9810515  32.5197271  31.7639661
  11.8381234  33.0653807  32.8862725   5.7110382  34.0640001  23.6964299
   5.5910007  34.5097051  24.5349779   5.0162970  34.4125318  23.1377837
   3.4717274  46.8343642  27.3454430   3.3941304  47.7851467  27.4242911
   2.8678917  46.4889515  28.0029356   5.9634504  34.0071508  40.0015797
   5.1867838  34.5665428  39.9918662   6.6025067  34.4928291  40.5230667
  13.7555284  30.7898301  33.8358774  13.1129665  31.0830834  33.1898568
  13.2510213  30.6751221  34.6411970  11.4095448  34.5361474  24.5244633
  12.3213304  34.7688860  24.3492330  10.9005095  35.1198518  23.9619711
   4.2180876  36.8156961  39.5633764   4.9595560  37.3542005  39.2868588
   3.5117861  37.4423250  39.7205316   9.6936216  38.9586102  38.1605925
  10.1019572  38.5168512  37.4160558   8.9713477  38.3838729  38.4140118
   6.0467286  33.8958708  35.5339482   6.8928481  34.3198122  35.6774131
   5.9865923  33.2392333  36.2278045  10.0165030  39.5187292  31.9158214
   9.3873893  39.6833006  31.2134282   9.6290692  39.9328902  32.6869178
  13.8954262  40.4541730  29.2702578  13.2105300  40.8340631  28.7199611
  13.9798111  41.0637057  30.0034526   9.1966731  31.5563077  37.1920656
   8.9527663  32.3105137  36.6554932   9.4726661  31.9348424  38.0267903
  11.1505194  38.1001689  35.8697922  11.3622089  38.7433449  35.1932303
  11.1034942  37.2664006  35.4019852   8.7531423  30.7119510  32.7734494
   7.8915902  31.0100763  33.0651231   8.7793857  30.9289909  31.8415526
   5.5692992  39.2561700  29.1808299   6.0331338  39.5349403  28.3912922
   5.3049790  38.3545145  28.9981390   2.4617073  38.8033182  32.1188063
   3.0318430  39.2320450  31.4805547   3.0525185  38.5215767  32.8172248
   4.5061878  35.3784853  25.9897865   5.2085922  35.8305896  26.4571791
   4.1742507  34.7368671  26.6177758   2.9542240  33.9696609  40.3649074
   2.3240900  34.6512890  40.5984471   2.8478328  33.8579691  39.4202212
  12.2651022  40.9773644  34.0420279  13.0868465  40.5753832  33.7602961
  12.2613425  40.8741879  34.9936395   6.0307625  40.5257688  36.1980989
   6.0952058  40.9878095  37.0339161   5.3218549  39.8955053  36.3263299
  20.3557015  37.3212393  30.3905250  19.6020723  36.7519791  30.2349255
  20.4904556  37.2875057  31.3375885   5.7455643  42.1925795  26.0659970
   5.6101318  43.0377331  26.4944818   6.2865455  42.3945073  25.3025904
   2.2322982  28.2717375  42.7274325   1.8389928  27.7183574  43.4021969
   3.0489123  28.5827954  43.1180843   1.0079925  42.8266990  28.7210648
   1.1846553  43.7484954  28.5331632   1.8036758  42.5125409  29.1505028
   5.1490943  29.6875254  40.3194582   5.8900657  30.2882407  40.2399044
   5.3808866  28.9452892  39.7612624   7.3724119  42.8149362  40.1960312
   6.9287973  42.0285740  39.8781216   8.0341333  43.0028512  39.5304203
   2.1311240  44.3445163  34.7220990   2.6818665  44.2162227  33.9497984
   1.2922716  44.6440052  34.3715883   9.4705357  43.0952162  38.2241713
   9.4523833  43.9161043  37.7321982  10.3925277  42.9706237  38.4491854
   5.9278411  40.6096291  39.0665221   6.4606748  39.8484579  38.8364529
   5.3992493  40.3169943  39.8089376   9.0948106  25.7156357  34.5958863
   8.7512376  26.6057999  34.5197974   9.4627069  25.5258015  33.7328448
   9.0598389  35.7064968  23.1031298   8.5445013  36.4769573  23.3419686
   8.7875698  35.0330104  23.7264360   6.6445500  30.5514669  28.1616537
   5.7887096  30.1621519  27.9822175   7.0572452  30.6306630  27.3016322
   8.1744647  28.0861012  32.5608096   7.6709442  28.0491147  31.7475902
   8.4675254  28.9953755  32.6204753   4.4187533  28.1699742  31.5674278
   5.2840529  27.9742551  31.2080168   4.4865042  27.9410094  32.4943635
  14.0332663  38.4597323  25.0384472  13.2562106  38.1208482  24.5939634
  14.7124144  38.4649946  24.3639437   8.8484692  33.5792060  24.9291080
   8.5434828  33.8938210  25.7801223   9.8015134  33.6573480  24.9718413
   7.2931124  39.7382284  26.5784034   6.7652486  39.0035043  26.2657271
   6.7918627  40.5156960  26.3324002  12.2723970  37.9331304  31.6951080
  11.6147645  38.6230566  31.7831208  13.0764369  38.3227736  32.0385066
   2.0249852  30.4001950  28.9390645   2.5993604  30.1777131  28.2063838
   2.6120834  30.4690644  29.6919246  11.0829429  36.2875677  29.7455022
  11.5961311  36.9205669  30.2476731  11.7330653  35.6876872  29.3798382
   2.3519439  32.4306411  22.9586530   1.5156751  32.7681098  23.2795805
   2.2124208  32.2955391  22.0213667   4.3272519  27.2743199  27.6665714
   3.6736932  26.9592216  27.0422329   4.2852994  26.6518939  28.3925537
   5.4383724  37.5562494  19.5819007   4.5310786  37.3251747  19.7810156
   5.9354756  36.7600113  19.7692988   8.3451803  46.2660001  22.5015693
   7.6713502  46.5691698  23.1100651   8.7317625  47.0689081  22.1521150
   7.5610260  33.7625132  31.9913362   6.6432821  33.9840079  31.8335050
   7.9770403  33.8371443  31.1325069   8.3445308  35.1616548  27.1216042
   9.0917126  35.6737945  26.8123164   8.6136897  34.8400601  27.9820436
   6.6171958  37.6575089  24.1042997   5.7083177  37.3734122  24.2015466
   6.6467042  38.0774167  23.2446303  11.8491225  41.2681678  27.8734164
  11.3953552  40.4272588  27.9299355  11.2185192  41.9043077  28.2108944
  10.7924145  32.1973664  29.1034832  10.0546902  31.6851051  29.4345074
  11.0450918  31.7574046  28.2918109  10.2924164  43.1058175  28.8083982
  10.5847139  43.6663232  28.0896348  10.8022785  43.3986736  29.5637141
  10.8935772  24.9749916  29.6976601  11.1994649  24.1147280  29.4102516
  11.6188377  25.5667537  29.4975595   5.1656852  35.2703709  30.2052792
   5.2205462  34.3177546  30.1295269   4.3548054  35.4263148  30.6894090
   6.3148046  39.1983832  21.4431075   5.8767475  38.4819691  20.9836713
   7.0558486  39.4259947  20.8816167   3.1049212  33.8880769  27.9643171
   2.2917077  34.1874940  28.3708363   3.6008206  33.4936458  28.6817653
   5.2557790  43.8838526  29.8977436   5.2133968  44.1099372  28.9685968
   6.1720488  43.6501901  30.0463237   8.7023423  34.3522594  36.7958065
   9.0572811  34.5794067  37.6552530   9.3495555  34.6840970  36.1735320
  14.4321160  37.4741029  27.5007394  14.2939059  37.6642625  26.5728583
  14.0757379  38.2360412  27.9575445   2.5963286  31.4599125  33.5804406
   3.2362666  31.3187884  32.8827369   1.7640817  31.1733638  33.2043008
  14.4590540  39.5417556  32.5118665  14.8927047  39.4492846  33.3601719
  15.1722121  39.5175057  31.8738681   3.3723590  40.7601555  29.6939398
   4.1664189  40.2651875  29.4921973   2.6615283  40.2319418  29.3307104
   8.1918435  43.1419651  34.0451766   8.2455457  43.7110587  34.8129482
   7.3233216  43.3121536  33.6805803  15.3206089  39.5841257  35.0451551
  15.5141980  40.4887068  35.2910826  15.2206708  39.1248676  35.8790136
   6.9742400  29.4699148  37.5441878   6.3270315  30.1689097  37.4506354
   7.7443416  29.9035292  37.9118126  10.3821198  39.7348000  40.6192431
  10.2306705  39.5058552  39.7022515  10.3725878  40.6918601  40.6323776
   7.1506535  37.3079913  35.6038698   8.0798595  37.4591072  35.4307665
   6.7297565  37.3963933  34.7487344   5.9494866  41.3330577  33.3737235
   5.8105952  40.9649361  34.2463173   5.1609463  41.8478216  33.2021193
   6.5443018  46.4339674  24.7162772   6.7194774  45.9627717  25.5308395
   5.8575806  47.0605440  24.9444033   7.5000081  40.7112180  30.7626073
   7.1649914  40.6712950  31.6583723   7.0004027  40.0456896  30.2896483
   1.4744325  36.1179810  36.2878654   1.3364123  35.3860049  36.8890193
   2.3849249  36.0288710  36.0062842  10.4359273  38.0568214  21.0363133
   9.8188444  37.3315042  20.9396185   9.9675762  38.8177574  20.6930207
   4.1026626  35.8299769  35.7762334   4.8126245  35.1892961  35.7348952
   4.0595934  36.0812664  36.6988515  12.0913405  42.7667122  38.6968913
  12.0325951  42.0826343  38.0299496  12.4932923  43.5086112  38.2449539
   2.8155560  32.8164987  37.5957973   2.2792917  32.3655725  38.2479570
   2.2272269  32.9510896  36.8528438   2.2257819  32.2753638  20.1584437
   1.3487285  32.1542439  19.7946684   2.7015572  31.4839717  19.9063326
  12.0930812  40.7306706  36.9282893  11.2057591  40.3932628  37.0509292
  12.6629363  39.9989738  37.1651658   5.6231965  45.3908159  33.8944136
   5.5502137  46.1963130  34.4063441   5.1809359  45.5900125  33.0692157
   5.4121745  44.6279929  27.4046958   4.6289267  45.1701609  27.4985182
   6.1114490  45.1453908  27.8041199   8.7218395  30.4374558  30.0481163
   9.2187095  29.6844521  29.7282233   7.9505377  30.4738875  29.4824372
  16.5748153  36.1414924  31.6899454  16.5638029  37.0239639  31.3193388
  15.7065532  35.7886475  31.4953992   8.0830649  45.2894993  36.0502295
   8.7958621  45.9242458  35.9778196   7.5920678  45.3858859  35.2342297
   9.8048176  39.1946245  27.6219586   8.8704455  39.3147708  27.4524291
   9.9824844  38.2918712  27.3579596   5.3053364  32.5791941  29.7752848
   4.9351151  32.0262982  30.4633753   5.8012456  31.9750075  29.2227848
  13.1920727  35.0363565  28.1569621  13.6581179  35.8691556  28.0829923
  13.6428228  34.5708546  28.8614879   3.1342563  43.0389436  36.8707866
   3.8352022  43.6725919  37.0237260   2.6637678  43.3804168  36.1103505
  11.2596958  41.3807386  25.1555773  11.5356802  41.2663981  26.0649647
  10.3901457  40.9824871  25.1167946  11.1637390  27.4044152  32.1960522
  10.2500470  27.6348379  32.3642729  11.5930491  27.4882596  33.0474554
  10.9343848  35.5934044  34.6960416  10.2815299  35.8409951  34.0412869
  11.3124228  34.7798182  34.3622893   7.8951022  45.6293737  28.7988586
   8.0773417  44.8115393  29.2616338   8.7184008  45.8461429  28.3613476
   8.2293188  44.5561922  26.0603635   8.7580954  44.0454377  25.4473797
   8.4921407  44.2404452  26.9249168   6.9831422  36.3353855  41.1826453
   6.3072059  36.2347984  41.8528828   7.8059055  36.1793068  41.6462450
   1.5848936  45.6077039  28.8201411   0.9159311  46.0923166  28.3365451
   1.4461806  45.8546259  29.7344789   5.7254204  47.6420782  35.4184069
   6.2772512  47.8052404  36.1833154   6.0660398  48.2325220  34.7464094
   0.7018698  29.9895932  36.0205954   0.7660024  30.8510763  35.6083351
   0.6385818  29.3769934  35.2878312  10.5765079  42.4682040  41.2732723
  11.1204983  43.0811998  40.7787678   9.9951924  43.0261618  41.7899736
   8.8622592  45.5902758  32.4047751   8.7373731  44.7892498  31.8958697
   9.5201683  46.0848951  31.9161721  10.9257500  43.3911778  34.0327301
   9.9787836  43.2717129  33.9605628  11.2740273  42.5034276  34.1153563
   3.2857073  29.2805917  37.8565543   3.8091475  29.5268213  38.6191852
   3.0669407  30.1125952  37.4368680   7.9303933  43.1864494  30.2331653
   7.7828896  42.2581201  30.4139223   8.7557427  43.2084585  29.7488729
   1.7966178  31.8382561  26.0912146   2.1362250  32.3668482  25.3690754
   2.2438298  32.1762967  26.8670712  11.5338055  44.0093053  31.3196526
  12.4584603  43.8035914  31.1820977  11.3653359  43.7609454  32.2285868
   4.4909618  30.2219612  35.5415214   4.1506439  29.4227425  35.9435894
   3.7848625  30.5221323  34.9692047   5.1426090  27.3068924  33.9942537
   5.9652160  26.8329402  33.8721427   5.3864154  28.0859408  34.4941223
   3.7834325  30.3357183  24.2905438   4.5042687  30.7138435  23.7869155
   3.1599629  31.0546060  24.3940416   7.9265448  31.0402332  25.2263771
   8.1429062  31.9226970  24.9252599   7.4459515  30.6488545  24.4969413
   2.6664669  33.9988045  31.8034515   2.5209250  34.3128348  32.6958797
   2.1889873  34.6172945  31.2505414   4.5261052  30.9890593  31.8515405
   4.5122621  30.0931686  31.5147703   5.2433480  30.9961257  32.4853691
   6.3787183  31.4227933  33.8968532   6.1204960  32.3445004  33.8952863
   5.8472223  31.0258368  34.5868996  11.3233371  44.5278720  26.6758618
  11.4970249  43.9625143  25.9232470  11.8162263  45.3279615  26.4938108
   3.9297948  29.8704973  27.1202975   4.0513859  28.9421619  27.3193862
   3.6399990  29.8843659  26.2081290   6.7989138  27.5559884  30.2569695
   6.8210835  27.6199217  29.3021674   7.2157197  26.7164392  30.4510201
  17.1772763  37.2915143  28.2948917  17.6203909  36.5422468  27.8968041
  16.2999273  37.2825280  27.9122649  12.3108544  43.8445485  23.7755516
  13.0059449  44.4652177  23.9942831  12.6531694  42.9940836  24.0507894
  14.2099967  41.2945190  25.3042847  14.7351291  41.6332463  24.5792167
  14.1222320  40.3592205  25.1205981   5.8720016  45.2079264  37.4332723
   6.1807142  44.9628411  38.3055423   6.6695498  45.4125902  36.9451594
   5.8940628  47.3617173  29.6638100   5.4545618  46.8693552  30.3570957
   6.6448745  46.8190141  29.4230175   3.3414500  42.9055183  31.7360402
   2.7194509  42.2425888  31.4362629   4.0119367  42.9316314  31.0534049
   3.4139027  31.3836971  41.3292908   3.4627183  32.2599093  40.9470677
   3.9561542  30.8414364  40.7564551  13.8993873  41.9278094  40.6094045
  13.1089417  41.9102233  40.0698544  13.6627228  42.4666387  41.3643081
  14.0191748  38.7770560  37.9226773  14.0689753  38.6120568  38.8642296
  13.9105671  37.9097819  37.5324654   2.9028007  41.4559106  25.2118862
   3.0516127  42.1394570  24.5585535   3.7094450  41.4364196  25.7268318
  11.3095511  34.7601488  39.2386080  12.2105373  34.6207953  38.9470078
  11.3843485  34.9255943  40.1784257   5.6438316  32.1368343  38.0839266
   4.7741625  32.4301909  37.8121855   5.8797796  32.7208788  38.8046530
  15.5209945  41.1967502  38.1668795  15.2294753  41.5597482  39.0032256
  14.9082076  40.4834510  37.9882127  16.7205627  38.7620381  30.6871365
  17.5552519  39.2010186  30.8508925  16.8564756  38.2859035  29.8679611
  13.7697133  36.3200116  36.6348853  14.2451255  36.5127763  35.8267704
  12.8462699  36.3759302  36.3892236   8.3477350  28.3547960  35.6004687
   8.8659294  29.0908987  35.2751175   7.9932482  28.6611953  36.4351446
   8.5989944  24.7748242  31.1205583   8.8791698  24.1071431  31.7466010
   9.3840551  24.9677338  30.6080247   6.4023412  43.9507236  22.6830610
   5.8297379  44.5697423  22.2301081   6.9756206  44.5006598  23.2170531
  12.4698802  33.1965876  34.8677158  13.4216225  33.2963974  34.8889382
  12.3002253  32.4044145  35.3775243  10.4913182  30.2821460  35.0536559
   9.8963114  30.5626472  34.3583048  10.2062878  30.7715361  35.8253300
   9.6220672  44.2344386  23.8139192  10.5551345  44.1689948  24.0172067
   9.5343885  45.0700653  23.3553724  12.2508689  43.5510257  20.7743139
  12.1722320  43.2170120  21.6678897  13.0718356  44.0432025  20.7734612
  14.9486880  36.4171996  33.9819458  14.9163200  35.4787997  34.1679142
  15.5587504  36.4956033  33.2485283   6.7870211  35.2868049  20.0246662
   7.7329316  35.1574257  20.0935080   6.4084456  34.5482711  20.5016090
  15.0981368  33.2083040  34.0277741  14.5820417  32.4241496  33.8407670
  15.9821317  32.8801756  34.1924261  12.7592095  26.9524055  29.9873554
  12.5616917  26.6439143  30.8716886  13.3691801  27.6785694  30.1171484
  20.7663430  37.4788003  33.1225495  21.4966818  37.2173291  33.6833198
  20.1570375  36.7416725  33.1627563  18.8478727  35.6195865  33.7199946
  18.1211891  35.4851830  33.1116438  18.4326014  35.9272694  34.5256664
   6.6708903  39.3385795  41.4847319   7.5911913  39.5164394  41.6787365
   6.6358486  38.3941841  41.3327018   4.9713128  33.2118025  19.9601547
   4.0644583  32.9151138  20.0364261   5.2489109  32.9147844  19.0935833
   6.5875194  27.7554915  26.1145789   5.7775922  27.4102000  26.4901035
   7.2759611  27.4462459  26.7033400   8.5165742  26.8332962  27.7370085
   9.0696781  27.2528415  28.3960108   8.7535828  25.9068710  27.7793041
   4.5398841  32.8220036  43.5172849   4.4395568  33.7714393  43.4484940
   4.3220383  32.4938274  42.6448919   3.7411913  30.0704961  20.1013526
   4.6031077  30.3959859  20.3609344   3.9262257  29.2836457  19.5886592
  11.8944549  28.9433487  27.2448749  11.3143218  29.6018291  26.8626802
  11.6280482  28.1210832  26.8336167  10.3448115  28.3438545  29.4470070
  10.8447894  28.4555079  28.6384389  10.9883723  28.0399598  30.0870878
   4.4030111  36.2517174  42.3337911   3.9197193  37.0517535  42.5401800
   4.4891050  36.2625119  41.3805355   0.9202831  38.7122825  36.9377142
   1.7395720  39.2066904  36.9611979   1.1939639  37.7954793  36.9094710
  10.6769427  31.1033577  26.3005098   9.7895282  31.3883228  26.0825292
  11.0923416  30.9427341  25.4532375  14.0283963  31.1280098  30.0159437
  14.8044353  31.6176551  30.2884054  13.3032097  31.5538153  30.4731306
  16.4656522  31.8407718  31.0733378  17.0601013  31.6003454  30.3626686
  16.5383106  31.1214848  31.7006914   9.8212641  40.8678252  20.3953118
  10.5248491  41.0728255  21.0110773   9.0975289  41.4355014  20.6602201
  10.6510451  36.6188113  26.5155388  10.5945652  37.0756665  25.6763020
  11.2038793  35.8578798  26.3378231  14.4615257  32.4077845  27.3405507
  14.2052191  32.0074481  28.1713715  13.8368125  33.1221639  27.2155646
  18.7727595  35.1473919  29.8476799  18.2127153  35.2167108  30.6208361
  18.1671098  34.9714903  29.1276295   1.8422803  46.5810646  31.5994985
   1.7255188  47.5256078  31.4973675   1.0215250  46.2784207  31.9880784
  11.7299338  41.3060781  22.4451578  12.5644942  40.8741980  22.2629053
  11.5683681  41.1342795  23.3728472  11.3845230  37.8092895  23.8107917
  11.3294034  37.6437166  22.8696361  10.7591285  38.5168928  23.9670107
   8.6991137  40.1141807  43.1361480   9.5682297  40.2882459  42.7748115
   8.2197889  40.9336223  43.0137209   4.6941356  27.3101004  23.3893235
   4.6820025  28.2542844  23.5461506   5.5864778  27.1271149  23.0952697
   2.8677318  47.2338908  34.8150913   3.7704564  47.2662518  35.1317408
   2.6414688  46.3039358  34.8297249   4.6230920  45.9869894  31.4760992
   3.6726551  45.9871756  31.3625364   4.9263406  45.2402629  30.9597027
   8.5093475  23.9043780  27.6439172   7.7425871  23.3502267  27.7895855
   8.9204180  23.9765649  28.5053324  20.3583613  51.8230432  32.5406754
  20.9962023  51.7037180  31.8370095  20.2404456  52.7711276  32.5994707
  17.1673319  51.7757861  32.4768279  16.8291831  51.6598925  31.5888814
  18.0363088  51.3749026  32.4569285  13.0260135  53.6293337  28.4665170
  12.4625000  53.5383274  27.6981458  12.9112530  52.8093241  28.9467663
  17.6493102  52.9292712  38.4354485  17.6381743  52.5345511  37.5634988
  17.8113742  52.1958785  39.0288256  10.5724567  55.1244529  31.3049391
  11.3645859  54.7835353  30.8895690  10.8121217  55.2339504  32.2251544
  18.6059694  57.2964305  23.7779635  17.9547674  57.8818385  23.3913649
  19.4004057  57.8270500  23.8374672  12.5315321  54.3853442  24.1766769
  13.3046197  53.8382429  24.0379645  12.8840720  55.2497691  24.3881231
  14.3700363  55.7129824  37.3833669  14.0790229  56.6175455  37.2680335
  15.0057348  55.7546352  38.0977738  15.2956570  53.0906673  33.9735028
  15.8920143  52.8662695  33.2591991  15.3531542  52.3491418  34.5760476
  14.8681599  50.5446108  21.8085219  15.1207119  50.0227629  21.0468682
  13.9306158  50.3812253  21.9111903  19.9124882  49.5481886  29.6159963
  20.6987971  49.1301309  29.2650380  20.1763586  50.4527979  29.7841611
  20.0834959  54.9854737  24.3148619  19.4480792  55.0589363  25.0269524
  19.7532365  55.5748335  23.6367699  25.3133309  49.4857120  30.5192941
  26.0458481  48.9156336  30.7530771  24.5572664  49.0978720  30.9599447
  14.5877887  52.4474214  24.0109594  14.4714146  51.7719117  24.6790679
  14.6980147  51.9606588  23.1941747  16.9309428  51.9084361  27.7156283
  16.5667636  51.3814982  28.4269205  17.7876544  51.5182830  27.5422769
  22.8358729  43.1978694  34.9787550  22.5042054  44.0674105  34.7548765
  22.2404342  42.8814978  35.6581580  16.5714915  46.9374261  22.7117632
  16.7389318  47.8054497  23.0788103  16.3812084  47.1001542  21.7878921
  19.3290249  55.3991240  34.3783462  19.0290972  56.3016278  34.2699270
  18.9841308  55.1323423  35.2304615  12.7802730  51.8505036  30.4120167
  11.8553227  51.7181251  30.6197859  13.0287143  52.6299256  30.9090109
  22.7287392  47.9173780  32.0580900  21.8204270  47.8489188  31.7639661
  22.6774988  48.3945725  32.8862725  16.5504136  49.3931918  23.6964299
  16.4303761  49.8388969  24.5349779  15.8556725  49.7417236  23.1377837
  10.1411541  51.4938310  31.2463956  10.2703922  51.7472789  32.1603368
   9.4608992  52.0866018  30.9268611  14.3111028  62.1635560  27.3454430
  14.2335058  63.1143385  27.4242911  13.7072672  61.8181432  28.0029356
  16.8028258  49.3363425  40.0015797  16.0261592  49.8957346  39.9918662
  17.4418821  49.8220208  40.5230667  24.5949039  46.1190218  33.8358774
  23.9523419  46.4122751  33.1898568  24.0903967  46.0043139  34.6411970
  22.2489202  49.8653391  24.5244633  23.1607059  50.0980778  24.3492330
  21.7398850  50.4490436  23.9619711  15.0574630  52.1448879  39.5633764
  15.7989315  52.6833923  39.2868588  14.3511616  52.7715168  39.7205316
  20.5329970  54.2878019  38.1605925  20.9413326  53.8460430  37.4160558
  19.8107232  53.7130647  38.4140118  16.8861040  49.2250626  35.5339482
  17.7322235  49.6490040  35.6774131  16.8259678  48.5684250  36.2278045
  20.8558785  54.8479210  31.9158214  20.2267647  55.0124924  31.2134282
  20.4684447  55.2620819  32.6869178  24.7348017  55.7833648  29.2702578
  24.0499055  56.1632549  28.7199611  24.8191866  56.3928974  30.0034526
  20.0360485  46.8854994  37.1920656  19.7921417  47.6397055  36.6554932
  20.3120416  47.2640342  38.0267903  21.9898948  53.4293607  35.8697922
  22.2015843  54.0725367  35.1932303  21.9428696  52.5955923  35.4019852
  19.5925177  46.0411427  32.7734494  18.7309656  46.3392681  33.0651231
  19.6187612  46.2581826  31.8415526  16.4086747  54.5853618  29.1808299
  16.8725092  54.8641321  28.3912922  16.1443545  53.6837063  28.9981390
  13.3010828  54.1325099  32.1188063  13.8712185  54.5612368  31.4805547
  13.8918940  53.8507684  32.8172248  15.3455633  50.7076770  25.9897865
  16.0479676  51.1597814  26.4571791  15.0136261  50.0660589  26.6177758
  13.7935994  49.2988527  40.3649074  13.1634655  49.9804808  40.5984471
  13.6872082  49.1871609  39.4202212   9.0880967  48.9660323  31.2914998
   8.2980021  49.2217852  30.8155109   9.5792214  49.7808661  31.3967039
  23.1044776  56.3065562  34.0420279  23.9262220  55.9045749  33.7602961
  23.1007179  56.2033796  34.9936395  11.0395712  49.3304902  28.2498475
  10.2426875  49.4423596  28.7681970  10.8121304  49.6691554  27.3839365
  16.8701380  55.8549605  36.1980989  16.9345812  56.3170013  37.0339161
  16.1612304  55.2246970  36.3263299   7.3718670  49.2190813  33.7229989
   7.6226708  50.1037823  33.9887565   7.9078218  49.0395415  32.9505081
  31.1950769  52.6504311  30.3905250  30.4414478  52.0811709  30.2349255
  31.3298310  52.6166975  31.3375885  16.5849397  57.5217713  26.0659970
  16.4495072  58.3669249  26.4944818  17.1259210  57.7236991  25.3025904
  13.0716737  43.6009293  42.7274325  12.6783682  43.0475491  43.4021969
  13.8882877  43.9119871  43.1180843  10.0378795  55.0393151  26.6387895
  10.5503315  55.8336401  26.7893460  10.6901508  54.3419441  26.5721496
  11.8473679  58.1558907  28.7210648  12.0240308  59.0776872  28.5331632
  12.6430513  57.8417326  29.1505028  15.9884698  45.0167172  40.3194582
  16.7294411  45.6174325  40.2399044  16.2202621  44.2744810  39.7612624
  11.1326036  50.2023539  38.5972811  11.0179551  49.3008796  38.8979910
  10.2770554  50.4487236  38.2457628  18.2117874  58.1441279  40.1960312
  17.7681728  57.3577658  39.8781216  18.8735087  58.3320430  39.5304203
  12.9704995  59.6737081  34.7220990  13.5212420  59.5454144  33.9497984
  12.1316471  59.9731970  34.3715883  20.3099112  58.4244079  38.2241713
  20.2917587  59.2452960  37.7321982  21.2319032  58.2998155  38.4491854
  16.7672166  55.9388209  39.0665221  17.3000503  55.1776497  38.8364529
  16.2386247  55.6461861  39.8089376  19.9341861  41.0448275  34.5958863
  19.5906130  41.9349916  34.5197974  20.3020823  40.8549932  33.7328448
   8.0027711  53.3681805  27.4147465   8.8402933  53.7778814  27.1981173
   8.1805979  52.4281247  27.3847659  19.8992144  51.0356886  23.1031298
  19.3838767  51.8061491  23.3419686  19.6269452  50.3622022  23.7264360
  17.4839255  45.8806587  28.1616537  16.6280851  45.4913437  27.9822175
  17.8966206  45.9598548  27.3016322  19.0138401  43.4152930  32.5608096
  18.5103197  43.3783065  31.7475902  19.3069008  44.3245673  32.6204753
  15.2581287  43.4991660  31.5674278  16.1234284  43.3034468  31.2080168
  15.3258796  43.2702011  32.4943635  24.8726418  53.7889241  25.0384472
  24.0955860  53.4500400  24.5939634  25.5517899  53.7941864  24.3639437
  19.6878447  48.9083978  24.9291080  19.3828582  49.2230127  25.7801223
  20.6408889  48.9865398  24.9718413  18.1324879  55.0674201  26.5784034
  17.6046240  54.3326961  26.2657271  17.6312381  55.8448878  26.3324002
  23.1117725  53.2623222  31.6951080  22.4541399  53.9522483  31.7831208
  23.9158124  53.6519654  32.0385066  12.8643606  45.7293868  28.9390645
  13.4387358  45.5069049  28.2063838  13.4514589  45.7982562  29.6919246
  21.9223183  51.6167595  29.7455022  22.4355065  52.2497586  30.2476731
  22.5724407  51.0168790  29.3798382  13.1913193  47.7598329  22.9586530
  12.3550506  48.0973015  23.2795805  13.0517963  47.6247308  22.0213667
  15.1666274  42.6035117  27.6665714  14.5130686  42.2884134  27.0422329
  15.1246748  41.9810857  28.3925537  16.2777479  52.8854412  19.5819007
  15.3704541  52.6543665  19.7810156  16.7748511  52.0892031  19.7692988
  19.1845558  61.5951919  22.5015693  18.5107256  61.8983616  23.1100651
  19.5711380  62.3980999  22.1521150  18.4004014  49.0917050  31.9913362
  17.4826576  49.3131997  31.8335050  18.8164158  49.1663361  31.1325069
  19.1839062  50.4908466  27.1216042  19.9310881  51.0029863  26.8123164
  19.4530652  50.1692518  27.9820436  17.4565712  52.9867006  24.1042997
  16.5476931  52.7026039  24.2015466  17.4860796  53.4066085  23.2446303
  22.6884980  56.5973596  27.8734164  22.2347307  55.7564506  27.9299355
  22.0578946  57.2334994  28.2108944  21.6317899  47.5265582  29.1034832
  20.8940656  47.0142968  29.4345074  21.8844673  47.0865964  28.2918109
  21.1317919  58.4350093  28.8083982  21.4240893  58.9955150  28.0896348
  21.6416539  58.7278654  29.5637141  21.7329527  40.3041834  29.6976601
  22.0388403  39.4439197  29.4102516  22.4582131  40.8959454  29.4975595
   8.0253883  50.7072521  28.0858199   7.8278282  50.1141881  27.3609265
   7.4700547  50.4024731  28.8034138  16.0050606  50.5995627  30.2052792
  16.0599216  49.6469463  30.1295269  15.1941808  50.7555066  30.6894090
  17.1541800  54.5275750  21.4431075  16.7161230  53.8111609  20.9836713
  17.8952241  54.7551865  20.8816167  13.9442966  49.2172687  27.9643171
  13.1310832  49.5166857  28.3708363  14.4401960  48.8228376  28.6817653
  16.0951544  59.2130444  29.8977436  16.0527723  59.4391290  28.9685968
  17.0114243  58.9793818  30.0463237  19.5417178  49.6814511  36.7958065
  19.8966566  49.9085984  37.6552530  20.1889309  50.0132888  36.1735320
  25.2714915  52.8032947  27.5007394  25.1332813  52.9934543  26.5728583
  24.9151134  53.5652330  27.9575445  13.4357041  46.7891042  33.5804406
  14.0756420  46.6479801  32.8827369  12.6034571  46.5025556  33.2043008
  25.2984294  54.8709474  32.5118665  25.7320801  54.7784763  33.3601719
  26.0115875  54.8466975  31.8738681  14.2117345  56.0893473  29.6939398
  15.0057943  55.5943793  29.4921973  13.5009037  55.5611336  29.3307104
  19.0312189  58.4711568  34.0451766  19.0849212  59.0402505  34.8129482
  18.1626971  58.6413453  33.6805803  10.5200108  50.2336554  25.7699151
   9.5897696  50.1721010  25.9869113  10.6157580  49.7112507  24.9735792
  10.4385657  46.7591367  28.3577393  10.6992475  47.6736701  28.2486553
  11.2602830  46.2915810  28.5074005  11.9110583  48.1729124  35.5276217
  12.5833636  47.9646487  34.8788866  11.0840369  47.9751210  35.0881449
  26.1599844  54.9133175  35.0451551  26.3535734  55.8178985  35.2910826
  26.0600462  54.4540594  35.8790136  17.8136155  44.7991065  37.5441878
  17.1664070  45.4981015  37.4506354  18.5837170  45.2327209  37.9118126
  21.2214953  55.0639918  40.6192431  21.0700459  54.8350469  39.7022515
  21.2119632  56.0210519  40.6323776  17.9900289  52.6371830  35.6038698
  18.9192349  52.7882990  35.4307665  17.5691319  52.7255851  34.7487344
  16.7888621  56.6622495  33.3737235  16.6499707  56.2941279  34.2463173
  16.0003217  57.1770134  33.2021193  17.3836773  61.7631591  24.7162772
  17.5588528  61.2919634  25.5308395  16.6969561  62.3897357  24.9444033
  18.3393836  56.0404097  30.7626073  18.0043669  56.0004867  31.6583723
  17.8397782  55.3748813  30.2896483  12.3138080  51.4471727  36.2878654
  12.1757878  50.7151966  36.8890193  13.2243003  51.3580628  36.0062842
  21.2753028  53.3860132  21.0363133  20.6582198  52.6606960  20.9396185
  20.8069516  54.1469492  20.6930207  14.9420381  51.1591687  35.7762334
  15.6519999  50.5184879  35.7348952  14.8989689  51.4104582  36.6988515
  22.9307159  58.0959040  38.6968913  22.8719705  57.4118260  38.0299496
  23.3326678  58.8378030  38.2449539  13.6549315  48.1456905  37.5957973
  13.1186672  47.6947643  38.2479570  13.0666023  48.2802814  36.8528438
  11.9497858  64.9120954  31.4902632  12.1894456  65.5439478  32.1681651
  11.1067055  64.5608994  31.7767991  13.0651574  47.6045556  20.1584437
  12.1881040  47.4834357  19.7946684  13.5409327  46.8131634  19.9063326
  22.9324567  56.0598624  36.9282893  22.0451345  55.7224546  37.0509292
  23.5023118  55.3281655  37.1651658   4.5853714  52.3922716  30.2525944
   5.2724754  52.0784446  29.6646960   4.4301842  53.2964080  29.9793196
   9.3888436  47.2812912  34.6810968   9.3046625  46.6738582  33.9461378
   8.5671142  47.7721931  34.6820464  16.4625720  60.7200076  33.8944136
  16.3895891  61.5255048  34.4063441  16.0203113  60.9192042  33.0692157
  16.2515500  59.9571846  27.4046958  15.4683021  60.4993527  27.4985182
  16.9508245  60.4745826  27.8041199  19.5612150  45.7666476  30.0481163
  20.0580849  45.0136438  29.7282233  18.7899131  45.8030793  29.4824372
  27.4141907  51.4706841  31.6899454  27.4031783  52.3531557  31.3193388
  26.5459287  51.1178392  31.4953992  18.9224403  60.6186910  36.0502295
  19.6352376  61.2534375  35.9778196  18.4314432  60.7150776  35.2342297
  20.6441930  54.5238163  27.6219586  19.7098209  54.6439626  27.4524291
  20.8218599  53.6210630  27.3579596  16.1447118  47.9083859  29.7752848
  15.7744906  47.3554899  30.4633753  16.6406211  47.3041992  29.2227848
  24.0314482  50.3655482  28.1569621  24.4974934  51.1983474  28.0829923
  24.4821982  49.9000464  28.8614879  13.9736317  58.3681354  36.8707866
  14.6745777  59.0017837  37.0237260  13.5031432  58.7096085  36.1103505
  22.0990713  56.7099304  25.1555773  22.3750557  56.5955898  26.0649647
  21.2295212  56.3116789  25.1167946  22.0031144  42.7336069  32.1960522
  21.0894224  42.9640296  32.3642729  22.4324246  42.8174513  33.0474554
  21.7737603  50.9225961  34.6960416  21.1209053  51.1701869  34.0412869
  22.1517983  50.1090100  34.3622893  18.7344777  60.9585655  28.7988586
  18.9167171  60.1407310  29.2616338  19.5577763  61.1753347  28.3613476
  19.0686942  59.8853840  26.0603635  19.5974709  59.3746294  25.4473797
  19.3315162  59.5696370  26.9249168  17.8225176  51.6645772  41.1826453
  17.1465813  51.5639902  41.8528828  18.6452810  51.5084986  41.6462450
   9.5704035  57.9017709  33.8038968  10.1557472  57.1561397  33.9366872
   9.3728874  58.2121666  34.6875632  12.4242690  60.9368956  28.8201411
  11.7553066  61.4215084  28.3365451  12.2855560  61.1838177  29.7344789
   4.1621690  50.4723309  32.5243411   4.2005789  49.9386900  33.3180529
   3.6561983  49.9458515  31.9054389  16.5647959  62.9712700  35.4184069
  17.1166267  63.1344321  36.1833154  16.9054152  63.5617138  34.7464094
  11.5412452  45.3187850  36.0205954  11.6053779  46.1802681  35.6083351
  11.4779572  44.7061851  35.2878312  11.0164725  47.3910982  39.6678988
  11.6436763  47.0088060  40.2816512  10.1592643  47.1725184  40.0334680
  21.4158833  57.7973957  41.2732723  21.9598737  58.4103916  40.7787678
  20.8345678  58.3553536  41.7899736   7.7930267  49.1987411  25.5997343
   8.0883708  48.2898090  25.5464396   6.8918303  49.1775151  25.2778345
  19.7016346  60.9194675  32.4047751  19.5767486  60.1184415  31.8958697
  20.3595437  61.4140869  31.9161721  11.3224514  47.2743408  31.5824891
  10.6011100  47.8879376  31.4432365  12.1117770  47.8101173  31.5041537
  21.7651255  58.7203695  34.0327301  20.8181590  58.6009047  33.9605628
  22.1134028  57.8326194  34.1153563  14.1250828  44.6097834  37.8565543
  14.6485230  44.8560131  38.6191852  13.9063161  45.4417869  37.4368680
   9.5218109  46.8801509  25.7236668   9.1930815  45.9998888  25.5411774
   9.8757480  46.8249178  26.6113057  18.7697688  58.5156412  30.2331653
  18.6222650  57.5873119  30.4139223  19.5951181  58.5376502  29.7488729
  12.6359932  47.1674479  26.0912146  12.9756005  47.6960400  25.3690754
  13.0832053  47.5054885  26.8670712  22.3731810  59.3384970  31.3196526
  23.2978357  59.1327832  31.1820977  22.2047113  59.0901372  32.2285868
  15.3303373  45.5511530  35.5415214  14.9900193  44.7519343  35.9435894
  14.6242379  45.8513240  34.9692047  15.9819845  42.6360842  33.9942537
  16.8045914  42.1621320  33.8721427  16.2257908  43.4151326  34.4941223
  14.6228079  45.6649100  24.2905438  15.3436442  46.0430353  23.7869155
  13.9993383  46.3837977  24.3940416  18.7659202  46.3694249  25.2263771
  18.9822817  47.2518887  24.9252599  18.2853269  45.9780463  24.4969413
  13.5058424  49.3279963  31.8034515  13.3603004  49.6420266  32.6958797
  13.0283627  49.9464863  31.2505414  15.3654806  46.3182511  31.8515405
  15.3516375  45.4223604  31.5147703  16.0827235  46.3253174  32.4853691
  17.2180937  46.7519851  33.8968532  16.9598715  47.6736921  33.8952863
  16.6865978  46.3550285  34.5868996  22.1627126  59.8570638  26.6758618
  22.3364003  59.2917060  25.9232470  22.6556017  60.6571533  26.4938108
   7.9804086  51.8685307  34.7422176   7.4357554  52.6445115  34.8742451
   8.8583436  52.2156111  34.5841298  14.7691702  45.1996891  27.1202975
  14.8907614  44.2713537  27.3193862  14.4793745  45.2135577  26.2081290
  17.6382893  42.8851801  30.2569695  17.6604590  42.9491134  29.3021674
  18.0550952  42.0456310  30.4510201  28.0166517  52.6207061  28.2948917
  28.4597663  51.8714386  27.8968041  27.1393027  52.6117197  27.9122649
  23.1502298  59.1737402  23.7755516  23.8453203  59.7944095  23.9942831
  23.4925449  58.3232754  24.0507894   8.7670108  50.9955203  37.6352333
   8.0251844  51.1437839  38.2216964   8.4462852  51.2563469  36.7719083
  25.0493722  56.6237108  25.3042847  25.5745046  56.9624381  24.5792167
  24.9616074  55.6884123  25.1205981  16.7113770  60.5371181  37.4332723
  17.0200897  60.2920328  38.3055423  17.5089252  60.7417820  36.9451594
  16.7334382  62.6909091  29.6638100  16.2939373  62.1985470  30.3570957
  17.4842499  62.1482059  29.4230175   9.2126721  58.8820632  29.6662728
  10.0384741  58.5824404  29.2861371   8.8620773  58.1128254  30.1152517
  14.1808254  58.2347100  31.7360402  13.5588264  57.5717805  31.4362629
  14.8513121  58.2608232  31.0534049   7.4135326  56.8006958  30.6251662
   6.5767235  56.3729133  30.4435663   7.3858972  56.9939402  31.5622453
  14.2532782  46.7128888  41.3292908  14.3020937  47.5891011  40.9470677
  14.7955296  46.1706281  40.7564551  24.7387628  57.2570011  40.6094045
  23.9483171  57.2394150  40.0698544  24.5020982  57.7958305  41.3643081
  24.8585503  54.1062478  37.9226773  24.9083508  53.9412485  38.8642296
  24.7499426  53.2389737  37.5324654  13.7421761  56.7851024  25.2118862
  13.8909882  57.4686488  24.5585535  14.5488205  56.7656114  25.7268318
  22.1489265  50.0893406  39.2386080  23.0499128  49.9499871  38.9470078
  22.2237240  50.2547861  40.1784257  16.4832070  47.4660261  38.0839266
  15.6135380  47.7593827  37.8121855  16.7191551  48.0500706  38.8046530
  26.3603699  56.5259419  38.1668795  26.0688508  56.8889400  39.0032256
  25.7475831  55.8126428  37.9882127  27.5599382  54.0912299  30.6871365
  28.3946273  54.5302103  30.8508925  27.6958511  53.6150952  29.8679611
  24.6090888  51.6492034  36.6348853  25.0845009  51.8419680  35.8267704
  23.6856453  51.7051220  36.3892236  11.4974394  52.8116201  26.2179931
  11.2520436  51.9078531  26.4160141  11.6670309  52.8133352  25.2759409
  19.1871104  43.6839878  35.6004687  19.7053048  44.4200904  35.2751175
  18.8326237  43.9903871  36.4351446  10.7670042  48.5444559  23.7166092
  10.0739287  48.6188914  23.0606128  10.5221794  47.7804902  24.2387609
  19.4383698  40.1040160  31.1205583  19.7185452  39.4363349  31.7466010
  20.2234305  40.2969256  30.6080247  17.2417167  59.2799154  22.6830610
  16.6691134  59.8989341  22.2301081  17.8149961  59.8298516  23.2170531
  23.3092557  48.5257794  34.8677158  24.2609980  48.6255892  34.8889382
  23.1396007  47.7336063  35.3775243  21.3306936  45.6113377  35.0536559
  20.7356868  45.8918390  34.3583048  21.0456633  46.1007278  35.8253300
  20.4614427  59.5636304  23.8139192  21.3945100  59.4981866  24.0172067
  20.3737639  60.3992571  23.3553724  23.0902443  58.8802174  20.7743139
  23.0116075  58.5462038  21.6678897  23.9112110  59.3723942  20.7734612
  25.7880634  51.7463914  33.9819458  25.7556955  50.8079914  34.1679142
  26.3981258  51.8247950  33.2485283  17.6263965  50.6159967  20.0246662
  18.5723070  50.4866175  20.0935080  17.2478210  49.8774629  20.5016090
  25.9375123  48.5374957  34.0277741  25.4214172  47.7533414  33.8407670
  26.8215071  48.2093674  34.1924261  23.5985850  42.2815973  29.9873554
  23.4010671  41.9731061  30.8716886  24.2085555  43.0077612  30.1171484
  31.6057184  52.8079921  33.1225495  32.3360573  52.5465209  33.6833198
  30.9964130  52.0708643  33.1627563  29.6872481  50.9487783  33.7199946
  28.9605645  50.8143748  33.1116438  29.2719768  51.2564612  34.5256664
  17.5102658  54.6677713  41.4847319  18.4305667  54.8456312  41.6787365
  17.4752241  53.7233758  41.3327018  15.8106882  48.5409943  19.9601547
  14.9038338  48.2443056  20.0364261  16.0882863  48.2439761  19.0935833
   6.7284823  49.8616307  30.4100594   6.4087607  49.0081615  30.1174968
   6.1818251  50.0764885  31.1658561  10.5064730  52.5778748  34.1270100
  10.7250740  53.5095855  34.1458134  10.9190504  52.2186722  34.9124904
  17.4268948  43.0846833  26.1145789  16.6169677  42.7393918  26.4901035
  18.1153365  42.7754377  26.7033400  19.3559496  42.1624880  27.7370085
  19.9090535  42.5820333  28.3960108  19.5929583  41.2360628  27.7793041
  15.3792596  48.1511953  43.5172849  15.2789323  49.1006310  43.4484940
  15.1614138  47.8230192  42.6448919  14.5805667  45.3996878  20.1013526
  15.4424831  45.7251777  20.3609344  14.7656011  44.6128374  19.5886592
   6.5973083  53.4819218  32.3793715   5.9036554  53.0673171  31.8663670
   7.3446074  53.5239755  31.7827134  22.7338304  44.2725405  27.2448749
  22.1536973  44.9310209  26.8626802  22.4674236  43.4502749  26.8336167
  21.1841870  43.6730463  29.4470070  21.6841648  43.7846997  28.6384389
  21.8277478  43.3691515  30.0870878  15.2423866  51.5809092  42.3337911
  14.7590947  52.3809452  42.5401800  15.3284805  51.5917037  41.3805355
   8.5109825  53.4137472  30.2559730   8.4880514  53.5125159  29.3041613
   8.8210462  54.2602623  30.5776896  11.1697203  55.4713627  34.3706345
  12.1240457  55.4397569  34.3036276  10.9709727  55.0104251  35.1856570
  11.7596585  54.0414743  36.9377142  12.5789474  54.5358822  36.9611979
  12.0333393  53.1246711  36.9094710  21.5163182  46.4325495  26.3005098
  20.6289037  46.7175146  26.0825292  21.9317171  46.2719259  25.4532375
  24.8677718  46.4572016  30.0159437  25.6438108  46.9468469  30.2884054
  24.1425852  46.8830070  30.4731306  27.3050276  47.1699635  31.0733378
  27.8994767  46.9295371  30.3626686  27.3776860  46.4506766  31.7006914
   9.5247432  61.0133246  31.3876542   9.3901900  60.2533647  30.8214540
   9.1079494  61.7374146  30.9205331  20.6606395  56.1970170  20.3953118
  21.3642245  56.4020172  21.0110773  19.9369044  56.7646932  20.6602201
  21.4904205  51.9480031  26.5155388  21.4339407  52.4048583  25.6763020
  22.0432548  51.1870716  26.3378231  25.3009011  47.7369763  27.3405507
  25.0445945  47.3366399  28.1713715  24.6761879  48.4513557  27.2155646
  29.6121349  50.4765836  29.8476799  29.0520907  50.5459026  30.6208361
  29.0064852  50.3006821  29.1276295  12.6816558  61.9102563  31.5994985
  12.5648942  62.8547996  31.4973675  11.8609004  61.6076125  31.9880784
  22.5693092  56.6352699  22.4451578  23.4038696  56.2033898  22.2629053
  22.4077435  56.4634713  23.3728472  22.2238985  53.1384812  23.8107917
  22.1687788  52.9729084  22.8696361  21.5985040  53.8460845  23.9670107
   7.0131500  48.3752877  37.6369339   7.6590363  47.8651831  38.1256564
   6.8048651  49.1121558  38.2112764  19.5384892  55.4433724  43.1361480
  20.4076051  55.6174377  42.7748115  19.0591643  56.2628141  43.0137209
  15.5335110  42.6392921  23.3893235  15.5213780  43.5834761  23.5461506
  16.4258532  42.4563067  23.0952697  13.7071072  62.5630825  34.8150913
  14.6098319  62.5954435  35.1317408  13.4808442  61.6331276  34.8297249
  15.4624674  61.3161812  31.4760992  14.5120305  61.3163673  31.3625364
  15.7657160  60.5694546  30.9597027  19.3487230  39.2335698  27.6439172
  18.5819625  38.6794185  27.7895855  19.7597935  39.3057567  28.5053324
  11.3528991  45.5220494  41.7344353  12.2160452  45.1657299  41.9447678
  10.7794401  45.1834389  42.4219758  31.1977368  67.1522350  32.5406754
  31.8355778  67.0329098  31.8370095  31.0798210  68.1003194  32.5994707
  28.0067074  67.1049778  32.4768279  27.6685585  66.9890843  31.5888814
  28.8756842  66.7040943  32.4569285  23.8653890  68.9585255  28.4665170
  23.3018755  68.8675192  27.6981458  23.7506285  68.1385159  28.9467663
  28.4886857  68.2584630  38.4354485  28.4775498  67.8637428  37.5634988
  28.6507496  67.5250703  39.0288256  21.4118321  70.4536446  31.3049391
  22.2039613  70.1127271  30.8895690  21.6514972  70.5631421  32.2251544
  29.4453448  72.6256222  23.7779635  28.7941428  73.2110303  23.3913649
  30.2397811  73.1562417  23.8374672  23.3709075  69.7145360  24.1766769
  24.1439951  69.1674347  24.0379645  23.7234474  70.5789609  24.3881231
  25.2094118  71.0421742  37.3833669  24.9183984  71.9467373  37.2680335
  25.8451102  71.0838269  38.0977738  26.1350325  68.4198590  33.9735028
  26.7313897  68.1954613  33.2591991  26.1925296  67.6783336  34.5760476
  25.7075353  65.8738026  21.8085219  25.9600874  65.3519547  21.0468682
  24.7699912  65.7104171  21.9111903  30.7518636  64.8773804  29.6159963
  31.5381725  64.4593227  29.2650380  31.0157340  65.7819896  29.7841611
  30.9228713  70.3146654  24.3148619  30.2874546  70.3881281  25.0269524
  30.5926120  70.9040253  23.6367699  25.4271642  67.7766132  24.0109594
  25.3107900  67.1011035  24.6790679  25.5373902  67.2898506  23.1941747
  27.7703183  67.2376279  27.7156283  27.4061390  66.7106900  28.4269205
  28.6270299  66.8474748  27.5422769  27.4108670  62.2666178  22.7117632
  27.5783072  63.1346415  23.0788103  27.2205839  62.4293460  21.7878921
  30.1684003  70.7283157  34.3783462  29.8684726  71.6308196  34.2699270
  29.8235063  70.4615341  35.2304615  23.6196485  67.1796954  30.4120167
  22.6946981  67.0473168  30.6197859  23.8680898  67.9591173  30.9090109
  33.5681147  63.2465697  32.0580900  32.6598024  63.1781106  31.7639661
  33.5168743  63.7237642  32.8862725  27.3897891  64.7223836  23.6964299
  27.2697516  65.1680887  24.5349779  26.6950479  65.0709154  23.1377837
  20.9805296  66.8230228  31.2463956  21.1097677  67.0764707  32.1603368
  20.3002747  67.4157936  30.9268611  25.1504783  77.4927478  27.3454430
  25.0728813  78.4435303  27.4242911  24.5466426  77.1473350  28.0029356
  27.6422013  64.6655343  40.0015797  26.8655347  65.2249263  39.9918662
  28.2812576  65.1512126  40.5230667  35.4342793  61.4482136  33.8358774
  34.7917174  61.7414669  33.1898568  34.9297722  61.3335056  34.6411970
  33.0882957  65.1945309  24.5244633  34.0000813  65.4272696  24.3492330
  32.5792604  65.7782353  23.9619711  25.8968385  67.4740796  39.5633764
  26.6383069  68.0125840  39.2868588  25.1905370  68.1007085  39.7205316
  31.3723725  69.6169937  38.1605925  31.7807081  69.1752347  37.4160558
  30.6500986  69.0422564  38.4140118  27.7254795  64.5542544  35.5339482
  28.5715990  64.9781957  35.6774131  27.6653432  63.8976168  36.2278045
  31.6952539  70.1771128  31.9158214  31.0661402  70.3416842  31.2134282
  31.3078201  70.5912737  32.6869178  35.5741771  71.1125565  29.2702578
  34.8892809  71.4924467  28.7199611  35.6585620  71.7220892  30.0034526
  30.8754240  62.2146912  37.1920656  30.6315172  62.9688973  36.6554932
  31.1514170  62.5932260  38.0267903  32.8292703  68.7585524  35.8697922
  33.0409598  69.4017284  35.1932303  32.7822451  67.9247841  35.4019852
  30.4318932  61.3703345  32.7734494  29.5703411  61.6684599  33.0651231
  30.4581366  61.5873744  31.8415526  27.2480501  69.9145536  29.1808299
  27.7118847  70.1933239  28.3912922  26.9837299  69.0128980  28.9981390
  24.1404582  69.4617017  32.1188063  24.7105939  69.8904286  31.4805547
  24.7312694  69.1799602  32.8172248  26.1849387  66.0368688  25.9897865
  26.8873431  66.4889732  26.4571791  25.8530016  65.3952507  26.6177758
  24.6329749  64.6280445  40.3649074  24.0028409  65.3096725  40.5984471
  24.5265837  64.5163526  39.4202212  19.9274721  64.2952241  31.2914998
  19.1373775  64.5509769  30.8155109  20.4185968  65.1100579  31.3967039
  33.9438531  71.6357480  34.0420279  34.7655974  71.2337667  33.7602961
  33.9400934  71.5325714  34.9936395  21.8789467  64.6596820  28.2498475
  21.0820630  64.7715514  28.7681970  21.6515059  64.9983472  27.3839365
  27.7095134  71.1841523  36.1980989  27.7739567  71.6461930  37.0339161
  27.0006058  70.5538888  36.3263299  18.2112424  64.5482731  33.7229989
  18.4620463  65.4329741  33.9887565  18.7471973  64.3687333  32.9505081
  27.4243152  72.8509631  26.0659970  27.2888827  73.6961166  26.4944818
  27.9652964  73.0528908  25.3025904  23.9110491  58.9301210  42.7274325
  23.5177437  58.3767409  43.4021969  24.7276632  59.2411789  43.1180843
  20.8772549  70.3685069  26.6387895  21.3897070  71.1628319  26.7893460
  21.5295262  69.6711359  26.5721496  22.6867434  73.4850825  28.7210648
  22.8634062  74.4068790  28.5331632  23.4824267  73.1709244  29.1505028
  26.8278452  60.3459090  40.3194582  27.5688166  60.9466243  40.2399044
  27.0596375  59.6036727  39.7612624  21.9719790  65.5315457  38.5972811
  21.8573306  64.6300714  38.8979910  21.1164308  65.7779154  38.2457628
  29.0511628  73.4733197  40.1960312  28.6075482  72.6869576  39.8781216
  29.7128842  73.6612348  39.5304203  23.8098749  75.0028999  34.7220990
  24.3606174  74.8746062  33.9497984  22.9710225  75.3023888  34.3715883
  31.1492866  73.7535997  38.2241713  31.1311342  74.5744878  37.7321982
  32.0712786  73.6290072  38.4491854  27.6065920  71.2680127  39.0665221
  28.1394257  70.5068415  38.8364529  27.0780001  70.9753778  39.8089376
  30.7735615  56.3740192  34.5958863  30.4299885  57.2641834  34.5197974
  31.1414578  56.1841850  33.7328448  18.8421466  68.6973723  27.4147465
  19.6796688  69.1070731  27.1981173  19.0199734  67.7573165  27.3847659
  30.7385898  66.3648804  23.1031298  30.2232522  67.1353408  23.3419686
  30.4663207  65.6913940  23.7264360  28.3233009  61.2098504  28.1616537
  27.4674605  60.8205355  27.9822175  28.7359961  61.2890465  27.3016322
  29.8532156  58.7444848  32.5608096  29.3496951  58.7074983  31.7475902
  30.1462763  59.6537590  32.6204753  26.0975042  58.8283577  31.5674278
  26.9628038  58.6326386  31.2080168  26.1652551  58.5993929  32.4943635
  35.7120172  69.1181158  25.0384472  34.9349615  68.7792318  24.5939634
  36.3911653  69.1233781  24.3639437  30.5272201  64.2375896  24.9291080
  30.2222337  64.5522045  25.7801223  31.4802643  64.3157316  24.9718413
  28.9718633  70.3966119  26.5784034  28.4439995  69.6618879  26.2657271
  28.4706136  71.1740795  26.3324002  33.9511479  68.5915140  31.6951080
  33.2935154  69.2814401  31.7831208  34.7551878  68.9811571  32.0385066
  23.7037361  61.0585785  28.9390645  24.2781113  60.8360967  28.2063838
  24.2908343  61.1274480  29.6919246  32.7616938  66.9459512  29.7455022
  33.2748820  67.5789504  30.2476731  33.4118162  66.3460708  29.3798382
  24.0306948  63.0890246  22.9586530  23.1944260  63.4264933  23.2795805
  23.8911717  62.9539226  22.0213667  26.0060028  57.9327034  27.6665714
  25.3524441  57.6176051  27.0422329  25.9640503  57.3102775  28.3925537
  27.1171233  68.2146329  19.5819007  26.2098295  67.9835583  19.7810156
  27.6142265  67.4183949  19.7692988  30.0239312  76.9243836  22.5015693
  29.3501011  77.2275533  23.1100651  30.4105134  77.7272917  22.1521150
  29.2397769  64.4208968  31.9913362  28.3220330  64.6423915  31.8335050
  29.6557912  64.4955278  31.1325069  30.0232817  65.8200383  27.1216042
  30.7704635  66.3321781  26.8123164  30.2924406  65.4984436  27.9820436
  28.2959467  68.3158924  24.1042997  27.3870686  68.0317957  24.2015466
  28.3254551  68.7358003  23.2446303  33.5278734  71.9265514  27.8734164
  33.0741061  71.0856424  27.9299355  32.8972701  72.5626912  28.2108944
  32.4711654  62.8557500  29.1034832  31.7334410  62.3434886  29.4345074
  32.7238427  62.4157881  28.2918109  31.9711673  73.7642010  28.8083982
  32.2634648  74.3247067  28.0896348  32.4810294  74.0570571  29.5637141
  32.5723281  55.6333752  29.6976601  32.8782158  54.7731115  29.4102516
  33.2975886  56.2251372  29.4975595  18.8647637  66.0364438  28.0858199
  18.6672037  65.4433799  27.3609265  18.3094301  65.7316648  28.8034138
  26.8444361  65.9287545  30.2052792  26.8992971  64.9761381  30.1295269
  26.0335563  66.0846984  30.6894090  27.9935555  69.8567668  21.4431075
  27.5554984  69.1403527  20.9836713  28.7345995  70.0843783  20.8816167
  24.7836721  64.5464604  27.9643171  23.9704586  64.8458775  28.3708363
  25.2795715  64.1520293  28.6817653  26.9345299  74.5422361  29.8977436
  26.8921477  74.7683208  28.9685968  27.8507997  74.3085736  30.0463237
  30.3810932  65.0106429  36.7958065  30.7360320  65.2377902  37.6552530
  31.0283064  65.3424806  36.1735320  36.1108669  68.1324865  27.5007394
  35.9726568  68.3226461  26.5728583  35.7544888  68.8944248  27.9575445
  24.2750795  62.1182960  33.5804406  24.9150175  61.9771719  32.8827369
  23.4428326  61.8317473  33.2043008  36.1378049  70.2001392  32.5118665
  36.5714556  70.1076681  33.3601719  36.8509630  70.1758892  31.8738681
  25.0511099  71.4185390  29.6939398  25.8451698  70.9235711  29.4921973
  24.3402792  70.8903254  29.3307104  29.8705944  73.8003486  34.0451766
  29.9242966  74.3694422  34.8129482  29.0020725  73.9705371  33.6805803
  21.3593863  65.5628472  25.7699151  20.4291451  65.5012928  25.9869113
  21.4551335  65.0404425  24.9735792  21.2779412  62.0883285  28.3577393
  21.5386229  63.0028618  28.2486553  22.0996584  61.6207728  28.5074005
  22.7504337  63.5021042  35.5276217  23.4227391  63.2938404  34.8788866
  21.9234124  63.3043128  35.0881449  36.9993598  70.2425093  35.0451551
  37.1929489  71.1470903  35.2910826  36.8994217  69.7832512  35.8790136
  28.6529909  60.1282983  37.5441878  28.0057824  60.8272933  37.4506354
  29.4230925  60.5619127  37.9118126  32.0608707  70.3931835  40.6192431
  31.9094214  70.1642387  39.7022515  32.0513387  71.3502437  40.6323776
  28.8294044  67.9663748  35.6038698  29.7586104  68.1174908  35.4307665
  28.4085074  68.0547769  34.7487344  27.6282375  71.9914412  33.3737235
  27.4893461  71.6233197  34.2463173  26.8396972  72.5062052  33.2021193
  28.2230527  77.0923509  24.7162772  28.3982283  76.6211552  25.5308395
  27.5363315  77.7189275  24.9444033  29.1787590  71.3696015  30.7626073
  28.8437423  71.3296785  31.6583723  28.6791536  70.7040731  30.2896483
  23.1531834  66.7763645  36.2878654  23.0151632  66.0443884  36.8890193
  24.0636758  66.6872545  36.0062842  32.1146782  68.7152049  21.0363133
  31.4975953  67.9898878  20.9396185  31.6463271  69.4761410  20.6930207
  25.7814135  66.4883604  35.7762334  26.4913754  65.8476797  35.7348952
  25.7383443  66.7396499  36.6988515  33.7700914  73.4250958  38.6968913
  33.7113460  72.7410178  38.0299496  34.1720432  74.1669948  38.2449539
  24.4943069  63.4748822  37.5957973  23.9580426  63.0239561  38.2479570
  23.9059778  63.6094731  36.8528438  22.7891613  80.2412872  31.4902632
  23.0288211  80.8731396  32.1681651  21.9460809  79.8900912  31.7767991
  23.9045328  62.9337474  20.1584437  23.0274794  62.8126275  19.7946684
  24.3803081  62.1423552  19.9063326  33.7718321  71.3890542  36.9282893
  32.8845100  71.0516464  37.0509292  34.3416872  70.6573573  37.1651658
  15.4247468  67.7214633  30.2525944  16.1118508  67.4076364  29.6646960
  15.2695597  68.6255998  29.9793196  20.2282190  62.6104830  34.6810968
  20.1440379  62.0030500  33.9461378  19.4064897  63.1013848  34.6820464
  27.3019474  76.0491994  33.8944136  27.2289646  76.8546966  34.4063441
  26.8596868  76.2483960  33.0692157  27.0909254  75.2863764  27.4046958
  26.3076776  75.8285444  27.4985182  27.7901999  75.8037744  27.8041199
  30.4005904  61.0958394  30.0481163  30.8974604  60.3428356  29.7282233
  29.6292886  61.1322710  29.4824372  29.7618158  75.9478828  36.0502295
  30.4746130  76.5826293  35.9778196  29.2708187  76.0442694  35.2342297
  31.4835685  69.8530081  27.6219586  30.5491964  69.9731543  27.4524291
  31.6612353  68.9502548  27.3579596  26.9840873  63.2375777  29.7752848
  26.6138660  62.6846817  30.4633753  27.4799965  62.6333910  29.2227848
  34.8708236  65.6947400  28.1569621  35.3368688  66.5275392  28.0829923
  35.3215737  65.2292382  28.8614879  24.8130072  73.6973272  36.8707866
  25.5139531  74.3309755  37.0237260  24.3425186  74.0388003  36.1103505
  32.9384467  72.0391221  25.1555773  33.2144311  71.9247816  26.0649647
  32.0688966  71.6408706  25.1167946  32.8424899  58.0627987  32.1960522
  31.9287979  58.2932214  32.3642729  33.2718000  58.1466431  33.0474554
  32.6131357  66.2517879  34.6960416  31.9602808  66.4993786  34.0412869
  32.9911737  65.4382017  34.3622893  29.5738531  76.2877572  28.7988586
  29.7560926  75.4699228  29.2616338  30.3971517  76.5045264  28.3613476
  29.9080697  75.2145757  26.0603635  30.4368463  74.7038212  25.4473797
  30.1708916  74.8988288  26.9249168  28.6618930  66.9937690  41.1826453
  27.9859568  66.8931819  41.8528828  29.4846564  66.8376904  41.6462450
  20.4097790  73.2309627  33.8038968  20.9951226  72.4853315  33.9366872
  20.2122628  73.5413583  34.6875632  23.2636445  76.2660874  28.8201411
  22.5946820  76.7507002  28.3365451  23.1249314  76.5130094  29.7344789
  15.0015444  65.8015227  32.5243411  15.0399544  65.2678818  33.3180529
  14.4955737  65.2750432  31.9054389  27.4041713  78.3004618  35.4184069
  27.9560021  78.4636239  36.1833154  27.7447907  78.8909055  34.7464094
  22.3806207  60.6479767  36.0205954  22.4447533  61.5094598  35.6083351
  22.3173327  60.0353769  35.2878312  21.8558479  62.7202900  39.6678988
  22.4830518  62.3379977  40.2816512  20.9986398  62.5017102  40.0334680
  32.2552588  73.1265875  41.2732723  32.7992492  73.7395833  40.7787678
  31.6739433  73.6845453  41.7899736  18.6324022  64.5279329  25.5997343
  18.9277463  63.6190007  25.5464396  17.7312058  64.5067068  25.2778345
  30.5410101  76.2486593  32.4047751  30.4161240  75.4476333  31.8958697
  31.1989192  76.7432786  31.9161721  22.1618269  62.6035326  31.5824891
  21.4404855  63.2171293  31.4432365  22.9511525  63.1393090  31.5041537
  32.6045009  74.0495613  34.0327301  31.6575345  73.9300964  33.9605628
  32.9527782  73.1618111  34.1153563  24.9644582  59.9389752  37.8565543
  25.4878984  60.1852049  38.6191852  24.7456916  60.7709787  37.4368680
  20.3611863  62.2093427  25.7236668  20.0324570  61.3290806  25.5411774
  20.7151234  62.1541095  26.6113057  29.6091442  73.8448329  30.2331653
  29.4616405  72.9165037  30.4139223  30.4344936  73.8668420  29.7488729
  23.4753687  62.4966396  26.0912146  23.8149759  63.0252318  25.3690754
  23.9225807  62.8346803  26.8670712  33.2125564  74.6676888  31.3196526
  34.1372112  74.4619749  31.1820977  33.0440868  74.4193289  32.2285868
  26.1697127  60.8803447  35.5415214  25.8293948  60.0811260  35.9435894
  25.4636134  61.1805158  34.9692047  26.8213599  57.9652760  33.9942537
  27.6439669  57.4913238  33.8721427  27.0651663  58.7443243  34.4941223
  25.4621834  60.9941018  24.2905438  26.1830196  61.3722271  23.7869155
  24.8387138  61.7129895  24.3940416  29.6052957  61.6986167  25.2263771
  29.8216571  62.5810805  24.9252599  29.1247024  61.3072380  24.4969413
  24.3452178  64.6571880  31.8034515  24.1996759  64.9712183  32.6958797
  23.8677382  65.2756781  31.2505414  26.2048561  61.6474428  31.8515405
  26.1910130  60.7515522  31.5147703  26.9220989  61.6545092  32.4853691
  28.0574692  62.0811768  33.8968532  27.7992469  63.0028839  33.8952863
  27.5259732  61.6842203  34.5868996  33.0020880  75.1862556  26.6758618
  33.1757758  74.6208978  25.9232470  33.4949772  75.9863450  26.4938108
  18.8197840  67.1977225  34.7422176  18.2751308  67.9737033  34.8742451
  19.6977190  67.5448029  34.5841298  25.6085457  60.5288809  27.1202975
  25.7301368  59.6005455  27.3193862  25.3187499  60.5427494  26.2081290
  28.4776647  58.2143719  30.2569695  28.4998344  58.2783052  29.3021674
  28.8944706  57.3748228  30.4510201  33.9896053  74.5029320  23.7755516
  34.6846957  75.1236013  23.9942831  34.3319203  73.6524671  24.0507894
  19.6063862  66.3247121  37.6352333  18.8645598  66.4729756  38.2216964
  19.2856606  66.5855387  36.7719083  35.8887476  71.9529025  25.3042847
  36.4138800  72.2916298  24.5792167  35.8009829  71.0176041  25.1205981
  27.5507525  75.8663099  37.4332723  27.8594651  75.6212246  38.3055423
  28.3483007  76.0709738  36.9451594  27.5728137  78.0201009  29.6638100
  27.1333127  77.5277387  30.3570957  28.3236254  77.4773976  29.4230175
  20.0520476  74.2112550  29.6662728  20.8778496  73.9116321  29.2861371
  19.7014528  73.4420172  30.1152517  25.0202009  73.5639018  31.7360402
  24.3982018  72.9009723  31.4362629  25.6906876  73.5900150  31.0534049
  18.2529081  72.1298876  30.6251662  17.4160989  71.7021050  30.4435663
  18.2252726  72.3231319  31.5622453  25.0926536  62.0420806  41.3292908
  25.1414692  62.9182929  40.9470677  25.6349051  61.4998199  40.7564551
  24.5815516  72.1142941  25.2118862  24.7303636  72.7978406  24.5585535
  25.3881959  72.0948031  25.7268318  27.3225825  62.7952178  38.0839266
  26.4529134  63.0885744  37.8121855  27.5585305  63.3792623  38.8046530
  37.1997454  71.8551337  38.1668795  36.9082262  72.2181318  39.0032256
  36.5869585  71.1418345  37.9882127  35.4484642  66.9783952  36.6348853
  35.9238764  67.1711598  35.8267704  34.5250208  67.0343137  36.3892236
  22.3368149  68.1408119  26.2179931  22.0914191  67.2370449  26.4160141
  22.5064063  68.1425269  25.2759409  30.0264859  59.0131795  35.6004687
  30.5446803  59.7492822  35.2751175  29.6719991  59.3195789  36.4351446
  21.6063796  63.8736476  23.7166092  20.9133041  63.9480831  23.0606128
  21.3615548  63.1096820  24.2387609  30.2777453  55.4332078  31.1205583
  30.5579207  54.7655267  31.7466010  31.0628060  55.6261173  30.6080247
  28.0810921  74.6091072  22.6830610  27.5084888  75.2281259  22.2301081
  28.6543715  75.1590433  23.2170531  34.1486311  63.8549712  34.8677158
  35.1003734  63.9547809  34.8889382  33.9789762  63.0627980  35.3775243
  32.1700691  60.9405295  35.0536559  31.5750623  61.2210308  34.3583048
  31.8850387  61.4299196  35.8253300  31.3008181  74.8928222  23.8139192
  32.2338854  74.8273783  24.0172067  31.2131394  75.7284489  23.3553724
  33.9296198  74.2094092  20.7743139  33.8509829  73.8753956  21.6678897
  34.7505865  74.7015860  20.7734612  36.6274389  67.0755831  33.9819458
  36.5950709  66.1371832  34.1679142  37.2375013  67.1539868  33.2485283
  28.4657720  65.9451884  20.0246662  29.4116825  65.8158093  20.0935080
  28.0871965  65.2066546  20.5016090  34.4379604  57.6107890  29.9873554
  34.2404426  57.3022979  30.8716886  35.0479310  58.3369529  30.1171484
  28.3496412  69.9969631  41.4847319  29.2699422  70.1748230  41.6787365
  28.3145995  69.0525676  41.3327018  26.6500637  63.8701861  19.9601547
  25.7432092  63.5734973  20.0364261  26.9276618  63.5731679  19.0935833
  17.5678577  65.1908224  30.4100594  17.2481362  64.3373532  30.1174968
  17.0212006  65.4056802  31.1658561  21.3458485  67.9070665  34.1270100
  21.5644495  68.8387773  34.1458134  21.7584259  67.5478640  34.9124904
  28.2662703  58.4138750  26.1145789  27.4563431  58.0685835  26.4901035
  28.9547120  58.1046294  26.7033400  30.1953251  57.4916797  27.7370085
  30.7484290  57.9112251  28.3960108  30.4323337  56.5652545  27.7793041
  26.2186350  63.4803871  43.5172849  26.1183077  64.4298228  43.4484940
  26.0007892  63.1522110  42.6448919  25.4199422  60.7288796  20.1013526
  26.2818586  61.0543694  20.3609344  25.6049766  59.9420292  19.5886592
  17.4366837  68.8111136  32.3793715  16.7430309  68.3965088  31.8663670
  18.1839828  68.8531672  31.7827134  33.5732058  59.6017322  27.2448749
  32.9930727  60.2602126  26.8626802  33.3067991  58.7794667  26.8336167
  32.0235624  59.0022380  29.4470070  32.5235403  59.1138915  28.6384389
  32.6671232  58.6983433  30.0870878  26.0817620  66.9101010  42.3337911
  25.5984702  67.7101370  42.5401800  26.1678559  66.9208955  41.3805355
  19.3503580  68.7429389  30.2559730  19.3274268  68.8417077  29.3041613
  19.6604216  69.5894540  30.5776896  22.0090958  70.8005544  34.3706345
  22.9634211  70.7689487  34.3036276  21.8103481  70.3396168  35.1856570
  22.5990340  69.3706661  36.9377142  23.4183229  69.8650739  36.9611979
  22.8727148  68.4538629  36.9094710  32.3556936  61.7617413  26.3005098
  31.4682791  62.0467063  26.0825292  32.7710925  61.6011176  25.4532375
  20.3641187  76.3425164  31.3876542  20.2295654  75.5825565  30.8214540
  19.9473249  77.0666064  30.9205331  31.5000150  71.5262088  20.3953118
  32.2036000  71.7312090  21.0110773  30.7762798  72.0938849  20.6602201
  32.3297960  67.2771949  26.5155388  32.2733161  67.7340500  25.6763020
  32.8826302  66.5162633  26.3378231  36.1402766  63.0661681  27.3405507
  35.8839700  62.6658316  28.1713715  35.5155634  63.7805475  27.2155646
  23.5210312  77.2394481  31.5994985  23.4042697  78.1839913  31.4973675
  22.7002759  76.9368043  31.9880784  33.4086847  71.9644617  22.4451578
  34.2432451  71.5325815  22.2629053  33.2471190  71.7926630  23.3728472
  33.0632739  68.4676730  23.8107917  33.0081543  68.3021001  22.8696361
  32.4378794  69.1752763  23.9670107  17.8525254  63.7044794  37.6369339
  18.4984118  63.1943748  38.1256564  17.6442405  64.4413476  38.2112764
  30.3778646  70.7725642  43.1361480  31.2469806  70.9466294  42.7748115
  29.8985398  71.5920059  43.0137209  26.3728865  57.9684839  23.3893235
  26.3607534  58.9126679  23.5461506  27.2652286  57.7854984  23.0952697
  24.5464827  77.8922743  34.8150913  25.4492073  77.9246353  35.1317408
  24.3202197  76.9623194  34.8297249  26.3018429  76.6453729  31.4760992
  25.3514060  76.6455591  31.3625364  26.6050915  75.8986464  30.9597027
  30.1880984  54.5627616  27.6439172  29.4213380  54.0086102  27.7895855
  30.5991689  54.6349484  28.5053324  22.1922745  60.8512411  41.7344353
  23.0554207  60.4949216  41.9447678  21.6188156  60.5126306  42.4219758
  42.0371122  82.4814268  32.5406754  42.6749532  82.3621015  31.8370095
  41.9191965  83.4295112  32.5994707  38.8460828  82.4341696  32.4768279
  38.5079340  82.3182761  31.5888814  39.7150597  82.0332861  32.4569285
  34.7047644  84.2877172  28.4665170  34.1412509  84.1967109  27.6981458
  34.5900039  83.4677077  28.9467663  39.3280611  83.5876548  38.4354485
  39.3169252  83.1929346  37.5634988  39.4901251  82.8542620  39.0288256
  32.2512076  85.7828364  31.3049391  33.0433368  85.4419189  30.8895690
  32.4908726  85.8923339  32.2251544  40.2847203  87.9548140  23.7779635
  39.6335183  88.5402220  23.3913649  41.0791566  88.4854335  23.8374672
  34.2102830  85.0437277  24.1766769  34.9833706  84.4966264  24.0379645
  34.5628229  85.9081527  24.3881231  36.0487872  86.3713659  37.3833669
  35.7577738  87.2759290  37.2680335  36.6844857  86.4130187  38.0977738
  36.9744079  83.7490508  33.9735028  37.5707652  83.5246530  33.2591991
  37.0319051  83.0075253  34.5760476  36.5469108  81.2029943  21.8085219
  36.7994628  80.6811465  21.0468682  35.6093667  81.0396089  21.9111903
  41.5912391  80.2065722  29.6159963  42.3775480  79.7885145  29.2650380
  41.8551095  81.1111814  29.7841611  41.7622468  85.6438572  24.3148619
  41.1268301  85.7173199  25.0269524  41.4319874  86.2332171  23.6367699
  46.9920818  80.1440955  30.5192941  47.7245990  79.5740172  30.7530771
  46.2360173  79.7562555  30.9599447  36.2665396  83.1058049  24.0109594
  36.1501655  82.4302953  24.6790679  36.3767656  82.6190423  23.1941747
  38.6096937  82.5668196  27.7156283  38.2455145  82.0398817  28.4269205
  39.4664053  82.1766665  27.5422769  44.5146238  73.8562529  34.9787550
  44.1829563  74.7257940  34.7548765  43.9191851  73.5398813  35.6581580
  38.2502424  77.5958096  22.7117632  38.4176827  78.4638332  23.0788103
  38.0599593  77.7585378  21.7878921  41.0077758  86.0575075  34.3783462
  40.7078481  86.9600114  34.2699270  40.6628817  85.7907258  35.2304615
  34.4590239  82.5088872  30.4120167  33.5340736  82.3765086  30.6197859
  34.7074652  83.2883091  30.9090109  44.4074901  78.5757615  32.0580900
  43.4991779  78.5073024  31.7639661  44.3562497  79.0529560  32.8862725
  38.2291645  80.0515754  23.6964299  38.1091270  80.4972804  24.5349779
  37.5344234  80.4001071  23.1377837  31.8199050  82.1522145  31.2463956
  31.9491431  82.4056624  32.1603368  31.1396501  82.7449853  30.9268611
  38.4815767  79.9947261  40.0015797  37.7049101  80.5541181  39.9918662
  39.1206330  80.4804044  40.5230667  46.2736548  76.7774054  33.8358774
  45.6310928  77.0706587  33.1898568  45.7691476  76.6626974  34.6411970
  43.9276711  80.5237227  24.5244633  44.8394568  80.7564614  24.3492330
  43.4186358  81.1074271  23.9619711  36.7362139  82.8032714  39.5633764
  37.4776824  83.3417758  39.2868588  36.0299125  83.4299003  39.7205316
  42.2117479  84.9461855  38.1605925  42.6200835  84.5044265  37.4160558
  41.4894741  84.3714482  38.4140118  38.5648549  79.8834461  35.5339482
  39.4109744  80.3073875  35.6774131  38.5047187  79.2268086  36.2278045
  42.5346294  85.5063045  31.9158214  41.9055156  85.6708759  31.2134282
  42.1471956  85.9204655  32.6869178  46.4135526  86.4417483  29.2702578
  45.7286564  86.8216384  28.7199611  46.4979375  87.0512810  30.0034526
  41.7147994  77.5438830  37.1920656  41.4708926  78.2980890  36.6554932
  41.9907925  77.9224177  38.0267903  43.6686457  84.0877442  35.8697922
  43.8803352  84.7309202  35.1932303  43.6216205  83.2539759  35.4019852
  41.2712686  76.6995263  32.7734494  40.4097165  76.9976516  33.0651231
  41.2975121  76.9165662  31.8415526  38.0874256  85.2437453  29.1808299
  38.5512601  85.5225156  28.3912922  37.8231054  84.3420898  28.9981390
  34.9798337  84.7908935  32.1188063  35.5499694  85.2196203  31.4805547
  35.5706449  84.5091520  32.8172248  37.0243142  81.3660606  25.9897865
  37.7267185  81.8181649  26.4571791  36.6923770  80.7244425  26.6177758
  35.4723503  79.9572362  40.3649074  34.8422164  80.6388643  40.5984471
  35.3659591  79.8455444  39.4202212  30.7668476  79.6244158  31.2914998
  29.9767530  79.8801687  30.8155109  31.2579723  80.4392496  31.3967039
  44.7832285  86.9649398  34.0420279  45.6049729  86.5629585  33.7602961
  44.7794688  86.8617632  34.9936395  32.7183221  79.9888738  28.2498475
  31.9214384  80.1007432  28.7681970  32.4908813  80.3275390  27.3839365
  38.5488889  86.5133441  36.1980989  38.6133321  86.9753848  37.0339161
  37.8399812  85.8830806  36.3263299  29.0506179  79.8774649  33.7229989
  29.3014217  80.7621659  33.9887565  29.5865727  79.6979250  32.9505081
  52.8738278  83.3088146  30.3905250  52.1201987  82.7395544  30.2349255
  53.0085819  83.2750810  31.3375885  31.7166304  85.6976986  26.6387895
  32.2290824  86.4920237  26.7893460  32.3689016  85.0003277  26.5721496
  32.8113545  80.8607374  38.5972811  32.6967060  79.9592632  38.8979910
  31.9558063  81.1071071  38.2457628  39.8905383  88.8025115  40.1960312
  39.4469237  88.0161493  39.8781216  40.5522596  88.9904265  39.5304203
  41.9886621  89.0827915  38.2241713  41.9705096  89.9036796  37.7321982
  42.9106541  88.9581990  38.4491854  38.4459675  86.5972044  39.0665221
  38.9788012  85.8360332  38.8364529  37.9173756  86.3045696  39.8089376
  41.6129370  71.7032110  34.5958863  41.2693639  72.5933752  34.5197974
  41.9808332  71.5133768  33.7328448  29.6815220  84.0265641  27.4147465
  30.5190442  84.4362649  27.1981173  29.8593488  83.0865083  27.3847659
  41.5779653  81.6940721  23.1031298  41.0626276  82.4645326  23.3419686
  41.3056961  81.0205857  23.7264360  39.1626764  76.5390422  28.1616537
  38.3068360  76.1497272  27.9822175  39.5753715  76.6182383  27.3016322
  40.6925910  74.0736765  32.5608096  40.1890706  74.0366900  31.7475902
  40.9856517  74.9829508  32.6204753  36.9368796  74.1575495  31.5674278
  37.8021793  73.9618304  31.2080168  37.0046305  73.9285847  32.4943635
  46.5513927  84.4473076  25.0384472  45.7743369  84.1084235  24.5939634
  47.2305408  84.4525699  24.3639437  41.3665956  79.5667813  24.9291080
  41.0616091  79.8813963  25.7801223  42.3196398  79.6449233  24.9718413
  39.8112388  85.7258037  26.5784034  39.2833749  84.9910796  26.2657271
  39.3099890  86.5032713  26.3324002  44.7905234  83.9207057  31.6951080
  44.1328908  84.6106319  31.7831208  45.5945633  84.3103489  32.0385066
  34.5431115  76.3877703  28.9390645  35.1174867  76.1652884  28.2063838
  35.1302098  76.4566397  29.6919246  43.6010692  82.2751430  29.7455022
  44.1142574  82.9081422  30.2476731  44.2511916  81.6752625  29.3798382
  34.8700702  78.4182164  22.9586530  34.0338015  78.7556851  23.2795805
  34.7305472  78.2831144  22.0213667  36.8453783  73.2618952  27.6665714
  36.1918195  72.9467969  27.0422329  36.8034257  72.6394692  28.3925537
  37.9564988  83.5438247  19.5819007  37.0492049  83.3127500  19.7810156
  38.4536020  82.7475866  19.7692988  40.0791523  79.7500885  31.9913362
  39.1614085  79.9715832  31.8335050  40.4951667  79.8247196  31.1325069
  40.8626571  81.1492301  27.1216042  41.6098390  81.6613698  26.8123164
  41.1318161  80.8276354  27.9820436  39.1353221  83.6450842  24.1042997
  38.2264440  83.3609875  24.2015466  39.1648305  84.0649920  23.2446303
  44.3672489  87.2557431  27.8734164  43.9134816  86.4148341  27.9299355
  43.7366455  87.8918830  28.2108944  43.3105408  78.1849417  29.1034832
  42.5728165  77.6726804  29.4345074  43.5632182  77.7449799  28.2918109
  42.8105428  89.0933928  28.8083982  43.1028402  89.6538985  28.0896348
  43.3204048  89.3862489  29.5637141  43.4117035  70.9625669  29.6976601
  43.7175912  70.1023033  29.4102516  44.1369640  71.5543290  29.4975595
  29.7041392  81.3656356  28.0858199  29.5065791  80.7725717  27.3609265
  29.1488056  81.0608566  28.8034138  37.6838115  81.2579462  30.2052792
  37.7386725  80.3053299  30.1295269  36.8729317  81.4138902  30.6894090
  38.8329309  85.1859585  21.4431075  38.3948739  84.4695444  20.9836713
  39.5739750  85.4135700  20.8816167  35.6230475  79.8756522  27.9643171
  34.8098341  80.1750693  28.3708363  36.1189469  79.4812211  28.6817653
  41.2204687  80.3398347  36.7958065  41.5754075  80.5669820  37.6552530
  41.8676818  80.6716723  36.1735320  46.9502424  83.4616783  27.5007394
  46.8120322  83.6518379  26.5728583  46.5938643  84.2236165  27.9575445
  35.1144550  77.4474878  33.5804406  35.7543929  77.3063637  32.8827369
  34.2822080  77.1609391  33.2043008  46.9771803  85.5293310  32.5118665
  47.4108310  85.4368599  33.3601719  47.6903384  85.5050810  31.8738681
  35.8904854  86.7477308  29.6939398  36.6845452  86.2527628  29.4921973
  35.1796546  86.2195171  29.3307104  32.1987617  80.8920390  25.7699151
  31.2685205  80.8304845  25.9869113  32.2945089  80.3696343  24.9735792
  32.1173166  77.4175203  28.3577393  32.3779984  78.3320536  28.2486553
  32.9390339  76.9499645  28.5074005  33.5898092  78.8312960  35.5276217
  34.2621145  78.6230322  34.8788866  32.7627878  78.6335046  35.0881449
  47.8387353  85.5717010  35.0451551  48.0323243  86.4762821  35.2910826
  47.7387971  85.1124429  35.8790136  39.4923664  75.4574901  37.5441878
  38.8451579  76.1564850  37.4506354  40.2624679  75.8911045  37.9118126
  42.9002462  85.7223753  40.6192431  42.7487968  85.4934305  39.7022515
  42.8907141  86.6794354  40.6323776  39.6687798  83.2955666  35.6038698
  40.5979858  83.4466825  35.4307665  39.2478828  83.3839686  34.7487344
  38.4676130  87.3206330  33.3737235  38.3287216  86.9525114  34.2463173
  37.6790726  87.8353970  33.2021193  40.0181345  86.6987933  30.7626073
  39.6831178  86.6588703  31.6583723  39.5185291  86.0332649  30.2896483
  33.9925589  82.1055563  36.2878654  33.8545387  81.3735802  36.8890193
  34.9030512  82.0164463  36.0062842  42.9540537  84.0443967  21.0363133
  42.3369707  83.3190795  20.9396185  42.4857025  84.8053327  20.6930207
  36.6207890  81.8175522  35.7762334  37.3307508  81.1768714  35.7348952
  36.5777198  82.0688417  36.6988515  44.6094668  88.7542875  38.6968913
  44.5507214  88.0702096  38.0299496  45.0114187  89.4961865  38.2449539
  35.3336824  78.8040740  37.5957973  34.7974181  78.3531478  38.2479570
  34.7453532  78.9386649  36.8528438  34.7439083  78.2629391  20.1584437
  33.8668549  78.1418192  19.7946684  35.2196836  77.4715470  19.9063326
  44.6112076  86.7182459  36.9282893  43.7238854  86.3808381  37.0509292
  45.1810627  85.9865491  37.1651658  26.2641223  83.0506551  30.2525944
  26.9512262  82.7368281  29.6646960  26.1089351  83.9547916  29.9793196
  31.0675945  77.9396748  34.6810968  30.9834134  77.3322417  33.9461378
  30.2458651  78.4305766  34.6820464  41.2399659  76.4250311  30.0481163
  41.7368358  75.6720274  29.7282233  40.4686640  76.4614628  29.4824372
  49.0929416  82.1290677  31.6899454  49.0819292  83.0115392  31.3193388
  48.2246796  81.7762228  31.4953992  42.3229439  85.1821998  27.6219586
  41.3885718  85.3023461  27.4524291  42.5006108  84.2794465  27.3579596
  37.8234627  78.5667694  29.7752848  37.4532415  78.0138735  30.4633753
  38.3193720  77.9625828  29.2227848  45.7101991  81.0239318  28.1569621
  46.1762443  81.8567309  28.0829923  46.1609491  80.5584299  28.8614879
  43.7778222  87.3683139  25.1555773  44.0538066  87.2539734  26.0649647
  42.9082721  86.9700624  25.1167946  43.6818653  73.3919905  32.1960522
  42.7681733  73.6224132  32.3642729  44.1111755  73.4758349  33.0474554
  43.4525112  81.5809797  34.6960416  42.7996562  81.8285704  34.0412869
  43.8305492  80.7673935  34.3622893  39.5012685  82.3229608  41.1826453
  38.8253322  82.2223737  41.8528828  40.3240319  82.1668822  41.6462450
  25.8409199  81.1307145  32.5243411  25.8793298  80.5970735  33.3180529
  25.3349492  80.6042350  31.9054389  33.2199961  75.9771685  36.0205954
  33.2841288  76.8386516  35.6083351  33.1567081  75.3645687  35.2878312
  32.6952234  78.0494818  39.6678988  33.3224272  77.6671895  40.2816512
  31.8380152  77.8309020  40.0334680  43.0946342  88.4557793  41.2732723
  43.6386246  89.0687751  40.7787678  42.5133187  89.0137371  41.7899736
  29.4717776  79.8571247  25.5997343  29.7671217  78.9481925  25.5464396
  28.5705812  79.8358986  25.2778345  33.0012023  77.9327243  31.5824891
  32.2798609  78.5463211  31.4432365  33.7905279  78.4685008  31.5041537
  43.4438764  89.3787531  34.0327301  42.4969099  89.2592882  33.9605628
  43.7921537  88.4910029  34.1153563  35.8038337  75.2681670  37.8565543
  36.3272739  75.5143966  38.6191852  35.5850670  76.1001705  37.4368680
  31.2005618  77.5385344  25.7236668  30.8718324  76.6582723  25.5411774
  31.5544989  77.4833013  26.6113057  40.4485197  89.1740247  30.2331653
  40.3010159  88.2456954  30.4139223  41.2738690  89.1960338  29.7488729
  34.3147441  77.8258314  26.0912146  34.6543514  78.3544235  25.3690754
  34.7619562  78.1638720  26.8670712  44.0519319  89.9968806  31.3196526
  44.9765866  89.7911667  31.1820977  43.8834622  89.7485207  32.2285868
  37.0090882  76.2095365  35.5415214  36.6687702  75.4103178  35.9435894
  36.3029888  76.5097076  34.9692047  37.6607354  73.2944677  33.9942537
  38.4833423  72.8205155  33.8721427  37.9045417  74.0735161  34.4941223
  36.3015588  76.3232936  24.2905438  37.0223951  76.7014189  23.7869155
  35.6780892  77.0421813  24.3940416  40.4446711  77.0278085  25.2263771
  40.6610326  77.9102723  24.9252599  39.9640778  76.6364298  24.4969413
  35.1845933  79.9863798  31.8034515  35.0390513  80.3004101  32.6958797
  34.7071136  80.6048698  31.2505414  37.0442315  76.9766346  31.8515405
  37.0303884  76.0807439  31.5147703  37.7614744  76.9837010  32.4853691
  38.8968446  77.4103686  33.8968532  38.6386224  78.3320757  33.8952863
  38.3653486  77.0134121  34.5868996  29.6591595  82.5269142  34.7422176
  29.1145063  83.3028950  34.8742451  30.5370945  82.8739947  34.5841298
  36.4479211  75.8580726  27.1202975  36.5695123  74.9297372  27.3193862
  36.1581254  75.8719412  26.2081290  39.3170402  73.5435637  30.2569695
  39.3392099  73.6074970  29.3021674  39.7338461  72.7040145  30.4510201
  49.6954026  83.2790896  28.2948917  50.1385172  82.5298221  27.8968041
  48.8180536  83.2701033  27.9122649  44.8289807  89.8321238  23.7755516
  45.5240712  90.4527930  23.9942831  45.1712958  88.9816589  24.0507894
  30.4457617  81.6539039  37.6352333  29.7039353  81.8021674  38.2216964
  30.1250361  81.9147304  36.7719083  46.7281230  87.2820943  25.3042847
  47.2532555  87.6208216  24.5792167  46.6403583  86.3467958  25.1205981
  46.4175137  87.9153847  40.6094045  45.6270680  87.8977986  40.0698544
  46.1808491  88.4542140  41.3643081  46.5373012  84.7646313  37.9226773
  46.5871017  84.5996321  38.8642296  46.4286935  83.8973572  37.5324654
  43.8276774  80.7477241  39.2386080  44.7286637  80.6083706  38.9470078
  43.9024748  80.9131696  40.1784257  38.1619579  78.1244096  38.0839266
  37.2922889  78.4177662  37.8121855  38.3979060  78.7084541  38.8046530
  48.0391208  87.1843255  38.1668795  47.7476017  87.5473235  39.0032256
  47.4263340  86.4710263  37.9882127  49.2386891  84.7496134  30.6871365
  50.0733782  85.1885939  30.8508925  49.3746020  84.2734788  29.8679611
  46.2878397  82.3075869  36.6348853  46.7632518  82.5003516  35.8267704
  45.3643962  82.3635055  36.3892236  33.1761903  83.4700037  26.2179931
  32.9307945  82.5662367  26.4160141  33.3457818  83.4717187  25.2759409
  40.8658613  74.3423713  35.6004687  41.3840557  75.0784740  35.2751175
  40.5113746  74.6487706  36.4351446  32.4457551  79.2028394  23.7166092
  31.7526796  79.2772749  23.0606128  32.2009303  78.4388738  24.2387609
  41.1171207  70.7623995  31.1205583  41.3972961  70.0947184  31.7466010
  41.9021814  70.9553091  30.6080247  44.9880066  79.1841629  34.8677158
  45.9397489  79.2839727  34.8889382  44.8183516  78.3919898  35.3775243
  43.0094445  76.2697213  35.0536559  42.4144377  76.5502225  34.3583048
  42.7244142  76.7591114  35.8253300  44.7689952  89.5386010  20.7743139
  44.6903584  89.2045873  21.6678897  45.5899619  90.0307778  20.7734612
  47.4668143  82.4047749  33.9819458  47.4344464  81.4663750  34.1679142
  48.0768767  82.4831786  33.2485283  39.3051474  81.2743802  20.0246662
  40.2510579  81.1450010  20.0935080  38.9265719  80.5358464  20.5016090
  47.6162632  79.1958793  34.0277741  47.1001681  78.4117249  33.8407670
  48.5002580  78.8677509  34.1924261  45.2773359  72.9399808  29.9873554
  45.0798180  72.6314896  30.8716886  45.8873064  73.6661447  30.1171484
  53.2844693  83.4663756  33.1225495  54.0148082  83.2049044  33.6833198
  52.6751639  82.7292478  33.1627563  51.3659990  81.6071619  33.7199946
  50.6393154  81.4727583  33.1116438  50.9507277  81.9148447  34.5256664
  39.1890167  85.3261548  41.4847319  40.1093176  85.5040147  41.6787365
  39.1539750  84.3817594  41.3327018  37.4894391  79.1993778  19.9601547
  36.5825847  78.9026891  20.0364261  37.7670372  78.9023597  19.0935833
  28.4072332  80.5200142  30.4100594  28.0875116  79.6665450  30.1174968
  27.8605760  80.7348720  31.1658561  32.1852239  83.2362583  34.1270100
  32.4038249  84.1679691  34.1458134  32.5978013  82.8770557  34.9124904
  39.1056457  73.7430668  26.1145789  38.2957186  73.3977753  26.4901035
  39.7940874  73.4338212  26.7033400  41.0347005  72.8208715  27.7370085
  41.5878044  73.2404168  28.3960108  41.2717092  71.8944463  27.7793041
  37.0580105  78.8095789  43.5172849  36.9576832  79.7590146  43.4484940
  36.8401647  78.4814028  42.6448919  36.2593176  76.0580714  20.1013526
  37.1212340  76.3835612  20.3609344  36.4443520  75.2712210  19.5886592
  28.2760592  84.1403053  32.3793715  27.5824063  83.7257006  31.8663670
  29.0233583  84.1823590  31.7827134  44.4125813  74.9309240  27.2448749
  43.8324482  75.5894044  26.8626802  44.1461745  74.1086585  26.8336167
  42.8629379  74.3314298  29.4470070  43.3629157  74.4430832  28.6384389
  43.5064987  74.0275351  30.0870878  36.9211375  82.2392927  42.3337911
  36.4378456  83.0393288  42.5401800  37.0072314  82.2500872  41.3805355
  30.1897334  84.0721307  30.2559730  30.1668022  84.1708994  29.3041613
  30.4997971  84.9186458  30.5776896  32.8484712  86.1297462  34.3706345
  33.8027966  86.0981405  34.3036276  32.6497236  85.6688086  35.1856570
  33.4384094  84.6998578  36.9377142  34.2576983  85.1942657  36.9611979
  33.7120902  83.7830546  36.9094710  43.1950691  77.0909331  26.3005098
  42.3076546  77.3758981  26.0825292  43.6104680  76.9303094  25.4532375
  46.5465227  77.1155852  30.0159437  47.3225617  77.6052304  30.2884054
  45.8213361  77.5413906  30.4731306  48.9837785  77.8283471  31.0733378
  49.5782276  77.5879207  30.3626686  49.0564369  77.1090601  31.7006914
  42.3393904  86.8554005  20.3953118  43.0429754  87.0604008  21.0110773
  41.6156553  87.4230767  20.6602201  43.1691714  82.6063866  26.5155388
  43.1126916  83.0632418  25.6763020  43.7220057  81.8454551  26.3378231
  46.9796520  78.3953598  27.3405507  46.7233454  77.9950234  28.1713715
  46.3549388  79.1097392  27.2155646  51.2908858  81.1349672  29.8476799
  50.7308416  81.2042861  30.6208361  50.6852361  80.9590656  29.1276295
  44.2480601  87.2936534  22.4451578  45.0826205  86.8617733  22.2629053
  44.0864944  87.1218548  23.3728472  43.9026494  83.7968648  23.8107917
  43.8475297  83.6312919  22.8696361  43.2772549  84.5044681  23.9670107
  28.6919009  79.0336712  37.6369339  29.3377872  78.5235666  38.1256564
  28.4836160  79.7705394  38.2112764  41.2172401  86.1017560  43.1361480
  42.0863560  86.2758212  42.7748115  40.7379152  86.9211976  43.0137209
  37.2122619  73.2976757  23.3893235  37.2001289  74.2418597  23.5461506
  38.1046041  73.1146902  23.0952697  33.0316500  76.1804329  41.7344353
  33.8947961  75.8241134  41.9447678  32.4581910  75.8418224  42.4219758
  57.8314572  95.4732873  30.5192941  58.5639744  94.9032089  30.7530771
  57.0753928  95.0854473  30.9599447  55.3539993  89.1854447  34.9787550
  55.0223317  90.0549858  34.7548765  54.7585606  88.8690731  35.6581580
  55.2468656  93.9049533  32.0580900  54.3385533  93.8364941  31.7639661
  55.1956252  94.3821478  32.8862725  57.1130302  92.1065971  33.8358774
  56.4704682  92.3998504  33.1898568  56.6085231  91.9918892  34.6411970
  52.5541749  92.8730747  37.1920656  52.3102681  93.6272808  36.6554932
  52.8301679  93.2516095  38.0267903  52.1106441  92.0287180  32.7734494
  51.2490920  92.3268434  33.0651231  52.1368875  92.2457579  31.8415526
  45.5898000  89.5885046  42.7274325  45.1964946  89.0351244  43.4021969
  46.4064141  89.8995624  43.1180843  48.5065961  91.0042925  40.3194582
  49.2475675  91.6050078  40.2399044  48.7383884  90.2620563  39.7612624
  52.4523124  87.0324028  34.5958863  52.1087394  87.9225670  34.5197974
  52.8202087  86.8425685  33.7328448  50.0020518  91.8682340  28.1616537
  49.1462114  91.4789190  27.9822175  50.4147470  91.9474301  27.3016322
  51.5319665  89.4028683  32.5608096  51.0284460  89.3658818  31.7475902
  51.8250272  90.3121426  32.6204753  47.7762551  89.4867413  31.5674278
  48.6415547  89.2910221  31.2080168  47.8440060  89.2577764  32.4943635
  47.6847537  88.5910870  27.6665714  47.0311950  88.2759887  27.0422329
  47.6428012  87.9686610  28.3925537  54.1499163  93.5141335  29.1034832
  53.4121919  93.0018721  29.4345074  54.4025936  93.0741717  28.2918109
  54.2510790  86.2917587  29.6976601  54.5569667  85.4314950  29.4102516
  54.9763395  86.8835207  29.4975595  50.3317418  90.7866818  37.5441878
  49.6845333  91.4856768  37.4506354  51.1018434  91.2202962  37.9118126
  52.0793413  91.7542229  30.0481163  52.5762113  91.0012191  29.7282233
  51.3080395  91.7906546  29.4824372  54.5212408  88.7211822  32.1960522
  53.6075488  88.9516049  32.3642729  54.9505509  88.8050266  33.0474554
  46.6432091  90.5973587  37.8565543  47.1666493  90.8435884  38.6191852
  46.4244425  91.4293622  37.4368680  47.8484636  91.5387283  35.5415214
  47.5081457  90.7395096  35.9435894  47.1423643  91.8388993  34.9692047
  48.5001108  88.6236595  33.9942537  49.3227178  88.1497073  33.8721427
  48.7439172  89.4027079  34.4941223  51.2840466  92.3570002  25.2263771
  51.5004080  93.2394640  24.9252599  50.8034533  91.9656216  24.4969413
  47.2872966  91.1872644  27.1202975  47.4088877  90.2589290  27.3193862
  46.9975008  91.2011330  26.2081290  50.1564156  88.8727554  30.2569695
  50.1785853  88.9366887  29.3021674  50.5732215  88.0332063  30.4510201
  51.7052368  89.6715631  35.6004687  52.2234312  90.4076657  35.2751175
  51.3507500  89.9779624  36.4351446  51.9564962  86.0915913  31.1205583
  52.2366716  85.4239102  31.7466010  52.7415569  86.2845009  30.6080247
  55.8273820  94.5133547  34.8677158  56.7791243  94.6131645  34.8889382
  55.6577271  93.7211816  35.3775243  53.8488200  91.5989130  35.0536559
  53.2538132  91.8794143  34.3583048  53.5637896  92.0883031  35.8253300
  58.4556386  94.5250710  34.0277741  57.9395435  93.7409167  33.8407670
  59.3396335  94.1969427  34.1924261  56.1167113  88.2691726  29.9873554
  55.9191934  87.9606814  30.8716886  56.7266819  88.9953365  30.1171484
  49.9450212  89.0722586  26.1145789  49.1350940  88.7269671  26.4901035
  50.6334629  88.7630130  26.7033400  51.8740760  88.1500633  27.7370085
  52.4271799  88.5696086  28.3960108  52.1110846  87.2236381  27.7793041
  47.0986931  91.3872631  20.1013526  47.9606095  91.7127530  20.3609344
  47.2837275  90.6004127  19.5886592  55.2519567  90.2601158  27.2448749
  54.6718236  90.9185962  26.8626802  54.9855500  89.4378502  26.8336167
  53.7023133  89.6606216  29.4470070  54.2022912  89.7722750  28.6384389
  54.3458741  89.3567268  30.0870878  54.0344445  92.4201248  26.3005098
  53.1470300  92.7050899  26.0825292  54.4498434  92.2595012  25.4532375
  57.3858981  92.4447769  30.0159437  58.1619371  92.9344222  30.2884054
  56.6607115  92.8705823  30.4731306  59.8231540  93.1575388  31.0733378
  60.4176031  92.9171124  30.3626686  59.8958124  92.4382519  31.7006914
  57.8190275  93.7245516  27.3405507  57.5627209  93.3242152  28.1713715
  57.1943143  94.4389310  27.2155646  48.0516374  88.6268674  23.3893235
  48.0395043  89.5710514  23.5461506  48.9439795  88.4438820  23.0952697
  51.8668493  85.2211451  27.6439172  51.1000889  84.6669938  27.7895855
  52.2779198  85.2933320  28.5053324   6.8099349  14.6062917  25.1599791
   6.7987990  14.2115716  24.2880295   6.9719989  13.8728990  25.7533563
   3.5306610  17.3900029  24.1078975   3.2396476  18.2945660  23.9925642
   4.1663595  17.4316557  24.8223045   8.4896495  17.0761445  21.1028769
   8.1897218  17.9786483  20.9944576   8.1447555  16.8093628  21.9549922
   5.9634505  11.0133630  26.7261104   5.1867839  11.5727550  26.7163968
   6.6025068  11.4990413  27.2475974   4.2180877  13.8219084  26.2879071
   4.9595562  14.3604128  26.0113894   3.5117863  14.4485372  26.4450622
   9.6936217  15.9648224  24.8851232  10.1019573  15.5230635  24.1405864
   8.9713478  15.3900852  25.1385425  11.1505195  15.1063812  22.5943228
  11.3622090  15.7495572  21.9177609  11.1034943  14.2726128  22.1265158
  12.2651023  17.9835767  20.7665586  13.0868467  17.5815954  20.4848267
  12.2613426  17.8804001  21.7181701   6.0307626  17.5319810  22.9226296
   6.0952059  17.9940218  23.7584468   5.3218550  16.9017175  23.0508606
   7.3724120  19.8211484  26.9205618   6.9287975  19.0347863  26.6026523
   8.0341334  20.0090635  26.2549509   9.4705359  20.1014284  24.9487020
   9.4523834  20.9223165  24.4567289  10.3925279  19.9768360  25.1737161
   5.9278413  17.6158414  25.7910528   6.4606749  16.8546702  25.5609836
   5.3992494  17.3232066  26.5334683  14.4590541  16.5479679  19.2363972
  14.8927048  16.4554968  20.0847026  15.1722122  16.5237180  18.5983988
   8.1918436  20.1481773  20.7697073   8.2455458  20.7172710  21.5374788
   7.3233217  20.3183658  20.4051110  15.3206091  16.5903380  21.7696857
  15.5141981  17.4949190  22.0156132  15.2206709  16.1310799  22.6035442
  10.3821199  16.7410123  27.3437738  10.2306706  16.5120674  26.4267822
  10.3725879  17.6980724  27.3569083  12.0913406  19.7729245  25.4214220
  12.0325952  19.0888465  24.7544803  12.4932924  20.5148235  24.9694846
  12.0930813  17.7368829  23.6528199  11.2057592  17.3994751  23.7754598
  12.6629364  17.0051860  23.8896965   5.6231967  22.3970281  20.6189443
   5.5502138  23.2025253  21.1308747   5.1809360  22.5962247  19.7937464
   8.0830650  22.2957115  22.7747601   8.7958622  22.9304580  22.7023503
   7.5920679  22.3920981  21.9587603   3.1342564  20.0451559  23.5953172
   3.8352023  20.6788042  23.7482566   2.6637679  20.3866290  22.8348811
   6.9831423  13.3415977  27.9071760   6.3072060  13.2410107  28.5774135
   7.8059057  13.1855191  28.3707757   5.7254206  24.6482905  22.1429376
   6.2772514  24.8114526  22.9078461   6.0660399  25.2387343  21.4709400
  10.5765080  19.4744162  27.9978030  11.1204984  20.0874121  27.5032985
   9.9951925  20.0323741  28.5145043   8.8622593  22.5964880  19.1293058
   8.7373732  21.7954620  18.6204003   9.5201684  23.0911074  18.6407028
  10.9257501  20.3973900  20.7572608   9.9787837  20.2779252  20.6850935
  11.2740274  19.5096398  20.8398869  11.5338056  21.0155175  18.0441833
  12.4584604  20.8098037  17.9066284  11.3653360  20.7671577  18.9531174
   5.8720017  22.2141386  24.1578030   6.1807143  21.9690533  25.0300730
   6.6695499  22.4188025  23.6696900  13.8993874  18.9340216  27.3339351
  13.1089418  18.9164355  26.7943851  13.6627229  19.4728510  28.0888388
  14.0191749  15.7832683  24.6472080  14.0689754  15.6182690  25.5887603
  13.9105673  14.9159942  24.2569961  11.3095512  11.7663611  25.9631387
  12.2105375  11.6270076  25.6715384  11.3843486  11.9318066  26.9029564
  15.5209946  18.2029624  24.8914101  15.2294755  18.5659605  25.7277562
  14.9082077  17.4896633  24.7127433  13.7697134  13.3262239  23.3594159
  14.2451256  13.5189885  22.5513011  12.8462700  13.3821425  23.1137543
  20.7663431  14.4850126  19.8470801  21.4966820  14.2235414  20.4078505
  20.1570377  13.7478847  19.8872869  18.8478728  12.6257988  20.4445253
  18.1211892  12.4913953  19.8361744  18.4326015  12.9334817  21.2501971
   6.6708905  16.3447918  28.2092626   7.5911914  16.5226517  28.4032672
   6.6358488  15.4003963  28.0572325   4.4030113  13.2579297  29.0583217
   3.9197194  14.0579657  29.2647106   4.4891052  13.2687242  28.1050661
   8.6991139  17.1203929  29.8606786   9.5682298  17.2944581  29.4993421
   8.2197890  17.9398346  29.7382516   2.8677319  24.2401030  21.5396220
   3.7704566  24.2724640  21.8562715   2.6414689  23.3101481  21.5542556
  20.3583614  28.8292555  19.2652061  20.9962024  28.7099302  18.5615401
  20.2404457  29.7773399  19.3240013  17.1673321  28.7819983  19.2013586
  16.8291832  28.6661048  18.3134121  18.0363089  28.3811148  19.1814592
  13.0260136  30.6355460  15.1910477  12.4625001  30.5445397  14.4226764
  12.9112531  29.8155364  15.6712969  17.6493104  29.9354835  25.1599791
  17.6381744  29.5407633  24.2880295  17.8113743  29.2020908  25.7533563
  10.5724568  32.1306651  18.0294697  11.3645860  31.7897476  17.6140997
  10.8121218  32.2401626  18.9496851  18.6059695  34.3026427  10.5024942
  17.9547675  34.8880508  10.1158955  19.4004058  34.8332622  10.5619979
  14.3700365  32.7191947  24.1078975  14.0790231  33.6237578  23.9925642
  15.0057349  32.7608474  24.8223045  15.2956572  30.0968795  20.6980335
  15.8920144  29.8724818  19.9837298  15.3531543  29.3553541  21.3005783
  19.9124883  26.5544009  16.3405269  20.6987972  26.1363432  15.9895686
  20.1763587  27.4590101  16.5086918  20.0834960  31.9916859  11.0393926
  19.4480793  32.0651486  11.7514831  19.7532367  32.5810458  10.3613005
  25.3133310  26.4919242  17.2438248  26.0458482  25.9218459  17.4776077
  24.5572666  26.1040843  17.6844753  16.9309430  28.9146484  14.4401590
  16.5667637  28.3877105  15.1514512  17.7876546  28.5244953  14.2668076
  22.8358730  20.2040816  21.7032856  22.5042055  21.0736227  21.4794071
  22.2404344  19.8877100  22.3826887  19.3290250  32.4053362  21.1028769
  19.0290973  33.3078401  20.9944576  18.9841309  32.1385545  21.9549922
  12.7802731  28.8567159  17.1365473  11.8553228  28.7243373  17.3443165
  13.0287145  29.6361378  17.6335416  22.7287394  24.9235902  18.7826206
  21.8204271  24.8551311  18.4884967  22.6774989  25.4007847  19.6108032
  10.1411542  28.5000433  17.9709262  10.2703924  28.7534912  18.8848674
   9.4608994  29.0928141  17.6513918  14.3111030  39.1697683  14.0699737
  14.2335059  40.1205508  14.1488217  13.7072673  38.8243555  14.7274663
  16.8028259  26.3425548  26.7261104  16.0261593  26.9019468  26.7163968
  17.4418822  26.8282331  27.2475974  24.5949040  23.1252341  20.5604080
  23.9523420  23.4184874  19.9143875  24.0903969  23.0105261  21.3657277
  22.2489204  26.8715514  11.2489939  23.1607060  27.1042901  11.0737637
  21.7398851  27.4552558  10.6865018  15.0574632  29.1511001  26.2879071
  15.7989316  29.6896045  26.0113894  14.3511617  29.7777290  26.4450622
  20.5329971  31.2940142  24.8851232  20.9413327  30.8522552  24.1405864
  19.8107233  30.7192769  25.1385425  16.8861041  26.2312749  22.2584789
  17.7322237  26.6552162  22.4019438  16.8259679  25.5746373  22.9523352
  20.8558786  31.8541332  18.6403521  20.2267648  32.0187047  17.9379589
  20.4684448  32.2682942  19.4114485  24.7348018  32.7895770  15.9947885
  24.0499056  33.1694672  15.4444918  24.8191867  33.3991097  16.7279832
  20.0360487  23.8917117  23.9165963  19.7921419  24.6459177  23.3800238
  20.3120417  24.2702465  24.7513210  21.9898950  30.4355729  22.5943228
  22.2015845  31.0787489  21.9177609  21.9428698  29.6018046  22.1265158
  19.5925178  23.0473550  19.4979800  18.7309657  23.3454804  19.7896538
  19.6187613  23.2643949  18.5660833  16.4086748  31.5915741  15.9053606
  16.8725093  31.8703444  15.1158229  16.1443546  30.6899185  15.7226697
  13.3010829  31.1387222  18.8433369  13.8712186  31.5674490  18.2050854
  13.8918941  30.8569807  19.5417555  15.3455634  27.7138893  12.7143171
  16.0479677  28.1659937  13.1817098  15.0136262  27.0722712  13.3423064
  13.7935995  26.3050650  27.0894381  13.1634656  26.9866930  27.3229777
  13.6872083  26.1933731  26.1447519   9.0880968  25.9722446  18.0160305
   8.2980022  26.2279974  17.5400415   9.5792215  26.7870783  18.1212345
  23.1044777  33.3127685  20.7665586  23.9262221  32.9107872  20.4848267
  23.1007180  33.2095919  21.7181701  16.8701381  32.8611728  22.9226296
  16.9345813  33.3232135  23.7584468  16.1612305  32.2309093  23.0508606
   7.3718671  26.2252936  20.4475296   7.6226709  27.1099946  20.7132872
   7.9078219  26.0457538  19.6750387  31.1950770  29.6566433  17.1150557
  30.4414479  29.0873831  16.9594561  31.3298312  29.6229098  18.0621192
  16.5849399  34.5279836  12.7905276  16.4495073  35.3731371  13.2190124
  17.1259211  34.7299113  12.0271210  13.0716738  20.6071415  29.4519632
  12.6783684  20.0537614  30.1267276  13.8882879  20.9181994  29.8426149
  10.0378796  32.0455274  13.3633202  10.5503317  32.8398524  13.5138766
  10.6901509  31.3481564  13.2966803  11.8473681  35.1621030  15.4455955
  12.0240309  36.0838995  15.2576939  12.6430514  34.8479449  15.8750334
  15.9884699  22.0229294  27.0439888  16.7294413  22.6236448  26.9644351
  16.2202622  21.2806932  26.4857931  11.1326037  27.2085662  25.3218118
  11.0179552  26.3070919  25.6225217  10.2770555  27.4549358  24.9702934
  18.2117875  35.1503402  26.9205618  17.7681729  34.3639781  26.6026523
  18.8735089  35.3382553  26.2549509  12.9704996  36.6799204  21.4466297
  13.5212421  36.5516267  20.6743291  12.1316472  36.9794093  21.0961190
  20.3099113  35.4306202  24.9487020  20.2917588  36.2515083  24.4567289
  21.2319033  35.3060277  25.1737161  16.7672167  32.9450331  25.7910528
  17.3000504  32.1838620  25.5609836  16.2386248  32.6523983  26.5334683
  19.9341862  18.0510397  21.3204170  19.5906132  18.9412039  21.2443280
  20.3020825  17.8612055  20.4573755   8.0027713  30.3743928  14.1392772
   8.8402935  30.7840936  13.9226480   8.1805980  29.4343370  14.1092966
  17.4839256  22.8868709  14.8861843  16.6280852  22.4975560  14.7067482
  17.8966208  22.9660670  14.0261629  19.0138403  20.4215053  19.2853403
  18.5103198  20.3845188  18.4721208  19.3069009  21.3307795  19.3450060
  15.2581288  20.5053782  18.2919585  16.1234285  20.3096591  17.9325474
  15.3258797  20.2764134  19.2188942  24.8726419  30.7951363  11.7629778
  24.0955862  30.4562523  11.3184941  25.5517900  30.8003986  11.0884744
  19.6878448  25.9146101  11.6536386  19.3828584  26.2292250  12.5046529
  20.6408890  25.9927521  11.6963719  18.1324880  32.0736324  13.3029340
  17.6046241  31.3389084  12.9902578  17.6312383  32.8511000  13.0569308
  23.1117726  30.2685344  18.4196386  22.4541400  30.9584606  18.5076515
  23.9158125  30.6581776  18.7630373  21.9223185  28.6229717  16.4700328
  22.4355066  29.2559709  16.9722038  22.5724409  28.0230913  16.1043688
  19.1845559  38.6014041   9.2260999  18.5107258  38.9045738   9.8345957
  19.5711381  39.4043122   8.8766456  18.4004016  26.0979173  18.7158669
  17.4826577  26.3194120  18.5580357  18.8164159  26.1725483  17.8570376
  19.1839063  27.4970588  13.8461349  19.9310882  28.0091986  13.5368471
  19.4530653  27.1754641  14.7065743  17.4565713  29.9929129  10.8288303
  16.5476933  29.7088162  10.9260773  17.4860797  30.4128208   9.9691610
  22.6884981  33.6035719  14.5979471  22.2347308  32.7626628  14.6544661
  22.0578948  34.2397117  14.9354251  21.6317900  24.5327705  15.8280138
  20.8940657  24.0205091  16.1590381  21.8844674  24.0928086  15.0163415
  21.1317920  35.4412215  15.5329289  21.4240895  36.0017272  14.8141655
  21.6416541  35.7340776  16.2882448  21.7329528  17.3103957  16.4221908
  22.0388405  16.4501320  16.1347823  22.4582133  17.9021577  16.2220901
  16.0050608  27.6057750  16.9298099  16.0599217  26.6531586  16.8540575
  15.1941810  27.7617189  17.4139397  13.9442967  26.2234809  14.6888477
  13.1310833  26.5228980  15.0953670  14.4401962  25.8290498  15.4062960
  16.0951545  36.2192566  16.6222742  16.0527724  36.4453413  15.6931274
  17.0114244  35.9855941  16.7708543  19.5417179  26.6876634  23.5203371
  19.8966567  26.9148107  24.3797837  20.1889310  27.0195011  22.8980627
  25.2714916  29.8095070  14.2252700  25.1332815  29.9996666  13.2973890
  24.9151135  30.5714453  14.6820752  13.4357042  23.7953165  20.3049712
  14.0756422  23.6541924  19.6072676  12.6034573  23.5087678  19.9288314
  25.2984296  31.8771597  19.2363972  25.7320802  31.7846886  20.0847026
  26.0115876  31.8529097  18.5983988  14.2117346  33.0955595  16.4184705
  15.0057945  32.6005915  16.2167280  13.5009038  32.5673458  16.0552410
  19.0312191  35.4773691  20.7697073  19.0849213  36.0464627  21.5374788
  18.1626972  35.6475576  20.4051110  11.9110584  25.1791247  22.2521524
  12.5833637  24.9708609  21.6034173  11.0840370  24.9813333  21.8126756
  26.1599845  31.9195297  21.7696857  26.3535735  32.8241108  22.0156132
  26.0600463  31.4602717  22.6035442  17.8136156  21.8053188  24.2687185
  17.1664071  22.5043138  24.1751661  18.5837171  22.2389332  24.6363433
  21.2214954  32.0702040  27.3437738  21.0700460  31.8412592  26.4267822
  21.2119633  33.0272642  27.3569083  17.9900290  29.6433953  22.3284004
  18.9192350  29.7945113  22.1552972  17.5691320  29.7317974  21.4732651
  16.7888622  33.6684617  20.0982542  16.6499708  33.3003402  20.9708480
  16.0003218  34.1832257  19.9266500  17.3836774  38.7693714  11.4408079
  17.5588530  38.2981757  12.2553701  16.6969562  39.3959480  11.6689339
  18.3393837  33.0466220  17.4871380  18.0043670  33.0066990  18.3829030
  17.8397783  32.3810936  17.0141790  12.3138081  28.4533850  23.0123961
  12.1757879  27.7214089  23.6135500  13.2243005  28.3642750  22.7308149
  14.9420382  28.1653809  22.5007641  15.6520000  27.5247002  22.4594259
  14.8989690  28.4166704  23.4233821  22.9307161  35.1021163  25.4214220
  22.8719707  34.4180383  24.7544803  23.3326679  35.8440153  24.9694846
  13.6549316  25.1519027  24.3203280  13.1186673  24.7009766  24.9724876
  13.0666024  25.2864936  23.5773744  11.9497859  41.9183077  18.2147939
  12.1894458  42.5501601  18.8926957  11.1067056  41.5671117  18.5013298
  22.9324568  33.0660747  23.6528199  22.0451347  32.7286668  23.7754598
  23.5023119  32.3343778  23.8896965   4.5853715  29.3984838  16.9771251
   5.2724755  29.0846568  16.3892266   4.4301844  30.3026203  16.7038502
   9.3888437  24.2875035  21.4056275   9.3046626  23.6800705  20.6706684
   8.5671143  24.7784053  21.4065771  16.4625721  37.7262199  20.6189443
  16.3895893  38.5317171  21.1308747  16.0203114  37.9254165  19.7937464
  16.2515501  36.9633969  14.1292264  15.4683023  37.5055649  14.2230489
  16.9508246  37.4807949  14.5286505  19.5612151  22.7728599  16.7726470
  20.0580850  22.0198561  16.4527540  18.7899132  22.8092915  16.2069679
  27.4141908  28.4768964  18.4144761  27.4031785  29.3593679  18.0438694
  26.5459288  28.1240515  18.2199298  18.9224405  37.6249033  22.7747601
  19.6352377  38.2596498  22.7023503  18.4314433  37.7212899  21.9587603
  20.6441932  31.5300286  14.3464893  19.7098210  31.6501748  14.1769597
  20.8218600  30.6272752  14.0824903  16.1447120  24.9145981  16.4998154
  15.7744907  24.3617022  17.1879060  16.6406212  24.3104115  15.9473154
  24.0314483  27.3717605  14.8814927  24.4974935  28.2045597  14.8075230
  24.4821983  26.9062587  15.5860186  13.9736318  35.3743477  23.5953172
  14.6745778  36.0079959  23.7482566  13.5031433  35.7158208  22.8348811
  22.0990714  33.7161426  11.8801079  22.3750558  33.6018021  12.7894953
  21.2295213  33.3178911  11.8413252  22.0031146  19.7398192  18.9205828
  21.0894226  19.9702419  19.0888035  22.4324247  19.8236636  19.7719861
  21.7737604  27.9288084  21.4205723  21.1209054  28.1763991  20.7658175
  22.1517984  27.1152222  21.0868200  18.7344778  37.9647777  15.5233893
  18.9167173  37.1469433  15.9861645  19.5577764  38.1815469  15.0858783
  19.0686944  36.8915962  12.7848941  19.5974710  36.3808417  12.1719103
  19.3315163  36.5758492  13.6494474  17.8225177  28.6707895  27.9071760
  17.1465814  28.5702024  28.5774135  18.6452811  28.5147109  28.3707757
   9.5704036  34.9079832  20.5284275  10.1557473  34.1623519  20.6612179
   9.3728875  35.2183788  21.4120939  12.4242692  37.9431079  15.5446717
  11.7553067  38.4277207  15.0610757  12.2855561  38.1900299  16.4590096
   4.1621691  27.4785432  19.2488718   4.2005791  26.9449022  20.0425836
   3.6561984  26.9520637  18.6299695  16.5647960  39.9774822  22.1429376
  17.1166268  40.1406444  22.9078461  16.9054154  40.5679260  21.4709400
  11.5412453  22.3249972  22.7451260  11.6053780  23.1864803  22.3328658
  11.4779574  21.7123974  22.0123619  11.0164726  24.3973105  26.3924295
  11.6436765  24.0150182  27.0061819  10.1592645  24.1787307  26.7579987
  21.4158834  34.8036080  27.9978030  21.9598738  35.4166038  27.5032985
  20.8345679  35.3615658  28.5145043  19.7016347  37.9256798  19.1293058
  19.5767487  37.1246538  18.6204003  20.3595439  38.4202991  18.6407028
  11.3224516  24.2805530  18.3070198  10.6011101  24.8941498  18.1677671
  12.1117771  24.8163295  18.2286844  21.7651256  35.7265818  20.7572608
  20.8181591  35.6071169  20.6850935  22.1134029  34.8388316  20.8398869
  14.1250829  21.6159957  24.5810850  14.6485231  21.8622254  25.3437159
  13.9063162  22.4479992  24.1613987  18.7697689  35.5218534  16.9576960
  18.6222652  34.5935242  17.1384530  19.5951183  35.5438625  16.4734035
  22.3731811  36.3447093  18.0441833  23.2978358  36.1389954  17.9066284
  22.2047114  36.0963494  18.9531174  15.3303374  22.5573652  22.2660520
  14.9900195  21.7581465  22.6681200  14.6242380  22.8575363  21.6937353
  15.9819846  19.6422965  20.7187843  16.8045915  19.1683443  20.5966734
  16.2257910  20.4213448  21.2186530  13.5058425  26.3342085  18.5279822
  13.3603006  26.6482388  19.4204103  13.0283628  26.9526985  17.9750721
  15.3654808  23.3244633  18.5760711  15.3516376  22.4285726  18.2393009
  16.0827236  23.3315297  19.2098997  17.2180938  23.7581973  20.6213839
  16.9598716  24.6799044  20.6198169  16.6865979  23.3612408  21.3114303
  22.1627127  36.8632760  13.4003924  22.3364005  36.2979183  12.6477777
  22.6556018  37.6633655  13.2183414   7.9804087  28.8747430  21.4667483
   7.4357555  29.6507238  21.5987757   8.8583437  29.2218234  21.3086605
  17.6382894  19.8913924  16.9815001  17.6604591  19.9553257  16.0266981
  18.0550953  19.0518433  17.1755508  28.0166518  29.6269183  15.0194224
  28.4597664  28.8776509  14.6213347  27.1393029  29.6179320  14.6367956
  23.1502300  36.1799525  10.5000823  23.8453204  36.8006218  10.7188137
  23.4925450  35.3294876  10.7753200   8.7670109  28.0017326  24.3597640
   8.0251845  28.1499961  24.9462270   8.4462853  28.2625591  23.4964389
  25.0493723  33.6299230  12.0288153  25.5745047  33.9686503  11.3037473
  24.9616075  32.6946246  11.8451288  16.7113771  37.5433304  24.1578030
  17.0200898  37.2982451  25.0300730  17.5089253  37.7479943  23.6696900
  16.7334384  39.6971214  16.3883406  16.2939374  39.2047592  17.0816263
  17.4842500  39.1544181  16.1475482   9.2126722  35.8882755  16.3908035
  10.0384742  35.5886526  16.0106678   8.8620774  35.1190377  16.8397823
  14.1808256  35.2409223  18.4605708  13.5588265  34.5779928  18.1607936
  14.8513123  35.2670355  17.7779356   7.4135328  33.8069081  17.3496968
   6.5767236  33.3791255  17.1680969   7.3858973  34.0001524  18.2867759
  14.2532783  23.7191011  28.0538214  14.3020939  24.5953134  27.6715984
  14.7955297  23.1768404  27.4809857  13.7421763  33.7913146  11.9364169
  13.8909883  34.4748611  11.2830841  14.5488206  33.7718236  12.4513624
  22.1489266  27.0955528  25.9631387  23.0499129  26.9561993  25.6715384
  22.2237241  27.2609983  26.9029564  16.4832072  24.4722383  24.8084573
  15.6135381  24.7655949  24.5367161  16.7191552  25.0562828  25.5291836
  27.5599383  31.0974422  17.4116672  28.3946274  31.5364226  17.5754232
  27.6958512  30.6213075  16.5924917  24.6090889  28.6554157  23.3594159
  25.0845011  28.8481803  22.5513011  23.6856454  28.7113342  23.1137543
  19.1871105  20.6902000  22.3249993  19.7053049  21.4263027  21.9996482
  18.8326238  20.9965993  23.1596752  19.4383700  17.1102283  17.8450890
  19.7185453  16.4425472  18.4711316  20.2234307  17.3031378  17.3325554
  17.2417168  36.2861277   9.4075916  16.6691135  36.9051464   8.9546388
  17.8149962  36.8360638   9.9415838  23.3092558  25.5319917  21.5922465
  24.2609981  25.6318014  21.6134689  23.1396008  24.7398185  22.1020549
  21.3306937  22.6175500  21.7781866  20.7356870  22.8980513  21.0828354
  21.0456634  23.1069401  22.5498607  20.4614428  36.5698427  10.5384498
  21.3945101  36.5043988  10.7417374  20.3737641  37.4054694  10.0799031
  23.0902445  35.8864297   7.4988446  23.0116076  35.5524161   8.3924204
  23.9112111  36.3786065   7.4979918  25.7880636  28.7526036  20.7064765
  25.7556956  27.8142037  20.8924448  26.3981259  28.8310073  19.9730589
  25.9375124  25.5437080  20.7523048  25.4214173  24.7595536  20.5652977
  26.8215073  25.2155796  20.9169567  23.5985851  19.2878095  16.7118860
  23.4010672  18.9793184  17.5962192  24.2085557  20.0139734  16.8416790
  31.6057186  29.8142043  19.8470801  32.3360574  29.5527331  20.4078505
  30.9964131  29.0770765  19.8872869  29.6872483  27.9549906  20.4445253
  28.9605646  27.8205871  19.8361744  29.2719770  28.2626734  21.2501971
  17.5102659  31.6739835  28.2092626  18.4305669  31.8518434  28.4032672
  17.4752242  30.7295881  28.0572325   6.7284824  26.8678429  17.1345900
   6.4087608  26.0143737  16.8420274   6.1818252  27.0827007  17.8903868
  10.5064732  29.5840870  20.8515407  10.7250741  30.5157978  20.8703441
  10.9190505  29.2248845  21.6370211  15.3792597  25.1574076  30.2418156
  15.2789324  26.1068433  30.1730247  15.1614139  24.8292315  29.3694226
   6.5973084  30.4881341  19.1039022   5.9036556  30.0735293  18.5908976
   7.3446075  30.5301877  18.5072441  22.7338305  21.2787527  13.9694056
  22.1536974  21.9372331  13.5872108  22.4674238  20.4564872  13.5581474
  21.1841871  20.6792585  16.1715376  21.6841650  20.7909120  15.3629695
  21.8277479  20.3753638  16.8116185  15.2423867  28.5871215  29.0583217
  14.7590949  29.3871575  29.2647106  15.3284806  28.5979160  28.1050661
   8.5109827  30.4199594  16.9805037   8.4880515  30.5187282  16.0286920
   8.8210463  31.2664745  17.3022203  11.1697205  32.4775749  21.0951651
  12.1240458  32.4459692  21.0281583  10.9709728  32.0166373  21.9101877
  11.7596587  31.0476865  23.6622449  12.5789476  31.5420944  23.6857286
  12.0333394  30.1308834  23.6340016  21.5163183  23.4387618  13.0250404
  20.6289038  23.7237268  12.8070599  21.9317172  23.2781381  12.1777681
  24.8677719  23.4634139  16.7404744  25.6438109  23.9530591  17.0129360
  24.1425853  23.8892193  17.1976613  27.3050278  24.1761758  17.7978684
  27.8994768  23.9357494  17.0871992  27.3776861  23.4568889  18.4252220
   9.5247433  38.0195369  18.1121849   9.3901901  37.2595770  17.5459847
   9.1079496  38.7436269  17.6450638  20.6606396  33.2032292   7.1198424
  21.3642246  33.4082295   7.7356080  19.9369045  33.7709054   7.3847508
  21.4904207  28.9542154  13.2400694  21.4339408  29.4110705  12.4008327
  22.0432549  28.1932838  13.0623537  25.3009013  24.7431886  14.0650814
  25.0445947  24.3428521  14.8959022  24.6761881  25.4575680  13.9400953
  29.6121350  27.4827959  16.5722105  29.0520908  27.5521148  17.3453667
  29.0064854  27.3068943  15.8521602  12.6816559  38.9164686  18.3240292
  12.5648943  39.8610118  18.2218982  11.8609005  38.6138247  18.7126091
  22.5693094  33.6414822   9.1696884  23.4038698  33.2096020   8.9874359
  22.4077437  33.4696835  10.0973779  22.2238986  30.1446935  10.5353224
  22.1687790  29.9791206   9.5941668  21.5985041  30.8522968  10.6915413
   7.0131501  25.3814999  24.3614646   7.6590365  24.8713953  24.8501871
   6.8048652  26.1183681  24.9358071  19.5384893  32.4495847  29.8606786
  20.4076053  32.6236499  29.4993421  19.0591645  33.2690264  29.7382516
  13.7071073  39.5692948  21.5396220  14.6098320  39.6016558  21.8562715
  13.4808443  38.6393399  21.5542556  15.4624675  38.3223934  18.2006299
  14.5120306  38.3225796  18.0870671  15.7657161  37.5756669  17.6842333
  11.3528992  22.5282616  28.4589660  12.2160453  22.1719421  28.6692985
  10.7794403  22.1896511  29.1465064  31.1977369  44.1584473  19.2652061
  31.8355779  44.0391220  18.5615401  31.0798212  45.1065317  19.3240013
  28.0067075  44.1111901  19.2013586  27.6685587  43.9952966  18.3134121
  28.8756843  43.7103066  19.1814592  23.8653891  45.9647377  15.1910477
  23.3018756  45.8737314  14.4226764  23.7506286  45.1447282  15.6712969
  28.4886858  45.2646753  25.1599791  28.4775499  44.8699551  24.2880295
  28.6507498  44.5312825  25.7533563  21.4118323  47.4598569  18.0294697
  22.2039615  47.1189394  17.6140997  21.6514973  47.5693544  18.9496851
  29.4453450  49.6318345  10.5024942  28.7941429  50.2172425  10.1158955
  30.2397812  50.1624540  10.5619979  23.3709077  46.7207482  10.9012076
  24.1439953  46.1736469  10.7624952  23.7234476  47.5851731  11.1126537
  25.2094119  48.0483864  24.1078975  24.9183985  48.9529495  23.9925642
  25.8451104  48.0900392  24.8223045  26.1350326  45.4260713  20.6980335
  26.7313898  45.2016735  19.9837298  26.1925298  44.6845458  21.3005783
  25.7075355  42.8800148   8.5330526  25.9600875  42.3581670   7.7713989
  24.7699914  42.7166294   8.6357210  30.7518637  41.8835927  16.3405269
  31.5381727  41.4655350  15.9895686  31.0157342  42.7882019  16.5086918
  30.9228715  47.3208777  11.0393926  30.2874548  47.3943403  11.7514831
  30.5926121  47.9102376  10.3613005  36.1527064  41.8211160  17.2438248
  36.8852236  41.2510377  17.4776077  35.3966420  41.4332760  17.6844753
  25.4271643  44.7828254  10.7354901  25.3107901  44.1073158  11.4035985
  25.5373903  44.2960628   9.9187054  27.7703184  44.2438401  14.4401590
  27.4061391  43.7169022  15.1514512  28.6270300  43.8536870  14.2668076
  33.6752485  35.5332734  21.7032856  33.3435810  36.4028145  21.4794071
  33.0798098  35.2169018  22.3826887  27.4108671  39.2728301   9.4362939
  27.5783073  40.1408537   9.8033410  27.2205840  39.4355583   8.5124228
  30.1684004  47.7345280  21.1028769  29.8684727  48.6370319  20.9944576
  29.8235064  47.4677463  21.9549922  23.6196486  44.1859077  17.1365473
  22.6946982  44.0535291  17.3443165  23.8680899  44.9653296  17.6335416
  33.5681148  40.2527820  18.7826206  32.6598025  40.1843229  18.4884967
  33.5168744  40.7299765  19.6108032  27.3897892  41.7285958  10.4209605
  27.2697517  42.1743009  11.2595086  26.6950480  42.0771276   9.8623144
  20.9805297  43.8292350  17.9709262  21.1097678  44.0826829  18.8848674
  20.3002748  44.4220058  17.6513918  25.1504784  54.4989600  14.0699737
  25.0728814  55.4497425  14.1488217  24.5466428  54.1535473  14.7274663
  35.4342795  38.4544258  20.5604080  34.7917175  38.7476792  19.9143875
  34.9297723  38.3397179  21.3657277  33.0882958  42.2007432  11.2489939
  34.0000814  42.4334818  11.0737637  32.5792605  42.7844476  10.6865018
  25.8968386  44.4802919  26.2879071  26.6383071  45.0187963  26.0113894
  25.1905372  45.1069208  26.4450622  31.3723726  46.6232060  24.8851232
  31.7807082  46.1814470  24.1405864  30.6500987  46.0484687  25.1385425
  31.6952540  47.1833250  18.6403521  31.0661403  47.3478964  17.9379589
  31.3078203  47.5974860  19.4114485  35.5741772  48.1187688  15.9947885
  34.8892811  48.4986589  15.4444918  35.6585622  48.7283015  16.7279832
  32.8292704  45.7647647  22.5943228  33.0409599  46.4079407  21.9177609
  32.7822452  44.9309964  22.1265158  30.4318933  38.3765468  19.4979800
  29.5703412  38.6746721  19.7896538  30.4581368  38.5935867  18.5660833
  27.2480502  46.9207658  15.9053606  27.7118848  47.1995361  15.1158229
  26.9837300  46.0191103  15.7226697  24.1404583  46.4679140  18.8433369
  24.7105940  46.8966408  18.2050854  24.7312695  46.1861724  19.5417555
  26.1849388  43.0430811  12.7143171  26.8873432  43.4951854  13.1817098
  25.8530017  42.4014629  13.3423064  24.6329750  41.6342567  27.0894381
  24.0028411  42.3158848  27.3229777  24.5265838  41.5225649  26.1447519
  19.9274722  41.3014363  18.0160305  19.1373776  41.5571892  17.5400415
  20.4185970  42.1162701  18.1212345  33.9438532  48.6419602  20.7665586
  34.7655976  48.2399790  20.4848267  33.9400935  48.5387837  21.7181701
  21.8789468  41.6658942  14.9743781  21.0820631  41.7777637  15.4927277
  21.6515060  42.0045595  14.1084672  27.7095135  48.1903646  22.9226296
  27.7739568  48.6524053  23.7584468  27.0006059  47.5601011  23.0508606
  18.2112425  41.5544854  20.4475296  18.4620464  42.4391864  20.7132872
  18.7471974  41.3749455  19.6750387  42.0344525  44.9858351  17.1150557
  41.2808233  44.4165749  16.9594561  42.1692066  44.9521015  18.0621192
  27.4243153  49.8571753  12.7905276  27.2888828  50.7023289  13.2190124
  27.9652966  50.0591031  12.0271210  20.8772550  47.3747191  13.3633202
  21.3897071  48.1690441  13.5138766  21.5295263  46.6773482  13.2966803
  22.6867435  50.4912948  15.4455955  22.8634063  51.4130912  15.2576939
  23.4824269  50.1771367  15.8750334  21.9719792  42.5377579  25.3218118
  21.8573307  41.6362837  25.6225217  21.1164309  42.7841276  24.9702934
  29.0511629  50.4795320  26.9205618  28.6075484  49.6931698  26.6026523
  29.7128843  50.6674470  26.2549509  23.8098751  52.0091121  21.4466297
  24.3606176  51.8808185  20.6743291  22.9710226  52.3086010  21.0961190
  31.1492867  50.7598120  24.9487020  31.1311343  51.5807001  24.4567289
  32.0712788  50.6352195  25.1737161  27.6065922  48.2742249  25.7910528
  28.1394258  47.5130537  25.5609836  27.0780003  47.9815901  26.5334683
  18.8421467  45.7035846  14.1392772  19.6796689  46.1132854  13.9226480
  19.0199735  44.7635288  14.1092966  30.7385899  43.3710926   9.8276605
  30.2232523  44.1415531  10.0664992  30.4663208  42.6976062  10.4509666
  28.3233010  38.2160627  14.8861843  27.4674607  37.8267477  14.7067482
  28.7359962  38.2952588  14.0261629  29.8532157  35.7506970  19.2853403
  29.3496953  35.7137105  18.4721208  30.1462764  36.6599713  19.3450060
  26.0975043  35.8345700  18.2919585  26.9628040  35.6388509  17.9325474
  26.1652552  35.6056052  19.2188942  35.7120173  46.1243281  11.7629778
  34.9349616  45.7854440  11.3184941  36.3911654  46.1295904  11.0884744
  30.5272202  41.2438018  11.6536386  30.2222338  41.5584167  12.5046529
  31.4802645  41.3219438  11.6963719  28.9718634  47.4028242  13.3029340
  28.4439996  46.6681001  12.9902578  28.4706137  48.1802918  13.0569308
  33.9511480  45.5977262  18.4196386  33.2935155  46.2876523  18.5076515
  34.7551880  45.9873694  18.7630373  23.7037362  38.0647908  15.6635952
  24.2781114  37.8423089  14.9309145  24.2908344  38.1336602  16.4164553
  32.7616939  43.9521635  16.4700328  33.2748821  44.5851627  16.9722038
  33.4118163  43.3522830  16.1043688  24.0306949  40.0952369   9.6831837
  23.1944261  40.4327055  10.0041112  23.8911719  39.9601349   8.7458974
  26.0060030  34.9389157  14.3911021  25.3524442  34.6238174  13.7667636
  25.9640504  34.3164897  15.1170844  27.1171235  45.2208452   6.3064313
  26.2098296  44.9897705   6.5055462  27.6142267  44.4246071   6.4938295
  30.0239313  53.9305959   9.2260999  29.3501012  54.2337656   9.8345957
  30.4105135  54.7335039   8.8766456  29.2397770  41.4271090  18.7158669
  28.3220331  41.6486037  18.5580357  29.6557914  41.5017401  17.8570376
  30.0232818  42.8262506  13.8461349  30.7704637  43.3383903  13.5368471
  30.2924407  42.5046559  14.7065743  28.2959468  45.3221047  10.8288303
  27.3870687  45.0380080  10.9260773  28.3254552  45.7420125   9.9691610
  33.5278735  48.9327636  14.5979471  33.0741062  48.0918546  14.6544661
  32.8972702  49.5689035  14.9354251  32.4711655  39.8619622  15.8280138
  31.7334412  39.3497008  16.1590381  32.7238428  39.4220004  15.0163415
  31.9711675  50.7704133  15.5329289  32.2634649  51.3309190  14.8141655
  32.4810295  51.0632694  16.2882448  32.5723282  32.6395874  16.4221908
  32.8782159  31.7793238  16.1347823  33.2975887  33.2313494  16.2220901
  18.8647638  43.0426561  14.8103505  18.6672038  42.4495922  14.0854572
  18.3094302  42.7378771  15.5279444  26.8444362  42.9349667  16.9298099
  26.8992972  41.9823504  16.8540575  26.0335564  43.0909106  17.4139397
  27.9935556  46.8629790   8.1676382  27.5554986  46.1465649   7.7082019
  28.7345997  47.0905905   7.6061473  24.7836722  41.5526727  14.6888477
  23.9704587  41.8520898  15.0953670  25.2795716  41.1582416  15.4062960
  26.9345300  51.5484484  16.6222742  26.8921479  51.7745330  15.6931274
  27.8507999  51.3147859  16.7708543  36.1108671  45.1386987  14.2252700
  35.9726569  45.3288583  13.2973890  35.7544889  45.9006370  14.6820752
  36.1378050  47.2063514  19.2363972  36.5714557  47.1138804  20.0847026
  36.8509631  47.1821015  18.5983988  25.0511101  48.4247513  16.4184705
  25.8451699  47.9297833  16.2167280  24.3402793  47.8965376  16.0552410
  29.8705945  50.8065609  20.7697073  29.9242967  51.3756545  21.5374788
  29.0020726  50.9767494  20.4051110  21.3593864  42.5690595  12.4944458
  20.4291452  42.5075050  12.7114420  21.4551336  42.0466548  11.6981099
  21.2779413  39.0945408  15.0822699  21.5386230  40.0090741  14.9731860
  22.0996585  38.6269850  15.2319312  22.7504338  40.5083165  22.2521524
  23.4227392  40.3000527  21.6034173  21.9234125  40.3105251  21.8126756
  36.9993600  47.2487215  21.7696857  37.1929490  48.1533026  22.0156132
  36.8994218  46.7894634  22.6035442  32.0608708  47.3993958  27.3437738
  31.9094215  47.1704510  26.4267822  32.0513388  48.3564559  27.3569083
  28.8294045  44.9725871  22.3284004  29.7586105  45.1237030  22.1552972
  28.4085075  45.0609891  21.4732651  27.6282377  48.9976535  20.0982542
  27.4893462  48.6295319  20.9708480  26.8396973  49.5124174  19.9266500
  28.2230529  54.0985631  11.4408079  28.3982284  53.6273675  12.2553701
  27.5363317  54.7251398  11.6689339  29.1787592  48.3758138  17.4871380
  28.8437424  48.3358908  18.3829030  28.6791537  47.7102854  17.0141790
  23.1531836  43.7825768  23.0123961  23.0151634  43.0506007  23.6135500
  24.0636759  43.6934668  22.7308149  32.1146783  45.7214172   7.7608439
  31.4975954  44.9961000   7.6641492  31.6463272  46.4823532   7.4175514
  25.7814136  43.4945727  22.5007641  26.4913755  42.8538919  22.4594259
  25.7383445  43.7458622  23.4233821  33.7700915  50.4313080  25.4214220
  33.7113461  49.7472301  24.7544803  34.1720433  51.1732070  24.9694846
  22.7891614  57.2474994  18.2147939  23.0288212  57.8793518  18.8926957
  21.9460810  56.8963034  18.5013298  23.9045329  39.9399596   6.8829744
  23.0274796  39.8188397   6.5191990  24.3803082  39.1485675   6.6308632
  33.7718322  48.3952664  23.6528199  32.8845101  48.0578586  23.7754598
  34.3416873  47.6635696  23.8896965  15.4247469  44.7276756  16.9771251
  16.1118509  44.4138486  16.3892266  15.2695598  45.6318121  16.7038502
  20.2282192  39.6166953  21.4056275  20.1440380  39.0092622  20.6706684
  19.4064898  40.1075971  21.4065771  27.3019476  53.0554117  20.6189443
  27.2289647  53.8609088  21.1308747  26.8596869  53.2546083  19.7937464
  27.0909255  52.2925887  14.1292264  26.3076777  52.8347567  14.2230489
  27.7902000  52.8099866  14.5286505  30.4005905  38.1020516  16.7726470
  30.8974605  37.3490479  16.4527540  29.6292887  38.1384833  16.2069679
  38.2535663  43.8060882  18.4144761  38.2425539  44.6885597  18.0438694
  37.3853042  43.4532433  18.2199298  29.7618159  52.9540951  22.7747601
  30.4746131  53.5888416  22.7023503  29.2708188  53.0504817  21.9587603
  31.4835686  46.8592203  14.3464893  30.5491965  46.9793666  14.1769597
  31.6612355  45.9564670  14.0824903  26.9840874  40.2437899  16.4998154
  26.6138662  39.6908940  17.1879060  27.4799967  39.6396033  15.9473154
  34.8708237  42.7009523  14.8814927  35.3368690  43.5337514  14.8075230
  35.3215738  42.2354504  15.5860186  24.8130073  50.7035394  23.5953172
  25.5139532  51.3371877  23.7482566  24.3425188  51.0450126  22.8348811
  32.9384469  49.0453344  11.8801079  33.2144312  48.9309939  12.7894953
  32.0688967  48.6470829  11.8413252  32.8424900  35.0690110  18.9205828
  31.9287980  35.2994337  19.0888035  33.2718002  35.1528554  19.7719861
  32.6131359  43.2580002  21.4205723  31.9602809  43.5055909  20.7658175
  32.9911739  42.4444140  21.0868200  29.5738533  53.2939695  15.5233893
  29.7560927  52.4761351  15.9861645  30.3971519  53.5107387  15.0858783
  29.9080698  52.2207880  12.7848941  30.4368465  51.7100335  12.1719103
  30.1708918  51.9050410  13.6494474  20.4097791  50.2371749  20.5284275
  20.9951228  49.4915437  20.6612179  20.2122629  50.5475706  21.4120939
  23.2636446  53.2722997  15.5446717  22.5946821  53.7569124  15.0610757
  23.1249316  53.5192217  16.4590096  15.0015446  42.8077349  19.2488718
  15.0399545  42.2740940  20.0425836  14.4955738  42.2812555  18.6299695
  27.4041715  55.3066740  22.1429376  27.9560023  55.4698362  22.9078461
  27.7447908  55.8971178  21.4709400  22.3806208  37.6541890  22.7451260
  22.4447534  38.5156721  22.3328658  22.3173328  37.0415892  22.0123619
  21.8558480  39.7265022  26.3924295  22.4830519  39.3442100  27.0061819
  20.9986399  39.5079224  26.7579987  32.2552589  50.1327998  27.9978030
  32.7992493  50.7457956  27.5032985  31.6739434  50.6907576  28.5145043
  18.6324023  41.5341452  12.3242649  18.9277464  40.6252130  12.2709703
  17.7312059  41.5129191  12.0023652  30.5410102  53.2548716  19.1293058
  30.4161241  52.4538456  18.6204003  31.1989193  53.7494909  18.6407028
  22.1618270  39.6097448  18.3070198  21.4404856  40.2233416  18.1677671
  22.9511526  40.1455213  18.2286844  32.6045010  51.0557736  20.7572608
  31.6575346  50.9363087  20.6850935  32.9527783  50.1680234  20.8398869
  20.3611865  39.2155549  12.4481975  20.0324571  38.3352928  12.2657080
  20.7151235  39.1603218  13.3358364  29.6091444  50.8510452  16.9576960
  29.4616406  49.9227159  17.1384530  30.4344937  50.8730543  16.4734035
  23.4753688  39.5028519  12.8157452  23.8149760  40.0314440  12.0936061
  23.9225808  39.8408925  13.5916019  33.2125565  51.6739011  18.0441833
  34.1372113  51.4681872  17.9066284  33.0440869  51.4255412  18.9531174
  26.8213601  34.9714882  20.7187843  27.6439670  34.4975360  20.5966734
  27.0651664  35.7505366  21.2186530  25.4621835  38.0003141  11.0150745
  26.1830198  38.3784393  10.5114462  24.8387139  38.7192017  11.1185723
  29.6052958  38.7048290  11.9509077  29.8216572  39.5872927  11.6497905
  29.1247025  38.3134503  11.2214719  24.3452179  41.6634003  18.5279822
  24.1996760  41.9774306  19.4204103  23.8677383  42.2818903  17.9750721
  26.2048562  38.6536551  18.5760711  26.1910131  37.7577644  18.2393009
  26.9220990  38.6607215  19.2098997  33.0020882  52.1924678  13.4003924
  33.1757759  51.6271101  12.6477777  33.4949773  52.9925573  13.2183414
  18.8197841  44.2039347  21.4667483  18.2751310  44.9799155  21.5987757
  19.6977191  44.5510152  21.3086605  25.6085458  37.5350931  13.8448282
  25.7301369  36.6067577  14.0439169  25.3187500  37.5489617  12.9326597
  28.4776648  35.2205842  16.9815001  28.4998345  35.2845175  16.0266981
  28.8944707  34.3810350  17.1755508  38.8560273  44.9561101  15.0194224
  39.2991419  44.2068426  14.6213347  37.9786783  44.9471237  14.6367956
  33.9896054  51.5091443  10.5000823  34.6846959  52.1298135  10.7188137
  34.3319204  50.6586794  10.7753200  19.6063863  43.3309244  24.3597640
  18.8645599  43.4791879  24.9462270  19.2856608  43.5917509  23.4964389
  35.8887477  48.9591148  12.0288153  36.4138801  49.2978421  11.3037473
  35.8009830  48.0238163  11.8451288  27.5507526  52.8725222  24.1578030
  27.8594652  52.6274369  25.0300730  28.3483008  53.0771860  23.6696900
  27.5728138  55.0263131  16.3883406  27.1333128  54.5339510  17.0816263
  28.3236255  54.4836099  16.1475482  20.0520477  51.2174672  16.3908035
  20.8778497  50.9178444  16.0106678  19.7014529  50.4482295  16.8397823
  25.0202010  50.5701140  18.4605708  24.3982019  49.9071845  18.1607936
  25.6906877  50.5962272  17.7779356  18.2529082  49.1360999  17.3496968
  17.4160990  48.7083173  17.1680969  18.2252727  49.3293442  18.2867759
  35.5781383  49.5924052  27.3339351  34.7876927  49.5748191  26.7943851
  35.3414738  50.1312345  28.0888388  35.6979258  46.4416518  24.6472080
  35.7477263  46.2766526  25.5887603  35.5893182  45.5743777  24.2569961
  24.5815517  49.1205064  11.9364169  24.7303637  49.8040528  11.2830841
  25.3881961  49.1010154  12.4513624  32.9883021  42.4247446  25.9631387
  33.8892884  42.2853911  25.6715384  33.0630995  42.5901901  26.9029564
  37.1997455  48.8613460  24.8914101  36.9082263  49.2243440  25.7277562
  36.5869586  48.1480468  24.7127433  38.3993138  46.4266339  17.4116672
  39.2340029  46.8656143  17.5754232  38.5352266  45.9504993  16.5924917
  35.4484643  43.9846074  23.3594159  35.9238765  44.1773721  22.5513011
  34.5250209  44.0405260  23.1137543  22.3368150  45.1470241  12.9425238
  22.0914192  44.2432571  13.1405448  22.5064065  45.1487392  12.0004716
  21.6063798  40.8798599  10.4411399  20.9133043  40.9542954   9.7851435
  21.3615549  40.1158943  10.9632916  30.2777454  32.4394200  17.8450890
  30.5579208  31.7717389  18.4711316  31.0628061  32.6323296  17.3325554
  28.0810923  51.6153194   9.4075916  27.5084890  52.2343381   8.9546388
  28.6543716  52.1652556   9.9415838  34.1486312  40.8611834  21.5922465
  35.1003735  40.9609932  21.6134689  33.9789763  40.0690103  22.1020549
  32.1700692  37.9467418  21.7781866  31.5750624  38.2272430  21.0828354
  31.8850389  38.4361318  22.5498607  31.3008182  51.8990344  10.5384498
  32.2338856  51.8335906  10.7417374  31.2131395  52.7346611  10.0799031
  33.9296199  51.2156215   7.4988446  33.8509831  50.8816078   8.3924204
  34.7505866  51.7077983   7.4979918  36.6274390  44.0817954  20.7064765
  36.5950710  43.1433955  20.8924448  37.2375014  44.1601991  19.9730589
  28.4657721  42.9514007   6.7491969  29.4116826  42.8220215   6.8180387
  28.0871966  42.2128669   7.2261397  36.7768879  40.8728997  20.7523048
  36.2607927  40.0887454  20.5652977  37.6608827  40.5447714  20.9169567
  34.4379606  34.6170013  16.7118860  34.2404427  34.3085101  17.5962192
  35.0479311  35.3431652  16.8416790  42.4450940  45.1433961  19.8470801
  43.1754329  44.8819249  20.4078505  41.8357886  44.4062683  19.8872869
  40.5266237  43.2841823  20.4445253  39.7999401  43.1497788  19.8361744
  40.1113524  43.5918652  21.2501971  28.3496414  47.0031753  28.2092626
  29.2699423  47.1810352  28.4032672  28.3145997  46.0587798  28.0572325
  26.6500638  40.8763983   6.6846854  25.7432094  40.5797096   6.7609567
  26.9276619  40.5793801   5.8181140  17.5678579  42.1970347  17.1345900
  17.2481363  41.3435655  16.8420274  17.0212007  42.4118925  17.8903868
  21.3458486  44.9132788  20.8515407  21.5644496  45.8449896  20.8703441
  21.7584260  44.5540762  21.6370211  28.2662704  35.4200873  12.8391095
  27.4563432  35.0747958  13.2146341  28.9547121  35.1108417  13.4278707
  30.1953252  34.4978920  14.4615392  30.7484291  34.9174373  15.1205415
  30.4323339  33.5714668  14.5038348  26.2186351  40.4865994  30.2418156
  26.1183078  41.4360351  30.1730247  26.0007894  40.1584232  29.3694226
  25.4199423  37.7350919   6.8258833  26.2818587  38.0605817   7.0854650
  25.6049767  36.9482415   6.3131899  17.4366839  45.8173258  19.1039022
  16.7430310  45.4027211  18.5908976  18.1839830  45.8593795  18.5072441
  33.5732059  36.6079445  13.9694056  32.9930728  37.2664249  13.5872108
  33.3067992  35.7856790  13.5581474  32.0235626  36.0084503  16.1715376
  32.5235404  36.1201037  15.3629695  32.6671234  35.7045556  16.8116185
  26.0817622  43.9163132  29.0583217  25.5984703  44.7163493  29.2647106
  26.1678561  43.9271077  28.1050661  19.3503581  45.7491512  16.9805037
  19.3274269  45.8479199  16.0286920  19.6604218  46.5956663  17.3022203
  22.0090959  47.8067667  21.0951651  22.9634213  47.7751609  21.0281583
  21.8103483  47.3458291  21.9101877  22.5990341  46.3768783  23.6622449
  23.4183230  46.8712862  23.6857286  22.8727149  45.4600751  23.6340016
  32.3556937  38.7679535  13.0250404  31.4682792  39.0529186  12.8070599
  32.7710926  38.6073299  12.1777681  35.7071473  38.7926056  16.7404744
  36.4831864  39.2822509  17.0129360  34.9819608  39.2184111  17.1976613
  38.1444032  39.5053676  17.7978684  38.7388523  39.2649412  17.0871992
  38.2170616  38.7860806  18.4252220  20.3641188  53.3487287  18.1121849
  20.2295656  52.5887687  17.5459847  19.9473250  54.0728186  17.6450638
  31.5000151  48.5324210   7.1198424  32.2036001  48.7374213   7.7356080
  30.7762800  49.1000972   7.3847508  32.3297961  44.2834071  13.2400694
  32.2733163  44.7402623  12.4008327  32.8826304  43.5224756  13.0623537
  36.1402767  40.0723803  14.0650814  35.8839701  39.6720439  14.8959022
  35.5155635  40.7867597  13.9400953  40.4515105  42.8119876  16.5722105
  39.8914663  42.8813066  17.3453667  39.8458608  42.6360861  15.8521602
  23.5210314  54.2456604  18.3240292  23.4042698  55.1902036  18.2218982
  22.7002760  53.9430165  18.7126091  33.4086848  48.9706739   9.1696884
  34.2432452  48.5387938   8.9874359  33.2471191  48.7988753  10.0973779
  33.0632740  45.4738853  10.5353224  33.0081544  45.3083124   9.5941668
  32.4378796  46.1814886  10.6915413  17.8525255  40.7106917  24.3614646
  18.4984119  40.2005871  24.8501871  17.6442407  41.4475599  24.9358071
  30.3778648  47.7787764  29.8606786  31.2469807  47.9528417  29.4993421
  29.8985399  48.5982181  29.7382516  26.3728866  34.9746962  10.1138542
  26.3607536  35.9188802  10.2706813  27.2652288  34.7917107   9.8198003
  24.5464828  54.8984865  21.5396220  25.4492075  54.9308476  21.8562715
  24.3202198  53.9685316  21.5542556  26.3018430  53.6515852  18.2006299
  25.3514061  53.6517714  18.0870671  26.6050916  52.9048587  17.6842333
  30.1880985  31.5689738  14.3684479  29.4213381  31.0148225  14.5141161
  30.5991690  31.6411607  15.2298630  22.1922746  37.8574534  28.4589660
  23.0554208  37.5011339  28.6692985  21.6188157  37.5188429  29.1465064
  42.0371123  59.4876390  19.2652061  42.6749533  59.3683138  18.5615401
  41.9191966  60.4357234  19.3240013  38.8460830  59.4403819  19.2013586
  38.5079341  59.3244883  18.3134121  39.7150598  59.0394984  19.1814592
  34.7047645  61.2939295  15.1910477  34.1412510  61.2029232  14.4226764
  34.5900040  60.4739199  15.6712969  32.2512077  62.7890487  18.0294697
  33.0433369  62.4481311  17.6140997  32.4908727  62.8985462  18.9496851
  40.2847204  64.9610263  10.5024942  39.6335184  65.5464343  10.1158955
  41.0791567  65.4916458  10.5619979  34.2102831  62.0499400  10.9012076
  34.9833707  61.5028387  10.7624952  34.5628230  62.9143649  11.1126537
  36.0487874  63.3775782  24.1078975  35.7577740  64.2821413  23.9925642
  36.6844858  63.4192310  24.8223045  36.9744081  60.7552631  20.6980335
  37.5707653  60.5308653  19.9837298  37.0319052  60.0137376  21.3005783
  36.5469109  58.2092066   8.5330526  36.7994630  57.6873587   7.7713989
  35.6093668  58.0458211   8.6357210  41.5912392  57.2127844  16.3405269
  42.3775481  56.7947267  15.9895686  41.8551096  58.1173936  16.5086918
  41.7622469  62.6500695  11.0393926  41.1268302  62.7235321  11.7514831
  41.4319876  63.2394293  10.3613005  46.9920819  57.1503077  17.2438248
  47.7245991  56.5802294  17.4776077  46.2360175  56.7624678  17.6844753
  36.2665398  60.1120172  10.7354901  36.1501656  59.4365075  11.4035985
  36.3767658  59.6252546   9.9187054  38.6096939  59.5730319  14.4401590
  38.2455146  59.0460940  15.1514512  39.4664055  59.1828788  14.2668076
  44.5146239  50.8624652  21.7032856  44.1829564  51.7320063  21.4794071
  43.9191853  50.5460936  22.3826887  38.2502426  54.6020219   9.4362939
  38.4176828  55.4700455   9.8033410  38.0599595  54.7647500   8.5124228
  41.0077759  63.0637198  21.1028769  40.7078482  63.9662236  20.9944576
  40.6628818  62.7969381  21.9549922  34.4590240  59.5150994  17.1365473
  33.5340737  59.3827209  17.3443165  34.7074653  60.2945214  17.6335416
  44.4074903  55.5819738  18.7826206  43.4991780  55.5135146  18.4884967
  44.3562498  56.0591683  19.6108032  38.2291647  57.0577876  10.4209605
  38.1091272  57.5034927  11.2595086  37.5344235  57.4063194   9.8623144
  31.8199051  59.1584268  17.9709262  31.9491433  59.4118747  18.8848674
  31.1396503  59.7511976  17.6513918  35.9898539  69.8281518  14.0699737
  35.9122568  70.7789343  14.1488217  35.3860182  69.4827390  14.7274663
  43.9276713  57.5299349  11.2489939  44.8394569  57.7626736  11.0737637
  43.4186360  58.1136394  10.6865018  36.7362141  59.8094837  26.2879071
  37.4776825  60.3479881  26.0113894  36.0299126  60.4361125  26.4450622
  42.5346295  62.5125168  18.6403521  41.9055157  62.6770882  17.9379589
  42.1471957  62.9266777  19.4114485  46.4135527  63.4479606  15.9947885
  45.7286565  63.8278507  15.4444918  46.4979376  64.0574932  16.7279832
  41.2712687  53.7057385  19.4979800  40.4097166  54.0038639  19.7896538
  41.2975122  53.9227784  18.5660833  38.0874257  62.2499576  15.9053606
  38.5512602  62.5287279  15.1158229  37.8231055  61.3483020  15.7226697
  34.9798338  61.7971057  18.8433369  35.5499695  62.2258326  18.2050854
  35.5706450  61.5153642  19.5417555  37.0243143  58.3722728  12.7143171
  37.7267186  58.8243772  13.1817098  36.6923771  57.7306547  13.3423064
  35.4723504  56.9634485  27.0894381  34.8422165  57.6450766  27.3229777
  35.3659592  56.8517566  26.1447519  30.7668477  56.6306281  18.0160305
  29.9767531  56.8863809  17.5400415  31.2579724  57.4454619  18.1212345
  44.7832286  63.9711520  20.7665586  45.6049730  63.5691707  20.4848267
  44.7794689  63.8679754  21.7181701  32.7183222  56.9950860  14.9743781
  31.9214386  57.1069554  15.4927277  32.4908814  57.3337512  14.1084672
  38.5488890  63.5195563  22.9226296  38.6133322  63.9815971  23.7584468
  37.8399814  62.8892928  23.0508606  29.0506180  56.8836771  20.4475296
  29.3014218  57.7683781  20.7132872  29.5865728  56.7041373  19.6750387
  52.8738279  60.3150269  17.1150557  52.1201988  59.7457667  16.9594561
  53.0085821  60.2812933  18.0621192  38.2636908  65.1863671  12.7905276
  38.1282582  66.0315207  13.2190124  38.8046720  65.3882949  12.0271210
  34.7504247  51.2655251  29.4519632  34.3571193  50.7121449  30.1267276
  35.5670387  51.5765829  29.8426149  31.7166305  62.7039109  13.3633202
  32.2290825  63.4982359  13.5138766  32.3689018  62.0065399  13.2966803
  33.5261190  65.8204865  15.4455955  33.7027818  66.7422830  15.2576939
  34.3218023  65.5063284  15.8750334  37.6672208  52.6813130  27.0439888
  38.4081922  53.2820283  26.9644351  37.8990131  51.9390768  26.4857931
  32.8113546  57.8669497  25.3218118  32.6967061  56.9654754  25.6225217
  31.9558064  58.1133194  24.9702934  34.6492505  67.3383039  21.4466297
  35.1999930  67.2100102  20.6743291  33.8103981  67.6377928  21.0961190
  38.4459676  63.6034167  25.7910528  38.9788013  62.8422455  25.5609836
  37.9173757  63.3107819  26.5334683  41.6129371  48.7094233  21.3204170
  41.2693640  49.5995874  21.2443280  41.9808334  48.5195890  20.4573755
  29.6815222  61.0327763  14.1392772  30.5190444  61.4424772  13.9226480
  29.8593489  60.0927205  14.1092966  41.5779654  58.7002844   9.8276605
  41.0626277  59.4707449  10.0664992  41.3056962  58.0267980  10.4509666
  39.1626765  53.5452545  14.8861843  38.3068361  53.1559395  14.7067482
  39.5753717  53.6244505  14.0261629  40.6925911  51.0798888  19.2853403
  40.1890707  51.0429023  18.4721208  40.9856518  51.9891631  19.3450060
  36.9368797  51.1637618  18.2919585  37.8021794  50.9680426  17.9325474
  37.0046306  50.9347969  19.2188942  46.5513928  61.4535199  11.7629778
  45.7743371  61.1146358  11.3184941  47.2305409  61.4587822  11.0884744
  41.3665957  56.5729936  11.6536386  41.0616093  56.8876085  12.5046529
  42.3196399  56.6511356  11.6963719  39.8112389  62.7320159  13.3029340
  39.2833750  61.9972919  12.9902578  39.3099892  63.5094836  13.0569308
  44.7905235  60.9269180  18.4196386  44.1328909  61.6168441  18.5076515
  45.5945634  61.3165612  18.7630373  34.5431116  53.3939826  15.6635952
  35.1174868  53.1715007  14.9309145  35.1302099  53.4628520  16.4164553
  43.6010694  59.2813552  16.4700328  44.1142575  59.9143544  16.9722038
  44.2511918  58.6814748  16.1043688  34.8700704  55.4244287   9.6831837
  34.0338016  55.7618973  10.0041112  34.7305473  55.2893266   8.7458974
  36.8453784  50.2681074  14.3911021  36.1918196  49.9530092  13.7667636
  36.8034258  49.6456815  15.1170844  37.9564989  60.5500370   6.3064313
  37.0492051  60.3189623   6.5055462  38.4536021  59.7537989   6.4938295
  40.8633068  69.2597877   9.2260999  40.1894767  69.5629573   9.8345957
  41.2498890  70.0626957   8.8766456  40.0791525  56.7563008  18.7158669
  39.1614086  56.9777955  18.5580357  40.4951668  56.8309318  17.8570376
  40.8626572  58.1554424  13.8461349  41.6098391  58.6675821  13.5368471
  41.1318162  57.8338476  14.7065743  39.1353222  60.6512964  10.8288303
  38.2264442  60.3671997  10.9260773  39.1648306  61.0712043   9.9691610
  44.3672490  64.2619554  14.5979471  43.9134817  63.4210464  14.6544661
  43.7366457  64.8980952  14.9354251  43.3105409  55.1911540  15.8280138
  42.5728166  54.6788926  16.1590381  43.5632183  54.7511922  15.0163415
  42.8105429  66.0996051  15.5329289  43.1028403  66.6601108  14.8141655
  43.3204050  66.3924612  16.2882448  43.4117037  47.9687792  16.4221908
  43.7175914  47.1085155  16.1347823  44.1369642  48.5605412  16.2220901
  29.7041393  58.3718479  14.8103505  29.5065793  57.7787839  14.0854572
  29.1488057  58.0670689  15.5279444  37.6838116  58.2641585  16.9298099
  37.7386726  57.3115421  16.8540575  36.8729319  58.4201024  17.4139397
  38.8329310  62.1921708   8.1676382  38.3948740  61.4757567   7.7082019
  39.5739751  62.4197823   7.6061473  35.6230476  56.8818645  14.6888477
  34.8098342  57.1812815  15.0953670  36.1189471  56.4874334  15.4062960
  37.7739054  66.8776402  16.6222742  37.7315233  67.1037248  15.6931274
  38.6901753  66.6439776  16.7708543  46.9502425  60.4678905  14.2252700
  46.8120324  60.6580501  13.2973890  46.5938644  61.2298288  14.6820752
  35.1144551  54.4537000  20.3049712  35.7543930  54.3125759  19.6072676
  34.2822082  54.1671514  19.9288314  35.8904855  63.7539431  16.4184705
  36.6845454  63.2589751  16.2167280  35.1796547  63.2257294  16.0552410
  40.7099700  66.1357526  20.7697073  40.7636722  66.7048463  21.5374788
  39.8414481  66.3059411  20.4051110  32.1987619  57.8982512  12.4944458
  31.2685207  57.8366968  12.7114420  32.2945091  57.3758465  11.6981099
  32.1173168  54.4237325  15.0822699  32.3779985  55.3382659  14.9731860
  32.9390340  53.9561768  15.2319312  33.5898093  55.8375082  22.2521524
  34.2621146  55.6292445  21.6034173  32.7627879  55.6397168  21.8126756
  39.4923665  52.4637023  24.2687185  38.8451580  53.1626973  24.1751661
  40.2624680  52.8973167  24.6363433  38.4676131  64.3268453  20.0982542
  38.3287217  63.9587237  20.9708480  37.6790727  64.8416092  19.9266500
  39.0624283  69.4277549  11.4408079  39.2376039  68.9565592  12.2553701
  38.3757071  70.0543315  11.6689339  40.0181346  63.7050055  17.4871380
  39.6831179  63.6650825  18.3829030  39.5185292  63.0394771  17.0141790
  33.9925590  59.1117685  23.0123961  33.8545388  58.3797924  23.6135500
  34.9030514  59.0226586  22.7308149  42.9540538  61.0506090   7.7608439
  42.3369709  60.3252918   7.6641492  42.4857026  61.8115450   7.4175514
  36.6207891  58.8237645  22.5007641  37.3307509  58.1830837  22.4594259
  36.5777199  59.0750540  23.4233821  35.3336825  55.8102863  24.3203280
  34.7974182  55.3593601  24.9724876  34.7453533  55.9448771  23.5773744
  33.6285368  72.5766912  18.2147939  33.8681967  73.2085436  18.8926957
  32.7854565  72.2254952  18.5013298  34.7439084  55.2691514   6.8829744
  33.8668550  55.1480315   6.5191990  35.2196837  54.4777592   6.6308632
  26.2641224  60.0568674  16.9771251  26.9512264  59.7430404  16.3892266
  26.1089353  60.9610038  16.7038502  31.0675946  54.9458870  21.4056275
  30.9834135  54.3384540  20.6706684  30.2458652  55.4367889  21.4065771
  38.1413230  68.3846034  20.6189443  38.0683402  69.1901006  21.1308747
  37.6990623  68.5838000  19.7937464  37.9303010  67.6217804  14.1292264
  37.1470532  68.1639485  14.2230489  38.6295755  68.1391784  14.5286505
  41.2399660  53.4312434  16.7726470  41.7368359  52.6782396  16.4527540
  40.4686641  53.4676751  16.2069679  40.6011914  68.2832868  22.7747601
  41.3139886  68.9180333  22.7023503  40.1101942  68.3796734  21.9587603
  42.3229441  62.1884121  14.3464893  41.3885719  62.3085584  14.1769597
  42.5006109  61.2856588  14.0824903  37.8234629  55.5729817  16.4998154
  37.4532416  55.0200857  17.1879060  38.3193721  54.9687950  15.9473154
  45.7101992  58.0301440  14.8814927  46.1762444  58.8629432  14.8075230
  46.1609492  57.5646422  15.5860186  35.6523827  66.0327312  23.5953172
  36.3533287  66.6663795  23.7482566  35.1818942  66.3742043  22.8348811
  43.7778223  64.3745262  11.8801079  44.0538067  64.2601856  12.7894953
  42.9082722  63.9762747  11.8413252  43.6818655  50.3982027  18.9205828
  42.7681735  50.6286254  19.0888035  44.1111756  50.4820471  19.7719861
  40.4132287  68.6231612  15.5233893  40.5954682  67.8053268  15.9861645
  41.2365273  68.8399305  15.0858783  40.7474453  67.5499798  12.7848941
  41.2762219  67.0392252  12.1719103  41.0102672  67.2342328  13.6494474
  31.2491545  65.5663667  20.5284275  31.8344982  64.8207355  20.6612179
  31.0516384  65.8767624  21.4120939  34.1030201  68.6014914  15.5446717
  33.4340576  69.0861042  15.0610757  33.9643070  68.8484135  16.4590096
  25.8409200  58.1369267  19.2488718  25.8793300  57.6032858  20.0425836
  25.3349493  57.6104473  18.6299695  38.2435469  70.6358658  22.1429376
  38.7953777  70.7990279  22.9078461  38.5841663  71.2263096  21.4709400
  33.2199962  52.9833808  22.7451260  33.2841289  53.8448639  22.3328658
  33.1567083  52.3707809  22.0123619  32.6952235  55.0556940  26.3924295
  33.3224274  54.6734017  27.0061819  31.8380154  54.8371142  26.7579987
  29.4717778  56.8633369  12.3242649  29.7671219  55.9544048  12.2709703
  28.5705813  56.8421109  12.0023652  41.3803856  68.5840633  19.1293058
  41.2554996  67.7830373  18.6204003  42.0382948  69.0786827  18.6407028
  33.0012025  54.9389366  18.3070198  32.2798610  55.5525334  18.1677671
  33.7905280  55.4747131  18.2286844  43.4438765  66.3849653  20.7572608
  42.4969100  66.2655005  20.6850935  43.7921538  65.4972151  20.8398869
  35.8038338  52.2743792  24.5810850  36.3272740  52.5206089  25.3437159
  35.5850671  53.1063827  24.1613987  31.2005619  54.5447467  12.4481975
  30.8718325  53.6644846  12.2657080  31.5544990  54.4895136  13.3358364
  40.4485198  66.1802370  16.9576960  40.3010161  65.2519077  17.1384530
  41.2738692  66.2022460  16.4734035  34.3147442  54.8320437  12.8157452
  34.6543515  55.3606358  12.0936061  34.7619563  55.1700843  13.5916019
  44.0519320  67.0030928  18.0441833  44.9765867  66.7973790  17.9066284
  43.8834623  66.7547330  18.9531174  37.0090883  53.2157487  22.2660520
  36.6687704  52.4165301  22.6681200  36.3029889  53.5159198  21.6937353
  37.6607355  50.3006800  20.7187843  38.4833424  49.8267278  20.5966734
  37.9045419  51.0797284  21.2186530  36.3015590  53.3295058  11.0150745
  37.0223952  53.7076311  10.5114462  35.6780894  54.0483935  11.1185723
  40.4446712  54.0340207  11.9509077  40.6610327  54.9164845  11.6497905
  39.9640780  53.6426421  11.2214719  35.1845934  56.9925921  18.5279822
  35.0390514  57.3066224  19.4204103  34.7071137  57.6110821  17.9750721
  37.0442317  53.9828469  18.5760711  37.0303885  53.0869562  18.2393009
  37.7614745  53.9899132  19.2098997  38.8968447  54.4165809  20.6213839
  38.6386225  55.3382879  20.6198169  38.3653488  54.0196243  21.3114303
  43.8414636  67.5216596  13.4003924  44.0151514  66.9563018  12.6477777
  44.3343527  68.3217491  13.2183414  29.6591596  59.5331265  21.4667483
  29.1145064  60.3091073  21.5987757  30.5370946  59.8802069  21.3086605
  36.4479213  52.8642849  13.8448282  36.5695124  51.9359495  14.0439169
  36.1581255  52.8781535  12.9326597  39.3170403  50.5497759  16.9815001
  39.3392100  50.6137092  16.0266981  39.7338462  49.7102268  17.1755508
  49.6954027  60.2853019  15.0194224  50.1385173  59.5360344  14.6213347
  48.8180538  60.2763155  14.6367956  44.8289809  66.8383360  10.5000823
  45.5240713  67.4590053  10.7188137  45.1712959  65.9878711  10.7753200
  30.4457618  58.6601161  24.3597640  29.7039354  58.8083797  24.9462270
  30.1250362  58.9209427  23.4964389  46.7281232  64.2883066  12.0288153
  47.2532556  64.6270339  11.3037473  46.6403584  63.3530081  11.8451288
  38.3901280  68.2017139  24.1578030  38.6988407  67.9566286  25.0300730
  39.1876762  68.4063778  23.6696900  38.4121892  70.3555049  16.3883406
  37.9726883  69.8631428  17.0816263  39.1630009  69.8128017  16.1475482
  30.8914231  66.5466590  16.3908035  31.7172251  66.2470362  16.0106678
  30.5408283  65.7774212  16.8397823  35.8595765  65.8993058  18.4605708
  35.2375774  65.2363763  18.1607936  36.5300632  65.9254190  17.7779356
  29.0922837  64.4652916  17.3496968  28.2554745  64.0375091  17.1680969
  29.0646482  64.6585360  18.2867759  35.9320292  54.3774846  28.0538214
  35.9808448  55.2536969  27.6715984  36.4742806  53.8352239  27.4809857
  35.4209272  64.4496981  11.9364169  35.5697392  65.1332446  11.2830841
  36.2275715  64.4302072  12.4513624  49.2386892  61.7558257  17.4116672
  50.0733783  62.1948061  17.5754232  49.3746021  61.2796910  16.5924917
  33.1761905  60.4762159  12.9425238  32.9307946  59.5724489  13.1405448
  33.3457819  60.4779310  12.0004716  40.8658614  51.3485835  22.3249993
  41.3840558  52.0846862  21.9996482  40.5113747  51.6549829  23.1596752
  32.4457552  56.2090517  10.4411399  31.7526797  56.2834872   9.7851435
  32.2009304  55.4450860  10.9632916  41.1171209  47.7686118  17.8450890
  41.3972962  47.1009307  18.4711316  41.9021816  47.9615214  17.3325554
  38.9204677  66.9445112   9.4075916  38.3478644  67.5635299   8.9546388
  39.4937471  67.4944474   9.9415838  42.1401937  67.2282262  10.5384498
  43.0732610  67.1627824  10.7417374  42.0525150  68.0638529  10.0799031
  44.7689954  66.5448132   7.4988446  44.6903585  66.2107996   8.3924204
  45.5899620  67.0369900   7.4979918  39.3051476  58.2805925   6.7491969
  40.2510580  58.1512133   6.8180387  38.9265721  57.5420587   7.2261397
  45.2773360  49.9461931  16.7118860  45.0798181  49.6377019  17.5962192
  45.8873066  50.6723570  16.8416790  37.4894393  56.2055901   6.6846854
  36.5825848  55.9089014   6.7609567  37.7670374  55.9085719   5.8181140
  28.4072333  57.5262264  17.1345900  28.0875117  56.6727573  16.8420274
  27.8605761  57.7410843  17.8903868  32.1852241  60.2424705  20.8515407
  32.4038250  61.1741813  20.8703441  32.5978014  59.8832680  21.6370211
  39.1056458  50.7492791  12.8391095  38.2957187  50.4039876  13.2146341
  39.7940875  50.4400335  13.4278707  41.0347007  49.8270838  14.4615392
  41.5878045  50.2466291  15.1205415  41.2717093  48.9006586  14.5038348
  37.0580106  55.8157911  30.2418156  36.9576833  56.7652268  30.1730247
  36.8401648  55.4876150  29.3694226  36.2593177  53.0642836   6.8258833
  37.1212341  53.3897735   7.0854650  36.4443522  52.2774332   6.3131899
  28.2760593  61.1465176  19.1039022  27.5824065  60.7319129  18.5908976
  29.0233584  61.1885712  18.5072441  44.4125814  51.9371363  13.9694056
  43.8324483  52.5956167  13.5872108  44.1461747  51.1148707  13.5581474
  42.8629380  51.3376420  16.1715376  43.3629159  51.4492955  15.3629695
  43.5064988  51.0337473  16.8116185  36.9211376  59.2455050  29.0583217
  36.4378458  60.0455410  29.2647106  37.0072315  59.2562995  28.1050661
  30.1897336  61.0783430  16.9805037  30.1668024  61.1771117  16.0286920
  30.4997972  61.9248581  17.3022203  32.8484714  63.1359585  21.0951651
  33.8027967  63.1043527  21.0281583  32.6497237  62.6750209  21.9101877
  33.4384096  61.7060701  23.6622449  34.2576985  62.2004779  23.6857286
  33.7120903  60.7892669  23.6340016  43.1950692  54.0971453  13.0250404
  42.3076547  54.3821104  12.8070599  43.6104681  53.9365216  12.1777681
  46.5465228  54.1217974  16.7404744  47.3225618  54.6114427  17.0129360
  45.8213362  54.5476028  17.1976613  31.2034942  68.6779204  18.1121849
  31.0689410  67.9179605  17.5459847  30.7867005  69.4020104  17.6450638
  42.3393905  63.8616128   7.1198424  43.0429755  64.0666130   7.7356080
  41.6156554  64.4292890   7.3847508  43.1691716  59.6125989  13.2400694
  43.1126917  60.0694540  12.4008327  43.7220058  58.8516674  13.0623537
  46.9796522  55.4015721  14.0650814  46.7233456  55.0012357  14.8959022
  46.3549390  56.1159515  13.9400953  51.2908859  58.1411794  16.5722105
  50.7308417  58.2104983  17.3453667  50.6852363  57.9652779  15.8521602
  34.3604068  69.5748521  18.3240292  34.2436452  70.5193954  18.2218982
  33.5396514  69.2722083  18.7126091  44.2480603  64.2998657   9.1696884
  45.0826207  63.8679855   8.9874359  44.0864946  64.1280671  10.0973779
  43.9026495  60.8030770  10.5353224  43.8475299  60.6375042   9.5941668
  43.2772550  61.5106803  10.6915413  28.6919010  56.0398835  24.3614646
  29.3377873  55.5297789  24.8501871  28.4836161  56.7767516  24.9358071
  37.2122620  50.3038879  10.1138542  37.2001290  51.2480719  10.2706813
  38.1046042  50.1209025   9.8198003  35.3858582  70.2276783  21.5396220
  36.2885829  70.2600393  21.8562715  35.1595952  69.2977234  21.5542556
  37.1412184  68.9807770  18.2006299  36.1907815  68.9809631  18.0870671
  37.4444670  68.2340504  17.6842333  41.0274740  46.8981656  14.3684479
  40.2607136  46.3440143  14.5141161  41.4385445  46.9703525  15.2298630
  33.0316501  53.1866452  28.4589660  33.8947962  52.8303257  28.6692985
  32.4581912  52.8480347  29.1465064  52.8764878  74.8168308  19.2652061
  53.5143288  74.6975055  18.5615401  52.7585721  75.7649152  19.3240013
  49.6854584  74.7695736  19.2013586  49.3473096  74.6536801  18.3134121
  50.5544352  74.3686901  19.1814592  45.5441400  76.6231213  15.1910477
  44.9806265  76.5321150  14.4226764  45.4293795  75.8031117  15.6712969
  50.1674367  75.9230588  25.1599791  50.1563008  75.5283386  24.2880295
  50.3295007  75.1896661  25.7533563  43.0905832  78.1182404  18.0294697
  43.8827124  77.7773229  17.6140997  43.3302482  78.2277379  18.9496851
  45.0496586  77.3791317  10.9012076  45.8227462  76.8320305  10.7624952
  45.4021985  78.2435567  11.1126537  46.8881628  78.7067700  24.1078975
  46.5971494  79.6113331  23.9925642  47.5238613  78.7484227  24.8223045
  47.8137835  76.0844548  20.6980335  48.4101407  75.8600571  19.9837298
  47.8712807  75.3429294  21.3005783  52.4306146  72.5419762  16.3405269
  53.2169236  72.1239185  15.9895686  52.6944851  73.4465854  16.5086918
  57.8314573  72.4794995  17.2438248  58.5639745  71.9094212  17.4776077
  57.0753929  72.0916596  17.6844753  47.1059152  75.4412090  10.7354901
  46.9895410  74.7656993  11.4035985  47.2161412  74.9544463   9.9187054
  49.4490693  74.9022237  14.4401590  49.0848900  74.3752858  15.1514512
  50.3057809  74.5120706  14.2668076  55.3539994  66.1916569  21.7032856
  55.0223319  67.0611980  21.4794071  54.7585607  65.8752853  22.3826887
  49.0896180  69.9312136   9.4362939  49.2570582  70.7992373   9.8033410
  48.8993349  70.0939418   8.5124228  51.8471513  78.3929115  21.1028769
  51.5472236  79.2954154  20.9944576  51.5022573  78.1261298  21.9549922
  45.2983995  74.8442912  17.1365473  44.3734491  74.7119126  17.3443165
  45.5468408  75.6237131  17.6335416  55.2468657  70.9111655  18.7826206
  54.3385534  70.8427064  18.4884967  55.1956253  71.3883600  19.6108032
  49.0685401  72.3869794  10.4209605  48.9485026  72.8326845  11.2595086
  48.3737989  72.7355112   9.8623144  42.6592806  74.4876186  17.9709262
  42.7885187  74.7410665  18.8848674  41.9790257  75.0803894  17.6513918
  49.3209523  72.3301301  26.7261104  48.5442857  72.8895221  26.7163968
  49.9600086  72.8158084  27.2475974  57.1130303  69.1128094  20.5604080
  56.4704684  69.4060627  19.9143875  56.6085232  68.9981014  21.3657277
  47.5755895  75.1386754  26.2879071  48.3170580  75.6771798  26.0113894
  46.8692881  75.7653043  26.4450622  53.0511235  77.2815895  24.8851232
  53.4594591  76.8398305  24.1405864  52.3288496  76.7068522  25.1385425
  49.4042305  72.2188502  22.2584789  50.2503500  72.6427915  22.4019438
  49.3440943  71.5622126  22.9523352  53.3740049  77.8417085  18.6403521
  52.7448912  78.0062800  17.9379589  52.9865712  78.2558695  19.4114485
  52.5541750  69.8792870  23.9165963  52.3102682  70.6334931  23.3800238
  52.8301681  70.2578218  24.7513210  54.5080213  76.4231482  22.5943228
  54.7197108  77.0663242  21.9177609  54.4609961  75.5893799  22.1265158
  52.1106442  69.0349303  19.4979800  51.2490921  69.3330557  19.7896538
  52.1368877  69.2519702  18.5660833  48.9268011  77.5791494  15.9053606
  49.3906357  77.8579197  15.1158229  48.6624809  76.6774938  15.7226697
  45.8192092  77.1262975  18.8433369  46.3893449  77.5550243  18.2050854
  46.4100204  76.8445560  19.5417555  47.8636897  73.7014646  12.7143171
  48.5660941  74.1535690  13.1817098  47.5317526  73.0598465  13.3423064
  46.3117259  72.2926403  27.0894381  45.6815920  72.9742683  27.3229777
  46.2053347  72.1809484  26.1447519  41.6062231  71.9598199  18.0160305
  40.8161285  72.2155727  17.5400415  42.0973479  72.7746536  18.1212345
  55.6226041  79.3003438  20.7665586  56.4443485  78.8983625  20.4848267
  55.6188444  79.1971672  21.7181701  43.5576977  72.3242778  14.9743781
  42.7608140  72.4361472  15.4927277  43.3302569  72.6629430  14.1084672
  49.3882644  78.8487481  22.9226296  49.4527077  79.3107888  23.7584468
  48.6793568  78.2184846  23.0508606  39.8899934  72.2128689  20.4475296
  40.1407973  73.0975699  20.7132872  40.4259483  72.0333291  19.6750387
  63.7132034  75.6442186  17.1150557  62.9595742  75.0749584  16.9594561
  63.8479575  75.6104851  18.0621192  42.5560059  78.0331027  13.3633202
  43.0684580  78.8274277  13.5138766  43.2082772  77.3357317  13.2966803
  44.3654944  81.1496783  15.4455955  44.5421572  82.0714748  15.2576939
  45.1611778  80.8355202  15.8750334  48.5065963  68.0105047  27.0439888
  49.2475676  68.6112201  26.9644351  48.7383885  67.2682685  26.4857931
  43.6507301  73.1961415  25.3218118  43.5360816  72.2946672  25.6225217
  42.7951818  73.4425112  24.9702934  50.7299138  81.1379155  26.9205618
  50.2862993  80.3515534  26.6026523  51.3916352  81.3258306  26.2549509
  45.4886260  82.6674957  21.4466297  46.0393685  82.5392020  20.6743291
  44.6497735  82.9669846  21.0961190  52.8280376  81.4181955  24.9487020
  52.8098852  82.2390836  24.4567289  53.7500297  81.2936030  25.1737161
  49.2853431  78.9326084  25.7910528  49.8181767  78.1714373  25.5609836
  48.7567512  78.6399736  26.5334683  52.4523126  64.0386150  21.3204170
  52.1087395  64.9287792  21.2443280  52.8202088  63.8487808  20.4573755
  40.5208976  76.3619681  14.1392772  41.3584198  76.7716689  13.9226480
  40.6987244  75.4219123  14.1092966  50.0020519  68.8744462  14.8861843
  49.1462116  68.4851313  14.7067482  50.4147471  68.9536423  14.0261629
  51.5319666  66.4090806  19.2853403  51.0284462  66.3720941  18.4721208
  51.8250273  67.3183548  19.3450060  47.7762552  66.4929535  18.2919585
  48.6415549  66.2972344  17.9325474  47.8440061  66.2639887  19.2188942
  52.2059711  71.9021854  11.6536386  51.9009847  72.2168003  12.5046529
  53.1590154  71.9803274  11.6963719  50.6506143  78.0612077  13.3029340
  50.1227505  77.3264837  12.9902578  50.1493646  78.8386753  13.0569308
  55.6298989  76.2561097  18.4196386  54.9722664  76.9460359  18.5076515
  56.4339389  76.6457529  18.7630373  45.3824871  68.7231743  15.6635952
  45.9568623  68.5006925  14.9309145  45.9695853  68.7920438  16.4164553
  54.4404448  74.6105470  16.4700328  54.9536330  75.2435462  16.9722038
  55.0905672  74.0106666  16.1043688  45.7094458  70.7536204   9.6831837
  44.8731770  71.0910891  10.0041112  45.5699228  70.6185184   8.7458974
  47.6847539  65.5972992  14.3911021  47.0311951  65.2822009  13.7667636
  47.6428013  64.9748733  15.1170844  50.9185279  72.0854926  18.7158669
  50.0007840  72.3069873  18.5580357  51.3345423  72.1601236  17.8570376
  51.7020327  73.4846341  13.8461349  52.4492146  73.9967739  13.5368471
  51.9711916  73.1630394  14.7065743  54.1499164  70.5203458  15.8280138
  53.4121921  70.0080844  16.1590381  54.4025937  70.0803839  15.0163415
  54.2510791  63.2979710  16.4221908  54.5569668  62.4377073  16.1347823
  54.9763396  63.8897330  16.2220901  40.5435147  73.7010396  14.8103505
  40.3459547  73.1079757  14.0854572  39.9881811  73.3962606  15.5279444
  48.5231871  73.5933503  16.9298099  48.5780481  72.6407339  16.8540575
  47.7123073  73.7492942  17.4139397  46.4624231  72.2110562  14.6888477
  45.6492096  72.5104733  15.0953670  46.9583225  71.8166251  15.4062960
  48.6132809  82.2068319  16.6222742  48.5708988  82.4329166  15.6931274
  49.5295508  81.9731694  16.7708543  52.0598443  72.6752387  23.5203371
  52.4147830  72.9023860  24.3797837  52.7070574  73.0070764  22.8980627
  45.9538306  69.7828918  20.3049712  46.5937685  69.6417677  19.6072676
  45.1215836  69.4963431  19.9288314  57.8165559  77.8647350  19.2363972
  58.2502066  77.7722639  20.0847026  58.5297140  77.8404850  18.5983988
  46.7298610  79.0831348  16.4184705  47.5239208  78.5881669  16.2167280
  46.0190302  78.5549212  16.0552410  51.5493454  81.4649444  20.7697073
  51.6030476  82.0340380  21.5374788  50.6808235  81.6351329  20.4051110
  43.0381373  73.2274430  12.4944458  42.1078961  73.1658886  12.7114420
  43.1338845  72.7050383  11.6981099  42.9566922  69.7529243  15.0822699
  43.2173739  70.6674576  14.9731860  43.7784094  69.2853686  15.2319312
  44.4291847  71.1667000  22.2521524  45.1014901  70.9584362  21.6034173
  43.6021634  70.9689086  21.8126756  58.6781109  77.9071050  21.7696857
  58.8716999  78.8116861  22.0156132  58.5781727  77.4478470  22.6035442
  50.3317419  67.7928941  24.2687185  49.6845334  68.4918891  24.1751661
  51.1018435  68.2265085  24.6363433  53.7396217  78.0577793  27.3437738
  53.5881724  77.8288345  26.4267822  53.7300897  79.0148395  27.3569083
  50.5081554  75.6309706  22.3284004  51.4373614  75.7820866  22.1552972
  50.0872584  75.7193727  21.4732651  49.3069886  79.6560370  20.0982542
  49.1680971  79.2879155  20.9708480  48.5184482  80.1708010  19.9266500
  50.8575101  79.0341973  17.4871380  50.5224933  78.9942743  18.3829030
  50.3579046  78.3686689  17.0141790  44.8319345  74.4409603  23.0123961
  44.6939143  73.7089842  23.6135500  45.7424268  74.3518503  22.7308149
  47.4601645  74.1529562  22.5007641  48.1701264  73.5122755  22.4594259
  47.4170953  74.4042457  23.4233821  55.4488424  81.0896916  25.4214220
  55.3900970  80.4056136  24.7544803  55.8507942  81.8315906  24.9694846
  46.1730579  71.1394780  24.3203280  45.6367936  70.6885519  24.9724876
  45.5847288  71.2740689  23.5773744  44.4679123  87.9058830  18.2147939
  44.7075721  88.5377354  18.8926957  43.6248319  87.5546870  18.5013298
  45.5832838  70.5983432   6.8829744  44.7062305  70.4772232   6.5191990
  46.0590591  69.8069510   6.6308632  55.4505831  79.0536500  23.6528199
  54.5632610  78.7162421  23.7754598  56.0204382  78.3219531  23.8896965
  37.1034978  75.3860591  16.9771251  37.7906018  75.0722321  16.3892266
  36.9483107  76.2901956  16.7038502  41.9069701  70.2750788  21.4056275
  41.8227889  69.6676458  20.6706684  41.0852407  70.7659806  21.4065771
  48.9806985  83.7137952  20.6189443  48.9077156  84.5192924  21.1308747
  48.5384378  83.9129918  19.7937464  52.0793414  68.7604352  16.7726470
  52.5762114  68.0074314  16.4527540  51.3080396  68.7968668  16.2069679
  59.9323172  74.4644717  18.4144761  59.9213048  75.3469432  18.0438694
  59.0640551  74.1116268  18.2199298  51.4405668  83.6124786  22.7747601
  52.1533640  84.2472251  22.7023503  50.9495697  83.7088652  21.9587603
  53.1623195  77.5176039  14.3464893  52.2279474  77.6377501  14.1769597
  53.3399864  76.6148506  14.0824903  48.6628383  70.9021735  16.4998154
  48.2926171  70.3492775  17.1879060  49.1587476  70.2979868  15.9473154
  56.5495746  73.3593358  14.8814927  57.0156199  74.1921350  14.8075230
  57.0003247  72.8938340  15.5860186  46.4917582  81.3619230  23.5953172
  47.1927041  81.9955713  23.7482566  46.0212697  81.7033961  22.8348811
  54.5212409  65.7273945  18.9205828  53.6075489  65.9578172  19.0888035
  54.9505511  65.8112389  19.7719861  54.2918868  73.9163837  21.4205723
  53.6390318  74.1639744  20.7658175  54.6699248  73.1027975  21.0868200
  50.3406441  74.6583648  27.9071760  49.6647078  74.5577777  28.5774135
  51.1634075  74.5022862  28.3707757  42.0885300  80.8955585  20.5284275
  42.6738737  80.1499272  20.6612179  41.8910138  81.2059541  21.4120939
  44.9423955  83.9306832  15.5446717  44.2734330  84.4152960  15.0610757
  44.8036825  84.1776052  16.4590096  36.6802955  73.4661185  19.2488718
  36.7187054  72.9324775  20.0425836  36.1743247  72.9396390  18.6299695
  49.0829224  85.9650575  22.1429376  49.6347532  86.1282197  22.9078461
  49.4235417  86.5555013  21.4709400  44.0593717  68.3125725  22.7451260
  44.1235043  69.1740556  22.3328658  43.9960837  67.6999727  22.0123619
  43.5345989  70.3848858  26.3924295  44.1618028  70.0025935  27.0061819
  42.6773908  70.1663060  26.7579987  53.9340098  80.7911833  27.9978030
  54.4780002  81.4041791  27.5032985  53.3526943  81.3491411  28.5145043
  40.3111532  72.1925287  12.3242649  40.6064973  71.2835965  12.2709703
  39.4099568  72.1713026  12.0023652  52.2197611  83.9132551  19.1293058
  52.0948750  83.1122291  18.6204003  52.8776702  84.4078744  18.6407028
  43.8405779  70.2681284  18.3070198  43.1192365  70.8817251  18.1677671
  44.6299035  70.8039048  18.2286844  54.2832519  81.7141571  20.7572608
  53.3362855  81.5946922  20.6850935  54.6315292  80.8264069  20.8398869
  46.6432093  67.6035710  24.5810850  47.1666494  67.8498007  25.3437159
  46.4244426  68.4355745  24.1613987  42.0399374  69.8739385  12.4481975
  41.7112080  68.9936764  12.2657080  42.3938744  69.8187053  13.3358364
  51.2878953  81.5094287  16.9576960  51.1403915  80.5810995  17.1384530
  52.1132446  81.5314378  16.4734035  45.1541197  70.1612354  12.8157452
  45.4937269  70.6898276  12.0936061  45.6013317  70.4992761  13.5916019
  54.8913074  82.3322846  18.0441833  55.8159622  82.1265707  17.9066284
  54.7228378  82.0839247  18.9531174  47.8484638  68.5449405  22.2660520
  47.5081458  67.7457218  22.6681200  47.1423644  68.8451116  21.6937353
  48.5001109  65.6298718  20.7187843  49.3227179  65.1559196  20.5966734
  48.7439173  66.4089201  21.2186530  47.1409344  68.6586976  11.0150745
  47.8617706  69.0368229  10.5114462  46.5174648  69.3775853  11.1185723
  51.2840467  69.3632125  11.9509077  51.5004081  70.2456763  11.6497905
  50.8034534  68.9718338  11.2214719  46.0239688  72.3217838  18.5279822
  45.8784269  72.6358141  19.4204103  45.5464892  72.9402739  17.9750721
  47.8836071  69.3120386  18.5760711  47.8697640  68.4161479  18.2393009
  48.6008499  69.3191050  19.2098997  49.7362202  69.7457726  20.6213839
  49.4779980  70.6674797  20.6198169  49.2047242  69.3488161  21.3114303
  40.4985350  74.8623183  21.4667483  39.9538818  75.6382991  21.5987757
  41.3764700  75.2093987  21.3086605  47.2872967  68.1934766  13.8448282
  47.4088878  67.2651413  14.0439169  46.9975009  68.2073452  12.9326597
  50.1564157  65.8789677  16.9815001  50.1785854  65.9429010  16.0266981
  50.5732216  65.0394186  17.1755508  41.2851372  73.9893079  24.3597640
  40.5433108  74.1375714  24.9462270  40.9644117  74.2501344  23.4964389
  49.2295035  83.5309057  24.1578030  49.5382161  83.2858204  25.0300730
  50.0270517  83.7355696  23.6696900  41.7307986  81.8758508  16.3908035
  42.5566006  81.5762279  16.0106678  41.3802038  81.1066130  16.8397823
  46.6989519  81.2284976  18.4605708  46.0769528  80.5655681  18.1607936
  47.3694386  81.2546108  17.7779356  39.9316591  79.7944834  17.3496968
  39.0948499  79.3667008  17.1680969  39.9040236  79.9877277  18.2867759
  46.7714047  69.7066764  28.0538214  46.8202202  70.5828887  27.6715984
  47.3136561  69.1644157  27.4809857  57.2568892  80.2507887  27.3339351
  56.4664436  80.2332026  26.7943851  57.0202247  80.7896181  28.0888388
  57.3766767  77.1000353  24.6472080  57.4264772  76.9350361  25.5887603
  57.2680691  76.2327612  24.2569961  54.6670530  73.0831281  25.9631387
  55.5680392  72.9437746  25.6715384  54.7418504  73.2485736  26.9029564
  49.0013335  70.4598136  24.8084573  48.1316644  70.7531702  24.5367161
  49.2372815  71.0438581  25.5291836  58.8784964  79.5197295  24.8914101
  58.5869772  79.8827276  25.7277562  58.2657095  78.8064303  24.7127433
  60.0780646  77.0850175  17.4116672  60.9127538  77.5239979  17.5754232
  60.2139775  76.6088828  16.5924917  57.1272152  74.6429910  23.3594159
  57.6026274  74.8357556  22.5513011  56.2037718  74.6989095  23.1137543
  44.0155659  75.8054077  12.9425238  43.7701701  74.9016407  13.1405448
  44.1851574  75.8071227  12.0004716  51.7052369  66.6777753  22.3249993
  52.2234313  67.4138780  21.9996482  51.3507502  66.9841746  23.1596752
  43.2851307  71.5382434  10.4411399  42.5920551  71.6126789   9.7851435
  43.0403058  70.7742778  10.9632916  51.9564963  63.0978036  17.8450890
  52.2366717  62.4301225  18.4711316  52.7415570  63.2907131  17.3325554
  55.8273821  71.5195670  21.5922465  56.7791244  71.6193767  21.6134689
  55.6577272  70.7273938  22.1020549  53.8488201  68.6051253  21.7781866
  53.2538133  68.8856266  21.0828354  53.5637898  69.0945154  22.5498607
  58.3061899  74.7401789  20.7064765  58.2738219  73.8017790  20.8924448
  58.9162523  74.8185826  19.9730589  58.4556388  71.5312833  20.7523048
  57.9395436  70.7471289  20.5652977  59.3396336  71.2031549  20.9169567
  56.1167115  65.2753848  16.7118860  55.9191936  64.9668937  17.5962192
  56.7266820  66.0015487  16.8416790  64.1238449  75.8017796  19.8470801
  64.8541838  75.5403084  20.4078505  63.5145395  75.0646518  19.8872869
  62.2053746  73.9425659  20.4445253  61.4786910  73.8081624  19.8361744
  61.7901033  74.2502487  21.2501971  50.0283923  77.6615588  28.2092626
  50.9486932  77.8394187  28.4032672  49.9933506  76.7171634  28.0572325
  39.2466088  72.8554182  17.1345900  38.9268872  72.0019490  16.8420274
  38.6999516  73.0702760  17.8903868  43.0245995  75.5716623  20.8515407
  43.2432005  76.5033731  20.8703441  43.4371769  75.2124598  21.6370211
  49.9450213  66.0784708  12.8391095  49.1350941  65.7331793  13.2146341
  50.6334630  65.7692252  13.4278707  51.8740761  65.1562755  14.4615392
  52.4271800  65.5758209  15.1205415  52.1110848  64.2298503  14.5038348
  47.8973860  71.1449829  30.2418156  47.7970587  72.0944186  30.1730247
  47.6795403  70.8168068  29.3694226  47.0986932  68.3934754   6.8258833
  47.9606096  68.7189652   7.0854650  47.2837276  67.6066250   6.3131899
  39.1154348  76.4757094  19.1039022  38.4217819  76.0611046  18.5908976
  39.8627339  76.5177630  18.5072441  55.2519568  67.2663280  13.9694056
  54.6718237  67.9248084  13.5872108  54.9855501  66.4440625  13.5581474
  53.7023135  66.6668338  16.1715376  54.2022913  66.7784873  15.3629695
  54.3458743  66.3629391  16.8116185  47.7605131  74.5746968  29.0583217
  47.2772212  75.3747328  29.2647106  47.8466070  74.5854913  28.1050661
  41.0291090  76.4075347  16.9805037  41.0061778  76.5063035  16.0286920
  41.3391727  77.2540498  17.3022203  43.6878468  78.4651502  21.0951651
  44.6421722  78.4335445  21.0281583  43.4890992  78.0042126  21.9101877
  44.2777850  77.0352618  23.6622449  45.0970739  77.5296697  23.6857286
  44.5514658  76.1184587  23.6340016  54.0344446  69.4263371  13.0250404
  53.1470301  69.7113021  12.8070599  54.4498435  69.2657134  12.1777681
  57.3858982  69.4509892  16.7404744  58.1619373  69.9406344  17.0129360
  56.6607117  69.8767946  17.1976613  59.8231541  70.1637511  17.7978684
  60.4176032  69.9233247  17.0871992  59.8958125  69.4444642  18.4252220
  42.0428697  84.0071122  18.1121849  41.9083165  83.2471523  17.5459847
  41.6260759  84.7312022  17.6450638  54.0085470  74.9417907  13.2400694
  53.9520671  75.3986458  12.4008327  54.5613813  74.1808591  13.0623537
  57.8190276  70.7307639  14.0650814  57.5627210  70.3304274  14.8959022
  57.1943144  71.4451433  13.9400953  62.1302614  73.4703712  16.5722105
  61.5702172  73.5396901  17.3453667  61.5246117  73.2944696  15.8521602
  45.1997823  84.9040439  18.3240292  45.0830207  85.8485871  18.2218982
  44.3790269  84.6014001  18.7126091  39.5312764  71.3690752  24.3614646
  40.1771628  70.8589706  24.8501871  39.3229915  72.1059434  24.9358071
  52.0566157  78.4371600  29.8606786  52.9257316  78.6112252  29.4993421
  51.5772908  79.2566017  29.7382516  48.0516375  65.6330797  10.1138542
  48.0395045  66.5772637  10.2706813  48.9439797  65.4500942   9.8198003
  46.2252337  85.5568701  21.5396220  47.1279583  85.5892311  21.8562715
  45.9989707  84.6269152  21.5542556  47.9805939  84.3099687  18.2006299
  47.0301570  84.3101549  18.0870671  48.2838425  83.5632422  17.6842333
  51.8668494  62.2273574  14.3684479  51.1000890  61.6732060  14.5141161
  52.2779199  62.2995442  15.2298630  61.0068122  91.2522506  25.1599791
  60.9956762  90.8575304  24.2880295  61.1688761  90.5188578  25.7533563
  66.1933748  81.5208487  21.7032856  65.8617073  82.3903898  21.4794071
  65.5979362  81.2044771  22.3826887  60.1603277  87.6593219  26.7261104
  59.3836611  88.2187139  26.7163968  60.7993840  88.1450002  27.2475974
  58.4149650  90.4678672  26.2879071  59.1564334  91.0063716  26.0113894
  57.7086635  91.0944961  26.4450622  63.3935505  85.2084788  23.9165963
  63.1496437  85.9626848  23.3800238  63.6695435  85.5870135  24.7513210
  57.1511013  87.6218320  27.0894381  56.5209674  88.3034601  27.3229777
  57.0447101  87.5101402  26.1447519  50.7293689  87.5420607  20.4475296
  50.9801727  88.4267617  20.7132872  51.2653237  87.3625208  19.6750387
  56.4291756  81.9239086  29.4519632  56.0358702  81.3705285  30.1267276
  57.2457896  82.2349665  29.8426149  59.3459717  83.3396965  27.0439888
  60.0869431  83.9404118  26.9644351  59.5777640  82.5974603  26.4857931
  54.4901055  88.5253332  25.3218118  54.3754570  87.6238590  25.6225217
  53.6345573  88.7717029  24.9702934  63.2916880  79.3678068  21.3204170
  62.9481149  80.2579710  21.2443280  63.6595843  79.1779726  20.4573755
  56.7932060  85.1120836  20.3049712  57.4331439  84.9709595  19.6072676
  55.9609591  84.8255349  19.9288314  55.2685602  86.4958918  22.2521524
  55.9408655  86.2876280  21.6034173  54.4415388  86.2981004  21.8126756
  61.1711174  83.1220859  24.2687185  60.5239089  83.8210808  24.1751661
  61.9412189  83.5557003  24.6363433  55.6713099  89.7701521  23.0123961
  55.5332897  89.0381760  23.6135500  56.5818023  89.6810421  22.7308149
  58.2995400  89.4821480  22.5007641  59.0095018  88.8414672  22.4594259
  58.2564708  89.7334375  23.4233821  57.0124334  86.4686698  24.3203280
  56.4761691  86.0177436  24.9724876  56.4241042  86.6032607  23.5773744
  52.7463455  85.6042706  21.4056275  52.6621644  84.9968375  20.6706684
  51.9246161  86.0951724  21.4065771  61.1800195  89.9875566  27.9071760
  60.5040832  89.8869695  28.5774135  62.0027829  89.8314779  28.3707757
  47.5196709  88.7953102  19.2488718  47.5580809  88.2616693  20.0425836
  47.0137002  88.2688308  18.6299695  54.8987471  83.6417643  22.7451260
  54.9628798  84.5032474  22.3328658  54.8354592  83.0291645  22.0123619
  54.3739744  85.7140776  26.3924295  55.0011783  85.3317853  27.0061819
  53.5167663  85.4954977  26.7579987  57.4825847  82.9327628  24.5810850
  58.0060249  83.1789924  25.3437159  57.2638180  83.7647663  24.1613987
  58.6878392  83.8741323  22.2660520  58.3475213  83.0749136  22.6681200
  57.9817398  84.1743034  21.6937353  59.3394864  80.9590635  20.7187843
  60.1620933  80.4851113  20.5966734  59.5832928  81.7381119  21.2186530
  51.3379105  90.1915100  21.4667483  50.7932573  90.9674908  21.5987757
  52.2158455  90.5385905  21.3086605  52.1245127  89.3184997  24.3597640
  51.3826863  89.4667632  24.9462270  51.8037871  89.5793262  23.4964389
  57.6107801  85.0358682  28.0538214  57.6595957  85.9120804  27.6715984
  58.1530315  84.4936075  27.4809857  65.5064284  88.4123199  25.9631387
  66.4074147  88.2729664  25.6715384  65.5812259  88.5777654  26.9029564
  59.8407090  85.7890054  24.8084573  58.9710399  86.0823620  24.5367161
  60.0766570  86.3730499  25.5291836  62.5446123  82.0069671  22.3249993
  63.0628067  82.7430698  21.9996482  62.1901256  82.3133664  23.1596752
  60.8677677  92.9907506  28.2092626  61.7880687  93.1686105  28.4032672
  60.8327260  92.0463552  28.0572325  58.7367615  86.4741747  30.2418156
  58.6364342  87.4236104  30.1730247  58.5189157  86.1459985  29.3694226
  58.5998885  89.9038885  29.0583217  58.1165967  90.7039246  29.2647106
  58.6859824  89.9146830  28.1050661  55.1171605  92.3644536  23.6622449
  55.9364494  92.8588615  23.6857286  55.3908412  91.4476504  23.6340016
  50.3706519  86.6982670  24.3614646  51.0165382  86.1881624  24.8501871
  50.1623670  87.4351352  24.9358071  54.7104010  83.8450287  28.4589660
  55.5735471  83.4887092  28.6692985  54.1369421  83.5064182  29.1465064
  28.4886859  22.2708875  11.8845098  28.4775500  21.8761673  11.0125602
  28.6507499  21.5374948  12.4778869  25.2094121  25.0545987  10.8324282
  24.9183986  25.9591618  10.7170948  25.8451105  25.0962515  11.5468352
  30.1684006  24.7407402   7.8274076  29.8684729  25.6432441   7.7189883
  29.8235065  24.4739586   8.6795229  27.6422015  18.6779588  13.4506410
  26.8655349  19.2373508  13.4409275  28.2812578  19.1636371  13.9721280
  25.8968387  21.4865042  13.0124377  26.6383072  22.0250086  12.7359201
  25.1905373  22.1131330  13.1695929  31.3723727  23.6294182  11.6096539
  31.7807083  23.1876593  10.8651171  30.6500989  23.0546810  11.8630732
  32.8292705  22.7709770   9.3188535  33.0409600  23.4141529   8.6422916
  32.7822453  21.9372086   8.8510465  33.9438533  25.6481725   7.4910892
  34.7655977  25.2461912   7.2093574  33.9400936  25.5449959   8.4427008
  27.7095137  25.1965768   9.6471603  27.7739569  25.6586176  10.4829775
  27.0006061  24.5663133   9.7753913  29.0511631  27.4857442  13.6450925
  28.6075485  26.6993821  13.3271830  29.7128844  27.6736593  12.9794816
  31.1492869  27.7660242  11.6732326  31.1311344  28.5869123  11.1812596
  32.0712789  27.6414317  11.8982468  27.6065923  25.2804372  12.5155835
  28.1394260  24.5192660  12.2855143  27.0780004  24.9878024  13.2579989
  36.1378051  24.2125637   5.9609279  36.5714558  24.1200926   6.8092333
  36.8509632  24.1883138   5.3229295  29.8705946  27.8127731   7.4942379
  29.9242969  28.3818667   8.2620095  29.0020728  27.9829616   7.1296416
  36.9993601  24.2549338   8.4942164  37.1929491  25.1595148   8.7401439
  36.8994219  23.7956757   9.3280749  32.0608710  24.4056080  14.0683045
  31.9094216  24.1766632  13.1513128  32.0513389  25.3626682  14.0814390
  33.7700916  27.4375203  12.1459526  33.7113462  26.7534423  11.4790109
  34.1720435  28.1794193  11.6940152  33.7718324  25.4014787  10.3773506
  32.8845102  25.0640709  10.4999905  34.3416875  24.6697818  10.6142272
  27.3019477  30.0616239   7.3434749  27.2289648  30.8671211   7.8554054
  26.8596870  30.2608205   6.5182771  29.7618160  29.9603073   9.4992908
  30.4746133  30.5950538   9.4268809  29.2708189  30.0566939   8.6832910
  24.8130074  27.7097517  10.3198479  25.5139534  28.3434000  10.4727873
  24.3425189  28.0512248   9.5594118  28.6618933  21.0061935  14.6317066
  27.9859570  20.9056065  15.3019441  29.4846567  20.8501149  15.0953063
  27.4041716  32.3128863   8.8674682  27.9560024  32.4760484   9.6323767
  27.7447909  32.9033301   8.1954707  32.2552590  27.1390120  14.7223337
  32.7992494  27.7520079  14.2278291  31.6739435  27.6969699  15.2390350
  30.5410103  30.2610838   5.8538364  30.4161243  29.4600578   5.3449310
  31.1989194  30.7557032   5.3652334  32.6045012  28.0619858   7.4817914
  31.6575347  27.9425210   7.4096241  32.9527785  27.1742356   7.5644176
  33.2125567  28.6801133   4.7687139  34.1372114  28.4743995   4.6311591
  33.0440870  28.4317534   5.6776481  27.5507527  29.8787344  10.8823337
  27.8594654  29.6336491  11.7546036  28.3483009  30.0833983  10.3942207
  35.5781385  26.5986174  14.0584658  34.7876928  26.5810313  13.5189157
  35.3414739  27.1374468  14.8133694  35.6979260  23.4478641  11.3717386
  35.7477265  23.2828648  12.3132909  35.5893183  22.5805900  10.9815267
  32.9883022  19.4309569  12.6876693  33.8892885  19.2916034  12.3960691
  33.0630997  19.5964024  13.6274871  37.1997456  25.8675582  11.6159408
  36.9082265  26.2305563  12.4522869  36.5869588  25.1542590  11.4372740
  35.4484645  20.9908197  10.0839466  35.9238766  21.1835843   9.2758317
  34.5250210  21.0467383   9.8382850  42.4450941  22.1496083   6.5716108
  43.1754330  21.8881372   7.1323811  41.8357887  21.4124805   6.6118176
  40.5266238  20.2903946   7.1690559  39.7999402  20.1559911   6.5607051
  40.1113525  20.5980775   7.9747277  28.3496415  24.0093876  14.9337932
  29.2699424  24.1872475  15.1277979  28.3145998  23.0649921  14.7817632
  26.2186353  17.4928116  16.9663462  26.1183080  18.4422473  16.8975553
  26.0007895  17.1646355  16.0939532  26.0817623  20.9225255  15.7828524
  25.5984704  21.7225615  15.9892413  26.1678562  20.9333200  14.8295968
  30.3778649  24.7849887  16.5852093  31.2469808  24.9590539  16.2238728
  29.8985400  25.6044304  16.4627822  24.5464829  31.9046988   8.2641527
  25.4492076  31.9370598   8.5808022  24.3202199  30.9747439   8.2787863
  42.0371125  36.4938513   5.9897368  42.6749535  36.3745260   5.2860708
  41.9191967  37.4419357   6.0485320  38.8460831  36.4465941   5.9258892
  38.5079342  36.3307006   5.0379427  39.7150599  36.0457106   5.9059899
  34.7047647  38.3001418   1.9155783  34.1412512  38.2091354   1.1472071
  34.5900042  37.4801322   2.3958276  39.3280614  37.6000793  11.8845098
  39.3169255  37.2053591  11.0125602  39.4901253  36.8666865  12.4778869
  32.2512078  39.7952609   4.7540004  33.0433370  39.4543434   4.3386303
  32.4908729  39.9047584   5.6742157  40.2847205  41.9672385  -2.7729752
  39.6335185  42.5526466  -3.1595738  41.0791568  42.4978580  -2.7134714
  36.0487875  40.3837905  10.8324282  35.7577741  41.2883536  10.7170948
  36.6844859  40.4254432  11.5468352  36.9744082  37.7614753   7.4225642
  37.5707654  37.5370776   6.7082605  37.0319053  37.0199499   8.0251089
  41.5912393  34.2189967   3.0650576  42.3775482  33.8009390   2.7140993
  41.8551097  35.1236059   3.2332224  41.7622470  39.6562817  -2.2360767
  41.1268303  39.7297444  -1.5239863  41.4319877  40.2456416  -2.9141688
  46.9920820  34.1565200   3.9683554  47.7245992  33.5864417   4.2021384
  46.2360176  33.7686801   4.4090060  38.6096940  36.5792442   1.1646897
  38.2455147  36.0523063   1.8759818  39.4664056  36.1890911   0.9913382
  44.5146241  27.8686774   8.4278163  44.1829565  28.7382185   8.2039378
  43.9191854  27.5523058   9.1072193  41.0077760  40.0699320   7.8274076
  40.7078483  40.9724359   7.7189883  40.6628820  39.8031503   8.6795229
  34.4590242  36.5213117   3.8610780  33.5340738  36.3889331   4.0688472
  34.7074655  37.3007336   4.3580722  44.4074904  32.5881860   5.5071513
  43.4991781  32.5197269   5.2130274  44.3562500  33.0653805   6.3353338
  31.8199053  36.1646391   4.6954569  31.9491434  36.4180869   5.6093981
  31.1396504  36.7574099   4.3759224  35.9898540  46.8343641   0.7945043
  35.9122570  47.7851466   0.8733524  35.3860183  46.4889513   1.4519970
  38.4815770  34.0071506  13.4506410  37.7049104  34.5665426  13.4409275
  39.1206333  34.4928289  13.9721280  46.2736550  30.7898299   7.2849387
  45.6310931  31.0830832   6.6389181  45.7691479  30.6751219   8.0902584
  43.9276714  34.5361472  -2.0264754  44.8394570  34.7688859  -2.2017056
  43.4186361  35.1198516  -2.5889675  36.7362142  36.8156959  13.0124377
  37.4776826  37.3542003  12.7359201  36.0299127  37.4423248  13.1695929
  42.2117482  38.9586100  11.6096539  42.6200838  38.5168510  10.8651171
  41.4894743  38.3838727  11.8630732  38.5648552  33.8958707   8.9830096
  39.4109747  34.3198120   9.1264745  38.5047189  33.2392331   9.6768659
  42.5346296  39.5187290   5.3648828  41.9055159  39.6833005   4.6624895
  42.1471958  39.9328900   6.1359792  46.4135528  40.4541728   2.7193191
  45.7286566  40.8340630   2.1690225  46.4979377  41.0637055   3.4525139
  41.7147997  31.5563075  10.6411269  41.4708929  32.3105135  10.1045545
  41.9907927  31.9348423  11.4758516  43.6686460  38.1001687   9.3188535
  43.8803355  38.7433447   8.6422916  43.6216208  37.2664004   8.8510465
  41.2712689  30.7119508   6.2225107  40.4097168  31.0100761   6.5141845
  41.2975123  30.9289907   5.2906140  38.0874258  39.2561698   2.6298913
  38.5512604  39.5349401   1.8403535  37.8231056  38.3545143   2.4472003
  34.9798339  38.8033180   5.5678676  35.5499696  39.2320448   4.9296160
  35.5706451  38.5215765   6.2662862  37.0243144  35.3784851  -0.5611522
  37.7267188  35.8305895  -0.0937596  36.6923773  34.7368670   0.0668371
  35.4723506  33.9696607  13.8139687  34.8422166  34.6512888  14.0475084
  35.3659594  33.8579689  12.8692825  30.7668478  33.6368404   4.7405611
  29.9767532  33.8925932   4.2645722  31.2579725  34.4516741   4.8457652
  44.7832288  40.9773643   7.4910892  45.6049731  40.5753830   7.2093574
  44.7794691  40.8741877   8.4427008  38.5488891  40.5257686   9.6471603
  38.6133324  40.9878093  10.4829775  37.8399815  39.8955051   9.7753913
  29.0506181  33.8898894   7.1720602  29.3014220  34.7745904   7.4378178
  29.5865730  33.7103495   6.3995694  52.8738281  37.3212391   3.8395864
  52.1201989  36.7519789   3.6839868  53.0085822  37.2875056   4.7866498
  38.2636909  42.1925793  -0.4849417  38.1282584  43.0377329  -0.0564569
  38.8046721  42.3945071  -1.2483483  34.7504248  28.2717373  16.1764938
  34.3571194  27.7183572  16.8512583  35.5670389  28.5827952  16.5671456
  31.7166306  39.7101232   0.0878508  32.2290827  40.5044482   0.2384073
  32.3689019  39.0127522   0.0212110  33.5261191  42.8266988   2.1701261
  33.7027819  43.7484952   1.9822245  34.3218024  42.5125407   2.5995641
  37.6672209  29.6875252  13.7685195  38.4081923  30.2882406  13.6889657
  37.8990132  28.9452890  13.2103237  32.8113547  34.8731620  12.0463425
  32.6967063  33.9716877  12.3470523  31.9558065  35.1195316  11.6948241
  39.8905385  42.8149360  13.6450925  39.4469239  42.0285739  13.3271830
  40.5522599  43.0028510  12.9794816  34.6492506  44.3445162   8.1711604
  35.1999931  44.2162225   7.3988598  33.8103982  44.6440051   7.8206496
  41.9886623  43.0952160  11.6732326  41.9705099  43.9161041  11.1812596
  42.9106543  42.9706235  11.8982468  38.4459677  40.6096289  12.5155835
  38.9788014  39.8484578  12.2855143  37.9173758  40.3169941  13.2579989
  41.6129372  25.7156355   8.0449477  41.2693642  26.6057997   7.9688587
  41.9808335  25.5258013   7.1819062  29.6815223  38.0389886   0.8638079
  30.5190445  38.4486894   0.6471786  29.8593491  37.0989328   0.8338273
  39.1626766  30.5514667   1.6107150  38.3068362  30.1621518   1.4312789
  39.5753718  30.6306628   0.7506936  40.6925913  28.0861011   6.0098710
  40.1890708  28.0491146   5.1966515  40.9856520  28.9953753   6.0695366
  36.9368799  28.1699740   5.0164892  37.8021795  27.9742549   4.6570781
  37.0046308  27.9410092   5.9434248  46.5513929  38.4597321  -1.5124915
  45.7743372  38.1208481  -1.9569753  47.2305410  38.4649944  -2.1869950
  41.3665958  33.5792059  -1.6218307  41.0616094  33.8938208  -0.7708164
  42.3196400  33.6573478  -1.5790974  39.8112390  39.7382282   0.0274647
  39.2833752  39.0035041  -0.2852116  39.3099893  40.5156958  -0.2185385
  44.7905236  37.9331302   5.1441693  44.1328911  38.6230564   5.2321822
  45.5945635  38.3227734   5.4875679  43.6010695  36.2875675   3.1945635
  44.1142577  36.9205667   3.6967345  44.2511919  35.6876871   2.8288995
  40.8633069  46.2659999  -4.0493694  40.1894768  46.5691696  -3.4408736
  41.2498891  47.0689080  -4.3988237  40.0791526  33.7625131   5.4403975
  39.1614087  33.9840078   5.2825663  40.4951669  33.8371441   4.5815683
  40.8626574  35.1616546   0.5706656  41.6098392  35.6737944   0.2613778
  41.1318163  34.8400599   1.4311049  39.1353224  37.6575087  -2.4466390
  38.2264443  37.3734120  -2.3493920  39.1648308  38.0774166  -3.3063083
  44.3672491  41.2681677   1.3224777  43.9134818  40.4272586   1.3789968
  43.7366458  41.9043075   1.6599558  43.3105411  32.1973663   2.5525445
  42.5728167  31.6851049   2.8835687  43.5632184  31.7574044   1.7408722
  42.8105430  43.1058173   2.2574596  43.1028405  43.6663230   1.5386961
  43.3204051  43.3986734   3.0127755  43.4117038  24.9749915   3.1467214
  43.7175915  24.1147278   2.8593129  44.1369643  25.5667535   2.9466208
  37.6838118  35.2703708   3.6543405  37.7386728  34.3177544   3.5785882
  36.8729320  35.4263147   4.1384704  35.6230478  33.8880767   1.4133784
  34.8098343  34.1874938   1.8198976  36.1189472  33.4936456   2.1308266
  37.7739056  43.8838524   3.3468049  37.7315234  44.1099371   2.4176581
  38.6901754  43.6501899   3.4953850  41.2204689  34.3522592  10.2448678
  41.5754077  34.5794065  11.1043144  41.8676821  34.6840969   9.6225933
  46.9502426  37.4741028   0.9498007  46.8120325  37.6642624   0.0219196
  46.5938645  38.2360411   1.4066058  35.1144552  31.4599123   7.0295019
  35.7543932  31.3187882   6.3317982  34.2822083  31.1733636   6.6533621
  46.9771806  39.5417555   5.9609279  47.4108313  39.4492844   6.8092333
  47.6903387  39.5175055   5.3229295  35.8904856  40.7601553   3.1430012
  36.6845455  40.2651873   2.9412587  35.1796549  40.2319416   2.7797717
  40.7099701  43.1419649   7.4942379  40.7636723  43.7110585   8.2620095
  39.8414482  43.3121534   7.1296416  33.5898094  32.8437205   8.9766830
  34.2621148  32.6354567   8.3279479  32.7627881  32.6459291   8.5372063
  47.8387355  39.5841255   8.4942164  48.0323246  40.4887066   8.7401439
  47.7387974  39.1248674   9.3280749  39.4923666  29.4699146  10.9932491
  38.8451581  30.1689096  10.8996968  40.2624682  29.9035290  11.3608739
  42.9002464  39.7347998  14.0683045  42.7487971  39.5058550  13.1513128
  42.8907144  40.6918600  14.0814390  39.6687801  37.3079911   9.0529311
  40.5979861  37.4591070   8.8798278  39.2478831  37.3963932   8.1977958
  38.4676132  41.3330575   6.8227849  38.3287218  40.9649360   7.6953787
  37.6790729  41.8478215   6.6511806  39.0624284  46.4339672  -1.8346615
  39.2376040  45.9627715  -1.0200992  38.3757072  47.0605438  -1.6065354
  40.0181347  40.7112178   4.2116686  39.6831180  40.6712948   5.1074336
  39.5185293  40.0456894   3.7387097  33.9925591  36.1179808   9.7369268
  33.8545389  35.3860047  10.3380807  34.9030515  36.0288708   9.4553455
  36.6207892  35.8299767   9.2252947  37.3307511  35.1892960   9.1839566
  36.5777200  36.0812662  10.1479128  44.6094671  42.7667121  12.1459526
  44.5507217  42.0826341  11.4790109  45.0114189  43.5086111  11.6940152
  35.3336826  32.8164985  11.0448587  34.7974183  32.3655724  11.6970183
  34.7453535  32.9510894  10.3019051  33.6285370  49.5829035   4.9393245
  33.8681968  50.2147559   5.6172264  32.7854566  49.2317075   5.2258605
  44.6112078  40.7306705  10.3773506  43.7238857  40.3932626  10.4999905
  45.1810629  39.9989736  10.6142272  26.2641225  37.0630796   3.7016557
  26.9512265  36.7492526   3.1137573  26.1089354  37.9672161   3.4283809
  31.0675947  31.9520993   8.1301581  30.9834136  31.3446662   7.3951991
  30.2458654  32.4430011   8.1311078  38.1413231  45.3908157   7.3434749
  38.0683403  46.1963128   7.8554054  37.6990625  45.5900123   6.5182771
  37.9303011  44.6279927   0.8537571  37.1470533  45.1701607   0.9475795
  38.6295756  45.1453907   1.2531812  41.2399661  30.4374556   3.4971776
  41.7368361  29.6844519   3.1772846  40.4686643  30.4738873   2.9314986
  49.0929419  36.1414922   5.1390068  49.0819295  37.0239637   4.7684001
  48.2246798  35.7886473   4.9444605  40.6011915  45.2894991   9.4992908
  41.3139887  45.9242456   9.4268809  40.1101944  45.3858857   8.6832910
  42.3229442  39.1946244   1.0710200  41.3885721  39.3147706   0.9014904
  42.5006110  38.2918710   0.8070209  37.8234630  32.5791939   3.2243461
  37.4532417  32.0262980   3.9124366  38.3193722  31.9750073   2.6718461
  45.7101993  35.0363563   1.6060234  46.1762445  35.8691555   1.5320536
  46.1609494  34.5708545   2.3105492  35.6523829  43.0389434  10.3198479
  36.3533288  43.6725917  10.4727873  35.1818943  43.3804166   9.5594118
  43.7778224  41.3807384  -1.3953614  44.0538068  41.2663979  -0.4859740
  42.9082723  40.9824869  -1.4341441  43.6818656  27.4044150   5.6451135
  42.7681736  27.6348377   5.8133342  44.1111757  27.4882594   6.4965167
  43.4525114  35.5934042   8.1451029  42.7996565  35.8409949   7.4903482
  43.8305494  34.7798180   7.8113506  40.4132288  45.6293735   2.2479199
  40.5954683  44.8115391   2.7106952  41.2365274  45.8461427   1.8104089
  40.7474454  44.5561920  -0.4905752  41.2762220  44.0454375  -1.1035590
  41.0102673  44.2404450   0.3739781  39.5012687  36.3353853  14.6317066
  38.8253325  36.2347982  15.3019441  40.3240321  36.1793067  15.0953063
  31.2491547  42.5725789   7.2529581  31.8344983  41.8269477   7.3857486
  31.0516385  42.8829746   8.1366245  34.1030202  45.6077037   2.2692024
  33.4340577  46.0923165   1.7856064  33.9643071  45.8546257   3.1835402
  25.8409201  35.1431390   5.9734025  25.8793301  34.6094980   6.7671143
  25.3349494  34.6166595   5.3545002  38.2435470  47.6420780   8.8674682
  38.7953778  47.8052402   9.6323767  38.5841664  48.2325218   8.1954707
  33.2199964  29.9895930   9.4696567  33.2841290  30.8510761   9.0573965
  33.1567084  29.3769932   8.7368925  32.6952236  32.0619063  13.1169601
  33.3224275  31.6796140  13.7307126  31.8380155  31.8433265  13.4825294
  43.0946345  42.4682038  14.7223337  43.6386249  43.0811996  14.2278291
  42.5133190  43.0261616  15.2390350  41.3803858  45.5902756   5.8538364
  41.2554997  44.7892496   5.3449310  42.0382949  46.0848949   5.3652334
  33.0012026  31.9451488   5.0315505  32.2798612  32.5587456   4.8922978
  33.7905282  32.4809253   4.9532151  43.4438766  43.3911776   7.4817914
  42.4969102  43.2717127   7.4096241  43.7921539  42.5034274   7.5644176
  35.8038339  29.2805915  11.3056156  36.3272741  29.5268211  12.0682466
  35.5850673  30.1125950  10.8859294  40.4485199  43.1864492   3.6822267
  40.3010162  42.2581200   3.8629837  41.2738693  43.2084583   3.1979342
  44.0519321  44.0093051   4.7687139  44.9765869  43.8035912   4.6311591
  43.8834625  43.7609452   5.6776481  37.0090884  30.2219610   8.9905827
  36.6687705  29.4227423   9.3926507  36.3029891  30.5221321   8.4182660
  37.6607356  27.3068922   7.4433150  38.4833426  26.8329401   7.3212040
  37.9045420  28.0859406   7.9431836  35.1845935  33.9988043   5.2525129
  35.0390516  34.3128346   6.1449410  34.7071139  34.6172943   4.6996027
  37.0442318  30.9890591   5.3006018  37.0303887  30.0931684   4.9638316
  37.7614746  30.9961255   5.9344304  38.8968449  31.4227931   7.3459146
  38.6386226  32.3445002   7.3443476  38.3653489  31.0258366   8.0359610
  43.8414637  44.5278718   0.1249231  44.0151515  43.9625141  -0.6276917
  44.3343529  45.3279613  -0.0571279  29.6591597  36.5393388   8.1912790
  29.1145065  37.3153195   8.3233064  30.5370947  36.8864192   8.0331911
  39.3170404  27.5559882   3.7060308  39.3392101  27.6199215   2.7512288
  39.7338463  26.7164390   3.9000814  49.6954029  37.2915141   1.7439531
  50.1385175  36.5422467   1.3458654  48.8180539  37.2825278   1.3613263
  44.8289810  43.8445483  -2.7753871  45.5240715  44.4652176  -2.5566556
  45.1712960  42.9940834  -2.5001493  30.4457619  35.6663284  11.0842947
  29.7039355  35.8145919  11.6707577  30.1250363  35.9271549  10.2209696
  46.7281233  41.2945188  -1.2466540  47.2532557  41.6332461  -1.9717220
  46.6403586  40.3592204  -1.4303405  38.3901282  45.2079262  10.8823337
  38.6988408  44.9628409  11.7546036  39.1876764  45.4125900  10.3942207
  38.4121894  47.3617172   3.1128713  37.9726884  46.8693550   3.8061570
  39.1630011  46.8190139   2.8720788  30.8914233  43.5528712   3.1153341
  31.7172253  43.2532484   2.7351985  30.5408285  42.7836335   3.5643130
  35.8595766  42.9055181   5.1851015  35.2375775  42.2425886   4.8853243
  36.5300633  42.9316313   4.5024663  29.0922838  41.4715039   4.0742275
  28.2554746  41.0437213   3.8926276  29.0646483  41.6647482   5.0113066
  35.9320293  31.3836969  14.7783521  35.9808449  32.2599092  14.3961290
  36.4742808  30.8414362  14.2055164  46.4175139  41.9278092  14.0584658
  45.6270683  41.9102231  13.5189157  46.1808494  42.4666386  14.8133694
  46.5373014  38.7770558  11.3717386  46.5871019  38.6120566  12.3132909
  46.4286937  37.9097817  10.9815267  35.4209273  41.4559104  -1.3390525
  35.5697393  42.1394568  -1.9923852  36.2275716  41.4364194  -0.8241069
  43.8276777  34.7601486  12.6876693  44.7286639  34.6207951  12.3960691
  43.9024751  34.9255941  13.6274871  38.1619582  32.1368341  11.5329879
  37.2922891  32.4301907  11.2612468  38.3979062  32.7208786  12.2537143
  48.0391211  41.1967500  11.6159408  47.7476019  41.5597480  12.4522869
  47.4263342  40.4834508  11.4372740  49.2386893  38.7620380   4.1361978
  50.0733785  39.2010184   4.2999539  49.3746022  38.2859033   3.3170224
  46.2878399  36.3200115  10.0839466  46.7632521  36.5127761   9.2758317
  45.3643965  36.3759300   9.8382850  40.8658616  28.3547958   9.0495300
  41.3840560  29.0908985   8.7241788  40.5113748  28.6611951   9.8842059
  41.1171210  24.7748241   4.5696196  41.3972964  24.1071430   5.1956623
  41.9021817  24.9677336   4.0570860  38.9204678  43.9507235  -3.8678777
  38.3478645  44.5697422  -4.3208305  39.4937472  44.5006596  -3.3338855
  44.9880068  33.1965875   8.3167772  45.9397491  33.2963972   8.3379996
  44.8183519  32.4044143   8.8265856  43.0094448  30.2821458   8.5027173
  42.4144380  30.5626471   7.8073661  42.7244144  30.7715359   9.2743914
  42.1401938  44.2344385  -2.7370195  43.0732611  44.1689946  -2.5337319
  42.0525151  45.0700651  -3.1955662  44.7689955  43.5510255  -5.7766247
  44.6903586  43.2170119  -4.8830489  45.5899622  44.0432023  -5.7774775
  47.4668146  36.4171994   7.4310071  47.4344466  35.4787995   7.6169755
  48.0768770  36.4956031   6.6975896  47.6162634  33.2083038   7.4768354
  47.1001683  32.4241494   7.2898283  48.5002583  32.8801754   7.6414874
  45.2773361  26.9524053   3.4364167  45.0798183  26.6439141   4.3207499
  45.8873067  27.6785692   3.5662097  53.2844696  37.4788001   6.5716108
  54.0148084  37.2173289   7.1323811  52.6751641  36.7416723   6.6118176
  51.3659993  35.6195864   7.1690559  50.6393157  35.4851829   6.5607051
  50.9507280  35.9272692   7.9747277  39.1890169  39.3385793  14.9337932
  40.1093179  39.5164392  15.1277979  39.1539752  38.3941839  14.7817632
  28.4072334  34.5324387   3.8591207  28.0875119  33.6789695   3.5665581
  27.8605763  34.7472965   4.6149174  32.1852242  37.2486828   7.5760713
  32.4038252  38.1803936   7.5948747  32.5978016  36.8894802   8.3615517
  37.0580107  32.8220034  16.9663462  36.9576834  33.7714391  16.8975553
  36.8401649  32.4938273  16.0939532  28.2760594  38.1527299   5.8284328
  27.5824066  37.7381251   5.3154283  29.0233585  38.1947835   5.2317747
  44.4125815  28.9433485   0.6939363  43.8324484  29.6018289   0.3117415
  44.1461748  28.1210830   0.2826780  42.8629381  28.3438543   2.8960683
  43.3629160  28.4555078   2.0875002  43.5064989  28.0399596   3.5361491
  36.9211377  36.2517173  15.7828524  36.4378459  37.0517533  15.9892413
  37.0072316  36.2625118  14.8295968  30.1897337  38.0845552   3.7050343
  30.1668025  38.1833240   2.7532226  30.4997973  38.9310703   4.0267509
  32.8484715  40.1421707   7.8196958  33.8027968  40.1105650   7.7526889
  32.6497238  39.6812331   8.6347184  33.4384097  38.7122823  10.3867755
  34.2576986  39.2066902  10.4102593  33.7120905  37.7954792  10.3585323
  43.1950693  31.1033576  -0.2504289  42.3076548  31.3883226  -0.4684094
  43.6104682  30.9427339  -1.0977012  46.5465229  31.1280097   3.4650050
  47.3225619  31.6176549   3.7374667  45.8213363  31.5538151   3.9221920
  48.9837788  31.8407716   4.5223991  49.5782279  31.6003452   3.8117299
  49.0564372  31.1214846   5.1497527  31.2034944  45.6841327   4.8367156
  31.0689411  44.9241728   4.2705154  30.7867006  46.4082227   4.3695945
  42.3393907  40.8678250  -6.1556269  43.0429757  41.0728253  -5.5398613
  41.6156555  41.4355012  -5.8907186  43.1691717  36.6188112  -0.0353999
  43.1126918  37.0756663  -0.8746366  43.7220059  35.8578796  -0.2131156
  46.9796523  32.4077844   0.7896121  46.7233457  32.0074479   1.6204328
  46.3549391  33.1221637   0.6646260  51.2908861  35.1473917   3.2967412
  50.7308419  35.2167106   4.0698974  50.6852364  34.9714901   2.5766908
  34.3604069  46.5810644   5.0485598  34.2436454  47.5256076   4.9464289
  33.5396516  46.2784205   5.4371397  44.2480604  41.3060780  -4.1057809
  45.0826208  40.8741978  -4.2880334  44.0864947  41.1342793  -3.1780915
  43.9026496  37.8092893  -2.7401470  43.8475300  37.6437164  -3.6813026
  43.2772551  38.5168926  -2.5839280  28.6919011  33.0460957  11.0859952
  29.3377875  32.5359911  11.5747178  28.4836162  33.7829639  11.6603378
  41.2172403  40.1141805  16.5852093  42.0863563  40.2882457  16.2238728
  40.7379155  40.9336222  16.4627822  35.3858584  47.2338906   8.2641527
  36.2885830  47.2662516   8.5808022  35.1595954  46.3039357   8.2787863
  37.1412186  45.9869892   4.9251605  36.1907817  45.9871754   4.8115978
  37.4444672  45.2402627   4.4087640  33.0316502  30.1928574  15.1834967
  33.8947964  29.8365379  15.3938291  32.4581913  29.8542469  15.8710371
  52.8764879  51.8230431   5.9897368  53.5143289  51.7037178   5.2860708
  52.7585722  52.7711275   6.0485320  49.6854585  51.7757859   5.9258892
  49.3473097  51.6598924   5.0379427  50.5544354  51.3749024   5.9059899
  45.5441401  53.6293335   1.9155783  44.9806266  53.5383272   1.1472071
  45.4293796  52.8093240   2.3958276  50.1674368  52.9292711  11.8845098
  50.1563009  52.5345509  11.0125602  50.3295008  52.1958783  12.4778869
  43.0905833  55.1244527   4.7540004  43.8827125  54.7835351   4.3386303
  43.3302483  55.2339502   5.6742157  45.0496587  54.3853440  -2.3742617
  45.8227463  53.8382427  -2.5129742  45.4021986  55.2497689  -2.1628156
  46.8881629  55.7129822  10.8324282  46.5971495  56.6175453  10.7170948
  47.5238614  55.7546350  11.5468352  47.8137836  53.0906671   7.4225642
  48.4101409  52.8662693   6.7082605  47.8712808  52.3491416   8.0251089
  52.4306148  49.5481885   3.0650576  53.2169237  49.1301308   2.7140993
  52.6944852  50.4527977   3.2332224  57.8314575  49.4857118   3.9683554
  58.5639747  48.9156335   4.2021384  57.0753930  49.0978718   4.4090060
  47.1059153  52.4474212  -2.5399792  46.9895412  51.7719116  -1.8718708
  47.2161413  51.9606586  -3.3567639  49.4490694  51.9084359   1.1646897
  49.0848902  51.3814980   1.8759818  50.3057810  51.5182828   0.9913382
  55.3539995  43.1978692   8.4278163  55.0223320  44.0674103   8.2039378
  54.7585608  42.8814976   9.1072193  49.0896181  46.9374259  -3.8391755
  49.2570584  47.8054495  -3.4721284  48.8993350  47.1001541  -4.7630465
  51.8471515  55.3991238   7.8274076  51.5472238  56.3016277   7.7189883
  51.5022574  55.1323421   8.6795229  45.2983996  51.8505035   3.8610780
  44.3734493  51.7181249   4.0688472  45.5468409  52.6299254   4.3580722
  55.2468658  47.9173778   5.5071513  54.3385536  47.8489186   5.2130274
  55.1956254  48.3945723   6.3353338  49.0685402  49.3931916  -2.8545088
  48.9485027  49.8388967  -2.0159608  48.3737991  49.7417234  -3.4131550
  42.6592807  51.4938308   4.6954569  42.7885188  51.7472787   5.6093981
  41.9790258  52.0866016   4.3759224  49.3209524  49.3363424  13.4506410
  48.5442858  49.8957344  13.4409275  49.9600087  49.8220207  13.9721280
  57.1130305  46.1190216   7.2849387  56.4704685  46.4122750   6.6389181
  56.6085233  46.0043137   8.0902584  47.5755896  52.1448877  13.0124377
  48.3170581  52.6833921  12.7359201  46.8692882  52.7715166  13.1695929
  53.0511236  54.2878017  11.6096539  53.4594592  53.8460428  10.8651171
  52.3288498  53.7130645  11.8630732  49.4042306  49.2250624   8.9830096
  50.2503501  49.6490038   9.1264745  49.3440944  48.5684249   9.6768659
  53.3740051  54.8479208   5.3648828  52.7448913  55.0124922   4.6624895
  52.9865713  55.2620818   6.1359792  52.5541751  46.8854993  10.6411269
  52.3102683  47.6397053  10.1045545  52.8301682  47.2640340  11.4758516
  54.5080214  53.4293605   9.3188535  54.7197109  54.0725365   8.6422916
  54.4609962  52.5955922   8.8510465  52.1106443  46.0411426   6.2225107
  51.2490922  46.3392679   6.5141845  52.1368878  46.2581824   5.2906140
  48.9268013  54.5853616   2.6298913  49.3906358  54.8641319   1.8403535
  48.6624811  53.6837061   2.4472003  45.8192094  54.1325098   5.5678676
  46.3893451  54.5612366   4.9296160  46.4100206  53.8507682   6.2662862
  47.8636899  50.7076769  -0.5611522  48.5660942  51.1597812  -0.0937596
  47.5317527  50.0660587   0.0668371  46.3117260  49.2988525  13.8139687
  45.6815921  49.9804806  14.0475084  46.2053348  49.1871607  12.8692825
  41.6062233  48.9660321   4.7405611  40.8161287  49.2217850   4.2645722
  42.0973480  49.7808659   4.8457652  55.6226042  56.3065560   7.4910892
  56.4443486  55.9045748   7.2093574  55.6188445  56.2033795   8.4427008
  43.5576978  49.3304900   1.6989088  42.7608141  49.4423595   2.2172584
  43.3302570  49.6691553   0.8329979  49.3882646  55.8549604   9.6471603
  49.4527078  56.3170011  10.4829775  48.6793569  55.2246969   9.7753913
  39.8899936  49.2190812   7.1720602  40.1407974  50.1037822   7.4378178
  40.4259484  49.0395413   6.3995694  63.7132035  52.6504309   3.8395864
  62.9595744  52.0811707   3.6839868  63.8479576  52.6166973   4.7866498
  45.5898003  43.6009291  16.1764938  45.1964948  43.0475490  16.8512583
  46.4064143  43.9119869  16.5671456  42.5560061  55.0393149   0.0878508
  43.0684581  55.8336399   0.2384073  43.2082773  54.3419440   0.0212110
  44.3654945  58.1558905   2.1701261  44.5421574  59.0776870   1.9822245
  45.1611779  57.8417325   2.5995641  48.5065964  45.0167170  13.7685195
  49.2475677  45.6174323  13.6889657  48.7383887  44.2744808  13.2103237
  43.6507302  50.2023537  12.0463425  43.5360817  49.3008795  12.3470523
  42.7951820  50.4487234  11.6948241  50.7299140  58.1441278  13.6450925
  50.2862994  57.3577656  13.3271830  51.3916353  58.3320428  12.9794816
  45.4886261  59.6737079   8.1711604  46.0393686  59.5454143   7.3988598
  44.6497737  59.9731968   7.8206496  52.8280378  58.4244078  11.6732326
  52.8098853  59.2452959  11.1812596  53.7500298  58.2998153  11.8982468
  49.2853432  55.9388207  12.5155835  49.8181769  55.1776495  12.2855143
  48.7567513  55.6461859  13.2579989  52.4523127  41.0448273   8.0449477
  52.1087396  41.9349915   7.9688587  52.8202089  40.8549931   7.1819062
  40.5208977  53.3681803   0.8638079  41.3584199  53.7778812   0.6471786
  40.6987245  52.4281246   0.8338273  50.0020521  45.8806585   1.6107150
  49.1462117  45.4913435   1.4312789  50.4147472  45.9598546   0.7506936
  51.5319667  43.4152928   6.0098710  51.0284463  43.3783063   5.1966515
  51.8250274  44.3245671   6.0695366  47.7762553  43.4991658   5.0164892
  48.6415550  43.3034467   4.6570781  47.8440062  43.2702010   5.9434248
  52.2059713  48.9083976  -1.6218307  51.9009848  49.2230125  -0.7708164
  53.1590155  48.9865396  -1.5790974  50.6506145  55.0674200   0.0274647
  50.1227506  54.3326959  -0.2852116  50.1493647  55.8448876  -0.2185385
  55.6298991  53.2623220   5.1441693  54.9722665  53.9522481   5.2321822
  56.4339390  53.6519652   5.4875679  45.3824872  45.7293866   2.3881258
  45.9568624  45.5069047   1.6554451  45.9695855  45.7982560   3.1409860
  54.4404449  51.6167593   3.1945635  54.9536331  52.2497585   3.6967345
  55.0905673  51.0168788   2.8288995  45.7094459  47.7598327  -3.5922856
  44.8731772  48.0973013  -3.2713582  45.5699229  47.6247307  -4.5295719
  47.6847540  42.6035115   1.1156328  47.0311952  42.2884132   0.4912943
  47.6428014  41.9810855   1.8416151  50.9185280  49.0917048   5.4403975
  50.0007842  49.3131995   5.2825663  51.3345424  49.1663359   4.5815683
  51.7020328  50.4908464   0.5706656  52.4492147  51.0029861   0.2613778
  51.9711918  50.1692517   1.4311049  54.1499165  47.5265580   2.5525445
  53.4121922  47.0142966   2.8835687  54.4025939  47.0865962   1.7408722
  54.2510792  40.3041832   3.1467214  54.5569669  39.4439196   2.8593129
  54.9763397  40.8959452   2.9466208  40.5435149  50.7072519   1.5348812
  40.3459548  50.1141880   0.8099879  39.9881813  50.4024729   2.2524751
  48.5231872  50.5995625   3.6543405  48.5780482  49.6469462   3.5785882
  47.7123074  50.7555064   4.1384704  46.4624232  49.2172685   1.4133784
  45.6492098  49.5166856   1.8198976  46.9583226  48.8228374   2.1308266
  48.6132810  59.2130442   3.3468049  48.5708989  59.4391288   2.4176581
  49.5295509  58.9793817   3.4953850  52.0598444  49.6814510  10.2448678
  52.4147832  49.9085983  11.1043144  52.7070575  50.0132886   9.6225933
  45.9538307  46.7891041   7.0295019  46.5937686  46.6479800   6.3317982
  45.1215837  46.5025554   6.6533621  57.8165560  54.8709472   5.9609279
  58.2502067  54.7784761   6.8092333  58.5297141  54.8466973   5.3229295
  46.7298611  56.0893471   3.1430012  47.5239209  55.5943791   2.9412587
  46.0190303  55.5611334   2.7797717  51.5493455  58.4711567   7.4942379
  51.6030478  59.0402503   8.2620095  50.6808237  58.6413452   7.1296416
  43.0381374  50.2336553  -0.7810236  42.1078962  50.1721008  -0.5640274
  43.1338846  49.7112505  -1.5773595  42.9566923  46.7591366   1.8068006
  43.2173741  47.6736699   1.6977166  43.7784096  46.2915808   1.9564619
  44.4291849  48.1729123   8.9766830  45.1014902  47.9646485   8.3279479
  43.6021635  47.9751209   8.5372063  58.6781110  54.9133173   8.4942164
  58.8717000  55.8178984   8.7401439  58.5781728  54.4540592   9.3280749
  50.3317421  44.7991064  10.9932491  49.6845336  45.4981013  10.8996968
  51.1018436  45.2327208  11.3608739  53.7396219  55.0639916  14.0683045
  53.5881725  54.8350467  13.1513128  53.7300898  56.0210517  14.0814390
  50.5081555  52.6371829   9.0529311  51.4373615  52.7882988   8.8798278
  50.0872585  52.7255849   8.1977958  49.3069887  56.6622493   6.8227849
  49.1680973  56.2941277   7.6953787  48.5184483  57.1770132   6.6511806
  50.8575102  56.0404096   4.2116686  50.5224935  56.0004866   5.1074336
  50.3579048  55.3748812   3.7387097  44.8319346  51.4471726   9.7369268
  44.6939144  50.7151965  10.3380807  45.7424269  51.3580626   9.4553455
  47.4601647  51.1591685   9.2252947  48.1701265  50.5184877   9.1839566
  47.4170955  51.4104580  10.1479128  55.4488425  58.0959038  12.1459526
  55.3900971  57.4118258  11.4790109  55.8507944  58.8378028  11.6940152
  46.1730581  48.1456903  11.0448587  45.6367938  47.6947641  11.6970183
  45.5847289  48.2802812  10.3019051  44.4679124  64.9120952   4.9393245
  44.7075722  65.5439476   5.6172264  43.6248321  64.5608992   5.2258605
  45.5832840  47.6045554  -6.3924950  44.7062306  47.4834355  -6.7562703
  46.0590593  46.8131633  -6.6446061  55.4505833  56.0598622  10.3773506
  54.5632611  55.7224544  10.4999905  56.0204384  55.3281654  10.6142272
  37.1034980  52.3922714   3.7016557  37.7906020  52.0784444   3.1137573
  36.9483108  53.2964079   3.4283809  41.9069702  47.2812911   8.1301581
  41.8227891  46.6738580   7.3951991  41.0852408  47.7721929   8.1311078
  48.9806986  60.7200075   7.3434749  48.9077157  61.5255046   7.8554054
  48.5384379  60.9192040   6.5182771  52.0793416  45.7666474   3.4971776
  52.5762115  45.0136436   3.1772846  51.3080397  45.8030791   2.9314986
  59.9323173  51.4706840   5.1390068  59.9213049  52.3531555   4.7684001
  59.0640553  51.1178390   4.9444605  51.4405669  60.6186909   9.4992908
  52.1533642  61.2534373   9.4268809  50.9495698  60.7150775   8.6832910
  53.1623196  54.5238161   1.0710200  52.2279475  54.6439624   0.9014904
  53.3399865  53.6210628   0.8070209  48.6628384  47.9083857   3.2243461
  48.2926172  47.3554897   3.9124366  49.1587477  47.3041991   2.6718461
  56.5495748  50.3655481   1.6060234  57.0156200  51.1983472   1.5320536
  57.0003248  49.9000462   2.3105492  46.4917583  58.3681352  10.3198479
  47.1927042  59.0017835  10.4727873  46.0212698  58.7096084   9.5594118
  54.5212410  42.7336068   5.6451135  53.6075490  42.9640294   5.8133342
  54.9505512  42.8174512   6.4965167  54.2918869  50.9225960   8.1451029
  53.6390319  51.1701867   7.4903482  54.6699249  50.1090098   7.8113506
  50.3406442  51.6645771  14.6317066  49.6647079  51.5639900  15.3019441
  51.1634076  51.5084984  15.0953063  42.0885301  57.9017707   7.2529581
  42.6738738  57.1561395   7.3857486  41.8910140  58.2121664   8.1366245
  44.9423956  60.9368955   2.2692024  44.2734332  61.4215082   1.7856064
  44.8036826  61.1838175   3.1835402  36.6802956  50.4723307   5.9734025
  36.7187055  49.9386898   6.7671143  36.1743249  49.9458513   5.3545002
  49.0829225  62.9712698   8.8674682  49.6347533  63.1344320   9.6323767
  49.4235418  63.5617136   8.1954707  44.0593718  45.3187848   9.4696567
  44.1235045  46.1802679   9.0573965  43.9960838  44.7061850   8.7368925
  43.5345991  47.3910980  13.1169601  44.1618029  47.0088058  13.7307126
  42.6773909  47.1725182  13.4825294  53.9340099  57.7973956  14.7223337
  54.4780003  58.4103914  14.2278291  53.3526944  58.3553534  15.2390350
  40.3111533  49.1987410  -0.9512044  40.6064974  48.2898088  -1.0044990
  39.4099569  49.1775149  -1.2731042  52.2197612  60.9194674   5.8538364
  52.0948752  60.1184413   5.3449310  52.8776703  61.4140867   5.3652334
  43.8405780  47.2743406   5.0315505  43.1192366  47.8879374   4.8922978
  44.6299036  47.8101171   4.9532151  54.2832521  58.7203694   7.4817914
  53.3362856  58.6009045   7.4096241  54.6315294  57.8326192   7.5644176
  46.6432094  44.6097833  11.3056156  47.1666496  44.8560129  12.0682466
  46.4244427  45.4417867  10.8859294  42.0399375  46.8801507  -0.8272719
  41.7112081  45.9998886  -1.0097613  42.3938746  46.8249176   0.0603670
  51.2878954  58.5156410   3.6822267  51.1403916  57.5873117   3.8629837
  52.1132447  58.5376501   3.1979342  45.1541198  47.1674477  -0.4597241
  45.4937271  47.6960398  -1.1818633  45.6013319  47.5054883   0.3161325
  54.8913076  59.3384969   4.7687139  55.8159623  59.1327830   4.6311591
  54.7228379  59.0901370   5.6776481  47.8484639  45.5511528   8.9905827
  47.5081459  44.7519341   9.3926507  47.1423645  45.8513239   8.4182660
  48.5001111  42.6360840   7.4433150  49.3227180  42.1621318   7.3212040
  48.7439174  43.4151324   7.9431836  47.1409345  45.6649099  -2.2603948
  47.8617708  46.0430351  -2.7640232  46.5174649  46.3837975  -2.1568970
  51.2840468  46.3694248  -1.3245616  51.5004083  47.2518885  -1.6256788
  50.8034535  45.9780461  -2.0539974  46.0239690  49.3279961   5.2525129
  45.8784270  49.6420264   6.1449410  45.5464893  49.9464861   4.6996027
  47.8836072  46.3182509   5.3006018  47.8697641  45.4223602   4.9638316
  48.6008501  46.3253173   5.9344304  49.7362203  46.7519849   7.3459146
  49.4779981  47.6736920   7.3443476  49.2047243  46.3550284   8.0359610
  40.4985352  51.8685305   8.1912790  39.9538820  52.6445113   8.3233064
  41.3764702  52.2156110   8.0331911  47.2872968  45.1996889   0.5693588
  47.4088880  44.2713535   0.7684476  46.9975011  45.2135575  -0.3428096
  50.1564159  42.8851799   3.7060308  50.1785856  42.9491133   2.7512288
  50.5732218  42.0456308   3.9000814  41.2851374  50.9955201  11.0842947
  40.5433110  51.1437837  11.6707577  40.9644118  51.2563467  10.2209696
  49.2295036  60.5371180  10.8823337  49.5382163  60.2920326  11.7546036
  50.0270518  60.7417818  10.3942207  41.7307987  58.8820630   3.1153341
  42.5566007  58.5824402   2.7351985  41.3802039  58.1128253   3.5643130
  46.6989520  58.2347098   5.1851015  46.0769530  57.5717803   4.8853243
  47.3694387  58.2608230   4.5024663  39.9316592  56.8006957   4.0742275
  39.0948501  56.3729131   3.8926276  39.9040238  56.9939400   5.0113066
  46.7714048  46.7128886  14.7783521  46.8202203  47.5891009  14.3961290
  47.3136562  46.1706279  14.2055164  57.2568894  57.2570010  14.0584658
  56.4664437  57.2394149  13.5189157  57.0202248  57.7958303  14.8133694
  57.3766769  54.1062476  11.3717386  57.4264774  53.9412483  12.3132909
  57.2680692  53.2389735  10.9815267  54.6670531  50.0893404  12.6876693
  55.5680394  49.9499869  12.3960691  54.7418506  50.2547859  13.6274871
  49.0013336  47.4660259  11.5329879  48.1316646  47.7593825  11.2612468
  49.2372817  48.0500704  12.2537143  58.8784965  56.5259418  11.6159408
  58.5869774  56.8889398  12.4522869  58.2657097  55.8126426  11.4372740
  60.0780648  54.0912297   4.1361978  60.9127539  54.5302101   4.2999539
  60.2139777  53.6150951   3.3170224  57.1272154  51.6492032  10.0839466
  57.6026275  51.8419679   9.2758317  56.2037719  51.7051218   9.8382850
  44.0155660  52.8116199  -0.3329456  43.7701702  51.9078529  -0.1349246
  44.1851575  52.8133350  -1.2749978  51.7052370  43.6839876   9.0495300
  52.2234314  44.4200903   8.7241788  51.3507503  43.9903869   9.8842059
  43.2851308  48.5444557  -2.8343294  42.5920553  48.6188912  -3.4903258
  43.0403060  47.7804901  -2.3121777  51.9564964  40.1040158   4.5696196
  52.2366718  39.4363347   5.1956623  52.7415571  40.2969254   4.0570860
  55.8273823  48.5257792   8.3167772  56.7791246  48.6255890   8.3379996
  55.6577273  47.7336061   8.8265856  53.8488202  45.6113375   8.5027173
  53.2538134  45.8918388   7.8073661  53.5637899  46.1007276   9.2743914
  58.3061900  51.7463912   7.4310071  58.2738221  50.8079913   7.6169755
  58.9162524  51.8247949   6.6975896  58.4556389  48.5374955   7.4768354
  57.9395438  47.7533412   7.2898283  59.3396337  48.2093672   7.6414874
  56.1167116  42.2815971   3.4364167  55.9191937  41.9731059   4.3207499
  56.7266821  43.0077610   3.5662097  64.1238450  52.8079919   6.5716108
  64.8541839  52.5465207   7.1323811  63.5145396  52.0708641   6.6118176
  62.2053747  50.9487781   7.1690559  61.4786911  50.8143746   6.5607051
  61.7901034  51.2564610   7.9747277  50.0283924  54.6677711  14.9337932
  50.9486933  54.8456310  15.1277979  49.9933507  53.7233756  14.7817632
  39.2466089  49.8616305   3.8591207  38.9268873  49.0081613   3.5665581
  38.6999517  50.0764883   4.6149174  43.0245996  52.5778746   7.5760713
  43.2432006  53.5095854   7.5948747  43.4371770  52.2186720   8.3615517
  49.9450214  43.0846831  -0.4363598  49.1350943  42.7393916  -0.0608352
  50.6334631  42.7754375   0.1524013  51.8740762  42.1624878   1.1860698
  52.4271801  42.5820331   1.8450722  52.1110849  41.2360626   1.2283654
  47.8973862  48.1511951  16.9663462  47.7970589  49.1006308  16.8975553
  47.6795404  47.8230190  16.0939532  47.0986933  45.3996877  -6.4495860
  47.9606097  45.7251775  -6.1900043  47.2837277  44.6128372  -6.9622795
  39.1154349  53.4819216   5.8284328  38.4217820  53.0673169   5.3154283
  39.8627340  53.5239753   5.2317747  55.2519570  44.2725403   0.6939363
  54.6718239  44.9310207   0.3117415  54.9855502  43.4502748   0.2826780
  53.7023136  43.6730461   2.8960683  54.2022914  43.7846995   2.0875002
  54.3458744  43.3691514   3.5361491  47.7605132  51.5809090  15.7828524
  47.2772213  52.3809450  15.9892413  47.8466071  51.5917035  14.8295968
  41.0291091  53.4137470   3.7050343  41.0061779  53.5125157   2.7532226
  41.3391728  54.2602621   4.0267509  43.6878469  55.4713625   7.8196958
  44.6421723  55.4397567   7.7526889  43.4890993  55.0104249   8.6347184
  44.2777851  54.0414741  10.3867755  45.0970740  54.5358820  10.4102593
  44.5514659  53.1246709  10.3585323  54.0344448  46.4325493  -0.2504289
  53.1470303  46.7175144  -0.4684094  54.4498437  46.2719257  -1.0977012
  57.3858984  46.4572014   3.4650050  58.1619374  46.9468467   3.7374667
  56.6607118  46.8830069   3.9221920  59.8231542  47.1699634   4.5223991
  60.4176033  46.9295370   3.8117299  59.8958126  46.4506764   5.1497527
  42.0428698  61.0133245   4.8367156  41.9083166  60.2533645   4.2705154
  41.6260760  61.7374144   4.3695945  54.0085471  51.9480029  -0.0353999
  53.9520673  52.4048581  -0.8746366  54.5613814  51.1870714  -0.2131156
  57.8190277  47.7369761   0.7896121  57.5627211  47.3366397   1.6204328
  57.1943145  48.4513555   0.6646260  62.1302615  50.4765834   3.2967412
  61.5702173  50.5459024   4.0698974  61.5246118  50.3006819   2.5766908
  45.1997824  61.9102562   5.0485598  45.0830208  62.8547994   4.9464289
  44.3790270  61.6076123   5.4371397  39.5312766  48.3752875  11.0859952
  40.1771629  47.8651829  11.5747178  39.3229917  49.1121557  11.6603378
  52.0566158  55.4433722  16.5852093  52.9257317  55.6174375  16.2238728
  51.5772909  56.2628139  16.4627822  48.0516376  42.6392920  -3.1616151
  48.0395046  43.5834759  -3.0047880  48.9439798  42.4563065  -3.4556690
  46.2252338  62.5630823   8.2641527  47.1279585  62.5954434   8.5808022
  45.9989708  61.6331274   8.2787863  47.9805940  61.3161810   4.9251605
  47.0301571  61.3163672   4.8115978  48.2838426  60.5694545   4.4087640
  51.8668496  39.2335696   1.0929785  51.1000891  38.6794183   1.2386468
  52.2779201  39.3057565   1.9543937  43.8710257  45.5220492  15.1834967
  44.7341718  45.1657297  15.3938291  43.2975667  45.1834387  15.8710371
  61.0068123  68.2584628  11.8845098  60.9956764  67.8637426  11.0125602
  61.1688762  67.5250701  12.4778869  66.1933750  58.5270610   8.4278163
  65.8617074  59.3966020   8.2039378  65.5979363  58.2106894   9.1072193
  60.1603279  64.6655341  13.4506410  59.3836613  65.2249261  13.4409275
  60.7993842  65.1512124  13.9721280  58.4149651  67.4740795  13.0124377
  59.1564335  68.0125839  12.7359201  57.7086636  68.1007083  13.1695929
  63.3935506  62.2146910  10.6411269  63.1496438  62.9688971  10.1045545
  63.6695436  62.5932258  11.4758516  57.1511015  64.6280443  13.8139687
  56.5209675  65.3096724  14.0475084  57.0447103  64.5163524  12.8692825
  50.7293690  64.5482729   7.1720602  50.9801729  65.4329739   7.4378178
  51.2653238  64.3687331   6.3995694  56.4291757  58.9301209  16.1764938
  56.0358703  58.3767407  16.8512583  57.2457898  59.2411787  16.5671456
  59.3459718  60.3459088  13.7685195  60.0869432  60.9466241  13.6889657
  59.5777641  59.6036726  13.2103237  54.4901056  65.5315455  12.0463425
  54.3754572  64.6300712  12.3470523  53.6345574  65.7779152  11.6948241
  63.2916881  56.3740191   8.0449477  62.9481151  57.2641832   7.9688587
  63.6595844  56.1841848   7.1819062  56.7932061  62.1182958   7.0295019
  57.4331441  61.9771717   6.3317982  55.9609592  61.8317472   6.6533621
  55.2685603  63.5021040   8.9766830  55.9408657  63.2938403   8.3279479
  54.4415390  63.3043126   8.5372063  61.1711175  60.1282981  10.9932491
  60.5239090  60.8272931  10.8996968  61.9412191  60.5619125  11.3608739
  55.6713100  66.7763643   9.7369268  55.5332898  66.0443882  10.3380807
  56.5818024  66.6872543   9.4553455  58.2995401  66.4883603   9.2252947
  59.0095020  65.8476795   9.1839566  58.2564709  66.7396498  10.1479128
  57.0124335  63.4748821  11.0448587  56.4761692  63.0239559  11.6970183
  56.4241044  63.6094729  10.3019051  52.7463456  62.6104828   8.1301581
  52.6621645  62.0030498   7.3951991  51.9246163  63.1013847   8.1311078
  61.1800196  66.9937688  14.6317066  60.5040833  66.8931818  15.3019441
  62.0027830  66.8376902  15.0953063  47.5196710  65.8015225   5.9734025
  47.5580810  65.2678816   6.7671143  47.0137003  65.2750431   5.3545002
  54.8987473  60.6479766   9.4696567  54.9628799  61.5094596   9.0573965
  54.8354593  60.0353767   8.7368925  54.3739745  62.7202898  13.1169601
  55.0011784  62.3379975  13.7307126  53.5167664  62.5017100  13.4825294
  57.4825848  59.9389750  11.3056156  58.0060250  60.1852047  12.0682466
  57.2638182  60.7709785  10.8859294  58.6878393  60.8803445   8.9905827
  58.3475214  60.0811258   9.3926507  57.9817400  61.1805156   8.4182660
  59.3394865  57.9652758   7.4433150  60.1620935  57.4913236   7.3212040
  59.5832929  58.7443242   7.9431836  51.3379106  67.1977223   8.1912790
  50.7932574  67.9737031   8.3233064  52.2158456  67.5448027   8.0331911
  52.1245128  66.3247119  11.0842947  51.3826864  66.4729754  11.6707577
  51.8037872  66.5855385  10.2209696  57.6107802  62.0420804  14.7783521
  57.6595958  62.9182927  14.3961290  58.1530317  61.4998197  14.2055164
  65.5064285  65.4185322  12.6876693  66.4074148  65.2791787  12.3960691
  65.5812260  65.5839777  13.6274871  59.8407091  62.7952177  11.5329879
  58.9710400  63.0885743  11.2612468  60.0766571  63.3792622  12.2537143
  62.5446125  59.0131793   9.0495300  63.0628069  59.7492820   8.7241788
  62.1901257  59.3195787   9.8842059  60.8677678  69.9969629  14.9337932
  61.7880688  70.1748228  15.1277979  60.8327261  69.0525674  14.7817632
  58.7367616  63.4803869  16.9663462  58.6364343  64.4298226  16.8975553
  58.5189158  63.1522108  16.0939532  58.5998886  66.9101008  15.7828524
  58.1165968  67.7101368  15.9892413  58.6859825  66.9208953  14.8295968
  55.1171606  69.3706659  10.3867755  55.9364495  69.8650737  10.4102593
  55.3908414  68.4538627  10.3585323  50.3706520  63.7044793  11.0859952
  51.0165384  63.1943747  11.5747178  50.1623671  64.4413474  11.6603378
  62.8959912  70.7725640  16.5852093  63.7651072  70.9466292  16.2238728
  62.4166664  71.5920057  16.4627822  54.7104011  60.8512410  15.1834967
  55.5735473  60.4949215  15.3938291  54.1369422  60.5126305  15.8710371
  46.8881631  32.7191945  -2.4430411  46.5971497  33.6237576  -2.5583745
  47.5238615  32.7608473  -1.7286342  51.8471516  32.4053360  -5.4480618
  51.5472239  33.3078399  -5.5564811  51.5022575  32.1385544  -4.5959465
  49.3209525  26.3425546   0.1751717  48.5442859  26.9019466   0.1654581
  49.9600088  26.8282329   0.6966587  47.5755898  29.1511000  -0.2630316
  48.3170582  29.6896044  -0.5395493  46.8692883  29.7777288  -0.1058764
  53.0511237  31.2940140  -1.6658155  53.4594593  30.8522551  -2.4103522
  52.3288499  30.7192768  -1.4123962  54.5080215  30.4355728  -3.9566158
  54.7197111  31.0787487  -4.6331777  54.4609964  29.6018044  -4.4244228
  55.6226043  33.3127683  -5.7843801  56.4443487  32.9107870  -6.0661120
  55.6188446  33.2095917  -4.8327685  49.3882647  32.8611726  -3.6283091
  49.4527079  33.3232133  -2.7924919  48.6793571  32.2309091  -3.5000781
  50.7299141  35.1503400   0.3696232  50.2862995  34.3639779   0.0517136
  51.3916354  35.3382551  -0.2959877  52.8280379  35.4306200  -1.6022367
  52.8098854  36.2515081  -2.0942098  53.7500299  35.3060275  -1.3772226
  49.2853433  32.9450330  -0.7598859  49.8181770  32.1838618  -0.9899551
  48.7567514  32.6523981  -0.0174704  57.8165562  31.8771595  -7.3145415
  58.2502068  31.7846884  -6.4662361  58.5297142  31.8529095  -7.9525399
  51.5493457  35.4773689  -5.7812314  51.6030479  36.0464625  -5.0134598
  50.6808238  35.6475574  -6.1458277  58.6781111  31.9195296  -4.7812529
  58.8717001  32.8241106  -4.5353254  58.5781729  31.4602715  -3.9473944
  53.7396220  32.0702038   0.7928351  53.5881726  31.8412590  -0.1241565
  53.7300899  33.0272640   0.8059696  55.4488427  35.1021161  -1.1295167
  55.3900973  34.4180381  -1.7964584  55.8507945  35.8440151  -1.5814541
  55.4505834  33.0660745  -2.8981187  54.5632613  32.7286667  -2.7754788
  56.0204385  32.3343776  -2.6612422  48.9806987  37.7262197  -5.9319944
  48.9077159  38.5317169  -5.4200639  48.5384380  37.9254163  -6.7571923
  51.4405671  37.6249031  -3.7761785  52.1533643  38.2596496  -3.8485884
  50.9495699  37.7212897  -4.5921784  46.4917584  35.3743475  -2.9556215
  47.1927044  36.0079958  -2.8026820  46.0212699  35.7158206  -3.7160575
  50.3406443  28.6707893   1.3562373  49.6647080  28.5702023   2.0264748
  51.1634077  28.5147107   1.8198370  49.0829226  39.9774821  -4.4080011
  49.6347534  40.1406442  -3.6430926  49.4235420  40.5679259  -5.0799986
  53.9340100  34.8036078   1.4468643  54.4780004  35.4166036   0.9523598
  53.3526945  35.3615657   1.9635656  52.2197613  37.9256796  -7.4216329
  52.0948753  37.1246536  -7.9305383  52.8776705  38.4202990  -7.9102359
  54.2832522  35.7265816  -5.7936779  53.3362857  35.6071167  -5.8658452
  54.6315295  34.8388314  -5.7110517  54.8913077  36.3447091  -8.5067554
  55.8159624  36.1389953  -8.6443103  54.7228380  36.0963492  -7.5978212
  49.2295037  37.5433302  -2.3931357  49.5382164  37.2982449  -1.5208657
  50.0270519  37.7479941  -2.8812487  57.2568895  34.2632132   0.7829965
  56.4664439  34.2456271   0.2434464  57.0202249  34.8020426   1.5379001
  57.3766770  31.1124599  -1.9037307  57.4264775  30.9474606  -0.9621784
  57.2680693  30.2451858  -2.2939426  54.6670532  27.0955527  -0.5878000
  55.5680395  26.9561992  -0.8794002  54.7418507  27.2609982   0.3520177
  58.8784967  33.5321540  -1.6595285  58.5869775  33.8951521  -0.8231824
  58.2657098  32.8188548  -1.8381953  57.1272155  28.6554155  -3.1915227
  57.6026277  28.8481801  -3.9996376  56.2037720  28.7113341  -3.4371844
  50.0283925  31.6739834   1.6583239  50.9486935  31.8518433   1.8523285
  49.9933508  30.7295879   1.5062938  47.8973863  25.1574074   3.6908769
  47.7970590  26.1068431   3.6220860  47.6795405  24.8292313   2.8184839
  47.7605133  28.5871213   2.5073831  47.2772215  29.3871573   2.7137720
  47.8466072  28.5979158   1.5541275  52.0566159  32.4495845   3.3097400
  52.9257319  32.6236497   2.9484035  51.5772911  33.2690262   3.1873129
  46.2252339  39.5692946  -5.0113167  47.1279586  39.6016556  -4.6946672
  45.9989709  38.6393397  -4.9966831  61.0068124  45.2646751  -1.3909595
  60.9956765  44.8699549  -2.2629092  61.1688764  44.5312823  -0.7975824
  60.1603280  41.6717464   0.1751717  59.3836614  42.2311384   0.1654581
  60.7993843  42.1574247   0.6966587  58.4149652  44.4802917  -0.2630316
  59.1564337  45.0187961  -0.5395493  57.7086638  45.1069206  -0.1058764
  63.3935507  39.2209033  -2.6343424  63.1496439  39.9751093  -3.1709148
  63.6695438  39.5994380  -1.7996177  57.1511016  41.6342565   0.5384994
  56.5209677  42.3158846   0.7720391  57.0447104  41.5225647  -0.4061868
  50.7293691  41.5544852  -6.1034091  50.9801730  42.4391862  -5.8376515
  51.2653240  41.3749453  -6.8758999  56.4291759  35.9363331   2.9010245
  56.0358704  35.3829530   3.5757889  57.2457899  36.2473910   3.2916762
  59.3459720  37.3521210   0.4930501  60.0869433  37.9528364   0.4134964
  59.5777642  36.6098848  -0.0651456  54.4901058  42.5377578  -1.2291269
  54.3754573  41.6362835  -0.9284170  53.6345575  42.7841274  -1.5806452
  56.7932063  39.1245081  -6.2459674  57.4331442  38.9833840  -6.9436711
  55.9609593  38.8379594  -6.6221072  55.2685604  40.5083163  -4.2987863
  55.9408658  40.3000525  -4.9475214  54.4415391  40.3105249  -4.7382631
  61.1711176  37.1345104  -2.2822202  60.5239091  37.8335054  -2.3757726
  61.9412192  37.5681248  -1.9145954  55.6713102  43.7825766  -3.5385426
  55.5332900  43.0506005  -2.9373887  56.5818025  43.6934666  -3.8201238
  58.2995402  43.4945725  -4.0501746  59.0095021  42.8538917  -4.0915128
  58.2564711  43.7458620  -3.1275565  57.0124336  40.4810943  -2.2306107
  56.4761693  40.0301682  -1.5784510  56.4241045  40.6156852  -2.9735642
  52.7463458  39.6166951  -5.1453112  52.6621646  39.0092620  -5.8802702
  51.9246164  40.1075969  -5.1443616  61.1800198  43.9999811   1.3562373
  60.5040835  43.8993940   2.0264748  62.0027832  43.8439025   1.8198370
  47.5196712  42.8077348  -7.3020669  47.5580811  42.2740938  -6.5083551
  47.0137004  42.2812553  -7.9209692  54.8987474  37.6541888  -3.8058126
  54.9628800  38.5156719  -4.2180729  54.8354594  37.0415890  -4.5385768
  54.3739746  39.7265021  -0.1585092  55.0011785  39.3442098   0.4552432
  53.5167665  39.5079223   0.2070600  57.4825850  36.9451873  -1.9698537
  58.0060251  37.1914169  -1.2072228  57.2638183  37.7771908  -2.3895400
  58.6878395  37.8865568  -4.2848866  58.3475215  37.0873381  -3.8828187
  57.9817401  38.1867279  -4.8572033  59.3394867  34.9714880  -5.8321543
  60.1620936  34.4975359  -5.9542653  59.5832930  35.7505364  -5.3322857
  51.3379107  44.2039345  -5.0841904  50.7932576  44.9799153  -4.9521629
  52.2158457  44.5510150  -5.2422782  52.1245129  43.3309242  -2.1911747
  51.3826865  43.4791877  -1.6047116  51.8037874  43.5917507  -3.0544997
  57.6107804  39.0482927   1.5028827  57.6595959  39.9245050   1.1206597
  58.1530318  38.5060320   0.9300471  65.5064287  42.4247444  -0.5878000
  66.4074149  42.2853909  -0.8794002  65.5812261  42.5901899   0.3520177
  59.8407092  39.8014299  -1.7424814  58.9710401  40.0947865  -2.0142225
  60.0766572  40.3854744  -1.0217550  62.5446126  36.0193916  -4.2259393
  63.0628070  36.7554943  -4.5512905  62.1901259  36.3257909  -3.3912634
  60.8677680  47.0031751   1.6583239  61.7880689  47.1810350   1.8523285
  60.8327263  46.0587797   1.5062938  58.7367617  40.4865992   3.6908769
  58.6364344  41.4360349   3.6220860  58.5189160  40.1584231   2.8184839
  58.5998888  43.9163131   2.5073831  58.1165969  44.7163491   2.7137720
  58.6859827  43.9271075   1.5541275  55.1171607  46.3768781  -2.8886938
  55.9364496  46.8712860  -2.8652101  55.3908415  45.4600749  -2.9169370
  50.3706521  40.7106915  -2.1894741  51.0165385  40.2005869  -1.7007516
  50.1623672  41.4475597  -1.6151316  62.8959914  47.7787763   3.3097400
  63.7651073  47.9528415   2.9484035  62.4166665  48.5982180   3.1873129
  54.7104012  37.8574532   1.9080273  55.5735474  37.5011337   2.1183598
  54.1369423  37.5188427   2.5955678   3.6345800  64.8149037  30.5192938
   4.3670972  64.2448254  30.7530767   2.8785155  64.4270638  30.9599444
   1.1571220  58.5270611  34.9787547   0.8254545  59.3966022  34.7548762
   0.5616833  58.2106895  35.6581577   2.9161530  61.4482136  33.8358771
   2.2735910  61.7414669  33.1898565   2.4116458  61.3335056  34.6411967
   3.0560508  71.1125565  29.2702575   2.3711546  71.4924467  28.7199608
   3.1404357  71.7220892  30.0034523   1.4257267  71.6357480  34.0420276
   2.2474711  71.2337667  33.7602957   1.4219670  71.5325714  34.9936392
   9.5163260  67.9796228  30.3905247   8.7626969  67.4103626  30.2349252
   9.6510801  67.9458893  31.3375882   3.1938909  69.1181158  25.0384469
   2.4168352  68.7792318  24.5939631   3.8730390  69.1233781  24.3639434
   1.4330216  68.5915140  31.6951077   0.7753890  69.2814401  31.7831205
   2.2370615  68.9811571  32.0385063   3.5927406  68.1324865  27.5007391
   3.4545304  68.3226461  26.5728580   3.2363625  68.8944248  27.9575442
   3.6196785  70.2001392  32.5118662   4.0533292  70.1076681  33.3601716
   4.3328366  70.1758892  31.8738678   4.4812335  70.2425093  35.0451548
   4.6748225  71.1470903  35.2910823   4.3812953  69.7832512  35.8790133
   1.2519650  73.4250958  38.6968910   1.1932196  72.7410178  38.0299493
   1.6539169  74.1669948  38.2449536   5.7354398  66.7998759  31.6899451
   5.7244274  67.6823475  31.3193384   4.8671778  66.4470310  31.4953988
   2.3526973  65.6947400  28.1569617   2.8187425  66.5275392  28.0829920
   2.8034473  65.2292382  28.8614876   0.6944301  74.6676888  31.3196523
   1.6190848  74.4619749  31.1820974   0.5259604  74.4193289  32.2285865
   6.3379008  67.9498979  28.2948914   6.7810154  67.2006304  27.8968038
   5.4605518  67.9409115  27.9122646   3.3706213  71.9529025  25.3042844
   3.8957537  72.2916298  24.5792164   3.2828565  71.0176041  25.1205978
   3.0600119  72.5861929  40.6094042   2.2695662  72.5686068  40.0698541
   2.8233473  73.1250223  41.3643078   3.1797994  69.4354396  37.9226770
   3.2295999  69.2704403  38.8642293   3.0711917  68.5681655  37.5324651
   4.6816190  71.8551337  38.1668792   4.3900999  72.2181318  39.0032253
   4.0688322  71.1418345  37.9882124   5.8811873  69.4204217  30.6871362
   6.7158764  69.8594021  30.8508922   6.0171002  68.9442870  29.8679608
   2.9303379  66.9783952  36.6348850   3.4057500  67.1711598  35.8267701
   2.0068944  67.0343137  36.3892233   1.6305048  63.8549712  34.8677155
   2.5822471  63.9547809  34.8889379   1.4608498  63.0627980  35.3775240
   4.1093125  67.0755831  33.9819455   4.0769446  66.1371832  34.1679139
   4.7193749  67.1539868  33.2485280   4.2587614  63.8666875  34.0277738
   3.7426663  63.0825331  33.8407667   5.1427563  63.5385591  34.1924258
   1.9198341  57.6107890  29.9873551   1.7223162  57.3022979  30.8716883
   2.5298046  58.3369529  30.1171481   9.9269675  68.1371838  33.1225492
  10.6573064  67.8757126  33.6833195   9.3176621  67.4000560  33.1627560
   8.0084972  66.2779701  33.7199943   7.2818136  66.1435666  33.1116434
   7.5932259  66.5856529  34.5256661   3.1890209  61.7863934  30.0159434
   3.9650599  62.2760386  30.2884051   2.4638343  62.2121988  30.4731303
   5.6262767  62.4991553  31.0733374   6.2207258  62.2587289  30.3626683
   5.6989351  61.7798684  31.7006911   3.6221502  63.0661681  27.3405504
   3.3658437  62.6658316  28.1713712   2.9974370  63.7805475  27.2155643
   7.9333840  65.8057754  29.8476796   7.3733398  65.8750943  30.6208358
   7.3277344  65.6298739  29.1276292  14.4739554  80.1440955  30.5192938
  15.2064726  79.5740172  30.7530767  13.7178910  79.7562555  30.9599444
  11.9964975  73.8562529  34.9787547  11.6648299  74.7257940  34.7548762
  11.4010588  73.5398813  35.6581577  11.8893638  78.5757615  32.0580897
  10.9810515  78.5073024  31.7639658  11.8381234  79.0529560  32.8862722
  13.7555284  76.7774054  33.8358771  13.1129665  77.0706587  33.1898565
  13.2510213  76.6626974  34.6411967   9.1966731  77.5438830  37.1920653
   8.9527663  78.2980890  36.6554929   9.4726661  77.9224177  38.0267900
   8.7531423  76.6995263  32.7734491   7.8915902  76.9976516  33.0651228
   8.7793857  76.9165662  31.8415523   2.2322982  74.2593128  42.7274322
   1.8389928  73.7059327  43.4021966   3.0489123  74.5703707  43.1180839
   5.1490943  75.6751007  40.3194578   5.8900657  76.2758160  40.2399041
   5.3808866  74.9328645  39.7612621   9.0948106  71.7032110  34.5958860
   8.7512376  72.5933752  34.5197971   9.4627069  71.5133768  33.7328445
   6.6445500  76.5390422  28.1616534   5.7887096  76.1497272  27.9822172
   7.0572452  76.6182383  27.3016319   8.1744647  74.0736765  32.5608093
   7.6709442  74.0366900  31.7475899   8.4675254  74.9829508  32.6204750
   4.4187533  74.1575495  31.5674275   5.2840529  73.9618304  31.2080165
   4.4865042  73.9285847  32.4943632   4.3272519  73.2618952  27.6665711
   3.6736932  72.9467969  27.0422326   4.2852994  72.6394692  28.3925534
  10.7924145  78.1849417  29.1034829  10.0546902  77.6726804  29.4345071
  11.0450918  77.7449799  28.2918105  10.8935772  70.9625669  29.6976598
  11.1994649  70.1023033  29.4102513  11.6188377  71.5543290  29.4975592
   6.9742400  75.4574901  37.5441875   6.3270315  76.1564850  37.4506351
   7.7443416  75.8911045  37.9118123   8.7218395  76.4250311  30.0481160
   9.2187095  75.6720274  29.7282230   7.9505377  76.4614628  29.4824369
  11.1637390  73.3919905  32.1960519  10.2500470  73.6224132  32.3642726
  11.5930491  73.4758349  33.0474551   3.2857073  75.2681670  37.8565540
   3.8091475  75.5143966  38.6191849   3.0669407  76.1001705  37.4368677
   4.4909618  76.2095365  35.5415211   4.1506439  75.4103178  35.9435890
   3.7848625  76.5097076  34.9692044   5.1426090  73.2944677  33.9942534
   5.9652160  72.8205155  33.8721424   5.3864154  74.0735161  34.4941220
   7.9265448  77.0278085  25.2263768   8.1429062  77.9102723  24.9252596
   7.4459515  76.6364298  24.4969410   3.9297948  75.8580726  27.1202972
   4.0513859  74.9297372  27.3193859   3.6399990  75.8719412  26.2081287
   6.7989138  73.5435637  30.2569692   6.8210835  73.6074970  29.3021671
   7.2157197  72.7040145  30.4510198   8.3477350  74.3423713  35.6004684
   8.8659294  75.0784740  35.2751172   7.9932482  74.6487706  36.4351443
   8.5989944  70.7623995  31.1205580   8.8791698  70.0947184  31.7466007
   9.3840551  70.9553091  30.6080244  12.4698802  79.1841629  34.8677155
  13.4216225  79.2839727  34.8889379  12.3002253  78.3919898  35.3775240
  10.4913182  76.2697213  35.0536556   9.8963114  76.5502225  34.3583045
  10.2062878  76.7591114  35.8253297  15.0981368  79.1958793  34.0277738
  14.5820417  78.4117249  33.8407667  15.9821317  78.8677509  34.1924258
  12.7592095  72.9399808  29.9873551  12.5616917  72.6314896  30.8716883
  13.3691801  73.6661447  30.1171481   6.5875194  73.7430668  26.1145785
   5.7775922  73.3977753  26.4901032   7.2759611  73.4338212  26.7033397
   8.5165742  72.8208715  27.7370082   9.0696781  73.2404168  28.3960105
   8.7535828  71.8944463  27.7793038  11.8944549  74.9309240  27.2448746
  11.3143218  75.5894044  26.8626799  11.6280482  74.1086585  26.8336164
  10.3448115  74.3314298  29.4470067  10.8447894  74.4430832  28.6384386
  10.9883723  74.0275351  30.0870875  10.6769427  77.0909331  26.3005095
   9.7895282  77.3758981  26.0825289  11.0923416  76.9303094  25.4532371
  14.0283963  77.1155852  30.0159434  14.8044353  77.6052304  30.2884051
  13.3032097  77.5413906  30.4731303  16.4656522  77.8283471  31.0733374
  17.0601013  77.5879207  30.3626683  16.5383106  77.1090601  31.7006911
  14.4615257  78.3953598  27.3405504  14.2052191  77.9950234  28.1713712
  13.8368125  79.1097392  27.2155643  18.7727595  81.1349672  29.8476796
  18.2127153  81.2042861  30.6208358  18.1671098  80.9590656  29.1276292
   4.6941356  73.2976757  23.3893232   4.6820025  74.2418597  23.5461503
   5.5864778  73.1146902  23.0952694   8.5093475  69.8919533  27.6439169
   7.7425871  69.3378020  27.7895851   8.9204180  69.9641402  28.5053321
   3.6345801  41.8211160  17.2438245   4.3670973  41.2510377  17.4776074
   2.8785157  41.4332760  17.6844750   1.1571221  35.5332734  21.7032853
   0.8254546  36.4028145  21.4794068   0.5616835  35.2169018  22.3826884
   2.9161531  38.4544258  20.5604077   2.2735911  38.7476792  19.9143872
   2.4116460  38.3397179  21.3657274   3.0560509  48.1187688  15.9947882
   2.3711547  48.4986589  15.4444915   3.1404358  48.7283015  16.7279829
   1.4257268  48.6419602  20.7665583   2.2474712  48.2399790  20.4848264
   1.4219671  48.5387837  21.7181698   9.5163262  44.9858351  17.1150554
   8.7626970  44.4165749  16.9594558   9.6510803  44.9521015  18.0621189
   3.1938910  46.1243281  11.7629775   2.4168353  45.7854440  11.3184937
   3.8730391  46.1295904  11.0884740   1.4330217  45.5977262  18.4196383
   0.7753891  46.2876523  18.5076512   2.2370616  45.9873694  18.7630370
   3.5927407  45.1386987  14.2252697   3.4545306  45.3288583  13.2973887
   3.2363626  45.9006370  14.6820748   3.6196787  47.2063514  19.2363969
   4.0533293  47.1138804  20.0847023   4.3328367  47.1821015  18.5983985
   4.4812336  47.2487215  21.7696854   4.6748226  48.1533026  22.0156129
   4.3812954  46.7894634  22.6035439   1.2519652  50.4313080  25.4214217
   1.1932198  49.7472301  24.7544800   1.6539170  51.1732070  24.9694843
   5.7354399  43.8060882  18.4144758   5.7244276  44.6885597  18.0438691
   4.8671779  43.4532433  18.2199295   2.3526974  42.7009523  14.8814924
   2.8187426  43.5337514  14.8075227   2.8034475  42.2354504  15.5860183
   0.6944302  51.6739011  18.0441830   1.6190849  51.4681872  17.9066281
   0.5259605  51.4255412  18.9531171   6.3379009  44.9561101  15.0194221
   6.7810155  44.2068426  14.6213344   5.4605520  44.9471237  14.6367953
   3.3706214  48.9591148  12.0288150   3.8957538  49.2978421  11.3037470
   3.2828566  48.0238163  11.8451285   3.0600120  49.5924052  27.3339348
   2.2695664  49.5748191  26.7943848   2.8233474  50.1312345  28.0888385
   3.1797995  46.4416518  24.6472077   3.2296000  46.2766526  25.5887600
   3.0711918  45.5743777  24.2569958   4.6816192  48.8613460  24.8914098
   4.3901000  49.2243440  25.7277559   4.0688323  48.1480468  24.7127430
   5.8811874  46.4266339  17.4116668   6.7158765  46.8656143  17.5754229
   6.0171003  45.9504993  16.5924914   2.9303380  43.9846074  23.3594156
   3.4057502  44.1773721  22.5513008   2.0068945  44.0405260  23.1137540
   1.6305049  40.8611834  21.5922462   2.5822472  40.9609932  21.6134686
   1.4608499  40.0690103  22.1020546   4.1093127  44.0817954  20.7064762
   4.0769447  43.1433955  20.8924445   4.7193750  44.1601991  19.9730586
   4.2587615  40.8728997  20.7523045   3.7426664  40.0887454  20.5652974
   5.1427564  40.5447714  20.9169564   1.9198342  34.6170013  16.7118857
   1.7223163  34.3085101  17.5962189   2.5298048  35.3431652  16.8416787
   9.9269677  45.1433961  19.8470798  10.6573065  44.8819249  20.4078502
   9.3176622  44.4062683  19.8872866   8.0084974  43.2841823  20.4445250
   7.2818137  43.1497788  19.8361741   7.5932261  43.5918652  21.2501968
   3.1890210  38.7926056  16.7404740   3.9650600  39.2822509  17.0129357
   2.4638344  39.2184111  17.1976610   5.6262769  39.5053676  17.7978681
   6.2207259  39.2649412  17.0871989   5.6989352  38.7860806  18.4252217
   3.6221504  40.0723803  14.0650811   3.3658438  39.6720439  14.8959019
   2.9974372  40.7867597  13.9400950   7.9333841  42.8119876  16.5722102
   7.3733399  42.8813066  17.3453664   7.3277345  42.6360861  15.8521599
   9.5189860  59.4876390  19.2652058  10.1568270  59.3683138  18.5615398
   9.4010703  60.4357234  19.3240010   6.3279566  59.4403819  19.2013583
   5.9898078  59.3244883  18.3134118   7.1969334  59.0394984  19.1814589
   6.8099349  60.5938670  25.1599788   6.7987990  60.1991469  24.2880292
   6.9719989  59.8604743  25.7533560   3.5306610  63.3775782  24.1078972
   3.2396476  64.2821413  23.9925639   4.1663595  63.4192310  24.8223042
   4.4562817  60.7552631  20.6980332   5.0526389  60.5308653  19.9837295
   4.5137789  60.0137376  21.3005780   9.0731128  57.2127844  16.3405266
   9.8594218  56.7947267  15.9895683   9.3369833  58.1173936  16.5086914
  14.4739555  57.1503077  17.2438245  15.2064727  56.5802294  17.4776074
  13.7178911  56.7624678  17.6844750   6.0915675  59.5730319  14.4401587
   5.7273882  59.0460940  15.1514508   6.9482791  59.1828788  14.2668072
  11.9964976  50.8624652  21.7032853  11.6648301  51.7320063  21.4794068
  11.4010589  50.5460936  22.3826884   8.4896495  63.0637198  21.1028766
   8.1897218  63.9662236  20.9944573   8.1447555  62.7969381  21.9549919
   1.9408977  59.5150994  17.1365470   1.0159473  59.3827209  17.3443162
   2.1893390  60.2945214  17.6335413  11.8893639  55.5819738  18.7826203
  10.9810516  55.5135146  18.4884964  11.8381235  56.0591683  19.6108029
   5.9634505  57.0009383  26.7261101   5.1867839  57.5603303  26.7163965
   6.6025068  57.4866166  27.2475971  13.7555286  53.7836176  20.5604077
  13.1129666  54.0768709  19.9143872  13.2510214  53.6689096  21.3657274
  11.4095449  57.5299349  11.2489936  12.3213305  57.7626736  11.0737634
  10.9005096  58.1136394  10.6865015   4.2180877  59.8094837  26.2879068
   4.9595562  60.3479881  26.0113891   3.5117863  60.4361125  26.4450619
   9.6936217  61.9523977  24.8851229  10.1019573  61.5106388  24.1405861
   8.9713478  61.3776605  25.1385422   6.0467287  56.8896584  22.2584786
   6.8928482  57.3135998  22.4019435   5.9865925  56.2330208  22.9523349
  10.0165032  62.5125168  18.6403518   9.3873894  62.6770882  17.9379586
   9.6290694  62.9266777  19.4114482  13.8954263  63.4479606  15.9947882
  13.2105302  63.8278507  15.4444915  13.9798113  64.0574932  16.7279829
   9.1966732  54.5500952  23.9165960   8.9527664  55.3043013  23.3800235
   9.4726663  54.9286300  24.7513207  11.1505195  61.0939565  22.5943225
  11.3622090  61.7371325  21.9177606  11.1034943  60.2601881  22.1265155
   8.7531424  53.7057385  19.4979797   7.8915903  54.0038639  19.7896535
   8.7793859  53.9227784  18.5660830   5.5692993  62.2499576  15.9053603
   6.0331339  62.5287279  15.1158225   5.3049791  61.3483020  15.7226694
   2.4617074  61.7971057  18.8433366   3.0318432  62.2258326  18.2050851
   3.0525186  61.5153642  19.5417552   2.9542241  56.9634485  27.0894378
   2.3240902  57.6450766  27.3229774   2.8478329  56.8517566  26.1447516
  12.2651023  63.9711520  20.7665583  13.0868467  63.5691707  20.4848264
  12.2613426  63.8679754  21.7181698   6.0307626  63.5195563  22.9226293
   6.0952059  63.9815971  23.7584465   5.3218550  62.8892928  23.0508603
  20.3557016  60.3150269  17.1150554  19.6020724  59.7457667  16.9594558
  20.4904557  60.2812933  18.0621189   2.2322984  51.2655251  29.4519629
   1.8389929  50.7121449  30.1267273   3.0489124  51.5765829  29.8426146
   5.1490945  52.6813130  27.0439885   5.8900658  53.2820283  26.9644348
   5.3808868  51.9390768  26.4857928   7.3724120  65.8087237  26.9205615
   6.9287975  65.0223616  26.6026520   8.0341334  65.9966388  26.2549506
   9.4705359  66.0890037  24.9487017   9.4523834  66.9098918  24.4567286
  10.3925279  65.9644113  25.1737158   5.9278413  63.6034167  25.7910525
   6.4606749  62.8422455  25.5609833   5.3992494  63.3107819  26.5334680
   9.0948108  48.7094233  21.3204167   8.7512377  49.5995874  21.2443277
   9.4627070  48.5195890  20.4573752   6.6445501  53.5452545  14.8861840
   5.7887098  53.1559395  14.7067479   7.0572453  53.6244505  14.0261626
   8.1744648  51.0798888  19.2853400   7.6709444  51.0429023  18.4721205
   8.4675255  51.9891631  19.3450057   4.4187534  51.1637618  18.2919582
   5.2840531  50.9680426  17.9325471   4.4865043  50.9347969  19.2188939
  14.0332664  61.4535199  11.7629775  13.2562107  61.1146358  11.3184937
  14.7124145  61.4587822  11.0884740   8.8484694  56.5729936  11.6536383
   8.5434829  56.8876085  12.5046526   9.8015136  56.6511356  11.6963716
  12.2723971  60.9269180  18.4196383  11.6147646  61.6168441  18.5076512
  13.0764371  61.3165612  18.7630370   2.0249853  53.3939826  15.6635949
   2.5993605  53.1715007  14.9309142   2.6120835  53.4628520  16.4164550
  11.0829430  59.2813552  16.4700325  11.5961312  59.9143544  16.9722035
  11.7330654  58.6814748  16.1043685   4.3272521  50.2681074  14.3911018
   3.6736933  49.9530092  13.7667633   4.2852995  49.6456815  15.1170841
   7.5610261  56.7563008  18.7158666   6.6432822  56.9777955  18.5580354
   7.9770405  56.8309318  17.8570373   8.3445309  58.1554424  13.8461346
   9.0917128  58.6675821  13.5368468   8.6136898  57.8338476  14.7065739
  11.8491226  64.2619554  14.5979468  11.3953554  63.4210464  14.6544658
  11.2185193  64.8980952  14.9354248  10.7924146  55.1911540  15.8280135
  10.0546903  54.6788926  16.1590378  11.0450919  54.7511922  15.0163412
  10.2924166  66.0996051  15.5329286  10.5847140  66.6601108  14.8141652
  10.8022786  66.3924612  16.2882445  10.8935773  47.9687792  16.4221904
  11.1994650  47.1085155  16.1347820  11.6188378  48.5605412  16.2220898
   5.1656853  58.2641585  16.9298096   5.2205463  57.3115421  16.8540572
   4.3548055  58.4201024  17.4139394   3.1049213  56.8818645  14.6888474
   2.2917078  57.1812815  15.0953667   3.6008207  56.4874334  15.4062957
   8.7023425  57.3460469  23.5203368   9.0572812  57.5731942  24.3797834
   9.3495556  57.6778846  22.8980624  14.4321162  60.4678905  14.2252697
  14.2939060  60.6580501  13.2973887  14.0757380  61.2298288  14.6820748
   2.5963288  54.4537000  20.3049709   3.2362667  54.3125759  19.6072673
   1.7640818  54.1671514  19.9288311  14.4590541  62.5355432  19.2363969
  14.8927048  62.4430721  20.0847023  15.1722122  62.5112933  18.5983985
   8.1918436  66.1357526  20.7697069   8.2455458  66.7048463  21.5374785
   7.3233217  66.3059411  20.4051107  15.3206091  62.5779133  21.7696854
  15.5141981  63.4824943  22.0156129  15.2206709  62.1186552  22.6035439
   6.9742401  52.4637023  24.2687182   6.3270317  53.1626973  24.1751658
   7.7443417  52.8973167  24.6363430  10.3821199  62.7285876  27.3437735
  10.2306706  62.4996427  26.4267819  10.3725879  63.6856477  27.3569080
   7.1506536  60.3017788  22.3284001   8.0798596  60.4528948  22.1552969
   6.7297566  60.3901809  21.4732648   5.9494868  64.3268453  20.0982539
   5.8105953  63.9587237  20.9708477   5.1609464  64.8416092  19.9266497
   7.5000083  63.7050055  17.4871377   7.1649915  63.6650825  18.3829027
   7.0004028  63.0394771  17.0141787   1.4744327  59.1117685  23.0123958
   1.3364125  58.3797924  23.6135497   2.3849250  59.0226586  22.7308146
   4.1026627  58.8237645  22.5007638   4.8126246  58.1830837  22.4594256
   4.0595936  59.0750540  23.4233818  12.0913406  65.7604998  25.4214217
  12.0325952  65.0764218  24.7544800  12.4932924  66.5023988  24.9694843
   2.8155561  55.8102863  24.3203277   2.2792918  55.3593601  24.9724873
   2.2272270  55.9448771  23.5773741  12.0930813  63.7244582  23.6528196
  11.2057592  63.3870504  23.7754595  12.6629364  62.9927613  23.8896962
   5.6231967  68.3846034  20.6189440   5.5502138  69.1901006  21.1308744
   5.1809360  68.5838000  19.7937461   8.7218396  53.4312434  16.7726467
   9.2187096  52.6782396  16.4527537   7.9505378  53.4676751  16.2069676
  16.5748154  59.1352799  18.4144758  16.5638030  60.0177515  18.0438691
  15.7065533  58.7824350  18.2199295   8.0830650  68.2832868  22.7747598
   8.7958622  68.9180333  22.7023500   7.5920679  68.3796734  21.9587600
   9.8048177  62.1884121  14.3464890   8.8704456  62.3085584  14.1769594
   9.9824846  61.2856588  14.0824900   5.3053365  55.5729817  16.4998151
   4.9351153  55.0200857  17.1879057   5.8012458  54.9687950  15.9473151
  13.1920728  58.0301440  14.8814924  13.6581181  58.8629432  14.8075227
  13.6428229  57.5646422  15.5860183   3.1342564  66.0327312  23.5953169
   3.8352023  66.6663795  23.7482563   2.6637679  66.3742043  22.8348808
  11.2596960  64.3745262  11.8801076  11.5356804  64.2601856  12.7894950
  10.3901458  63.9762747  11.8413249  11.1637391  50.3982027  18.9205825
  10.2500471  50.6286254  19.0888032  11.5930493  50.4820471  19.7719858
  10.9343850  58.5871919  21.4205719  10.2815300  58.8347827  20.7658172
  11.3124230  57.7736058  21.0868197   6.9831423  59.3291730  27.9071757
   6.3072060  59.2285860  28.5774132   7.8059057  59.1730944  28.3707754
   5.7254206  70.6358658  22.1429373   6.2772514  70.7990279  22.9078458
   6.0660399  71.2263096  21.4709397   0.7018699  52.9833808  22.7451257
   0.7660025  53.8448639  22.3328655   0.6385819  52.3707809  22.0123616
  10.5765080  65.4619915  27.9978027  11.1204984  66.0749874  27.5032982
   9.9951925  66.0199494  28.5145040   8.8622593  68.5840633  19.1293055
   8.7373732  67.7830373  18.6204000   9.5201684  69.0786827  18.6407025
  10.9257501  66.3849653  20.7572605   9.9787837  66.2655005  20.6850931
  11.2740274  65.4972151  20.8398866   3.2857075  52.2743792  24.5810847
   3.8091476  52.5206089  25.3437156   3.0669408  53.1063827  24.1613984
   7.9303935  66.1802370  16.9576957   7.7828897  65.2519077  17.1384527
   8.7557428  66.2022460  16.4734032  11.5338056  67.0030928  18.0441830
  12.4584604  66.7973790  17.9066281  11.3653360  66.7547330  18.9531171
   4.4909620  53.2157487  22.2660517   4.1506440  52.4165301  22.6681197
   3.7848626  53.5159198  21.6937350   5.1426092  50.3006800  20.7187840
   5.9652161  49.8267278  20.5966731   5.3864155  51.0797284  21.2186526
   7.9265449  54.0340207  11.9509074   8.1429063  54.9164845  11.6497902
   7.4459516  53.6426421  11.2214716   2.6664670  56.9925921  18.5279819
   2.5209251  57.3066224  19.4204100   2.1889874  57.6110821  17.9750717
   4.5261053  53.9828469  18.5760708   4.5122622  53.0869562  18.2393006
   5.2433481  53.9899132  19.2098994   6.3787184  54.4165809  20.6213836
   6.1204962  55.3382879  20.6198166   5.8472224  54.0196243  21.3114300
  11.3233373  67.5216596  13.4003921  11.4970250  66.9563018  12.6477774
  11.8162264  68.3217491  13.2183411   3.9297949  52.8642849  13.8448279
   4.0513860  51.9359495  14.0439166   3.6399991  52.8781535  12.9326594
   6.7989140  50.5497759  16.9814998   6.8210836  50.6137092  16.0266978
   7.2157199  49.7102268  17.1755505  17.1772764  60.2853019  15.0194221
  17.6203910  59.5360344  14.6213344  16.2999274  60.2763155  14.6367953
  14.2099968  64.2883066  12.0288150  14.7351292  64.6270339  11.3037470
  14.1222321  63.3530081  11.8451285   5.8720017  68.2017139  24.1578027
   6.1807143  67.9566286  25.0300726   6.6695499  68.4063778  23.6696897
   3.4139029  54.3774846  28.0538211   3.4627184  55.2536969  27.6715981
   3.9561543  53.8352239  27.4809854  13.8993874  64.9215969  27.3339348
  13.1089418  64.9040108  26.7943848  13.6627229  65.4604263  28.0888385
  14.0191749  61.7708436  24.6472077  14.0689754  61.6058443  25.5887600
  13.9105673  60.9035695  24.2569958  11.3095512  57.7539364  25.9631383
  12.2105375  57.6145829  25.6715381  11.3843486  57.9193819  26.9029561
   5.6438317  55.1306219  24.8084570   4.7741627  55.4239785  24.5367158
   5.8797797  55.7146664  25.5291833  15.5209946  64.1905377  24.8914098
  15.2294755  64.5535358  25.7277559  14.9082077  63.4772386  24.7127430
  16.7205629  61.7558257  17.4116668  17.5552520  62.1948061  17.5754229
  16.8564757  61.2796910  16.5924914  13.7697134  59.3137992  23.3594156
  14.2451256  59.5065638  22.5513008  12.8462700  59.3697178  23.1137540
   8.3477351  51.3485835  22.3249990   8.8659295  52.0846862  21.9996479
   7.9932484  51.6549829  23.1596749   8.5989945  47.7686118  17.8450887
   8.8791699  47.1009307  18.4711313   9.3840552  47.9615214  17.3325551
  12.4698803  56.1903752  21.5922462  13.4216226  56.2901850  21.6134686
  12.3002254  55.3982021  22.1020546  10.4913183  53.2759335  21.7781863
   9.8963115  53.5564348  21.0828351  10.2062880  53.7653236  22.5498604
  14.9486881  59.4109872  20.7064762  14.9163201  58.4725872  20.8924445
  15.5587505  59.4893908  19.9730586  15.0981370  56.2020915  20.7523045
  14.5820418  55.4179372  20.5652974  15.9821318  55.8739632  20.9169564
  12.7592097  49.9461931  16.7118857  12.5616918  49.6377019  17.5962189
  13.3691802  50.6723570  16.8416787  20.7663431  60.4725879  19.8470798
  21.4966820  60.2111167  20.4078502  20.1570377  59.7354600  19.8872866
  18.8478728  58.6133741  20.4445250  18.1211892  58.4789706  19.8361741
  18.4326015  58.9210570  21.2501968   6.6708905  62.3323671  28.2092623
   7.5911914  62.5102270  28.4032669   6.6358488  61.3879716  28.0572322
   6.5875195  50.7492791  12.8391092   5.7775923  50.4039876  13.2146338
   7.2759612  50.4400335  13.4278704   8.5165743  49.8270838  14.4615389
   9.0696782  50.2466291  15.1205412   8.7535830  48.9006586  14.5038345
   4.5398842  55.8157911  30.2418153   4.4395569  56.7652268  30.1730244
   4.3220385  55.4876150  29.3694223  11.8944550  51.9371363  13.9694053
  11.3143219  52.5956167  13.5872105  11.6280483  51.1148707  13.5581470
  10.3448117  51.3376420  16.1715373  10.8447895  51.4492955  15.3629692
  10.9883725  51.0337473  16.8116182   4.4030113  59.2455050  29.0583214
   3.9197194  60.0455410  29.2647103   4.4891052  59.2562995  28.1050658
   0.9202832  61.7060701  23.6622446   1.7395721  62.2004779  23.6857283
   1.1939640  60.7892669  23.6340013  10.6769428  54.0971453  13.0250401
   9.7895283  54.3821104  12.8070596  11.0923417  53.9365216  12.1777678
  14.0283965  54.1217974  16.7404740  14.8044355  54.6114427  17.0129357
  13.3032099  54.5476028  17.1976610  16.4656523  54.8345593  17.7978681
  17.0601014  54.5941329  17.0871989  16.5383107  54.1152724  18.4252217
  10.6510452  59.6125989  13.2400691  10.5945654  60.0694540  12.4008324
  11.2038795  58.8516674  13.0623534  14.4615258  55.4015721  14.0650811
  14.2052192  55.0012357  14.8959019  13.8368126  56.1159515  13.9400950
  18.7727596  58.1411794  16.5722102  18.2127154  58.2104983  17.3453664
  18.1671099  57.9652779  15.8521599  11.3845231  60.8030770  10.5353221
  11.3294035  60.6375042   9.5941665  10.7591287  61.5106803  10.6915410
   8.6991139  63.1079682  29.8606783   9.5682298  63.2820334  29.4993418
   8.2197890  63.9274099  29.7382513   4.6941357  50.3038879  10.1138539
   4.6820027  51.2480719  10.2706810   5.5864779  50.1209025   9.8198000
   8.5093476  46.8981656  14.3684476   7.7425872  46.3440143  14.5141158
   8.9204181  46.9703525  15.2298627  20.3583614  74.8168308  19.2652058
  20.9962024  74.6975055  18.5615398  20.2404457  75.7649152  19.3240010
  17.1673321  74.7695736  19.2013583  16.8291832  74.6536801  18.3134118
  18.0363089  74.3686901  19.1814589  17.6493104  75.9230588  25.1599788
  17.6381744  75.5283386  24.2880292  17.8113743  75.1896661  25.7533560
  14.3700365  78.7067700  24.1078972  14.0790231  79.6113331  23.9925639
  15.0057349  78.7484227  24.8223042  15.2956572  76.0844548  20.6980332
  15.8920144  75.8600571  19.9837295  15.3531543  75.3429294  21.3005780
  19.9124883  72.5419762  16.3405266  20.6987972  72.1239185  15.9895683
  20.1763587  73.4465854  16.5086914  25.3133310  72.4794995  17.2438245
  26.0458482  71.9094212  17.4776074  24.5572666  72.0916596  17.6844750
  16.9309430  74.9022237  14.4401587  16.5667637  74.3752858  15.1514508
  17.7876546  74.5120706  14.2668072  22.8358730  66.1916569  21.7032853
  22.5042055  67.0611980  21.4794068  22.2404344  65.8752853  22.3826884
  19.3290250  78.3929115  21.1028766  19.0290973  79.2954154  20.9944573
  18.9841309  78.1261298  21.9549919  12.7802731  74.8442912  17.1365470
  11.8553228  74.7119126  17.3443162  13.0287145  75.6237131  17.6335413
  22.7287394  70.9111655  18.7826203  21.8204271  70.8427064  18.4884964
  22.6774989  71.3883600  19.6108029  16.8028259  72.3301301  26.7261101
  16.0261593  72.8895221  26.7163965  17.4418822  72.8158084  27.2475971
  24.5949040  69.1128094  20.5604077  23.9523420  69.4060627  19.9143872
  24.0903969  68.9981014  21.3657274  22.2489204  72.8591267  11.2489936
  23.1607060  73.0918654  11.0737634  21.7398851  73.4428311  10.6865015
  15.0574632  75.1386754  26.2879068  15.7989316  75.6771798  26.0113891
  14.3511617  75.7653043  26.4450619  20.5329971  77.2815895  24.8851229
  20.9413327  76.8398305  24.1405861  19.8107233  76.7068522  25.1385422
  16.8861041  72.2188502  22.2584786  17.7322237  72.6427915  22.4019435
  16.8259679  71.5622126  22.9523349  20.8558786  77.8417085  18.6403518
  20.2267648  78.0062800  17.9379586  20.4684448  78.2558695  19.4114482
  24.7348018  78.7771523  15.9947882  24.0499056  79.1570425  15.4444915
  24.8191867  79.3866850  16.7279829  20.0360487  69.8792870  23.9165960
  19.7921419  70.6334931  23.3800235  20.3120417  70.2578218  24.7513207
  21.9898950  76.4231482  22.5943225  22.2015845  77.0663242  21.9177606
  21.9428698  75.5893799  22.1265155  19.5925178  69.0349303  19.4979797
  18.7309657  69.3330557  19.7896535  19.6187613  69.2519702  18.5660830
  16.4086748  77.5791494  15.9053603  16.8725093  77.8579197  15.1158225
  16.1443546  76.6774938  15.7226694  13.3010829  77.1262975  18.8433366
  13.8712186  77.5550243  18.2050851  13.8918941  76.8445560  19.5417552
  13.7935995  72.2926403  27.0894378  13.1634656  72.9742683  27.3229774
  13.6872083  72.1809484  26.1447516  23.1044777  79.3003438  20.7665583
  23.9262221  78.8983625  20.4848264  23.1007180  79.1971672  21.7181698
  16.8701381  78.8487481  22.9226293  16.9345813  79.3107888  23.7584465
  16.1612305  78.2184846  23.0508603   7.3718671  72.2128689  20.4475292
   7.6226709  73.0975699  20.7132868   7.9078219  72.0333291  19.6750384
  31.1950770  75.6442186  17.1150554  30.4414479  75.0749584  16.9594558
  31.3298312  75.6104851  18.0621189  13.0716738  66.5947168  29.4519629
  12.6783684  66.0413367  30.1267273  13.8882879  66.9057747  29.8426146
  15.9884699  68.0105047  27.0439885  16.7294413  68.6112201  26.9644348
  16.2202622  67.2682685  26.4857928  11.1326037  73.1961415  25.3218115
  11.0179552  72.2946672  25.6225214  10.2770555  73.4425112  24.9702931
  18.2117875  81.1379155  26.9205615  17.7681729  80.3515534  26.6026520
  18.8735089  81.3258306  26.2549506  20.3099113  81.4181955  24.9487017
  20.2917588  82.2390836  24.4567286  21.2319033  81.2936030  25.1737158
  16.7672167  78.9326084  25.7910525  17.3000504  78.1714373  25.5609833
  16.2386248  78.6399736  26.5334680  19.9341862  64.0386150  21.3204167
  19.5906132  64.9287792  21.2443277  20.3020825  63.8487808  20.4573752
  17.4839256  68.8744462  14.8861840  16.6280852  68.4851313  14.7067479
  17.8966208  68.9536423  14.0261626  19.0138403  66.4090806  19.2853400
  18.5103198  66.3720941  18.4721205  19.3069009  67.3183548  19.3450057
  15.2581288  66.4929535  18.2919582  16.1234285  66.2972344  17.9325471
  15.3258797  66.2639887  19.2188939  24.8726419  76.7827116  11.7629775
  24.0955862  76.4438276  11.3184937  25.5517900  76.7879739  11.0884740
  19.6878448  71.9021854  11.6536383  19.3828584  72.2168003  12.5046526
  20.6408890  71.9803274  11.6963716  23.1117726  76.2561097  18.4196383
  22.4541400  76.9460359  18.5076512  23.9158125  76.6457529  18.7630370
  12.8643607  68.7231743  15.6635949  13.4387359  68.5006925  14.9309142
  13.4514590  68.7920438  16.4164550  21.9223185  74.6105470  16.4700325
  22.4355066  75.2435462  16.9722035  22.5724409  74.0106666  16.1043685
  15.1666275  65.5972992  14.3911018  14.5130688  65.2822009  13.7667633
  15.1246749  64.9748733  15.1170841  18.4004016  72.0854926  18.7158666
  17.4826577  72.3069873  18.5580354  18.8164159  72.1601236  17.8570373
  19.1839063  73.4846341  13.8461346  19.9310882  73.9967739  13.5368468
  19.4530653  73.1630394  14.7065739  22.6884981  79.5911472  14.5979468
  22.2347308  78.7502381  14.6544658  22.0578948  80.2272870  14.9354248
  21.6317900  70.5203458  15.8280135  20.8940657  70.0080844  16.1590378
  21.8844674  70.0803839  15.0163412  21.1317920  81.4287968  15.5329286
  21.4240895  81.9893025  14.8141652  21.6416541  81.7216529  16.2882445
  21.7329528  63.2979710  16.4221904  22.0388405  62.4377073  16.1347820
  22.4582133  63.8897330  16.2220898  16.0050608  73.5933503  16.9298096
  16.0599217  72.6407339  16.8540572  15.1941810  73.7492942  17.4139394
  13.9442967  72.2110562  14.6888474  13.1310833  72.5104733  15.0953667
  14.4401962  71.8166251  15.4062957  19.5417179  72.6752387  23.5203368
  19.8966567  72.9023860  24.3797834  20.1889310  73.0070764  22.8980624
  25.2714916  75.7970823  14.2252697  25.1332815  75.9872419  13.2973887
  24.9151135  76.5590206  14.6820748  13.4357042  69.7828918  20.3049709
  14.0756422  69.6417677  19.6072673  12.6034573  69.4963431  19.9288311
  25.2984296  77.8647350  19.2363969  25.7320802  77.7722639  20.0847023
  26.0115876  77.8404850  18.5983985  11.9110584  71.1667000  22.2521521
  12.5833637  70.9584362  21.6034170  11.0840370  70.9689086  21.8126753
  26.1599845  77.9071050  21.7696854  26.3535735  78.8116861  22.0156129
  26.0600463  77.4478470  22.6035439  17.8136156  67.7928941  24.2687182
  17.1664071  68.4918891  24.1751658  18.5837171  68.2265085  24.6363430
  21.2214954  78.0577793  27.3437735  21.0700460  77.8288345  26.4267819
  21.2119633  79.0148395  27.3569080  17.9900290  75.6309706  22.3284001
  18.9192350  75.7820866  22.1552969  17.5691320  75.7193727  21.4732648
  16.7888622  79.6560370  20.0982539  16.6499708  79.2879155  20.9708477
  16.0003218  80.1708010  19.9266497  18.3393837  79.0341973  17.4871377
  18.0043670  78.9942743  18.3829027  17.8397783  78.3686689  17.0141787
  12.3138081  74.4409603  23.0123958  12.1757879  73.7089842  23.6135497
  13.2243005  74.3518503  22.7308146  14.9420382  74.1529562  22.5007638
  15.6520000  73.5122755  22.4594256  14.8989690  74.4042457  23.4233818
  22.9307161  81.0896916  25.4214217  22.8719707  80.4056136  24.7544800
  23.3326679  81.8315906  24.9694843  13.6549316  71.1394780  24.3203277
  13.1186673  70.6885519  24.9724873  13.0666024  71.2740689  23.5773741
  22.9324568  79.0536500  23.6528196  22.0451347  78.7162421  23.7754595
  23.5023119  78.3219531  23.8896962   9.3888437  70.2750788  21.4056271
   9.3046626  69.6676458  20.6706681   8.5671143  70.7659806  21.4065768
  19.5612151  68.7604352  16.7726467  20.0580850  68.0074314  16.4527537
  18.7899132  68.7968668  16.2069676  27.4141908  74.4644717  18.4144758
  27.4031785  75.3469432  18.0438691  26.5459288  74.1116268  18.2199295
  20.6441932  77.5176039  14.3464890  19.7098210  77.6377501  14.1769594
  20.8218600  76.6148506  14.0824900  16.1447120  70.9021735  16.4998151
  15.7744907  70.3492775  17.1879057  16.6406212  70.2979868  15.9473151
  24.0314483  73.3593358  14.8814924  24.4974935  74.1921350  14.8075227
  24.4821983  72.8938340  15.5860183  22.0990714  79.7037179  11.8801076
  22.3750558  79.5893774  12.7894950  21.2295213  79.3054664  11.8413249
  22.0031146  65.7273945  18.9205825  21.0894226  65.9578172  19.0888032
  22.4324247  65.8112389  19.7719858  21.7737604  73.9163837  21.4205719
  21.1209054  74.1639744  20.7658172  22.1517984  73.1027975  21.0868197
  17.8225177  74.6583648  27.9071757  17.1465814  74.5577777  28.5774132
  18.6452811  74.5022862  28.3707754  11.5412453  68.3125725  22.7451257
  11.6053780  69.1740556  22.3328655  11.4779574  67.6999727  22.0123616
  11.0164726  70.3848858  26.3924291  11.6436765  70.0025935  27.0061816
  10.1592645  70.1663060  26.7579984  21.4158834  80.7911833  27.9978027
  21.9598738  81.4041791  27.5032982  20.8345679  81.3491411  28.5145040
  11.3224516  70.2681284  18.3070195  10.6011101  70.8817251  18.1677668
  12.1117771  70.8039048  18.2286841  21.7651256  81.7141571  20.7572605
  20.8181591  81.5946922  20.6850931  22.1134029  80.8264069  20.8398866
  14.1250829  67.6035710  24.5810847  14.6485231  67.8498007  25.3437156
  13.9063162  68.4355745  24.1613984  18.7697689  81.5094287  16.9576957
  18.6222652  80.5810995  17.1384527  19.5951183  81.5314378  16.4734032
  22.3731811  82.3322846  18.0441830  23.2978358  82.1265707  17.9066281
  22.2047114  82.0839247  18.9531171  15.3303374  68.5449405  22.2660517
  14.9900195  67.7457218  22.6681197  14.6242380  68.8451116  21.6937350
  15.9819846  65.6298718  20.7187840  16.8045915  65.1559196  20.5966731
  16.2257910  66.4089201  21.2186526  18.7659203  69.3632125  11.9509074
  18.9822818  70.2456763  11.6497902  18.2853271  68.9718338  11.2214716
  13.5058425  72.3217838  18.5279819  13.3603006  72.6358141  19.4204100
  13.0283628  72.9402739  17.9750717  15.3654808  69.3120386  18.5760708
  15.3516376  68.4161479  18.2393006  16.0827236  69.3191050  19.2098994
  17.2180938  69.7457726  20.6213836  16.9598716  70.6674797  20.6198166
  16.6865979  69.3488161  21.3114300   7.9804087  74.8623183  21.4667480
   7.4357555  75.6382991  21.5987754   8.8583437  75.2093987  21.3086601
  14.7691704  68.1934766  13.8448279  14.8907615  67.2651413  14.0439166
  14.4793746  68.2073452  12.9326594  17.6382894  65.8789677  16.9814998
  17.6604591  65.9429010  16.0266978  18.0550953  65.0394186  17.1755505
  28.0166518  75.6144936  15.0194221  28.4597664  74.8652262  14.6213344
  27.1393029  75.6055073  14.6367953   8.7670109  73.9893079  24.3597637
   8.0251845  74.1375714  24.9462267   8.4462853  74.2501344  23.4964386
  25.0493723  79.6174983  12.0288150  25.5745047  79.9562256  11.3037470
  24.9616075  78.6821999  11.8451285  14.2532783  69.7066764  28.0538211
  14.3020939  70.5828887  27.6715981  14.7955297  69.1644157  27.4809854
  24.7387629  80.2507887  27.3339348  23.9483173  80.2332026  26.7943848
  24.5020983  80.7896181  28.0888385  24.8585504  77.1000353  24.6472077
  24.9083509  76.9350361  25.5887600  24.7499427  76.2327612  24.2569958
  22.1489266  73.0831281  25.9631383  23.0499129  72.9437746  25.6715381
  22.2237241  73.2485736  26.9029561  16.4832072  70.4598136  24.8084570
  15.6135381  70.7531702  24.5367158  16.7191552  71.0438581  25.5291833
  26.3603701  79.5197295  24.8914098  26.0688509  79.8827276  25.7277559
  25.7475832  78.8064303  24.7127430  27.5599383  77.0850175  17.4116668
  28.3946274  77.5239979  17.5754229  27.6958512  76.6088828  16.5924914
  24.6090889  74.6429910  23.3594156  25.0845011  74.8357556  22.5513008
  23.6856454  74.6989095  23.1137540  19.1871105  66.6777753  22.3249990
  19.7053049  67.4138780  21.9996479  18.8326238  66.9841746  23.1596749
  19.4383700  63.0978036  17.8450887  19.7185453  62.4301225  18.4711313
  20.2234307  63.2907131  17.3325551  23.3092558  71.5195670  21.5922462
  24.2609981  71.6193767  21.6134686  23.1396008  70.7273938  22.1020546
  21.3306937  68.6051253  21.7781863  20.7356870  68.8856266  21.0828351
  21.0456634  69.0945154  22.5498604  25.7880636  74.7401789  20.7064762
  25.7556956  73.8017790  20.8924445  26.3981259  74.8185826  19.9730586
  25.9375124  71.5312833  20.7523045  25.4214173  70.7471289  20.5652974
  26.8215073  71.2031549  20.9169564  23.5985851  65.2753848  16.7118857
  23.4010672  64.9668937  17.5962189  24.2085557  66.0015487  16.8416787
  31.6057186  75.8017796  19.8470798  32.3360574  75.5403084  20.4078502
  30.9964131  75.0646518  19.8872866  29.6872483  73.9425659  20.4445250
  28.9605646  73.8081624  19.8361741  29.2719770  74.2502487  21.2501968
  17.5102659  77.6615588  28.2092623  18.4305669  77.8394187  28.4032669
  17.4752242  76.7171634  28.0572322  10.5064732  75.5716623  20.8515404
  10.7250741  76.5033731  20.8703437  10.9190505  75.2124598  21.6370208
  17.4268949  66.0784708  12.8391092  16.6169678  65.7331793  13.2146338
  18.1153366  65.7692252  13.4278704  19.3559498  65.1562755  14.4615389
  19.9090536  65.5758209  15.1205412  19.5929584  64.2298503  14.5038345
  15.3792597  71.1449829  30.2418153  15.2789324  72.0944186  30.1730244
  15.1614139  70.8168068  29.3694223  22.7338305  67.2663280  13.9694053
  22.1536974  67.9248084  13.5872105  22.4674238  66.4440625  13.5581470
  21.1841871  66.6668338  16.1715373  21.6841650  66.7784873  15.3629692
  21.8277479  66.3629391  16.8116182  15.2423867  74.5746968  29.0583214
  14.7590949  75.3747328  29.2647103  15.3284806  74.5854913  28.1050658
  11.1697205  78.4651502  21.0951648  12.1240458  78.4335445  21.0281580
  10.9709728  78.0042126  21.9101874  11.7596587  77.0352618  23.6622446
  12.5789476  77.5296697  23.6857283  12.0333394  76.1184587  23.6340013
  21.5163183  69.4263371  13.0250401  20.6289038  69.7113021  12.8070596
  21.9317172  69.2657134  12.1777678  24.8677719  69.4509892  16.7404740
  25.6438109  69.9406344  17.0129357  24.1425853  69.8767946  17.1976610
  27.3050278  70.1637511  17.7978681  27.8994768  69.9233247  17.0871989
  27.3776861  69.4444642  18.4252217  21.4904207  74.9417907  13.2400691
  21.4339408  75.3986458  12.4008324  22.0432549  74.1808591  13.0623534
  25.3009013  70.7307639  14.0650811  25.0445947  70.3304274  14.8959019
  24.6761881  71.4451433  13.9400950  29.6121350  73.4703712  16.5722102
  29.0520908  73.5396901  17.3453664  29.0064854  73.2944696  15.8521599
  22.2238986  76.1322688  10.5353221  22.1687790  75.9666959   9.5941665
  21.5985041  76.8398721  10.6915410   7.0131501  71.3690752  24.3614643
   7.6590365  70.8589706  24.8501868   6.8048652  72.1059434  24.9358068
  19.5384893  78.4371600  29.8606783  20.4076053  78.6112252  29.4993418
  19.0591645  79.2566017  29.7382513  15.5335111  65.6330797  10.1138539
  15.5213781  66.5772637  10.2706810  16.4258533  65.4500942   9.8198000
  19.3487231  62.2273574  14.3684476  18.5819627  61.6732060  14.5141158
  19.7597936  62.2995442  15.2298627  11.3528992  68.5158369  28.4589657
  12.2160453  68.1595174  28.6692982  10.7794403  68.1772264  29.1465061
  36.1527064  87.8086913  17.2438245  36.8852236  87.2386130  17.4776074
  35.3966420  87.4208513  17.6844750  33.6752485  81.5208487  21.7032853
  33.3435810  82.3903898  21.4794068  33.0798098  81.2044771  22.3826884
  33.5681148  86.2403573  18.7826203  32.6598025  86.1718982  18.4884964
  33.5168744  86.7175518  19.6108029  35.4342795  84.4420012  20.5604077
  34.7917175  84.7352545  19.9143872  34.9297723  84.3272932  21.3657274
  30.8754241  85.2084788  23.9165960  30.6315173  85.9626848  23.3800235
  31.1514172  85.5870135  24.7513207  30.4318933  84.3641221  19.4979797
  29.5703412  84.6622474  19.7896535  30.4581368  84.5811620  18.5660830
  23.9110493  81.9239086  29.4519629  23.5177438  81.3705285  30.1267273
  24.7276633  82.2349665  29.8426146  26.8278454  83.3396965  27.0439885
  27.5688167  83.9404118  26.9644348  27.0596376  82.5974603  26.4857928
  30.7735617  79.3678068  21.3204167  30.4299886  80.2579710  21.2443277
  31.1414579  79.1779726  20.4573752  28.3233010  84.2036380  14.8861840
  27.4674607  83.8143230  14.7067479  28.7359962  84.2828341  14.0261626
  29.8532157  81.7382723  19.2853400  29.3496953  81.7012858  18.4721205
  30.1462764  82.6475466  19.3450057  26.0975043  81.8221453  18.2919582
  26.9628040  81.6264262  17.9325471  26.1652552  81.5931805  19.2188939
  26.0060030  80.9264910  14.3911018  25.3524442  80.6113927  13.7667633
  25.9640504  80.3040650  15.1170841  32.4711655  85.8495375  15.8280135
  31.7334412  85.3372762  16.1590378  32.7238428  85.4095757  15.0163412
  32.5723282  78.6271627  16.4221904  32.8782159  77.7668991  16.1347820
  33.2975887  79.2189247  16.2220898  28.6529910  83.1220859  24.2687182
  28.0057825  83.8210808  24.1751658  29.4230926  83.5557003  24.6363430
  30.4005905  84.0896269  16.7726467  30.8974605  83.3366232  16.4527537
  29.6292887  84.1260586  16.2069676  32.8424900  81.0565863  18.9205825
  31.9287980  81.2870090  19.0888032  33.2718002  81.1404307  19.7719858
  24.9644584  82.9327628  24.5810847  25.4878985  83.1789924  25.3437156
  24.7456917  83.7647663  24.1613984  26.1697129  83.8741323  22.2660517
  25.8293949  83.0749136  22.6681197  25.4636135  84.1743034  21.6937350
  26.8213601  80.9590635  20.7187840  27.6439670  80.4851113  20.5966731
  27.0651664  81.7381119  21.2186526  29.6052958  84.6924043  11.9509074
  29.8216572  85.5748681  11.6497902  29.1247025  84.3010256  11.2214716
  25.6085458  83.5226684  13.8448279  25.7301369  82.5943330  14.0439166
  25.3187500  83.5365370  12.9326594  28.4776648  81.2081595  16.9814998
  28.4998345  81.2720928  16.0266978  28.8944707  80.3686103  17.1755505
  30.0264860  82.0069671  22.3249990  30.5446804  82.7430698  21.9996479
  29.6719993  82.3133664  23.1596749  30.2777454  78.4269953  17.8450887
  30.5579208  77.7593142  18.4711313  31.0628061  78.6199049  17.3325551
  34.1486312  86.8487587  21.5922462  35.1003735  86.9485685  21.6134686
  33.9789763  86.0565856  22.1020546  32.1700692  83.9343171  21.7781863
  31.5750624  84.2148183  21.0828351  31.8850389  84.4237072  22.5498604
  36.7768879  86.8604750  20.7523045  36.2607927  86.0763207  20.5652974
  37.6608827  86.5323467  20.9169564  34.4379606  80.6045766  16.7118857
  34.2404427  80.2960854  17.5962189  35.0479311  81.3307405  16.8416787
  28.2662704  81.4076626  12.8391092  27.4563432  81.0623711  13.2146338
  28.9547121  81.0984170  13.4278704  30.1953252  80.4854673  14.4615389
  30.7484291  80.9050126  15.1205412  30.4323339  79.5590421  14.5038345
  33.5732059  82.5955198  13.9694053  32.9930728  83.2540002  13.5872105
  33.3067992  81.7732543  13.5581470  32.0235626  81.9960256  16.1715373
  32.5235404  82.1076790  15.3629692  32.6671234  81.6921309  16.8116182
  32.3556937  84.7555288  13.0250401  31.4682792  85.0404939  12.8070596
  32.7710926  84.5949052  12.1777678  35.7071473  84.7801809  16.7404740
  36.4831864  85.2698262  17.0129357  34.9819608  85.2059864  17.1976610
  38.1444032  85.4929429  17.7978681  38.7388523  85.2525165  17.0871989
  38.2170616  84.7736559  18.4252217  36.1402767  86.0599556  14.0650811
  35.8839701  85.6596192  14.8959019  35.5155635  86.7743350  13.9400950
  40.4515105  88.7995630  16.5722102  39.8914663  88.8688819  17.3453664
  39.8458608  88.6236614  15.8521599  26.3728866  80.9622715  10.1138539
  26.3607536  81.9064555  10.2706810  27.2652288  80.7792860   9.8198000
  30.1880985  77.5565491  14.3684476  29.4213381  77.0023978  14.5141158
  30.5991690  77.6287360  15.2298627   6.8099350  37.6000793  11.8845095
   6.7987991  37.2053591  11.0125599   6.9719990  36.8666865  12.4778866
   3.5306612  40.3837905  10.8324279   3.2396477  41.2883536  10.7170945
   4.1663596  40.4254432  11.5468348   8.4896497  40.0699320   7.8274073
   8.1897220  40.9724359   7.7189880   8.1447556  39.8031503   8.6795225
   5.9634506  34.0071506  13.4506407   5.1867840  34.5665426  13.4409272
   6.6025069  34.4928289  13.9721277   4.2180878  36.8156959  13.0124374
   4.9595563  37.3542003  12.7359198   3.5117864  37.4423248  13.1695926
   9.6936218  38.9586100  11.6096536  10.1019574  38.5168510  10.8651168
   8.9713480  38.3838727  11.8630729  11.1505196  38.1001687   9.3188532
  11.3622092  38.7433447   8.6422913  11.1034945  37.2664004   8.8510462
  12.2651024  40.9773643   7.4910889  13.0868468  40.5753830   7.2093571
  12.2613427  40.8741877   8.4427005   6.0307628  40.5257686   9.6471600
   6.0952060  40.9878093  10.4829771   5.3218552  39.8955051   9.7753909
   7.3724122  42.8149360  13.6450922   6.9287976  42.0285739  13.3271827
   8.0341335  43.0028510  12.9794813   9.4705360  43.0952160  11.6732323
   9.4523835  43.9161041  11.1812592  10.3925280  42.9706235  11.8982464
   5.9278414  40.6096289  12.5155832   6.4606751  39.8484578  12.2855140
   5.3992495  40.3169941  13.2579986  14.4590542  39.5417555   5.9609275
  14.8927049  39.4492844   6.8092330  15.1722123  39.5175055   5.3229291
   8.1918437  43.1419649   7.4942376   8.2455460  43.7110585   8.2620092
   7.3233219  43.3121534   7.1296413  15.3206092  39.5841255   8.4942161
  15.5141982  40.4887066   8.7401436  15.2206710  39.1248674   9.3280746
  10.3821201  39.7347998  14.0683041  10.2306707  39.5058550  13.1513125
  10.3725880  40.6918600  14.0814387  12.0913407  42.7667121  12.1459523
  12.0325953  42.0826341  11.4790106  12.4932926  43.5086111  11.6940149
  12.0930815  40.7306705  10.3773503  11.2057593  40.3932626  10.4999902
  12.6629366  39.9989736  10.6142268   5.6231968  45.3908157   7.3434746
   5.5502139  46.1963128   7.8554051   5.1809361  45.5900123   6.5182768
   8.0830652  45.2894991   9.4992905   8.7958624  45.9242456   9.4268806
   7.5920680  45.3858857   8.6832907   3.1342565  43.0389434  10.3198476
   3.8352025  43.6725917  10.4727870   2.6637680  43.3804166   9.5594115
   6.9831424  36.3353853  14.6317063   6.3072061  36.2347982  15.3019438
   7.8059058  36.1793067  15.0953060   5.7254207  47.6420780   8.8674679
   6.2772515  47.8052402   9.6323764   6.0660400  48.2325218   8.1954704
  10.5765081  42.4682038  14.7223334  11.1204985  43.0811996  14.2278288
   9.9951926  43.0261616  15.2390347   8.8622594  45.5902756   5.8538361
   8.7373734  44.7892496   5.3449307   9.5201685  46.0848949   5.3652331
  10.9257503  43.3911776   7.4817911   9.9787838  43.2717127   7.4096238
  11.2740276  42.5034274   7.5644173  11.5338058  44.0093051   4.7687136
  12.4584605  43.8035912   4.6311588  11.3653361  43.7609452   5.6776478
   5.8720018  45.2079262  10.8823334   6.1807145  44.9628409  11.7546033
   6.6695500  45.4125900  10.3942204  13.8993876  41.9278092  14.0584655
  13.1089419  41.9102231  13.5189154  13.6627230  42.4666386  14.8133691
  14.0191751  38.7770558  11.3717383  14.0689756  38.6120566  12.3132906
  13.9105674  37.9097817  10.9815264  11.3095513  34.7601486  12.6876690
  12.2105376  34.6207951  12.3960688  11.3843488  34.9255941  13.6274868
  15.5209947  41.1967500  11.6159405  15.2294756  41.5597480  12.4522866
  14.9082079  40.4834508  11.4372737  13.7697136  36.3200115  10.0839463
  14.2451257  36.5127761   9.2758314  12.8462701  36.3759300   9.8382847
  20.7663432  37.4788001   6.5716105  21.4966821  37.2173289   7.1323808
  20.1570378  36.7416723   6.6118173  18.8478729  35.6195864   7.1690556
  18.1211893  35.4851829   6.5607048  18.4326016  35.9272692   7.9747274
   6.6708906  39.3385793  14.9337929   7.5911915  39.5164392  15.1277976
   6.6358489  38.3941839  14.7817628   4.5398844  32.8220034  16.9663459
   4.4395571  33.7714391  16.8975550   4.3220386  32.4938273  16.0939529
   4.4030114  36.2517173  15.7828521   3.9197196  37.0517533  15.9892410
   4.4891053  36.2625118  14.8295965   8.6991140  40.1141805  16.5852090
   9.5682299  40.2882457  16.2238725   8.2197891  40.9336222  16.4627819
  20.3583616  51.8230431   5.9897365  20.9962026  51.7037178   5.2860705
  20.2404458  52.7711275   6.0485317  17.1673322  51.7757859   5.9258889
  16.8291833  51.6598924   5.0379424  18.0363090  51.3749024   5.9059895
  17.6493105  52.9292711  11.8845095  17.6381746  52.5345509  11.0125599
  17.8113744  52.1958783  12.4778866  14.3700366  55.7129822  10.8324279
  14.0790232  56.6175453  10.7170945  15.0057350  55.7546350  11.5468348
  15.2956573  53.0906671   7.4225639  15.8920145  52.8662693   6.7082601
  15.3531544  52.3491416   8.0251086  19.9124884  49.5481885   3.0650573
  20.6987973  49.1301308   2.7140990  20.1763588  50.4527977   3.2332221
  25.3133311  49.4857118   3.9683551  26.0458483  48.9156335   4.2021381
  24.5572667  49.0978718   4.4090057  16.9309431  51.9084359   1.1646894
  16.5667638  51.3814980   1.8759815  17.7876547  51.5182828   0.9913379
  22.8358732  43.1978692   8.4278160  22.5042056  44.0674103   8.2039375
  22.2404345  42.8814976   9.1072190  19.3290251  55.3991238   7.8274073
  19.0290974  56.3016277   7.7189880  18.9841311  55.1323421   8.6795225
  12.7802733  51.8505035   3.8610777  11.8553229  51.7181249   4.0688469
  13.0287146  52.6299254   4.3580719  22.7287395  47.9173778   5.5071510
  21.8204272  47.8489186   5.2130271  22.6774991  48.3945723   6.3353335
  16.8028261  49.3363424  13.4506407  16.0261595  49.8957344  13.4409272
  17.4418824  49.8220207  13.9721277  24.5949041  46.1190216   7.2849384
  23.9523422  46.4122750   6.6389178  24.0903970  46.0043137   8.0902580
  22.2489205  49.8653390  -2.0264757  23.1607061  50.0980776  -2.2017059
  21.7398852  50.4490434  -2.5889678  15.0574633  52.1448877  13.0124374
  15.7989317  52.6833921  12.7359198  14.3511618  52.7715166  13.1695926
  20.5329973  54.2878017  11.6096536  20.9413329  53.8460428  10.8651168
  19.8107234  53.7130645  11.8630729  16.8861043  49.2250624   8.9830093
  17.7322238  49.6490038   9.1264742  16.8259680  48.5684249   9.6768656
  20.8558787  54.8479208   5.3648825  20.2267650  55.0124922   4.6624892
  20.4684449  55.2620818   6.1359789  24.7348019  55.7833646   2.7193188
  24.0499057  56.1632547   2.1690222  24.8191868  56.3928973   3.4525136
  20.0360488  46.8854993  10.6411266  19.7921420  47.6397053  10.1045542
  20.3120418  47.2640340  11.4758513  21.9898951  53.4293605   9.3188532
  22.2015846  54.0725365   8.6422913  21.9428699  52.5955922   8.8510462
  19.5925180  46.0411426   6.2225104  18.7309659  46.3392679   6.5141842
  19.6187614  46.2581824   5.2906137  16.4086749  54.5853616   2.6298910
  16.8725095  54.8641319   1.8403532  16.1443547  53.6837061   2.4472000
  13.3010830  54.1325098   5.5678673  13.8712187  54.5612366   4.9296157
  13.8918942  53.8507682   6.2662859  13.7935997  49.2988525  13.8139684
  13.1634657  49.9804806  14.0475081  13.6872085  49.1871607  12.8692822
  23.1044779  56.3065560   7.4910889  23.9262222  55.9045748   7.2093571
  23.1007182  56.2033795   8.4427005  16.8701382  55.8549604   9.6471600
  16.9345815  56.3170011  10.4829771  16.1612306  55.2246969   9.7753909
   7.3718672  49.2190812   7.1720599   7.6226711  50.1037822   7.4378175
   7.9078221  49.0395413   6.3995691  31.1950772  52.6504309   3.8395861
  30.4414480  52.0811707   3.6839865  31.3298313  52.6166973   4.7866495
  13.0716739  43.6009291  16.1764935  12.6783685  43.0475490  16.8512579
  13.8882880  43.9119869  16.5671453  15.9884700  45.0167170  13.7685192
  16.7294414  45.6174323  13.6889654  16.2202623  44.2744808  13.2103234
  11.1326038  50.2023537  12.0463421  11.0179554  49.3008795  12.3470520
  10.2770556  50.4487234  11.6948238  18.2117876  58.1441278  13.6450922
  17.7681730  57.3577656  13.3271827  18.8735090  58.3320428  12.9794813
  20.3099114  58.4244078  11.6732323  20.2917590  59.2452959  11.1812592
  21.2319034  58.2998153  11.8982464  16.7672168  55.9388207  12.5155832
  17.3000505  55.1776495  12.2855140  16.2386250  55.6461859  13.2579986
  19.9341863  41.0448273   8.0449473  19.5906133  41.9349915   7.9688584
  20.3020826  40.8549931   7.1819058  17.4839257  45.8806585   1.6107147
  16.6280853  45.4913435   1.4312786  17.8966209  45.9598546   0.7506932
  19.0138404  43.4152928   6.0098707  18.5103199  43.3783063   5.1966512
  19.3069011  44.3245671   6.0695363  15.2581290  43.4991658   5.0164888
  16.1234286  43.3034467   4.6570778  15.3258799  43.2702010   5.9434245
  24.8726420  53.7889239  -1.5124918  24.0955863  53.4500398  -1.9569756
  25.5517901  53.7941862  -2.1869953  19.6878449  48.9083976  -1.6218310
  19.3828585  49.2230125  -0.7708167  20.6408891  48.9865396  -1.5790977
  23.1117727  53.2623220   5.1441690  22.4541402  53.9522481   5.2321819
  23.9158126  53.6519652   5.4875676  21.9223186  51.6167593   3.1945632
  22.4355068  52.2497585   3.6967341  22.5724410  51.0168788   2.8288992
  18.4004017  49.0917048   5.4403972  17.4826578  49.3131995   5.2825660
  18.8164160  49.1663359   4.5815680  19.1839065  50.4908464   0.5706653
  19.9310884  51.0029861   0.2613775  19.4530654  50.1692517   1.4311046
  22.6884982  56.5973594   1.3224774  22.2347309  55.7564504   1.3789965
  22.0578949  57.2334993   1.6599555  21.6317902  47.5265580   2.5525442
  20.8940659  47.0142966   2.8835684  21.8844675  47.0865962   1.7408719
  21.1317921  58.4350091   2.2574593  21.4240896  58.9955148   1.5386958
  21.6416542  58.7278652   3.0127752  21.7329529  40.3041832   3.1467211
  22.0388406  39.4439196   2.8593126  22.4582134  40.8959452   2.9466205
  16.0050609  50.5995625   3.6543402  16.0599219  49.6469462   3.5785879
  15.1941811  50.7555064   4.1384701  13.9442969  49.2172685   1.4133781
  13.1310834  49.5166856   1.8198973  14.4401963  48.8228374   2.1308263
  19.5417180  49.6814510  10.2448675  19.8966568  49.9085983  11.1043141
  20.1889312  50.0132886   9.6225930  25.2714917  52.8032945   0.9498004
  25.1332816  52.9934541   0.0219193  24.9151136  53.5652328   1.4066055
  13.4357043  46.7891041   7.0295016  14.0756423  46.6479800   6.3317979
  12.6034574  46.5025554   6.6533618  25.2984297  54.8709472   5.9609275
  25.7320804  54.7784761   6.8092330  26.0115878  54.8466973   5.3229291
  19.0312192  58.4711567   7.4942376  19.0849214  59.0402503   8.2620092
  18.1626973  58.6413452   7.1296413  11.9110585  48.1729123   8.9766827
  12.5833639  47.9646485   8.3279476  11.0840372  47.9751209   8.5372060
  26.1599846  54.9133173   8.4942161  26.3535737  55.8178984   8.7401436
  26.0600465  54.4540592   9.3280746  17.8136157  44.7991064  10.9932488
  17.1664072  45.4981013  10.8996965  18.5837173  45.2327208  11.3608736
  21.2214955  55.0639916  14.0683041  21.0700462  54.8350467  13.1513125
  21.2119635  56.0210517  14.0814387  17.9900292  52.6371829   9.0529308
  18.9192352  52.7882988   8.8798275  17.5691322  52.7255849   8.1977954
  16.7888623  56.6622493   6.8227846  16.6499709  56.2941277   7.6953784
  16.0003220  57.1770132   6.6511803  18.3393839  56.0404096   4.2116683
  18.0043671  56.0004866   5.1074333  17.8397784  55.3748812   3.7387094
  12.3138082  51.4471726   9.7369264  12.1757880  50.7151965  10.3380804
  13.2243006  51.3580626   9.4553452  14.9420383  51.1591685   9.2252944
  15.6520002  50.5184877   9.1839563  14.8989691  51.4104580  10.1479125
  22.9307162  58.0959038  12.1459523  22.8719708  57.4118258  11.4790106
  23.3326680  58.8378028  11.6940149  13.6549317  48.1456903  11.0448584
  13.1186674  47.6947641  11.6970180  13.0666026  48.2802812  10.3019048
  22.9324569  56.0598622  10.3773503  22.0451348  55.7224544  10.4999902
  23.5023120  55.3281654  10.6142268   9.3888438  47.2812911   8.1301578
   9.3046627  46.6738580   7.3951988   8.5671145  47.7721929   8.1311074
  16.4625722  60.7200075   7.3434746  16.3895894  61.5255046   7.8554051
  16.0203116  60.9192040   6.5182768  19.5612152  45.7666474   3.4971773
  20.0580852  45.0136436   3.1772843  18.7899134  45.8030791   2.9314982
  27.4141910  51.4706840   5.1390065  27.4031786  52.3531555   4.7683998
  26.5459289  51.1178390   4.9444602  18.9224406  60.6186909   9.4992905
  19.6352378  61.2534373   9.4268806  18.4314435  60.7150775   8.6832907
  20.6441933  54.5238161   1.0710197  19.7098212  54.6439624   0.9014901
  20.8218601  53.6210628   0.8070206  16.1447121  47.9083857   3.2243458
  15.7744908  47.3554897   3.9124363  16.6406213  47.3041991   2.6718458
  24.0314484  50.3655481   1.6060231  24.4974936  51.1983472   1.5320533
  24.4821985  49.9000462   2.3105489  13.9736320  58.3681352  10.3198476
  14.6745779  59.0017835  10.4727870  13.5031435  58.7096084   9.5594115
  22.0990715  56.7099302  -1.3953617  22.3750559  56.5955897  -0.4859743
  21.2295214  56.3116787  -1.4341444  22.0031147  42.7336068   5.6451132
  21.0894227  42.9640294   5.8133339  22.4324248  42.8174512   6.4965164
  21.7737605  50.9225960   8.1451026  21.1209056  51.1701867   7.4903479
  22.1517985  50.1090098   7.8113503  17.8225179  51.6645771  14.6317063
  17.1465816  51.5639900  15.3019438  18.6452812  51.5084984  15.0953060
  16.5647961  62.9712698   8.8674679  17.1166269  63.1344320   9.6323764
  16.9054155  63.5617136   8.1954704  11.5412455  45.3187848   9.4696564
  11.6053781  46.1802679   9.0573962  11.4779575  44.7061850   8.7368922
  11.0164727  47.3910980  13.1169598  11.6436766  47.0088058  13.7307122
  10.1592646  47.1725182  13.4825291  21.4158836  57.7973956  14.7223334
  21.9598740  58.4103914  14.2278288  20.8345681  58.3553534  15.2390347
  19.7016349  60.9194674   5.8538361  19.5767488  60.1184413   5.3449307
  20.3595440  61.4140867   5.3652331  11.3224517  47.2743406   5.0315502
  10.6011103  47.8879374   4.8922975  12.1117773  47.8101171   4.9532147
  21.7651257  58.7203694   7.4817911  20.8181593  58.6009045   7.4096238
  22.1134030  57.8326192   7.5644173  14.1250830  44.6097833  11.3056153
  14.6485232  44.8560129  12.0682463  13.9063164  45.4417867  10.8859291
  18.7697690  58.5156410   3.6822264  18.6222653  57.5873117   3.8629834
  19.5951184  58.5376501   3.1979339  22.3731812  59.3384969   4.7687136
  23.2978360  59.1327830   4.6311588  22.2047116  59.0901370   5.6776478
  15.3303375  45.5511528   8.9905824  14.9900196  44.7519341   9.3926504
  14.6242382  45.8513239   8.4182657  15.9819847  42.6360840   7.4433147
  16.8045917  42.1621318   7.3212037  16.2257911  43.4151324   7.9431833
  13.5058426  49.3279961   5.2525125  13.3603007  49.6420264   6.1449407
  13.0283630  49.9464861   4.6996024  15.3654809  46.3182509   5.3006015
  15.3516378  45.4223602   4.9638313  16.0827237  46.3253173   5.9344301
  17.2180940  46.7519849   7.3459142  16.9598717  47.6736920   7.3443473
  16.6865980  46.3550284   8.0359607  22.1627128  59.8570636   0.1249228
  22.3364006  59.2917059  -0.6276920  22.6556020  60.6571531  -0.0571282
   7.9804088  51.8685305   8.1912787   7.4357556  52.6445113   8.3233061
   8.8583438  52.2156110   8.0331908  17.6382895  42.8851799   3.7060305
  17.6604592  42.9491133   2.7512285  18.0550954  42.0456308   3.9000811
  28.0166520  52.6207059   1.7439528  28.4597666  51.8714384   1.3458651
  27.1393030  52.6117195   1.3613260   8.7670110  50.9955201  11.0842943
   8.0251846  51.1437837  11.6707574   8.4462854  51.2563467  10.2209693
  25.0493724  56.6237106  -1.2466543  25.5745048  56.9624379  -1.9717223
  24.9616077  55.6884121  -1.4303409  16.7113773  60.5371180  10.8823334
  17.0200899  60.2920326  11.7546033  17.5089255  60.7417818  10.3942204
  14.2532784  46.7128886  14.7783518  14.3020940  47.5891009  14.3961287
  14.7955299  46.1706279  14.2055161  24.7387630  57.2570010  14.0584655
  23.9483174  57.2394149  13.5189154  24.5020985  57.7958303  14.8133691
  24.8585505  54.1062476  11.3717383  24.9083510  53.9412483  12.3132906
  24.7499428  53.2389735  10.9815264  22.1489268  50.0893404  12.6876690
  23.0499130  49.9499869  12.3960688  22.2237242  50.2547859  13.6274868
  16.4832073  47.4660259  11.5329876  15.6135382  47.7593825  11.2612465
  16.7191553  48.0500704  12.2537140  26.3603702  56.5259418  11.6159405
  26.0688510  56.8889398  12.4522866  25.7475833  55.8126426  11.4372737
  27.5599384  54.0912297   4.1361975  28.3946276  54.5302101   4.2999535
  27.6958513  53.6150951   3.3170221  24.6090890  51.6492032  10.0839463
  25.0845012  51.8419679   9.2758314  23.6856456  51.7051218   9.8382847
  19.1871107  43.6839876   9.0495297  19.7053051  44.4200903   8.7241785
  18.8326239  43.9903869   9.8842056  19.4383701  40.1040158   4.5696193
  19.7185455  39.4363347   5.1956620  20.2234308  40.2969254   4.0570857
  23.3092559  48.5257792   8.3167768  24.2609982  48.6255890   8.3379993
  23.1396010  47.7336061   8.8265853  21.3306939  45.6113375   8.5027169
  20.7356871  45.8918388   7.8073658  21.0456635  46.1007276   9.2743911
  25.7880637  51.7463912   7.4310068  25.7556957  50.8079913   7.6169752
  26.3981261  51.8247949   6.6975893  25.9375125  48.5374955   7.4768351
  25.4214174  47.7533412   7.2898280  26.8215074  48.2093672   7.6414871
  23.5985852  42.2815971   3.4364164  23.4010674  41.9731059   4.3207496
  24.2085558  43.0077610   3.5662094  31.6057187  52.8079919   6.5716105
  32.3360575  52.5465207   7.1323808  30.9964132  52.0708641   6.6118173
  29.6872484  50.9487781   7.1690556  28.9605648  50.8143746   6.5607048
  29.2719771  51.2564610   7.9747274  17.5102660  54.6677711  14.9337929
  18.4305670  54.8456310  15.1277976  17.4752243  53.7233756  14.7817628
  10.5064733  52.5778746   7.5760710  10.7250743  53.5095854   7.5948744
  10.9190507  52.2186720   8.3615514  15.3792598  48.1511951  16.9663459
  15.2789325  49.1006308  16.8975550  15.1614140  47.8230190  16.0939529
  22.7338306  44.2725403   0.6939360  22.1536975  44.9310207   0.3117412
  22.4674239  43.4502748   0.2826777  21.1841872  43.6730461   2.8960680
  21.6841651  43.7846995   2.0874999  21.8277480  43.3691514   3.5361488
  15.2423868  51.5809090  15.7828521  14.7590950  52.3809450  15.9892410
  15.3284807  51.5917035  14.8295965  11.1697206  55.4713625   7.8196955
  12.1240459  55.4397567   7.7526886  10.9709729  55.0104249   8.6347181
  11.7596588  54.0414741  10.3867752  12.5789477  54.5358820  10.4102590
  12.0333396  53.1246709  10.3585320  21.5163184  46.4325493  -0.2504292
  20.6289039  46.7175144  -0.4684097  21.9317173  46.2719257  -1.0977015
  24.8677720  46.4572014   3.4650047  25.6438110  46.9468467   3.7374664
  24.1425854  46.8830069   3.9221917  27.3050279  47.1699634   4.5223988
  27.8994770  46.9295370   3.8117296  27.3776863  46.4506764   5.1497524
  21.4904208  51.9480029  -0.0354002  21.4339409  52.4048581  -0.8746370
  22.0432550  51.1870714  -0.2131159  25.3009014  47.7369761   0.7896118
  25.0445948  47.3366397   1.6204325  24.6761882  48.4513555   0.6646257
  29.6121352  50.4765834   3.2967409  29.0520910  50.5459024   4.0698971
  29.0064855  50.3006819   2.5766905  22.2238987  53.1384811  -2.7401473
  22.1687791  52.9729082  -3.6813029  21.5985042  53.8460843  -2.5839283
   7.0131502  48.3752875  11.0859949   7.6590366  47.8651829  11.5747175
   6.8048653  49.1121557  11.6603375  19.5384894  55.4433722  16.5852090
  20.4076054  55.6174375  16.2238725  19.0591646  56.2628139  16.4627819
  11.3528993  45.5220492  15.1834964  12.2160455  45.1657297  15.3938288
  10.7794404  45.1834387  15.8710368  31.1977370  67.1522348   5.9897365
  31.8355780  67.0329096   5.2860705  31.0798213  68.1003192   6.0485317
  28.0067076  67.1049776   5.9258889  27.6685588  66.9890841   5.0379424
  28.8756845  66.7040942   5.9059895  28.4886859  68.2584628  11.8845095
  28.4775500  67.8637426  11.0125599  28.6507499  67.5250701  12.4778866
  25.2094121  71.0421740  10.8324279  24.9183986  71.9467371  10.7170945
  25.8451105  71.0838268  11.5468348  26.1350327  68.4198589   7.4225639
  26.7313900  68.1954611   6.7082601  26.1925299  67.6783334   8.0251086
  30.7518639  64.8773802   3.0650573  31.5381728  64.4593225   2.7140990
  31.0157343  65.7819894   3.2332221  36.1527066  64.8149035   3.9683551
  36.8852238  64.2448252   4.2021381  35.3966421  64.4270636   4.4090057
  27.7703185  67.2376277   1.1646894  27.4061393  66.7106898   1.8759815
  28.6270301  66.8474746   0.9913379  33.6752486  58.5270610   8.4278160
  33.3435811  59.3966020   8.2039375  33.0798099  58.2106894   9.1072190
  30.1684006  70.7283156   7.8274073  29.8684729  71.6308194   7.7189880
  29.8235065  70.4615339   8.6795225  23.6196487  67.1796952   3.8610777
  22.6946984  67.0473166   4.0688469  23.8680900  67.9591172   4.3580719
  33.5681149  63.2465696   5.5071510  32.6598027  63.1781104   5.2130271
  33.5168745  63.7237641   6.3353335  27.6422015  64.6655341  13.4506407
  26.8655349  65.2249261  13.4409272  28.2812578  65.1512124  13.9721277
  35.4342796  61.4482134   7.2849384  34.7917176  61.7414667   6.6389178
  34.9297724  61.3335054   8.0902580  25.8968387  67.4740795  13.0124374
  26.6383072  68.0125839  12.7359198  25.1905373  68.1007083  13.1695926
  31.3723727  69.6169935  11.6096536  31.7807083  69.1752346  10.8651168
  30.6500989  69.0422563  11.8630729  27.7254797  64.5542542   8.9830093
  28.5715992  64.9781955   9.1264742  27.6653435  63.8976166   9.6768656
  31.6952542  70.1771126   5.3648825  31.0661404  70.3416840   4.6624892
  31.3078204  70.5912735   6.1359789  30.8754242  62.2146910  10.6411266
  30.6315174  62.9688971  10.1045542  31.1514173  62.5932258  11.4758513
  32.8292705  68.7585523   9.3188532  33.0409600  69.4017283   8.6422913
  32.7822453  67.9247839   8.8510462  30.4318934  61.3703343   6.2225104
  29.5703413  61.6684597   6.5141842  30.4581369  61.5873742   5.2906137
  27.2480504  69.9145534   2.6298910  27.7118849  70.1933237   1.8403532
  26.9837302  69.0128978   2.4472000  24.1404585  69.4617015   5.5678673
  24.7105942  69.8904284   4.9296157  24.7312697  69.1799600   6.2662859
  24.6329751  64.6280443  13.8139684  24.0028412  65.3096724  14.0475081
  24.5265839  64.5163524  12.8692822  33.9438533  71.6357478   7.4910889
  34.7655977  71.2337665   7.2093571  33.9400936  71.5325712   8.4427005
  27.7095137  71.1841521   9.6471600  27.7739569  71.6461929  10.4829771
  27.0006061  70.5538886   9.7753909  18.2112427  64.5482729   7.1720599
  18.4620465  65.4329739   7.4378175  18.7471975  64.3687331   6.3995691
  42.0344526  67.9796227   3.8395861  41.2808235  67.4103625   3.6839865
  42.1692067  67.9458891   4.7866495  23.9110494  58.9301209  16.1764935
  23.5177440  58.3767407  16.8512579  24.7276634  59.2411787  16.5671453
  26.8278455  60.3459088  13.7685192  27.5688168  60.9466241  13.6889654
  27.0596378  59.6036726  13.2103234  21.9719793  65.5315455  12.0463421
  21.8573308  64.6300712  12.3470520  21.1164311  65.7779152  11.6948238
  29.0511631  73.4733195  13.6450922  28.6075485  72.6869574  13.3271827
  29.7128844  73.6612346  12.9794813  31.1492869  73.7535995  11.6732323
  31.1311344  74.5744876  11.1812592  32.0712789  73.6290070  11.8982464
  27.6065923  71.2680125  12.5155832  28.1394260  70.5068413  12.2855140
  27.0780004  70.9753777  13.2579986  30.7735618  56.3740191   8.0449473
  30.4299887  57.2641832   7.9688584  31.1414580  56.1841848   7.1819058
  28.3233012  61.2098503   1.6107147  27.4674608  60.8205353   1.4312786
  28.7359963  61.2890463   0.7506932  29.8532158  58.7444846   6.0098707
  29.3496954  58.7074981   5.1966512  30.1462765  59.6537589   6.0695363
  26.0975044  58.8283576   5.0164888  26.9628041  58.6326384   4.6570778
  26.1652553  58.5993927   5.9434245  30.5272204  64.2375894  -1.6218310
  30.2222339  64.5522043  -0.7708167  31.4802646  64.3157314  -1.5790977
  33.9511482  68.5915138   5.1441690  33.2935156  69.2814399   5.2321819
  34.7551881  68.9811570   5.4875676  23.7037363  61.0585784   2.3881255
  24.2781115  60.8360965   1.6554448  24.2908346  61.1274478   3.1409857
  32.7616940  66.9459510   3.1945632  33.2748822  67.5789502   3.6967341
  33.4118164  66.3460706   2.8288992  26.0060031  57.9327032   1.1156325
  25.3524443  57.6176050   0.4912939  25.9640505  57.3102773   1.8416148
  29.2397771  64.4208966   5.4403972  28.3220333  64.6423913   5.2825660
  29.6557915  64.4955276   4.5815680  30.0232819  65.8200382   0.5706653
  30.7704638  66.3321779   0.2613775  30.2924409  65.4984434   1.4311046
  32.4711656  62.8557498   2.5525442  31.7334413  62.3434884   2.8835684
  32.7238430  62.4157879   1.7408719  32.5723284  55.6333750   3.1467211
  32.8782160  54.7731113   2.8593126  33.2975888  56.2251370   2.9466205
  26.8444363  65.9287543   3.6543402  26.8992973  64.9761379   3.5785879
  26.0335565  66.0846982   4.1384701  24.7836723  64.5464603   1.4133781
  23.9704589  64.8458773   1.8198973  25.2795717  64.1520291   2.1308263
  30.3810935  65.0106427  10.2448675  30.7360323  65.2377900  11.1043141
  31.0283066  65.3424804   9.6225930  24.2750798  62.1182958   7.0295016
  24.9150177  61.9771717   6.3317979  23.4428328  61.8317472   6.6533618
  36.1378051  70.2001390   5.9609275  36.5714558  70.1076679   6.8092330
  36.8509632  70.1758891   5.3229291  29.8705946  73.8003484   7.4942376
  29.9242969  74.3694421   8.2620092  29.0020728  73.9705369   7.1296413
  22.7504340  63.5021040   8.9766827  23.4227393  63.2938403   8.3279476
  21.9234126  63.3043126   8.5372060  36.9993601  70.2425091   8.4942161
  37.1929491  71.1470901   8.7401436  36.8994219  69.7832510   9.3280746
  28.6529912  60.1282981  10.9932488  28.0057827  60.8272931  10.8996965
  29.4230927  60.5619125  11.3608736  32.0608710  70.3931833  14.0683041
  31.9094216  70.1642385  13.1513125  32.0513389  71.3502435  14.0814387
  28.8294046  67.9663746   9.0529308  29.7586106  68.1174906   8.8798275
  28.4085076  68.0547767   8.1977954  27.6282378  71.9914411   6.8227846
  27.4893464  71.6233195   7.6953784  26.8396974  72.5062050   6.6511803
  29.1787593  71.3696013   4.2116683  28.8437426  71.3296783   5.1074333
  28.6791539  70.7040729   3.7387094  23.1531837  66.7763643   9.7369264
  23.0151635  66.0443882  10.3380804  24.0636760  66.6872543   9.4553452
  25.7814138  66.4883603   9.2252944  26.4913756  65.8476795   9.1839563
  25.7383446  66.7396498  10.1479125  33.7700916  73.4250956  12.1459523
  33.7113462  72.7410176  11.4790106  34.1720435  74.1669946  11.6940149
  24.4943072  63.4748821  11.0448584  23.9580429  63.0239559  11.6970180
  23.9059780  63.6094729  10.3019048  33.7718324  71.3890540  10.3773503
  32.8845102  71.0516462  10.4999902  34.3416875  70.6573571  10.6142268
  20.2282193  62.6104828   8.1301578  20.1440382  62.0030498   7.3951988
  19.4064899  63.1013847   8.1311074  27.3019477  76.0491992   7.3434746
  27.2289648  76.8546964   7.8554051  26.8596870  76.2483958   6.5182768
  30.4005907  61.0958392   3.4971773  30.8974606  60.3428354   3.1772843
  29.6292888  61.1322708   2.9314982  38.2535664  66.7998757   5.1390065
  38.2425540  67.6823473   4.7683998  37.3853044  66.4470308   4.9444602
  29.7618160  75.9478826   9.4992905  30.4746133  76.5826291   9.4268806
  29.2708189  76.0442692   8.6832907  31.4835687  69.8530079   1.0710197
  30.5491966  69.9731541   0.9014901  31.6612356  68.9502546   0.8070206
  26.9840875  63.2375775   3.2243458  26.6138663  62.6846815   3.9124363
  27.4799968  62.6333908   2.6718458  34.8708239  65.6947398   1.6060231
  35.3368691  66.5275390   1.5320533  35.3215739  65.2292380   2.3105489
  24.8130074  73.6973270  10.3198476  25.5139534  74.3309753  10.4727870
  24.3425189  74.0388001   9.5594115  32.8424901  58.0627985   5.6451132
  31.9287981  58.2932212   5.8133339  33.2718003  58.1466429   6.4965164
  32.6131360  66.2517877   8.1451026  31.9602810  66.4993785   7.4903479
  32.9911740  65.4382015   7.8113503  28.6618933  66.9937688  14.6317063
  27.9859570  66.8931818  15.3019438  29.4846567  66.8376902  15.0953060
  27.4041716  78.3004616   8.8674679  27.9560024  78.4636237   9.6323764
  27.7447909  78.8909054   8.1954704  22.3806209  60.6479766   9.4696564
  22.4447536  61.5094596   9.0573962  22.3173329  60.0353767   8.7368922
  21.8558482  62.7202898  13.1169598  22.4830520  62.3379975  13.7307122
  20.9986400  62.5017100  13.4825291  32.2552590  73.1265873  14.7223334
  32.7992494  73.7395832  14.2278288  31.6739435  73.6845452  15.2390347
  30.5410103  76.2486591   5.8538361  30.4161243  75.4476331   5.3449307
  31.1989194  76.7432785   5.3652331  22.1618271  62.6035324   5.0315502
  21.4404857  63.2171292   4.8922975  22.9511527  63.1393089   4.9532147
  32.6045012  74.0495611   7.4817911  31.6575347  73.9300963   7.4096238
  32.9527785  73.1618109   7.5644173  24.9644585  59.9389750  11.3056153
  25.4878987  60.1852047  12.0682463  24.7456918  60.7709785  10.8859291
  29.6091445  73.8448328   3.6822264  29.4616407  72.9165035   3.8629834
  30.4344938  73.8668418   3.1979339  33.2125567  74.6676886   4.7687136
  34.1372114  74.4619748   4.6311588  33.0440870  74.4193287   5.6776478
  26.1697130  60.8803445   8.9905824  25.8293950  60.0811258   9.3926504
  25.4636136  61.1805156   8.4182657  26.8213602  57.9652758   7.4433147
  27.6439671  57.4913236   7.3212037  27.0651665  58.7443242   7.9431833
  29.6052959  61.6986165  -1.3245619  29.8216574  62.5810803  -1.6256791
  29.1247026  61.3072379  -2.0539977  24.3452181  64.6571878   5.2525125
  24.1996761  64.9712182   6.1449407  23.8677384  65.2756779   4.6996024
  26.2048563  61.6474426   5.3006015  26.1910132  60.7515520   4.9638313
  26.9220992  61.6545090   5.9344301  28.0574694  62.0811767   7.3459142
  27.7992472  63.0028837   7.3443473  27.5259735  61.6842201   8.0359607
  18.8197843  67.1977223   8.1912787  18.2751311  67.9737031   8.3233061
  19.6977193  67.5448027   8.0331908  25.6085459  60.5288807   0.5693585
  25.7301371  59.6005453   0.7684473  25.3187502  60.5427493  -0.3428099
  28.4776650  58.2143717   3.7060305  28.4998347  58.2783050   2.7512285
  28.8944709  57.3748226   3.9000811  19.6063865  66.3247119  11.0842943
  18.8645601  66.4729754  11.6707574  19.2856609  66.5855385  10.2209693
  27.5507527  75.8663097  10.8823334  27.8594654  75.6212244  11.7546033
  28.3483009  76.0709736  10.3942204  25.0926539  62.0420804  14.7783518
  25.1414694  62.9182927  14.3961287  25.6349053  61.4998197  14.2055161
  35.5781385  72.5861927  14.0584655  34.7876928  72.5686066  13.5189154
  35.3414739  73.1250221  14.8133691  35.6979260  69.4354394  11.3717383
  35.7477265  69.2704401  12.3132906  35.5893183  68.5681653  10.9815264
  32.9883022  65.4185322  12.6876690  33.8892885  65.2791787  12.3960688
  33.0630997  65.5839777  13.6274868  27.3225827  62.7952177  11.5329876
  26.4529137  63.0885743  11.2612465  27.5585308  63.3792622  12.2537140
  37.1997456  71.8551335  11.6159405  36.9082265  72.2181316  12.4522866
  36.5869588  71.1418344  11.4372737  38.3993139  69.4204215   4.1361975
  39.2340030  69.8594019   4.2999535  38.5352268  68.9442868   3.3170221
  35.4484645  66.9783950  10.0839463  35.9238766  67.1711596   9.2758314
  34.5250210  67.0343136   9.8382847  30.0264861  59.0131793   9.0495297
  30.5446805  59.7492820   8.7241785  29.6719994  59.3195787   9.8842056
  30.2777455  55.4332076   4.5696193  30.5579209  54.7655265   5.1956620
  31.0628062  55.6261172   4.0570857  34.1486314  63.8549710   8.3167768
  35.1003737  63.9547808   8.3379993  33.9789764  63.0627979   8.8265853
  32.1700693  60.9405293   8.5027169  31.5750625  61.2210306   7.8073658
  31.8850390  61.4299194   9.2743911  36.6274391  67.0755830   7.4310068
  36.5950712  66.1371830   7.6169752  37.2375015  67.1539866   6.6975893
  36.7768880  63.8666873   7.4768351  36.2607929  63.0825330   7.2898280
  37.6608828  63.5385590   7.6414871  34.4379607  57.6107889   3.4364164
  34.2404428  57.3022977   4.3207496  35.0479312  58.3369528   3.5662094
  42.4450941  68.1371836   6.5716105  43.1754330  67.8757125   7.1323808
  41.8357887  67.4000558   6.6118173  40.5266238  66.2779699   7.1690556
  39.7999402  66.1435664   6.5607048  40.1113525  66.5856528   7.9747274
  28.3496415  69.9969629  14.9337929  29.2699424  70.1748228  15.1277976
  28.3145998  69.0525674  14.7817628  21.3458487  67.9070663   7.5760710
  21.5644497  68.8387771   7.5948744  21.7584261  67.5478638   8.3615514
  28.2662705  58.4138749  -0.4363601  27.4563434  58.0685834  -0.0608355
  28.9547122  58.1046292   0.1524010  30.1953254  57.4916796   1.1860695
  30.7484292  57.9112249   1.8450718  30.4323340  56.5652544   1.2283651
  26.2186353  63.4803869  16.9663459  26.1183080  64.4298226  16.8975550
  26.0007895  63.1522108  16.0939529  33.5732061  59.6017321   0.6939360
  32.9930730  60.2602125   0.3117412  33.3067993  58.7794665   0.2826777
  32.0235627  59.0022378   2.8960680  32.5235405  59.1138913   2.0874999
  32.6671235  58.6983431   3.5361488  26.0817623  66.9101008  15.7828521
  25.5984704  67.7101368  15.9892410  26.1678562  66.9208953  14.8295965
  22.0090960  70.8005543   7.8196955  22.9634214  70.7689485   7.7526886
  21.8103484  70.3396166   8.6347181  22.5990342  69.3706659  10.3867752
  23.4183231  69.8650737  10.4102590  22.8727150  68.4538627  10.3585320
  32.3556939  61.7617411  -0.2504292  31.4682794  62.0467062  -0.4684097
  32.7710928  61.6011174  -1.0977015  35.7071475  61.7863932   3.4650047
  36.4831865  62.2760384   3.7374664  34.9819609  62.2121986   3.9221917
  38.1444033  62.4991551   4.5223988  38.7388524  62.2587287   3.8117296
  38.2170617  61.7798682   5.1497524  32.3297962  67.2771947  -0.0354002
  32.2733164  67.7340498  -0.8746370  32.8826305  66.5162632  -0.2131159
  36.1402768  63.0661679   0.7896118  35.8839703  62.6658315   1.6204325
  35.5155636  63.7805473   0.6646257  40.4515106  65.8057752   3.2967409
  39.8914664  65.8750941   4.0698971  39.8458609  65.6298737   2.5766905
  17.8525257  63.7044793  11.0859949  18.4984120  63.1943747  11.5747175
  17.6442408  64.4413474  11.6603375  30.3778649  70.7725640  16.5852090
  31.2469808  70.9466292  16.2238725  29.8985400  71.5920057  16.4627819
  26.3728867  57.9684837  -3.1616154  26.3607537  58.9126677  -3.0047884
  27.2652289  57.7854983  -3.4556693  30.1880987  54.5627614   1.0929782
  29.4213382  54.0086101   1.2386465  30.5991692  54.6349483   1.9543934
  22.1922748  60.8512410  15.1834964  23.0554209  60.4949215  15.3938288
  21.6188158  60.5126305  15.8710368  39.3280614  83.5876546  11.8845095
  39.3169255  83.1929344  11.0125599  39.4901253  82.8542618  12.4778866
  44.5146241  73.8562527   8.4278160  44.1829565  74.7257938   8.2039375
  43.9191854  73.5398811   9.1072190  38.4815770  79.9947259  13.4506407
  37.7049104  80.5541179  13.4409272  39.1206333  80.4804042  13.9721277
  36.7362142  82.8032712  13.0124374  37.4776826  83.3417756  12.7359198
  36.0299127  83.4299001  13.1695926  41.7147997  77.5438828  10.6411266
  41.4708929  78.2980888  10.1045542  41.9907927  77.9224176  11.4758513
  35.4723506  79.9572361  13.8139684  34.8422166  80.6388641  14.0475081
  35.3659594  79.8455442  12.8692822  29.0506181  79.8774647   7.1720599
  29.3014220  80.7621657   7.4378175  29.5865730  79.6979249   6.3995691
  34.7504248  74.2593126  16.1764935  34.3571194  73.7059325  16.8512579
  35.5670389  74.5703705  16.5671453  37.6672209  75.6751005  13.7685192
  38.4081923  76.2758159  13.6889654  37.8990132  74.9328643  13.2103234
  32.8113547  80.8607373  12.0463421  32.6967063  79.9592630  12.3470520
  31.9558065  81.1071069  11.6948238  41.6129372  71.7032108   8.0449473
  41.2693642  72.5933750   7.9688584  41.9808335  71.5133766   7.1819058
  35.1144552  77.4474876   7.0295016  35.7543932  77.3063635   6.3317979
  34.2822083  77.1609389   6.6533618  33.5898094  78.8312958   8.9766827
  34.2621148  78.6230320   8.3279476  32.7627881  78.6335044   8.5372060
  39.4923666  75.4574899  10.9932488  38.8451581  76.1564849  10.8996965
  40.2624682  75.8911043  11.3608736  33.9925591  82.1055561   9.7369264
  33.8545389  81.3735800  10.3380804  34.9030515  82.0164461   9.4553452
  36.6207892  81.8175520   9.2252944  37.3307511  81.1768713   9.1839563
  36.5777200  82.0688415  10.1479125  35.3336826  78.8040738  11.0448584
  34.7974183  78.3531477  11.6970180  34.7453535  78.9386647  10.3019048
  31.0675947  77.9396746   8.1301578  30.9834136  77.3322416   7.3951988
  30.2458654  78.4305764   8.1311074  39.5012687  82.3229606  14.6317063
  38.8253325  82.2223735  15.3019438  40.3240321  82.1668820  15.0953060
  33.2199964  75.9771683   9.4696564  33.2841290  76.8386514   9.0573962
  33.1567084  75.3645685   8.7368922  32.6952236  78.0494816  13.1169598
  33.3224275  77.6671893  13.7307122  31.8380155  77.8309018  13.4825291
  35.8038339  75.2681668  11.3056153  36.3272741  75.5143965  12.0682463
  35.5850673  76.1001703  10.8859291  37.0090884  76.2095363   8.9905824
  36.6687705  75.4103176   9.3926504  36.3029891  76.5097074   8.4182657
  37.6607356  73.2944675   7.4433147  38.4833426  72.8205154   7.3212037
  37.9045420  74.0735159   7.9431833  29.6591597  82.5269141   8.1912787
  29.1145065  83.3028948   8.3233061  30.5370947  82.8739945   8.0331908
  30.4457619  81.6539037  11.0842943  29.7039355  81.8021672  11.6707574
  30.1250363  81.9147302  10.2209693  35.9320293  77.3712722  14.7783518
  35.9808449  78.2474845  14.3961287  36.4742808  76.8290115  14.2055161
  43.8276777  80.7477239  12.6876690  44.7286639  80.6083704  12.3960688
  43.9024751  80.9131694  13.6274868  38.1619582  78.1244094  11.5329876
  37.2922891  78.4177660  11.2612465  38.3979062  78.7084539  12.2537140
  40.8658616  74.3423711   9.0495297  41.3840560  75.0784738   8.7241785
  40.5113748  74.6487704   9.8842056  39.1890169  85.3261546  14.9337929
  40.1093179  85.5040145  15.1277976  39.1539752  84.3817592  14.7817628
  37.0580107  78.8095787  16.9663459  36.9576834  79.7590144  16.8975550
  36.8401649  78.4814026  16.0939529  36.9211377  82.2392926  15.7828521
  36.4378459  83.0393286  15.9892410  37.0072316  82.2500871  14.8295965
  33.4384097  84.6998576  10.3867752  34.2576986  85.1942655  10.4102590
  33.7120905  83.7830545  10.3585320  28.6919011  79.0336710  11.0859949
  29.3377875  78.5235664  11.5747175  28.4836162  79.7705392  11.6603375
  41.2172403  86.1017558  16.5852090  42.0863563  86.2758210  16.2238725
  40.7379155  86.9211975  16.4627819  33.0316502  76.1804327  15.1834964
  33.8947964  75.8241132  15.3938288  32.4581913  75.8418222  15.8710368
  28.4886861  45.2646751  -1.3909598  28.4775501  44.8699549  -2.2629095
  28.6507500  44.5312823  -0.7975827  25.2094122  48.0483863  -2.4430415
  24.9183988  48.9529493  -2.5583748  25.8451106  48.0900390  -1.7286345
  30.1684007  47.7345278  -5.4480621  29.8684730  48.6370317  -5.5564814
  29.8235066  47.4677461  -4.5959468  27.6422016  41.6717464   0.1751714
  26.8655350  42.2311384   0.1654578  28.2812579  42.1574247   0.6966584
  25.8968389  44.4802917  -0.2630319  26.6383073  45.0187961  -0.5395496
  25.1905374  45.1069206  -0.1058767  31.3723728  46.6232058  -1.6658158
  31.7807084  46.1814468  -2.4103525  30.6500990  46.0484685  -1.4123965
  32.8292707  45.7647645  -3.9566162  33.0409602  46.4079405  -4.6331780
  32.7822455  44.9309962  -4.4244231  33.9438534  48.6419601  -5.7843804
  34.7655978  48.2399788  -6.0661123  33.9400937  48.5387835  -4.8327688
  27.7095138  48.1903644  -3.6283094  27.7739570  48.6524051  -2.7924922
  27.0006062  47.5601009  -3.5000784  29.0511632  50.4795318   0.3696229
  28.6075486  49.6931696   0.0517133  29.7128846  50.6674468  -0.2959881
  31.1492870  50.7598118  -1.6022370  31.1311345  51.5806999  -2.0942101
  32.0712790  50.6352193  -1.3772229  27.6065924  48.2742247  -0.7598862
  28.1394261  47.5130536  -0.9899554  27.0780005  47.9815899  -0.0174707
  36.1378053  47.2063513  -7.3145418  36.5714559  47.1138802  -6.4662364
  36.8509633  47.1821013  -7.9525402  29.8705948  50.8065607  -5.7812317
  29.9242970  51.3756543  -5.0134601  29.0020729  50.9767492  -6.1458280
  36.9993602  47.2487213  -4.7812532  37.1929492  48.1533024  -4.5353258
  36.8994220  46.7894632  -3.9473947  32.0608711  47.3993956   0.7928348
  31.9094217  47.1704508  -0.1241568  32.0513390  48.3564557   0.8059693
  33.7700918  50.4313079  -1.1295170  33.7113464  49.7472299  -1.7964587
  34.1720436  51.1732069  -1.5814544  33.7718325  48.3952663  -2.8981190
  32.8845104  48.0578584  -2.7754791  34.3416876  47.6635694  -2.6612425
  27.3019478  53.0554115  -5.9319947  27.2289650  53.8609086  -5.4200643
  26.8596871  53.2546081  -6.7571926  29.7618162  52.9540949  -3.7761788
  30.4746134  53.5888414  -3.8485887  29.2708190  53.0504815  -4.5921787
  24.8130075  50.7035392  -2.9556218  25.5139535  51.3371875  -2.8026823
  24.3425190  51.0450124  -3.7160578  28.6618934  43.9999811   1.3562370
  27.9859571  43.8993940   2.0264745  29.4846568  43.8439025   1.8198367
  27.4041717  55.3066738  -4.4080014  27.9560025  55.4698360  -3.6430929
  27.7447911  55.8971176  -5.0799989  32.2552591  50.1327996   1.4468640
  32.7992495  50.7457954   0.9523595  31.6739436  50.6907574   1.9635653
  30.5410104  53.2548714  -7.4216332  30.4161244  52.4538454  -7.9305387
  31.1989196  53.7494907  -7.9102362  32.6045013  51.0557734  -5.7936782
  31.6575348  50.9363085  -5.8658455  32.9527786  50.1680232  -5.7110521
  33.2125568  51.6739009  -8.5067557  34.1372115  51.4681870  -8.6443106
  33.0440871  51.4255410  -7.5978216  27.5507528  52.8725220  -2.3931360
  27.8594655  52.6274367  -1.5208660  28.3483010  53.0771858  -2.8812490
  35.5781386  49.5924050   0.7829961  34.7876930  49.5748189   0.2434461
  35.3414740  50.1312344   1.5378998  35.6979261  46.4416516  -1.9037310
  35.7477266  46.2766524  -0.9621787  35.5893184  45.5743775  -2.2939429
  32.9883023  42.4247444  -0.5878003  33.8892886  42.2853909  -0.8794005
  33.0630998  42.5901899   0.3520174  37.1997458  48.8613458  -1.6595288
  36.9082266  49.2243438  -0.8231827  36.5869589  48.1480466  -1.8381956
  35.4484646  43.9846072  -3.1915230  35.9238768  44.1773719  -3.9996379
  34.5250211  44.0405258  -3.4371847  42.4450943  45.1433959  -6.7038588
  43.1754331  44.8819247  -6.1430885  41.8357888  44.4062681  -6.6636520
  40.5266240  43.2841822  -6.1064137  39.7999403  43.1497787  -6.7147646
  40.1113527  43.5918650  -5.3007419  28.3496416  47.0031751   1.6583236
  29.2699426  47.1810350   1.8523282  28.3145999  46.0587797   1.5062935
  26.2186354  40.4865992   3.6908766  26.1183081  41.4360349   3.6220857
  26.0007896  40.1584231   2.8184836  26.0817624  43.9163131   2.5073828
  25.5984706  44.7163491   2.7137717  26.1678563  43.9271075   1.5541272
  30.3778650  47.7787763   3.3097397  31.2469810  47.9528415   2.9484032
  29.8985402  48.5982180   3.1873126  39.3280615  60.5938668  -1.3909598
  39.3169256  60.1991467  -2.2629095  39.4901255  59.8604741  -0.7975827
  44.5146242  50.8624650  -4.8476534  44.1829567  51.7320061  -5.0715319
  43.9191855  50.5460934  -4.1682503  38.4815771  57.0009382   0.1751714
  37.7049105  57.5603302   0.1654578  39.1206334  57.4866165   0.6966584
  36.7362143  59.8094835  -0.2630319  37.4776828  60.3479879  -0.5395496
  36.0299129  60.4361124  -0.1058767  41.7147998  54.5500951  -2.6343427
  41.4708930  55.3043011  -3.1709151  41.9907929  54.9286298  -1.7996180
  35.4723507  56.9634483   0.5384991  34.8422168  57.6450764   0.7720388
  35.3659595  56.8517565  -0.4061871  29.0506182  56.8836770  -6.1034094
  29.3014221  57.7683780  -5.8376518  29.5865731  56.7041371  -6.8759002
  34.7504250  51.2655249   2.9010242  34.3571195  50.7121448   3.5757886
  35.5670390  51.5765827   3.2916759  37.6672211  52.6813128   0.4930498
  38.4081924  53.2820281   0.4134961  37.8990133  51.9390766  -0.0651459
  32.8113549  57.8669495  -1.2291272  32.6967064  56.9654753  -0.9284173
  31.9558066  58.1133192  -1.5806455  41.6129374  48.7094231  -5.2305220
  41.2693643  49.5995873  -5.3066109  41.9808336  48.5195889  -6.0935635
  35.1144554  54.4536999  -6.2459677  35.7543933  54.3125758  -6.9436714
  34.2822084  54.1671512  -6.6221075  33.5898095  55.8375081  -4.2987866
  34.2621149  55.6292443  -4.9475217  32.7627882  55.6397167  -4.7382634
  39.4923667  52.4637022  -2.2822205  38.8451582  53.1626971  -2.3757729
  40.2624683  52.8973166  -1.9145957  33.9925593  59.1117684  -3.5385429
  33.8545391  58.3797922  -2.9373890  34.9030516  59.0226584  -3.8201241
  36.6207893  58.8237643  -4.0501749  37.3307512  58.1830835  -4.0915131
  36.5777202  59.0750538  -3.1275568  35.3336827  55.8102861  -2.2306110
  34.7974184  55.3593599  -1.5784513  34.7453536  55.9448770  -2.9735645
  31.0675949  54.9458869  -5.1453115  30.9834137  54.3384538  -5.8802705
  30.2458655  55.4367887  -5.1443619  39.5012689  59.3291729   1.3562370
  38.8253326  59.2285858   2.0264745  40.3240323  59.1730942   1.8198367
  33.2199965  52.9833806  -3.8058130  33.2841291  53.8448637  -4.2180732
  33.1567085  52.3707807  -4.5385771  32.6952237  55.0556938  -0.1585095
  33.3224276  54.6734016   0.4552429  31.8380156  54.8371140   0.2070597
  35.8038341  52.2743791  -1.9698540  36.3272742  52.5206087  -1.2072231
  35.5850674  53.1063825  -2.3895403  37.0090886  53.2157486  -4.2848870
  36.6687706  52.4165299  -3.8828190  36.3029892  53.5159197  -4.8572036
  37.6607358  50.3006798  -5.8321547  38.4833427  49.8267276  -5.9542656
  37.9045421  51.0797282  -5.3322860  29.6591598  59.5331263  -5.0841907
  29.1145067  60.3091071  -4.9521632  30.5370948  59.8802068  -5.2422785
  30.4457620  58.6601159  -2.1911750  29.7039356  58.8083795  -1.6047119
  30.1250365  58.9209425  -3.0545000  35.9320295  54.3774844   1.5028824
  35.9808450  55.2536967   1.1206594  36.4742809  53.8352237   0.9300468
  43.8276778  57.7539362  -0.5878003  44.7286641  57.6145827  -0.8794005
  43.9024752  57.9193817   0.3520174  38.1619583  55.1306217  -1.7424817
  37.2922892  55.4239783  -2.0142228  38.3979063  55.7146662  -1.0217553
  40.8658617  51.3485834  -4.2259397  41.3840561  52.0846861  -4.5512908
  40.5113750  51.6549827  -3.3912637  39.1890171  62.3323669   1.6583236
  40.1093180  62.5102268   1.8523282  39.1539754  61.3879714   1.5062935
  37.0580108  55.8157909   3.6908766  36.9576835  56.7652266   3.6220857
  36.8401651  55.4876148   2.8184836  36.9211379  59.2455048   2.5073828
  36.4378460  60.0455408   2.7137717  37.0072318  59.2562993   1.5541272
  33.4384098  61.7060699  -2.8886941  34.2576987  62.2004778  -2.8652104
  33.7120906  60.7892667  -2.9169373  28.6919012  56.0398833  -2.1894744
  29.3377876  55.5297787  -1.7007519  28.4836164  56.7767515  -1.6151319
  41.2172405  63.1079680   3.3097397  42.0863564  63.2820333   2.9484032
  40.7379156  63.9274097   3.1873126  33.0316503  53.1866450   1.9080270
  33.8947965  52.8303255   2.1183595  32.4581914  52.8480345   2.5955675
  88.8613164  88.8613164  88.8613164 109.4712190 109.4712190 109.4712190
