default_name
    35
  20.8010000 -27.1590000  41.7290000  20.0200000 -27.4270000  40.4700000
  20.0090000 -28.7290000  39.9360000  19.2900000 -29.0400000  38.7720000
  19.3270000 -30.4150000  38.2300000  18.8890000 -31.3680000  39.1420000
  18.8720000 -32.6870000  38.7660000  18.4390000 -33.6120000  39.7170000
  18.3960000 -34.9710000  39.3990000  18.7840000 -35.4050000  38.1300000
  19.2150000 -34.4800000  37.1820000  19.5790000 -34.9730000  35.9590000
  19.2590000 -33.1200000  37.5020000  19.7060000 -32.1160000  36.5350000
  20.0560000 -32.4180000  35.3960000  19.7230000 -30.7020000  36.9760000
  20.1330000 -29.7590000  36.0510000  18.5840000 -28.0160000  38.1320000
  18.5830000 -26.7190000  38.6510000  19.2930000 -26.4050000  39.8220000
  19.2660000 -24.9880000  40.3550000  18.5750000 -24.1330000  39.5500000
  20.5050000 -24.4360000  40.4970000  18.6840000 -24.9000000  41.5840000
  20.1710000 -27.3750000  42.6040000  21.6930000 -27.8020000  41.7510000
  21.1100000 -26.1040000  41.7510000  20.5780000 -29.5220000  40.4430000
  18.1320000 -33.2710000  40.7170000  18.0560000 -35.7000000  40.1490000
  18.7490000 -36.4750000  37.8790000  19.0940000 -35.6770000  35.5740000
  20.5600000 -30.0310000  35.2640000  18.0240000 -28.2340000  37.2110000
  18.0170000 -25.9300000  38.1340000
