default_name
 40146
  50.9807643  59.4849306  53.4440093  50.1332825  59.9225492  53.7762225
  51.7424249  60.1420259  53.5345585  51.0548301  58.5660075  53.8565553
  50.8397596  59.2539797  52.0125232  51.6353439  59.7837098  51.4885664
  50.9545335  57.7703792  51.6979098  51.9219047  57.4002140  52.0374239
  50.1589106  57.2275950  52.2082721  50.8292362  57.5584917  50.1908818
  51.8921570  57.5872719  49.5148844  49.6717981  57.3698750  49.7300559
  49.5130838  59.8126849  51.5051289  49.0814704  59.4863125  50.3972078
  48.8767213  60.6691355  52.3091842  49.2026879  60.8124717  53.2543296
  47.6663243  61.3678427  51.8799929  47.0910247  60.6717832  51.2695580
  46.8140090  61.8217524  53.0834092  47.4793663  62.2211109  53.8488586
  45.8001566  62.8987897  52.6748702  45.1341114  62.4999925  51.9097263
  45.2155654  63.1970182  53.5451653  46.3296168  63.7654781  52.2791148
  46.0050025  60.6541798  53.6533572  46.7050189  59.8446532  53.8601044
  45.5578179  60.9945329  54.5873194  44.9110140  60.1528596  52.7202520
  45.3575087  59.8118817  51.7861876  44.3810314  59.3255801  53.1922968
  44.2103085  60.9617627  52.5134007  48.1273451  62.5401833  51.0176748
  48.4284773  63.6302118  51.5206422  48.2258620  62.3093768  49.7057686
  47.9031934  61.4302570  49.3274400  48.8375381  63.2700181  48.7963723
  49.5923670  63.8499797  49.3273873  49.5054508  62.5549389  47.6286238
  48.6784863  62.1462125  47.0479590  50.0474301  63.2831431  47.0252357
  50.4548513  61.4199172  48.0349801  49.9374721  60.7736745  48.7440569
  50.8927138  60.6012980  46.8291481  51.4106112  61.2468118  46.1197870
  51.5642191  59.8063229  47.1534874  50.0173775  60.1635859  46.3492576
  51.6670696  61.9847580  48.7626763  51.3401406  62.5141026  49.6576686
  52.3335202  61.1701214  49.0460701  52.1966327  62.6750062  48.1060034
  47.7972625  64.2587880  48.2848202  46.7384839  63.8413890  47.7968347
  48.0618252  65.5587286  48.3806444  49.2952669  66.1779541  48.9006272
  50.1579572  65.7594555  48.3822405  49.3805359  65.9760957  49.9683731
  49.0974978  67.6472437  48.6058926  49.5793632  67.8948032  47.6600495
  49.5418514  68.2399203  49.4055086  47.6140414  67.8649098  48.5386779
  47.4006849  68.6834342  47.8512219  47.1564060  68.0744816  49.5055022
  47.0623890  66.5523530  47.9727918  46.1074910  66.2756980  48.4197035
  46.9108443  66.6291568  46.4635760  47.7391417  66.1414434  45.6922447
  45.8115882  67.2512955  46.0474586  45.0750290  67.5072933  46.6893659
  45.6267836  67.5416791  44.6355384  45.6478844  66.6194338  44.0549200
  44.2847946  68.2358997  44.4012943  44.2521605  69.1657575  44.9690966
  44.1687208  68.4547035  43.3398086  43.4754397  67.5828518  44.7277486
  46.7706130  68.4163536  44.1423591  47.2206105  69.3326591  44.8393946
  47.2558961  68.1048435  42.9435052  46.8463359  67.2957601  42.4988211
  48.3732033  68.7696365  42.2777215  48.4232327  68.4272415  41.2441055
  48.2258344  70.2991761  42.2817271  48.2116130  70.6520341  43.3129343
  49.0800613  70.7326908  41.7616682  46.9490884  70.7622004  41.5910374
  46.6735936  70.3834861  40.4487025  46.1625020  71.5780262  42.2800128
  45.3039291  71.9142952  41.8678532  46.4256839  71.8592789  43.2136792
  49.7216710  68.3748205  42.8700771  50.7308799  69.0015438  42.5362669
  49.7801397  67.3589044  43.7276987  48.9432580  66.9746905  44.1425579
  51.0673949  66.7882570  44.1114751  51.7565730  67.5871122  44.3852691
  50.9076866  65.8528986  45.3039314  50.3978628  66.4228678  46.0806643
  50.2835054  65.0117457  45.0023363  52.2204440  65.3380472  45.8384573
  53.1115264  66.1837362  46.4960533  52.8482812  67.2340384  46.6212197
  54.3155066  65.7086509  46.9870916  54.9947990  66.3773801  47.5157360
  54.6496791  64.3840637  46.8136165  55.8450828  63.9146739  47.2998584
  56.3634831  64.5927263  47.7392963  53.7958707  63.5301331  46.1475514
  54.0640892  62.4844268  45.9970266  52.5882114  64.0116182  45.6679807
  51.9045295  63.3435853  45.1441380  51.6720970  66.0185151  42.9403500
  50.9582203  65.3580990  42.1800497  52.9953177  66.0948896  42.7930170
  53.5544737  66.5724821  43.4853676  53.6685759  65.5470786  41.6154295
  52.9779204  64.9658510  41.0044723  54.3002801  66.6384086  40.7386721
  55.0082818  67.2186195  41.3304391  55.0286089  65.9866691  39.5729213
  54.3211196  65.4066172  38.9803846  55.4785543  66.7580742  38.9479543
  55.8087555  65.3276667  39.9539577  53.2471731  67.6269751  40.2416911
  52.7640621  68.1033995  41.0947594  53.7248132  68.3874315  39.6239002
  52.5000958  67.0965175  39.6512752  54.7315390  64.5585876  42.0617266
  55.6349840  64.9153330  42.8367550  54.6382851  63.3306810  41.5462200
  53.8730626  63.1471335  40.9130975  55.5372262  62.2306617  41.8827574
  56.0842516  62.4300829  42.8042201  54.7633511  60.9132634  42.0464407
  54.1046782  60.7819153  41.1879555  55.7116767  59.7466384  42.1342738
  56.3704133  59.8770552  42.9928531  55.1434036  58.8237047  42.2498573
  56.3085617  59.6935867  41.2237709  53.8842330  60.9824399  43.2814799
  53.1765205  61.8050495  43.1787250  53.3380869  60.0456644  43.3922761
  54.5057553  61.1463670  44.1617860  56.6026627  62.1007344  40.8030495
  56.2805358  61.9101469  39.6263959  57.8699293  62.1889941  41.2152126
  58.0285175  62.4274255  42.1837680  59.0342574  62.0543036  40.3322604
  59.9187561  62.4214833  40.8527795  59.2776972  60.6035947  39.9196203
  58.9355070  59.9628004  40.7322627  58.6842425  60.4056764  39.0270174
  60.7636541  60.3101288  39.6244496  61.1405746  61.1192544  38.9988718
  61.2942267  60.3103697  40.5766022  60.9860325  58.9797079  38.9207009
  62.0539185  58.7614928  38.9106664  60.4613082  58.1988199  39.4711350
  60.4643318  59.0298818  37.4886238  59.3801053  59.1328719  37.5327443
  60.8931205  59.9096447  37.0087730  60.8164114  57.8124030  36.7004079
  60.4188177  56.9971285  37.1446449  60.4476183  57.8992052  35.7641617
  61.8210459  57.7170224  36.6590422  58.9258383  62.9386458  39.0960317
  59.2646238  62.5266290  37.9837046  58.4421918  64.1658303  39.2945722
  58.0823098  64.4075279  40.2068038  58.3414357  65.1531481  38.2288379
  57.8327519  66.0428661  38.5999736  59.7335674  65.5574002  37.7286105
  60.4117616  65.5485745  38.5818830  60.0569222  64.8135550  37.0004374
  59.7466818  66.9228068  37.0910575  59.0411565  67.8204466  37.5960912
  60.4654708  67.0921083  36.0839565  57.4914004  64.6688651  37.0615499
  57.6146009  65.1924082  35.9501269  56.6662476  63.6559432  37.2710782
  56.5631170  63.1998512  38.1663119  55.9299930  63.1181373  36.1317951
  55.9297063  63.8354236  35.3110640  56.6007414  61.8157670  35.6480635
  57.6248781  62.0534697  35.3604166  56.6117124  61.1148173  36.4827186
  55.8691175  61.1810580  34.4567386  54.9846922  60.6712608  34.8388374
  55.5636614  61.9828564  33.7844901  56.7231009  60.2063009  33.7130963
  57.4522026  60.7369942  33.1008266  57.2440258  59.5533010  34.4133304
  55.8943701  59.3914297  32.8467527  54.9719124  59.7371834  32.6239851
  56.2802337  58.2341601  32.3239771  57.5070243  57.7572695  32.5623448
  58.1448991  58.2811898  33.1443442  57.7898526  56.8754458  32.1592383
  55.4460407  57.5421292  31.5759442  54.5156665  57.8951872  31.4031613
  55.7405187  56.6615444  31.1785126  54.4541832  62.8674470  36.4052412
  53.6206026  63.0471577  35.5051454  54.0929871  62.4105666  37.6004448
  54.7618080  62.3143970  38.3511307  52.7227792  61.9541074  37.8299773
  52.1568548  62.0215369  36.9008475  52.6980140  60.5021467  38.3134502
  53.2817235  60.3129844  39.2143386  51.6585563  60.2255684  38.4898932
  53.2101184  59.5821233  37.2770623  52.6065982  59.2874135  36.0952727
  51.6349430  59.7431630  35.9048039  53.3931312  58.4427909  35.3738668
  53.1538909  58.0703426  34.4660420  54.5409596  58.1748189  36.0636312
  55.6239719  57.3654179  35.7266437  55.5999482  56.8422589  34.7707012
  56.6603878  57.2769085  36.6256555  57.5213087  56.6473762  36.4007014
  56.6336237  57.9835764  37.8334879  57.4631582  57.9236814  38.5380335
  55.5378765  58.7903937  38.1734998  55.5505393  59.3067064  39.1333756
  54.4727988  58.8853827  37.2710943  52.0449023  62.8888573  38.8170840
  52.3718375  62.8874681  40.0073690  51.0995754  63.6797895  38.3128101
  50.8673272  63.5946521  37.3335697  50.4225101  64.7050579  39.0969691
  51.0488340  65.0043878  39.9373376  50.1455408  65.9338355  38.2325308
  51.1147529  66.3142109  37.9099757  49.5852612  65.5858713  37.3647130
  49.3671638  67.0486438  38.9268036  48.3700863  66.6814295  39.1698899
  49.8875891  67.3204306  39.8451670  49.2505281  68.2863497  38.0176951
  49.3956676  69.1785879  38.6267471  50.0314535  68.2339304  37.2590732
  47.8658786  68.3519725  37.3286918  47.6589455  67.3481384  36.9577519
  47.1466434  68.6065375  38.1071496  47.7501458  69.3407665  36.1945431
  48.4162262  69.1048042  35.4729072  46.8153211  69.3081683  35.8135705
  47.9414386  70.2710599  36.5381422  49.1351158  64.1111596  39.6659163
  48.1837341  63.8121613  38.9271696  49.1061548  63.9249224  40.9828746
  49.9166437  64.1394199  41.5460777  47.9399878  63.3470402  41.6411607
  47.6491339  62.3761947  41.2399600  48.2122070  63.1948840  43.1474307
  48.5802077  64.1450308  43.5345944  46.9390215  62.7982990  43.8964934
  46.5706570  61.8479500  43.5101706  47.1587095  62.6972281  44.9593304
  46.1790679  63.5666912  43.7545574  49.3456569  62.1892101  43.3964150
  50.2555558  62.5382675  42.9082091  49.5214296  62.0970880  44.4681972
  49.0656747  61.2174120  42.9898201  46.7205106  64.2194483  41.3733744
  46.7562616  65.4413529  41.5586335  45.6312389  63.5983977  40.9311840
  45.6883702  62.6237484  40.6725453  44.3569268  64.2897845  40.7493594
  44.5307222  65.3650090  40.7070924  43.6691980  63.8540816  39.4529451
  43.5615208  62.7757791  39.5702849  42.6822216  64.3139837  39.4032702
  44.4342765  64.1516736  38.1657731  45.4433021  63.7480834  38.2499340
  43.7384651  63.5224747  36.9851299  42.7294686  63.9259401  36.9000393
  44.2954451  63.7431576  36.0745405  43.6868136  62.4428760  37.1261949
  44.6048800  65.6542737  37.9613877  45.1589196  66.0750230  38.8005000
  45.1532274  65.8357978  37.0370147  43.6245255  66.1268105  37.9004521
  43.4097224  64.0634075  41.9196958  42.8707056  65.0243118  42.4723168
  43.1979190  62.8067666  42.3048786  43.6095585  62.0494523  41.7784496
  42.3480100  62.4770223  43.4361917  42.5676263  63.1542954  44.2615214
  40.8657981  62.6055205  43.0794869  40.2841477  62.4797301  43.9927004
  40.6982247  63.6046650  42.6773311  40.4334775  61.5714857  42.0590610
  41.2045167  61.5195044  41.2903625  40.3633146  60.6102323  42.5681496
  39.1040886  61.8999974  41.4176570  38.3055249  61.6427342  42.1135094
  39.0708875  62.9688104  41.2063846  38.9180061  61.1174739  40.1167264
  39.3510116  61.6897663  39.2963068  39.4337866  60.1611961  40.2039182
  37.4721131  60.8787743  39.8465824  36.9940753  61.7647636  39.7653258
  37.3715308  60.3616616  38.9848530  37.0707884  60.3481215  40.6064805
  42.6609457  61.0627860  43.9041423  43.1978579  60.2387995  43.1607228
  42.3519918  60.8195767  45.1718748  42.1251461  61.5964805  45.7760774
  42.3473417  59.4785131  45.7402196  43.2671276  58.9509096  45.4877762
  42.2494847  59.5891535  47.2620631  43.1677444  60.0994060  47.5528220
  41.3988928  60.2502278  47.4281176  42.0859947  58.3513256  48.0839848
  41.1115112  57.8982536  47.9017527  42.8702824  57.6314856  47.8498372
  42.1920697  58.7623425  49.5655327  43.1556268  59.2512752  49.7090652
  41.3908342  59.4712102  49.7744050  42.0797445  57.5807178  50.5090618
  41.7049227  57.9319889  51.4704243  41.3793747  56.8592642  50.0882459
  43.4039549  56.9317606  50.7008306  44.0529642  57.5999880  51.0911623
  43.3069670  56.1487502  51.3313764  43.7512550  56.6058131  49.8101904
  41.1623531  58.7121408  45.1686118  40.0611587  59.2585256  45.0615116
  41.3895778  57.4638477  44.7528241  42.3171539  57.0647615  44.7736105
  40.3049576  56.6688909  44.1750424  39.3403365  57.1441760  44.3531143
  40.5055061  56.4673854  42.6637798  39.7407133  55.7824771  42.2975926
  40.4007687  57.7873542  41.9196841  41.1655982  58.4726723  42.2850273
  40.5464394  57.6163262  40.8530866  39.4149990  58.2216743  42.0861872
  41.8504127  55.8100678  42.3780857  42.6313345  56.5277384  42.6295033
  41.9379500  54.9371535  43.0249685  42.0061516  55.3752822  40.9024110
  41.9191871  56.2477932  40.2549070  42.9834050  54.9139154  40.7602292
  41.2258006  54.6572095  40.6503715  40.1867636  55.3284068  44.8966499
  39.2447502  54.5670262  44.6610303  41.1368119  55.0283198  45.7822604
  41.9340791  55.6395136  45.8866944  41.0669661  53.8373479  46.6149647
  40.0381401  53.6720065  46.9347747  41.4146685  52.9725611  46.0498575
  41.9419394  54.0103795  47.8392588  42.7483369  54.9366034  47.9293448
  41.7765813  53.1124626  48.8008553  41.0980924  52.3661186  48.7486762
  42.6080725  53.2039069  49.9849644  43.6527786  53.1093628  49.6887384
  42.4497186  54.1763820  50.4511357  42.2806793  52.1200432  50.9852699
  41.2490305  51.4404286  50.8990218  43.1824110  51.9852212  51.9521147
  43.9783595  52.6067927  51.9667498  43.0754364  50.9836152  52.9899605
  42.1463965  51.1377352  53.5388056  43.0658777  49.9950797  52.5308247
  44.2403931  51.0670039  53.9581047  44.2829855  50.3256701  54.9374862
  45.1489596  51.8736015  53.7727693  46.9216499  48.6392170  53.8430081
  47.0410119  49.6407067  53.8965989  47.3943679  48.2135303  54.6275008
  45.9472243  48.4372234  53.6704014  47.6294887  48.1611974  52.6610228
  48.3854558  47.4390777  52.9694966  46.6600426  47.4727179  51.6960015
  46.1777704  46.6354323  52.2004474  45.9023216  48.1857440  51.3711126
  47.2940436  46.9155626  50.4439143  46.5036825  46.2644465  49.4892542
  45.4306730  46.1596896  49.6498049  47.0914981  45.7478776  48.3283793
  46.4761456  45.2409383  47.5851064  48.4696748  45.8824247  48.1221629
  48.9273314  45.4802397  47.2183390  49.2600391  46.5335405  49.0768217
  50.3330483  46.6382962  48.9162674  48.6722266  47.0501111  50.2376977
  49.2875816  47.5570516  50.9809672  48.3477958  49.3090308  51.9468978
  49.5507755  49.2314625  51.6474703  47.5933738  50.3675103  51.6768562
  46.6380432  50.4028251  52.0027330  48.1029200  51.4933242  50.9172880
  48.7470401  52.1001078  51.5537015  48.6754709  51.1279448  50.0647725
  46.9544173  52.3543789  50.4102869  45.8720666  52.3760642  50.9903703
  47.2300889  53.0758673  49.3296571  48.1258770  52.9855482  48.8719394
  46.2661403  54.0117164  48.7778613  45.2573570  53.7023906  49.0513079
  46.5066435  55.4155580  49.3144515  47.5164820  55.7172635  49.0364238
  45.7858757  56.0862536  48.8467323  46.3580231  55.4830078  50.8015583
  45.2968995  55.3992162  51.0362843  46.8925972  54.6356706  51.2309177
  46.8943335  56.7496742  51.3737447  46.1781637  57.3340004  52.2037819
  48.0136940  57.1576247  51.0014242  46.4192572  54.0078284  47.2704151
  47.4951948  53.7000998  46.7555634  45.3426273  54.3593416  46.5646308
  44.4779521  54.5523162  47.0496019  45.3454036  54.4154930  45.1072944
  46.3670933  54.3350754  44.7361038  44.4824400  53.2911292  44.4884109
  43.4552008  53.3938930  44.8381531  44.5127376  53.3855544  42.9710187
  45.5396662  53.2824072  42.6204776  43.9021585  52.5896142  42.5446702
  44.1181384  54.3524231  42.6586800  44.9998805  51.9257383  44.9522441
  44.9743553  51.2648151  44.0858552  46.0328752  52.0681078  45.2696591
  44.1990543  51.3010817  46.0921891  43.1659881  51.1579700  45.7753404
  44.6341194  50.3374174  46.3570827  44.2245062  51.9612643  46.9591440
  44.8522247  55.7881467  44.6595743  43.8595808  56.3117715  45.1798964
  45.5379059  56.3597264  43.6735464  46.2742823  55.8285711  43.2311403
  45.2784715  57.7052939  43.1966409  44.3849623  58.0999116  43.6803942
  46.4602663  58.6340095  43.5155602  47.3625150  58.1891233  43.0958904
  46.2467261  59.5724866  43.0039340  46.6670015  58.8980576  44.9793119
  47.5644991  58.1339874  45.7154667  48.1091917  57.3350648  45.2123444
  47.7746102  58.3735936  47.0736903  48.4761133  57.7673813  47.6468410
  47.0835546  59.3972671  47.6897876  47.2700908  59.6445957  49.0290747
  47.9013191  59.0469876  49.4365243  46.1937479  60.1816925  46.9696801
  45.6553259  60.9942181  47.4575369  45.9913344  59.9267486  45.6211778
  45.2932064  60.5383896  45.0496775  45.0804665  57.6466952  41.6895728
  45.7573461  56.8765065  41.0068156  44.1681474  58.4677103  41.1684612
  43.4258172  58.8417523  41.7421666  44.1843239  58.8072950  39.7531003
  44.5900062  57.9693017  39.1862775  42.7713649  59.1154164  39.2310792
  42.1837507  58.2043620  39.3441655  42.3580645  59.8954338  39.8704974
  42.7246996  59.5728648  37.7767813  43.1342202  60.5825392  37.7459380
  43.3707419  58.9018605  37.2106703  41.3132458  59.5719089  37.1560993
  40.3594548  59.0513339  37.7699637  41.1697065  60.1045686  36.0356333
  45.1148366  60.0021660  39.5931181  45.0246558  60.9724056  40.3543754
  46.0627012  59.8938372  38.6656842  46.1309571  59.0450396  38.1225607
  47.0459642  60.9407964  38.4354773  46.6932378  61.8707432  38.8814393
  48.4210599  60.5902439  39.0471643  48.7915656  59.6660008  38.6037681
  49.1254158  61.3972670  38.8454304  48.3175253  60.4598429  40.1243716
  47.1777539  61.1734235  36.9424076  46.8474600  60.3096228  36.1214032
  47.6412834  62.3621545  36.5973149  47.7791675  63.0874301  37.2865628
  47.9477334  62.6632368  35.2107613  47.3541342  62.0194600  34.5616923
  47.6338981  64.1153411  34.8748645  46.5706926  64.2878368  35.0420124
  48.2142028  64.7576113  35.5373111  47.9821431  64.4402156  33.4111805
  49.0574574  64.3336183  33.2682222  47.4583047  63.7434865  32.7567617
  47.4958504  66.1159769  32.9981215  47.8951293  66.0989504  31.2158779
  47.3100370  65.3248809  30.7193072  47.6568737  67.0693350  30.7803452
  48.9570965  65.8924595  31.0828799  49.4196328  62.3969905  34.9507400
  50.2966817  62.8883936  35.6860122  49.6867620  61.6415876  33.8940483
  48.9307015  61.1652333  33.4233484  51.0397067  61.4311120  33.4109139
  51.7273699  61.3227343  34.2496467  51.0902730  60.1621158  32.5738138
  50.5426389  59.3910773  33.1157510  50.5954656  60.3578237  31.6225177
  52.4889092  59.6956362  32.3212857  53.3107149  60.5505794  31.9468347
  52.7482837  58.4804987  32.4884526  51.4344361  62.6640886  32.6148735
  50.9535763  62.8626445  31.5007032  52.2895301  63.5170075  33.1965447
  52.6567322  63.3300242  34.1186614  52.6705750  64.7762685  32.5356185
  51.7784020  65.3187564  32.2228351  53.4664125  65.6594102  33.5066099
  54.2717518  65.0069541  33.8439952  53.8905129  66.5331599  33.0118369
  52.6365406  66.1081941  34.7098845  52.1576757  65.2313209  35.1456396
  53.5216999  66.8045882  35.7860232  54.0005635  67.6818783  35.3511088
  52.8991489  67.1104521  36.6268432  54.2856445  66.1094168  36.1341979
  51.4648571  66.9999983  34.2743825  50.8186974  66.4452916  33.5940314
  50.8930352  67.3034478  35.1513314  51.8499271  67.8852097  33.7681998
  53.4809115  64.5396755  31.2683488  53.6428314  65.4665998  30.4701436
  53.9987987  63.3296491  31.0735723  53.8985244  62.6177701  31.7829894
  54.7708478  63.0119023  29.8816029  55.2423391  63.9184017  29.5020586
  55.8616728  61.9850255  30.1872578  56.4900755  62.5339175  30.8886328
  55.4670630  61.0935013  30.6746670  56.6935527  61.5748468  28.9711922
  56.0269990  61.0911705  28.2571444  57.3997862  62.7955196  28.2830026
  58.0669011  63.2794593  28.9963461  57.9762207  62.4466978  27.4261786
  56.6474964  63.5095104  27.9477748  57.6588922  60.4673880  29.3736455
  57.0955468  59.6080334  29.7373092  58.2540964  60.1717813  28.5096722
  58.3187850  60.8287556  30.1623494  53.8372269  62.5053943  28.7917260
  53.7414144  63.1370387  27.7332694  53.1249079  61.3910465  29.0524628
  53.1433913  60.9541508  29.9628911  52.3191269  60.7716538  28.0033776
  52.8177029  60.9128953  27.0444345  52.1290791  59.2672928  28.2404405
  51.6042703  58.8373727  27.3873024  53.4926643  58.5713505  28.4077545
  54.0178984  59.0004504  29.2610435  53.3389773  57.5052781  28.5749936
  54.0876072  58.7150518  27.5058158  51.3541318  59.0760663  29.4380527
  51.2310439  58.1366746  29.5929491  50.9424248  61.3895501  27.8900617
  50.2612702  61.1493237  26.8871839  50.4910705  62.1425023  28.9109050
  51.0569472  62.0542607  29.7428283  49.2745138  62.9669048  28.9791067
  49.3321221  63.6110353  29.8565327  49.0993954  63.8548790  27.7246844
  48.7319734  63.2238344  26.9154360  48.3565651  64.6185533  27.9551295
  50.4096181  64.5295339  27.2927453  51.1096797  63.7370455  27.0282141
  50.1890785  65.1286387  26.4092649  51.0216046  65.4060577  28.3532020
  51.0753709  64.8552204  29.2922369  52.0256791  65.6989854  28.0464005
  50.2273216  66.6103503  28.5629611  49.3889009  66.6934905  28.0059711
  50.5124910  67.5775776  29.4271362  51.5931313  67.5163853  30.2169602
  52.2113658  66.7196780  30.1608925  51.7845360  68.2672446  30.8647829
  49.7210641  68.6419841  29.5036296  48.9098661  68.7083347  28.9055865
  49.9342595  69.3799006  30.1594693  47.9962090  62.1709232  29.2080308
  46.9241568  62.7680696  29.2481583  48.0708270  60.8520387  29.3484472
  48.9152544  60.3818344  29.0552756  46.9685897  60.0425110  29.8525345
  46.0303235  60.4567565  29.4835408  47.0669868  58.5728050  29.4054456
  46.1234932  58.0912666  29.6624279  47.1924624  58.5703846  28.3226945
  48.2560886  57.7861683  30.0729076  49.2166408  58.1748585  29.7347357
  48.1336583  57.9958002  31.1355291  48.2080099  56.2568020  29.8402424
  48.9346630  55.5620560  30.5857961  47.3996867  55.7549284  28.9998790
  46.9022701  60.1042872  31.3692116  47.8817833  60.4315305  32.0415743
  45.7405319  59.7712257  31.9041476  44.8981919  59.7091352  31.3503359
  45.6420539  59.5415117  33.3386097  46.3541546  60.1878870  33.8516504
  44.2384760  59.8384774  33.8732098  43.5437080  59.3938919  33.1606507
  44.0790710  59.3989687  34.8578530  43.9612429  61.3257224  33.9562121
  44.8227784  62.1329774  33.6319344  42.7828996  61.6929813  34.4607089
  42.5527912  62.6735274  34.5360693  42.1258409  60.9889413  34.7651796
  46.0306009  58.1082219  33.6487348  45.8800917  57.2150203  32.8113891
  46.5324345  57.8976484  34.8710423  46.5291069  58.6666952  35.5257600
  47.0991946  56.6228581  35.3031878  46.7655585  55.8050868  34.6644107
  48.6422086  56.6466173  35.3083164  49.0178309  55.6682349  35.6079412
  49.1674136  56.9896608  33.8831557  48.7925587  57.9681781  33.5830081
  50.2572710  57.0054375  33.8910517  48.8205829  56.2358430  33.1763540
  49.1878889  57.6627921  36.3550216  48.8420122  57.3816390  37.3497198
  50.2776777  57.6563504  36.3345636  48.8263927  58.6625357  36.1143266
  46.5915906  56.3296248  36.7051505  46.0545127  57.2050442  37.3896410
  46.7704188  55.0719840  37.1343323  47.0387212  54.3510024  36.4798869
  46.5452275  54.6957750  38.5194697  45.9148773  55.4305834  39.0202834
  45.8654127  53.3222306  38.6113319  46.4891437  52.5740987  38.1220893
  45.7297044  53.0527437  39.6587384  44.8940703  53.3633149  38.1184778
  47.8945252  54.6891618  39.2445993  48.8583883  54.0984951  38.7574292
  47.9579394  55.3667396  40.3890311  47.1180101  55.8304135  40.7046647
  49.1711361  55.5038818  41.1958915  49.9913725  54.9633355  40.7235345
  49.5662566  56.9765660  41.3250959  49.8940407  57.2026489  40.3104317
  48.6644814  57.5459027  41.5503895  50.6695226  57.3573872  42.3136890
  50.3805046  57.0004128  43.3021923  52.0095164  56.7527017  41.9289407
  52.2994387  57.1096020  40.9406766  52.7646346  57.0481999  42.6573486
  51.9269966  55.6659550  41.9124304  50.7427244  58.8837748  42.4201284
  49.7862194  59.2702591  42.7720199  51.5274634  59.1622429  43.1235070
  50.9666512  59.3064847  41.4407040  48.8875546  54.8925638  42.5572095
  48.1058531  55.4573455  43.3267271  49.4893236  53.7309487  42.8313874
  50.1204803  53.3449613  42.1438161  49.2688501  52.9821080  44.0675100
  48.3898751  53.3778830  44.5762972  49.0448985  51.4958780  43.7904486
  48.2455595  51.4167755  43.0536318  49.9679960  51.0985516  43.3684026
  48.6745351  50.7068426  45.0194019  49.5489359  50.6407167  45.6668210
  47.8750392  51.2320087  45.5420002  48.2104268  49.3166133  44.6575844
  47.5193580  49.3808600  43.8171112  49.0747894  48.7172937  44.3715898
  47.5198899  48.6731168  45.8245913  47.1470552  49.4395296  46.5040810
  46.6873484  48.0635351  45.4733310  48.5020382  47.8074981  46.5421141
  49.2733610  48.3722306  46.8680561  48.0498578  47.3676843  47.3309085
  48.8473172  47.0969914  45.9127798  50.4681276  53.1324459  44.9870653
  51.6102070  52.9390128  44.5540845  50.2043469  53.4579621  46.2457650
  49.2526736  53.4779493  46.5834301  51.2695530  53.8446984  47.1601593
  52.2847737  53.6573462  46.8104093  51.1625944  55.3257490  47.5980830
  52.0457883  55.5819735  48.1832469  51.0686106  56.2580698  46.3763343
  50.1853428  56.0027377  45.7908904  50.9944709  57.2922297  46.7126631
  51.9593911  56.1401913  45.7593122  50.0547209  55.5474207  48.6376531
  50.2621893  54.9478376  49.5239708  50.0195695  56.6015397  48.9127844
  49.0947520  55.2504804  48.2152943  51.2353628  52.9357709  48.3849360
  50.1919155  52.4409796  48.8198732  52.4009981  52.7506403  48.9761041
  53.2479118  53.1058734  48.5558114  52.5093221  52.0003018  50.2123364
  51.5244010  51.8823520  50.6641300  53.0902506  50.6112601  49.9359920
  52.4185281  50.1340766  49.2224206  54.0615080  50.7723090  49.4682075
  53.2557463  49.7188325  51.1470833  53.7812911  50.2540666  51.9379233
  52.2529377  49.4611832  51.4878045  54.0155650  48.4488641  50.8042119
  53.3769573  47.3788838  50.6762223  55.2579686  48.5378907  50.6239771
  53.3893865  52.8234392  51.1332649  54.4274793  53.3235774  50.6942363
  52.9346750  53.0372489  52.3668033  52.0355413  52.6836087  52.6610760
  53.7133241  53.8230682  53.3171814  53.8642516  54.8286322  52.9245479
  52.9869028  53.9264985  54.6613597  51.9271772  54.0974491  54.4720010
  53.1124841  52.9861453  55.1980768  53.5050902  54.9911072  55.4448782
  53.0330782  55.0331389  56.2797661  55.0833576  53.1975828  53.5238941
  55.2079089  51.9790669  53.6587610  56.1166433  54.0445468  53.5321838
  55.9818016  55.0275483  53.3434376  57.4752691  53.5631907  53.7544724
  57.6601275  52.7538446  53.0481541  58.4940196  54.6778530  53.4990875
  58.3274541  55.4916947  54.2047912  59.5026853  54.2856735  53.6290448
  58.3780077  55.0506389  52.4814082  57.6696994  53.0110452  55.1575555
  58.6176549  52.2509649  55.3785288  56.8028261  53.3663421  56.1049941
  56.1322071  54.0961775  55.9108039  56.8246566  52.7868827  57.4394315
  57.7880869  52.3075682  57.6130948  56.6131433  53.8640397  58.5101998
  55.9638155  54.6168760  58.0633103  56.0913768  53.3781147  59.3346612
  57.8810855  54.5327585  59.0345583  57.6730070  54.9994516  59.9973676
  58.6522323  53.7725247  59.1589736  58.3916723  55.5844979  58.0917693
  57.6098605  56.2876419  57.4521070  59.7108605  55.7111203  58.0004709
  60.1069742  56.4034635  57.3809096  60.3116814  55.1144697  58.5510375
  55.7976438  51.6900216  57.6335722  55.6102564  51.2382439  58.7631823
  55.1061398  51.2499072  56.5621697  55.0057311  51.4358652  55.5745275
  54.2057032  50.2833674  57.1784251  54.0340643  50.5496669  58.2213651
  52.8632598  50.2689339  56.4512824  52.2091458  49.6421205  57.0573674
  52.5055610  51.2982429  56.4772542  52.8583438  49.7729373  55.0327845
  52.0454555  50.2191684  54.4599047  53.8131263  50.0626114  54.5939437
  52.7305606  48.2689944  54.9613609  52.1716507  47.6377323  55.8704207
  53.1930647  47.6863237  53.8588298  53.1330226  46.6831344  53.7582936
  53.6021963  48.2497213  53.1271907  54.8447805  48.8942319  57.2093407
  55.6224961  48.5376464  56.3155515  54.5419633  48.1157492  58.2539461
  53.5378015  48.3755455  59.3021989  52.5681732  47.9907655  58.9861841
  53.4617680  49.4480920  59.4809784  54.0937472  47.6364963  60.4840681
  53.2891233  47.3403353  61.1570971  54.8040681  48.2643600  61.0219647
  54.7776497  46.4429487  59.8904566  54.0670856  45.6493294  59.6594457
  55.5518559  46.0553327  60.5526184  55.4122043  46.9695688  58.5938700
  56.4097715  47.3717440  58.7705420  55.4838994  45.8895438  57.5280681
  56.5860051  45.4987587  57.1192392  54.3347261  45.3831342  57.0787208
  53.4674448  45.7464868  57.4473634  54.2718797  44.2932278  56.1052007
  55.1630971  43.6716548  56.1916751  53.0451391  43.4223517  56.3493875
  52.3322448  44.0250093  56.9121350  52.6250606  43.1809732  55.3729805
  53.3307774  42.1444203  57.1045154  53.8451961  41.4532059  56.4369102
  53.9752716  42.3775895  57.9520775  52.0496930  41.5045446  57.6048751
  51.6676192  42.0889737  58.4418704  51.3171628  41.5049497  56.7977203
  52.3025174  40.0762514  58.0583334  51.4140849  39.7171050  58.5777583
  52.4807324  39.4610061  57.1763970  53.4821986  39.9903358  58.9719502
  53.3170823  40.5600268  59.7894393  53.6210486  39.0302420  59.2530917
  54.3056267  40.3226825  58.4906904  54.2434740  44.9024894  54.7119960
  53.2118500  45.4044637  54.2663922  55.3649022  44.8340901  54.0082366
  56.1386116  44.2934950  54.3677223  55.5484123  45.5534058  52.7562401
  54.7712750  46.3092607  52.6429253  56.9056502  46.2451494  52.7448430
  57.6616621  45.5179320  53.0409850  57.1070239  46.5845433  51.7287916
  56.9463332  47.4253892  53.6869996  55.9113833  47.7215144  53.8581410
  57.4018186  47.1347234  54.6336508  57.6987129  48.6050103  53.1335812
  58.4079793  48.4930513  52.1331077  57.5862976  49.7423809  53.8123955
  58.0684669  50.5691767  53.4898701  57.0192306  49.7745307  54.6475619
  55.4131632  44.5761588  51.5962483  56.3094390  43.7638318  51.3509721
  54.2996425  44.6631460  50.8758325  53.5945754  45.3430827  51.1221371
  54.0107095  43.7294208  49.7986000  54.8026084  42.9836824  49.7288178
  52.6660541  43.0021365  50.0257135  52.4701942  42.3434369  49.1796326
  52.7186198  42.1796249  51.3080549  52.9139980  42.8377474  52.1546972
  51.7646674  41.6731283  51.4548082  53.5148375  41.4390227  51.2329058
  51.5259370  44.0088935  50.1212250  51.4673110  44.5811225  49.1953638
  50.5862045  43.4802897  50.2811640  51.7076940  44.6863566  50.9555565
  54.0357642  44.3788082  48.4277089  54.0678313  43.6472512  47.4216448
  54.0483834  45.7164540  48.3489342  54.0210977  46.2801428  49.1865557
  54.0435301  46.3976455  47.0538587  53.1170985  46.1778428  46.5232831
  54.1486135  47.9148746  47.2483644  53.9453890  47.9861954  48.3168738
  55.1908374  48.1720304  47.0593134  53.2348590  48.8886072  46.4873023
  52.7255409  49.5289925  47.2074429  54.0400527  49.7456437  45.5302085
  54.5493246  49.1059433  44.8094281  53.3727108  50.4270843  45.0025777
  54.7778012  50.3209036  46.0895863  52.1110527  48.1788784  45.7449162
  51.4948133  47.6296113  46.4567126  51.4969729  48.9143521  45.2252184
  52.5356262  47.4838105  45.0205426  55.1726318  45.9094326  46.1599978
  55.0069619  45.8271483  44.9430994  56.3228230  45.5576987  46.7464938
  56.4707040  45.6888327  47.7369656  57.4206498  45.0350440  45.9487612
  57.6783996  45.7754472  45.1914849  58.6506737  44.7927437  46.8372688
  58.9373517  45.7250123  47.3238798  58.4109227  44.0467669  47.5949879
  59.8070364  44.2913318  45.9787611  59.5212509  43.3587847  45.4921571
  60.0476825  45.0370301  45.2210504  61.0277812  44.0508572  46.8605656
  61.3144590  44.9831248  47.3471785  60.7880296  43.3048792  47.6182829
  62.1841444  43.5494472  46.0020564  61.8983594  42.6169008  45.5154513
  62.4247906  44.2951470  45.2443491  63.3608610  43.3176438  46.8520589
  63.1382154  42.6263751  47.5539678  64.1267154  42.9855636  46.2834730
  63.6260986  44.1817352  47.3027186  57.0326932  43.7532636  45.2215757
  57.3858677  43.5649538  44.0547680  56.3403574  42.8354509  45.8923998
  56.1395107  42.9117580  46.8792823  55.9606523  41.6057710  45.2014835
  56.7875507  41.2415415  44.5918319  55.6056100  40.5325356  46.2369539
  56.5447907  40.3066281  46.7419337  54.9286084  41.0265117  46.9339163
  54.9725258  39.2423960  45.7450971  55.5117837  38.9369336  44.8484397
  55.1120701  38.4938755  46.5250628  53.2389320  39.3775443  45.3675148
  52.6287701  39.9556643  46.9596759  53.1057394  40.9033090  47.2098135
  51.5491242  40.0957930  46.9064851  52.8615206  39.2183896  47.7280211
  54.8406871  41.8709951  44.1971891  54.8064875  41.2532107  43.1246828
  53.9542805  42.8171746  44.5018211  53.9745229  43.2797294  45.3994473
  52.9137771  43.1994954  43.5482733  52.2621233  42.3519069  43.3360464
  52.0758442  44.3192415  44.1441198  52.7814666  45.0538962  44.5320359
  51.5171248  44.7549449  43.3158112  51.1281832  43.9188490  45.2276901
  50.4519258  43.1558437  44.8422040  51.7037417  43.5079680  46.0571528
  50.3219889  45.1109768  45.7128364  49.4747908  45.5942855  44.9413558
  50.5244043  45.5620925  46.8533203  53.5282159  43.6648273  42.2353128
  53.0667499  43.2960240  41.1449825  54.5637652  44.5027834  42.3280995
  54.8437588  44.8699674  43.2263638  55.2733094  44.9667466  41.1386748
  54.6107942  45.4093587  40.3948554  56.3432552  46.0083703  41.5281321
  56.9823912  45.5881145  42.3046561  57.1872629  46.3751859  40.3229618
  56.5488419  46.7959677  39.5461334  57.9371359  47.1107010  40.6141809
  57.6833708  45.4829397  39.9410256  55.7272441  47.2439643  42.1443014
  55.1773697  46.9665584  43.0436268  56.5142214  47.9519586  42.4041290
  55.0453923  47.7054438  41.4300076  55.8937712  43.7859784  40.4015992
  55.8357988  43.7023681  39.1698514  56.5008622  42.8475499  41.1447690
  56.5770977  42.9283982  42.1486371  57.1511301  41.7156127  40.4899377
  57.8582147  42.1052119  39.7575833  57.9204464  40.8870947  41.5190807
  57.2246102  40.4826164  42.2541380  58.4338169  40.0676021  41.0161066
  58.6521739  41.5195350  42.0217669  56.1466005  40.8568016  39.7273153
  56.4151371  40.4327583  38.5939304  54.9686896  40.6097321  40.3205163
  54.7909048  40.8889972  41.2747191  53.9320698  39.8589908  39.6132937
  54.3138563  38.9361913  39.1765108  52.7884305  39.5092146  40.5778366
  52.4326874  40.4250399  41.0498643  51.6373874  38.8422863  39.8307307
  51.9922759  37.9260838  39.3587900  50.8383232  38.6029821  40.5323932
  51.2580750  39.5206549  39.0665057  53.3123702  38.6083878  41.6884271
  54.1007444  39.1257805  42.2351199  52.4991512  38.3618694  42.3710714
  53.7127416  37.6918643  41.2550818  53.4275568  40.6570306  38.4170094
  53.2518790  40.1212412  37.3124764  53.1904576  41.9481646  38.6125673
  53.2776632  42.3806740  39.5210992  52.7016225  42.7647799  37.4984971
  51.8105298  42.3089973  37.0668546  52.3434873  44.1707722  37.9891142
  51.6124350  43.9966656  38.7786384  53.2470482  44.6020886  38.4199783
  51.7580930  45.1392529  36.9559527  52.4485693  45.2193675  36.1163547
  50.4182972  44.6453880  36.4605976  49.7271021  44.5654547  37.2996202
  50.0199707  45.3473179  35.7279783  50.5402031  43.6667151  35.9964437
  51.6111505  46.5348328  37.5542324  52.5886954  46.9009786  37.8679881
  51.1940256  47.2092392  36.8063795  50.9455889  46.4928633  38.4164188
  53.7280476  42.8115379  36.3680993  53.3736170  42.7147980  35.1911438
  55.0110314  42.9263848  36.6988739  55.3189081  43.1196661  37.6411868
  56.0162532  42.8455694  35.6462995  55.7822380  43.5590208  34.8561583
  57.3947532  43.1701217  36.2016478  57.4707142  42.6728947  37.1686507
  58.1219217  42.7387189  35.5137396  57.6724444  44.6299458  36.3689833
  57.5389103  45.1446063  35.4174614  56.9942304  45.0542871  37.1092955
  59.1173581  44.8021336  36.8433606  59.2910688  44.1028578  37.6612462
  59.7783546  44.5588960  36.0114840  59.4018106  46.2198211  37.3192650
  59.6433398  46.8252387  36.4456325  58.4962696  46.6046765  37.7882863
  60.5482422  46.2813981  38.3088118  61.3875331  45.9252267  37.8742634
  60.6966372  47.2391848  38.5929306  60.3244557  45.7208127  39.1186036
  56.0130552  41.4745557  34.9803858  56.1444299  41.3728937  33.7495233
  55.8575487  40.4045952  35.7792896  55.7828268  40.5044857  36.7815559
  55.8675533  39.0605947  35.2181661  56.7734675  38.9136249  34.6301028
  55.8322420  38.0128896  36.3312398  55.1217744  38.3664659  37.0784471
  55.4617861  37.0890908  35.8868770  57.1801966  37.7523662  36.9951584
  57.8850235  37.3913066  36.2461885  57.5531425  38.6814339  37.4262576
  57.0289691  36.7138925  38.0879537  55.9964758  36.7285032  38.4370142
  57.2557091  35.7344966  37.6666793  57.9623724  36.9913747  39.2556968
  58.0266027  38.0694263  39.4032763  57.5497018  36.5265498  40.1510962
  59.3060451  36.4511791  38.9980725  59.6887878  36.8820837  38.1686577
  59.9051080  36.6483740  39.7869565  59.2468067  35.4521810  38.8617176
  54.7135344  38.8565079  34.2581051  54.8361561  38.0896270  33.2973187
  53.6007637  39.5522746  34.4791802  53.5627855  40.2078433  35.2465697
  52.4093974  39.3713283  33.6686274  52.3804923  38.3599499  33.2631926
  51.1632974  39.5893770  34.5267856  51.4181843  40.4021074  35.2069335
  50.3003632  39.8763131  33.9258594  50.8261630  38.3321356  35.3369693
  51.7251452  37.9160296  35.7917083  49.8667355  38.7417948  36.4122963
  48.9672464  39.1576000  35.9582874  49.6010122  37.8722329  37.0134237
  50.3329407  39.4940168  37.0486257  50.2721984  37.1900804  34.4758428
  51.0106243  36.9095571  33.7247547  50.0537946  36.3300343  35.1088687
  49.3579535  37.5179184  33.9810928  52.3615082  40.3158153  32.4691784
  51.4071288  40.2606896  31.6930404  53.3505020  41.1956398  32.2975476
  54.1307387  41.2798111  32.9333503  53.2705914  42.1232741  31.1737069
  52.3386182  42.6858350  31.2289381  54.4400168  43.1105469  31.1979467
  55.3575112  42.5231410  31.2334086  54.4058535  43.6741433  30.2655884
  54.4101017  44.0650651  32.3625436  54.4643488  43.5101958  33.2991749
  55.2696636  44.7308225  32.2849387  53.1509589  44.9007895  32.3685582
  52.9885319  45.7993731  31.5337350  52.2412363  44.6005671  33.2970393
  51.3810788  45.1276735  33.3459212  52.4168366  43.8475458  33.9468276
  53.2430662  41.3551394  29.8573641  54.0578003  40.4583458  29.6323692
  52.3100024  41.7218482  28.9837976  51.7273290  42.5194933  29.1944001
  52.0926540  41.0270746  27.7428953  51.9551789  41.7782815  26.9651499
  52.9893621  40.4448993  27.5305611  50.8969365  40.1030790  27.7509467
  50.4573851  39.6765610  26.6794515  50.3793674  39.7680174  28.9323781
  50.8445599  40.0708448  29.7761736  49.1582194  38.9886458  29.0600589
  49.1458715  38.1958635  28.3120997  49.0725628  38.3503489  30.4524072
  49.0199890  39.1745668  31.1637440  48.1372039  37.7911687  30.4752422
  50.2149675  37.4354591  30.8259108  51.1291436  37.8333979  30.3854253
  50.3076764  37.4308515  31.9119522  49.9972973  36.0580494  30.3455524
  48.9596229  35.7750092  30.5222415  50.2091640  36.0116905  29.2773470
  50.9175800  35.0992021  31.0869725  51.2458495  35.5691873  32.0140397
  50.3669802  34.1872224  31.3176932  52.1061272  34.7638987  30.2523307
  52.6167029  35.6087726  30.0387882  52.7048158  34.1277319  30.7592466
  51.8021868  34.3280010  29.3934288  47.9314398  39.8710910  28.8745825
  47.9310268  41.0696986  29.1852426  46.8611135  39.2650993  28.3901275
  46.9107596  38.3286547  28.0150195  45.5773217  39.9501767  28.3676651
  45.6978930  40.9319982  27.9098568  44.5428064  39.1603734  27.5648458
  44.3681421  38.2104331  28.0700241  43.6219842  39.7436112  27.5603694
  44.9803755  38.9012443  26.1446921  45.5944917  39.8024329  25.5422883
  44.7210485  37.7896193  25.6343142  45.0718063  40.1367146  29.7958061
  45.4820645  39.4247993  30.7249938  44.1688322  41.0994823  29.9744209
  43.9500882  41.7293473  29.2157902  43.5298232  41.3269054  31.2711661
  42.8021817  42.1323104  31.1713674  42.8034837  40.0673357  31.7908778
  43.5560037  39.3481920  32.1143669  42.1397456  40.2975868  32.6242663
  41.9707701  39.3794924  30.7587089  40.8475357  39.9482162  30.2059135
  40.3247744  39.1225631  29.3202711  39.4080280  39.3777751  28.7887244
  41.0956496  38.0519777  29.2538001  40.9563538  37.2601409  28.6424974
  42.1241482  38.1815089  30.1506698  42.8619660  37.3856682  30.2524715
  44.5111668  41.8110529  32.3375576  44.2187076  41.7197637  33.5241409
  45.6872207  42.2986388  31.9525859  45.9437754  42.2808008  30.9758767
  46.6511719  42.8191117  32.9093236  46.2698288  42.8075540  33.9303735
  47.9381271  41.9823786  32.8565494  48.3014648  41.9473137  31.8294879
  48.9846723  42.5950814  33.7352942  48.6222149  42.6300664  34.7626703
  49.8935232  41.9949420  33.6914397  49.2010625  43.6068129  33.3922544
  47.5960815  40.5279777  33.2881648  46.8529086  40.1118448  32.6079961
  48.4985214  39.9174567  33.2570842  47.1967346  40.5338120  34.3023585
  46.9228159  44.2823475  32.5882322  47.0858924  44.6387610  31.4176266
  46.9466931  45.1377087  33.6225055  46.7289565  44.8288226  34.5591375
  47.2935652  46.5466604  33.4187170  46.6160325  46.9889789  32.6883726
  47.1794714  47.3282169  34.7265206  47.8235911  46.8902113  35.4889903
  47.4572261  48.3708715  34.5721716  45.5509861  47.3513770  35.4146727
  45.8601892  48.0868092  36.4788303  48.7207612  46.7113473  32.9107456
  49.6420504  45.9754442  33.3052653  48.9234002  47.7164864  32.0558802
  48.1633430  48.2286562  31.6315049  50.2821860  48.0811673  31.6998477
  50.8027506  47.2165164  31.2881553  50.2749072  49.1907043  30.6517038
  49.5843583  49.9522681  31.0140050  51.2853288  49.5988590  30.6280825
  49.8690957  48.7646892  29.2531928  50.2148218  47.7467463  29.0732857
  48.7829714  48.7993362  29.1681303  50.4923033  49.7057604  28.2175861
  51.4449133  49.2895244  27.8898960  49.8192667  49.7874605  27.3640955
  50.7264496  51.0403157  28.7574932  51.6849596  51.2824933  28.9641522
  49.7734006  51.9383386  29.0138164  48.5077543  51.6813344  28.7519819
  48.2489012  50.7914204  28.3505493  47.8024145  52.3754580  28.9539418
  50.1204834  53.1121138  29.5169657  51.0935514  53.3121924  29.6991942
  49.4107029  53.8024262  29.7164133  51.0534693  48.5561243  32.9259928
  50.5521899  49.3435085  33.7352802  52.2982967  48.0783318  33.0474338
  52.6159003  47.3202424  32.4604688  53.2140404  48.6138514  34.0319317
  52.6794590  48.8347375  34.9557992  54.3109216  47.6022622  34.3344859
  53.8903167  46.7510720  34.8698979  54.7726034  47.2568813  33.4094659
  55.4293741  48.1491750  35.1995924  56.6315461  48.5628759  34.6303576
  56.7731680  48.4806482  33.5527298  57.6447034  49.0767614  35.4256135
  58.5784334  49.4156964  34.9768685  57.4646884  49.1586168  36.8037439
  58.2614953  49.5596024  37.4301696  56.2921586  48.7377506  37.3729710
  56.1566421  48.7933745  38.4530828  55.2806276  48.2421792  36.5750794
  54.3429530  47.9148871  37.0242410  53.8065342  49.9003338  33.4705663
  54.3518983  49.9065046  32.3569892  53.7102578  50.9909241  34.2269701
  53.2075628  50.9501277  35.1020317  54.2157291  52.2903339  33.7760990
  54.5758641  52.2419351  32.7484514  53.1010198  53.3619949  33.8826066
  52.6982822  53.3407362  34.8952521  53.6390196  54.7727941  33.5735956
  54.0415314  54.7949615  32.5608797  52.8292984  55.4975737  33.6581342
  54.4272680  55.0250447  34.2829145  51.9894460  52.9770474  32.9341999
  52.3740780  53.0721431  31.9187612  51.7346437  51.9354152  33.1295910
  50.7666693  53.8261515  33.0855950  51.0206035  54.8679365  32.8898878
  50.0062529  53.4987073  32.3766194  50.3811704  53.7312102  34.1007189
  55.4759809  52.7109661  34.5193728  56.4272783  53.2145325  33.8999867
  55.5264875  52.5045846  35.8277232  54.7402354  52.1369052  36.3441714
  56.7500977  52.8137016  36.5585164  57.5810749  52.2598772  36.1216473
  56.9508953  53.8828716  36.4902874  56.6148746  52.4302786  38.0154360
  55.5334825  52.0905296  38.4904987  57.7466197  52.4961511  38.7252796
  58.6412608  52.6674542  38.2889633  57.7103046  52.2841076  40.1638065
  56.8047884  52.7387403  40.5656132  57.7155076  50.7978440  40.5302358
  57.6443594  50.6752142  41.6109759  56.8794800  50.2880391  40.0514280
  59.2024632  49.9075053  40.0219946  58.8264951  48.7247000  40.5000298
  58.9169572  52.9728619  40.7781826  59.8799611  53.3130773  40.0883805
  58.8539046  53.1697916  42.0871487  58.0670804  52.8457146  42.6311902
  59.9253283  53.8625896  42.7740424  60.8857692  53.4882402  42.4197613
  59.8554012  54.9313137  42.5714629  59.8298400  53.6380703  44.2612405
  58.7337845  53.5120863  44.8224573  60.9975038  53.5651158  44.8985864
  61.8446094  53.5609394  44.3485918  61.1135180  53.4605804  46.3422924
  60.1343380  53.4302700  46.8201909  61.8958251  52.2074880  46.7489879
  61.3577219  51.3192344  46.4180049  62.8821448  52.2279157  46.2854622
  62.0480673  52.1733578  48.2659855  62.5865190  53.0611314  48.5976910
  61.0620971  52.1524475  48.7302349  62.8266984  50.9261575  48.6707697
  62.2885970  50.0379034  48.3397856  63.8130182  50.9465872  48.2072450
  62.9943988  50.8590810  50.1397076  62.6021801  51.5993564  50.7038496
  63.6379950  49.8685150  50.7508242  64.1811087  48.8590140  50.0764092
  64.1096117  48.8320610  49.0693036  64.6625476  48.1239918  50.5744639
  63.7297706  49.9079934  52.0770669  63.3162220  50.6760251  52.5861887
  64.2125927  49.1697619  52.5689975  61.8125893  54.7166709  46.8306334
  62.8797477  55.0707013  46.3227157  61.1987221  55.4056008  47.7866715
  60.2750373  55.1320257  48.0900892  61.7612108  56.6372805  48.3155378
  62.8437653  56.6335598  48.1884118  61.1833704  57.8545578  47.5736772
  61.8558075  58.7081522  47.6591421  61.0984379  57.5629814  46.5268393
  59.8124400  58.2655445  48.0750002  59.6676715  58.8516506  49.1455271
  58.7977865  58.0022782  47.2643584  57.8582191  58.2509055  47.5391262
  58.9686758  57.5542074  46.3754657  61.5625544  56.6681129  49.8288280
  61.1083173  55.6957559  50.4455048  61.9656328  57.7820162  50.4422171
  62.2844326  58.5825734  49.9153639  62.0339757  57.8404645  51.8978294
  62.5356202  56.9364685  52.2431458  62.8626462  59.0592912  52.3343103
  63.8557780  59.0025176  51.8887038  62.3682770  59.9727099  52.0036055
  62.9864769  59.0709245  53.8391793  61.9937002  59.1281561  54.2855200
  63.4812027  58.1579657  54.1706185  63.8096870  60.2817249  54.2727862
  63.1834817  61.3493479  54.5086872  65.0568796  60.1274674  54.3639749
  60.6548693  57.8694072  52.5455613  60.5183099  57.4497908  53.7027422
  59.6341920  58.3358753  51.8224372  59.8047099  58.6268487  50.8704091
  58.2911294  58.5028724  52.3665795  58.3739055  58.4815828  53.4532230
  57.7211838  59.8583967  51.9463451  58.3915076  60.6526187  52.2749430
  57.6238569  59.8915705  50.8612060  56.3504392  60.0536886  52.5855202
  55.6793868  59.2600464  52.2570063  56.4470364  60.0210974  53.6707431
  55.7821095  61.4053651  52.1664773  56.4524335  62.1995877  52.4950731
  55.6847814  61.4385370  51.0813385  54.4113655  61.6006570  52.8056548
  53.7403126  60.8070147  52.4771422  54.5079649  61.5680684  53.8908763
  53.8635327  62.9035835  52.4017230  53.7735386  62.9338274  51.3961952
  52.9556963  63.0329256  52.8250476  54.4849825  63.6391548  52.7064097
  57.3312437  57.3968593  51.9500901  56.4939608  56.9777545  52.7596575
  57.4294033  56.8947146  50.7213068  58.0947318  57.2412880  50.0450493
  56.5131553  55.8391487  50.3104584  56.3850786  55.1386776  51.1357073
  55.1330443  56.3932757  49.9173606  54.5524252  55.5959384  49.4534274
  54.5992850  56.7703589  50.7897191  55.1852878  57.5213680  48.9240875
  55.2322782  57.2619601  47.5569366  55.2233740  56.2283595  47.2109735
  55.2895043  58.2933474  46.6448690  55.3169966  58.0683451  45.5786989
  55.3121392  59.6096440  47.0757460  55.3522153  60.4248350  46.3532798
  55.2834867  59.8882586  48.4366659  55.3130221  60.9194808  48.7885305
  55.2166809  58.8419394  49.3525109  55.1883237  59.0541249  50.4212827
  57.1027325  55.0625156  49.1454774  58.0330608  55.5149804  48.4718426
  56.5649237  53.8660153  48.9453333  55.9755679  53.4787176  49.6683545
  56.7901595  53.0799455  47.7472114  57.7057426  53.4187357  47.2624145
  56.9289316  51.5904198  48.0675358  55.9989626  51.2557256  48.5271407
  57.0967870  51.0369177  47.1436527  58.0710358  51.3008627  49.0196117
  59.1660321  51.8568899  48.8814890  57.8295152  50.4120629  49.9876998
  58.5561577  50.1816667  50.6502766  56.9214201  49.9747150  50.0524371
  55.6052599  53.2985034  46.8194596  54.4977689  53.6024874  47.2709918
  55.8382046  53.1516629  45.5190814  56.7607615  52.9736149  45.1485587
  54.7367322  53.3197071  44.5794018  53.8159095  52.9455026  45.0267896
  54.5414303  54.7943881  44.2193155  53.5886886  54.8661136  43.6946843
  54.4846339  55.3542726  45.1528055  55.6417572  55.3721247  43.3497995
  56.7601629  55.9774991  43.9135072  56.8478257  56.0305379  44.9986807
  57.7613190  56.5123737  43.1072524  58.6417679  56.9834848  43.5442487
  57.6340793  56.4221961  41.7207373  58.6331971  56.9617556  40.9161845
  59.3454750  57.3619453  41.4202757  56.5278962  55.8244048  41.1531436
  56.4323820  55.7565276  40.0694599  55.5479746  55.3154103  41.9588310
  54.6661226  54.8509965  41.5175184  54.9391557  52.5054894  43.3127578
  56.0565278  52.1317659  42.9404643  53.8090381  52.2947479  42.6387658
  52.9357598  52.5561390  43.0736901  53.7649157  51.6579640  41.3029165
  54.7149921  51.7319033  40.7737785  53.3461448  50.1804745  41.3560293
  54.0353529  49.6419211  42.0064534  51.9376005  50.0421204  41.8896464
  51.2477111  50.5800669  41.2394409  51.6614576  48.9880830  41.9188110
  51.8871551  50.4583704  42.8957740  53.5026264  49.5138788  40.0134505
  54.5455612  49.5656483  39.7008660  53.1974989  48.4700948  40.0876920
  52.8781558  50.0230996  39.2793991  52.7790571  52.4761219  40.4654115
  51.7964697  52.9260616  40.9955504  53.1125401  52.6949087  39.2096733
  53.9924783  52.3677059  38.8371864  52.2003156  53.4333989  38.3083163
  51.3226698  53.8135863  38.8310922  52.9025697  54.6070556  37.6108185
  53.6658024  54.2186085  36.9365160  51.8979859  55.4181767  36.8213745
  51.1346382  55.8073687  37.4951184  52.4059175  56.2482568  36.3303826
  51.4288277  54.7839370  36.0692228  53.6557410  55.4768237  38.5957289
  54.4120693  54.8792269  39.1045979  54.1386245  56.2958468  38.0626959
  52.9593522  55.8822529  39.3297390  51.7387485  52.4062088  37.2916048
  52.5542502  51.6939110  36.7741399  50.4450289  52.3607457  37.0413574
  49.7879559  53.0122453  37.4462063  49.9341448  51.3418537  36.1137187
  50.7282554  51.0254466  35.4374243  49.4336926  50.1177128  36.8880885
  48.9817976  49.4288477  36.1743975  50.2940582  49.6408900  37.3576746
  48.4374126  50.4754377  37.9288652  48.8846686  51.2661884  38.5311742
  47.5653556  50.8673122  37.4053645  47.9187492  49.1136598  39.0191566
  47.3609517  50.0966251  40.3933721  46.5555486  50.7545539  40.0669451
  46.9963120  49.4418408  41.1848240  48.1887994  50.6965112  40.7714012
  48.7636506  51.9332954  35.3413250  48.2445264  52.9370457  35.7164001
  48.4108077  51.2377115  34.2923279  48.9270583  50.4112073  34.0268557
  47.2803301  51.6503302  33.4543295  47.4776203  52.6051824  32.9670586
  47.0929819  50.5924116  32.3876103  48.0272337  50.5065986  31.8327149
  46.8792553  49.6472128  32.8866296  45.9732702  50.9218491  31.4365942
  45.0290653  51.0051232  31.9747794  46.1796578  51.8586114  30.9189237
  45.8495884  49.8311097  30.4201281  46.5327782  48.8311361  30.4673244
  44.9545641  50.0430453  29.4905326  44.8098584  49.3537854  28.7665972
  44.4121905  50.8949993  29.5008515  46.0223670  51.8057677  34.3102256
  45.7173554  50.9502404  35.0913061  45.3049313  52.8855924  34.0944647
  45.6140415  53.5773211  33.4265862  44.0477225  53.1281660  34.8183465
  44.1394290  52.7925177  35.8513177  43.7259820  54.6273215  34.8170266
  44.5971713  55.0598200  35.3090363  43.7229196  54.9150934  33.7657046
  42.4502487  55.1434728  35.4912887  41.5940470  54.5866903  35.1104833
  42.5448938  54.9583996  37.0212214  43.4006497  55.5153070  37.4028430
  41.6329504  55.3286250  37.4896156  42.6679935  53.9004253  37.2528187
  42.2783706  56.6123423  35.1276594  42.1955103  56.7119667  34.0453893
  41.3748082  57.0002820  35.5979561  43.1416019  57.1775741  35.4790050
  42.8930793  52.3770107  34.1765632  42.7113187  52.4535386  32.9726946
  42.0864576  51.6833758  34.9812271  42.2700259  51.6342523  35.9731893
  40.9484937  50.9445797  34.4523068  40.9605826  50.9791346  33.3629221
  41.0046179  49.4889987  34.8933792  40.9858737  49.4770125  35.9831518
  40.1109596  48.9967908  34.5097045  42.2812150  48.7278281  34.3834301
  43.1274075  49.2351771  34.8467399  42.2532642  47.6904612  34.7168829
  42.4673426  48.7481415  32.8888516  41.5616833  49.0938373  32.1335578
  43.6535515  48.3120454  32.4363699  43.8389590  48.3013619  31.4435903
  44.3552367  47.9966015  33.0907661  39.6621421  51.6200598  34.9432043
  39.7026265  52.6154741  35.6800110  38.5290046  51.0547515  34.5418132
  38.5656646  50.1846980  34.0301861  37.2242230  51.6427790  34.8112938
  37.3929392  52.6745969  35.1194917  36.6654220  51.6303907  33.8755122
  36.4122305  50.9339022  35.8812083  36.9103624  50.6124300  36.9578114
  35.1364627  50.6857427  35.5664556  34.8036584  50.8299965  34.6238361
  34.1879513  50.2143687  36.5705973  34.2389542  50.8298853  37.4687271
  32.7841134  50.3108844  35.9944942  32.7288024  49.6325496  35.1430825
  32.0870436  49.9828705  36.7655977  32.4163299  51.7258276  35.5435207
  32.0871571  52.2941959  36.4134078  33.3018317  52.1965473  35.1164240
  31.2903373  51.6998852  34.4909388  30.4671689  51.1130390  34.8984978
  30.9600478  52.7263264  34.3314815  31.6854529  51.1211196  33.1876752
  32.6171979  50.7383850  33.1137508  30.8996003  51.0948523  32.1108930
  29.6605294  51.5720987  32.1940872  29.3256420  51.9493567  33.0690883
  29.0604477  51.5549560  31.3818633  31.3293352  50.5751357  30.9509428
  32.2631622  50.1958179  30.8862485  30.7170375  50.5656029  30.1477620
  34.4573323  48.7684992  36.9865063  34.6724368  47.9005197  36.1303862
  34.3611367  48.4893137  38.3066472  34.2161168  49.1836819  39.0256196
  34.6380234  47.1137164  38.7173135  35.2592779  46.6415499  37.9562611
  35.3750304  47.0287429  40.0829288  35.8948321  46.0825304  40.2332200
  36.1045355  47.8345615  40.0018198  34.4669974  47.3011021  41.3221776
  33.4578614  46.6338017  41.5121876  34.9191829  48.1751737  42.2138782
  34.3685252  48.3861520  43.0338563  35.8116650  48.6249371  42.0679694
  33.3441521  46.2861270  38.6896902  32.2274741  46.8222453  38.6610492
  33.5079416  44.9567137  38.6556543  34.4239160  44.5477918  38.7734378
  32.3851234  44.0706487  38.4145212  31.8298638  44.4113480  37.5406162
  32.8687113  42.6375684  38.1598656  33.4685705  42.3726732  39.0305543
  32.0191908  41.9588012  38.0844343  33.7404034  42.5222325  36.8749549
  34.6904830  43.0395434  37.0085182  33.9998579  41.0344568  36.6346388
  33.0501985  40.5165220  36.5005144  34.6098052  40.9113945  35.7396971
  34.5247660  40.6134926  37.4921708  33.0719004  43.1835030  35.6754420
  32.9113210  44.2409360  35.8855588  33.7124716  43.0808363  34.7995256
  32.1131439  42.7023218  35.4821819  31.4100553  44.0540525  39.5733394
  30.2217972  43.8101168  39.3529329  31.8782810  44.2873829  40.8055373
  32.8573910  44.4376063  41.0027071  30.9351830  44.2774743  41.9307670
  30.3059034  43.3888766  41.8807620  31.6813832  44.2753565  43.2726245
  32.3089000  45.1639472  43.3413942  30.9602441  44.2763114  44.0899725
  32.3055026  43.3843061  43.3404742  30.0264370  45.4791715  41.8325707
  28.8043372  45.3498409  41.9653361  30.6009507  46.6508015  41.5335002
  31.6045896  46.7411268  41.4653118  29.7834073  47.8429024  41.3300471
  29.1570951  47.9993610  42.2083141  30.6337388  49.0853211  41.1117882
  31.3853685  48.8253060  40.3664398  29.9971372  49.8801648  40.7231211
  31.3217411  49.5622403  42.3790967  30.8860860  49.1633678  43.4723448
  32.2851507  50.3548455  42.2841225  28.8623088  47.6709192  40.1369358
  27.7030312  48.0959039  40.1828105  29.3643079  47.0820601  39.0423323
  30.3378978  46.8262054  38.9601104  28.4882553  46.8589899  37.8904397
  28.0162914  47.8033884  37.6194034  29.2527373  46.3211476  36.6653985
  29.8996563  45.5436588  37.0717311  28.5626432  45.8797884  35.9463212
  30.1129930  47.3892330  35.9624022  30.6265808  47.9955223  36.7085535
  31.1649642  46.6827180  35.0535721  30.6520873  46.0765640  34.3068235
  31.7766390  47.4336454  34.5535094  31.8025186  46.0434012  35.6642266
  29.2675160  48.3960741  35.1567194  28.5779167  48.9100567  35.8263269
  29.9242873  49.1254551  34.6826350  28.7018377  47.8654446  34.3908609
  27.3558495  45.9059863  38.2345316  26.2128449  46.1048975  37.7864680
  27.6448368  44.8473500  38.9834557  28.5733049  44.6297028  39.3161357
  26.5483610  43.9214386  39.3171533  26.0673176  43.5841099  38.3990543
  27.0622906  42.7058990  40.0711128  27.8284065  42.2219253  39.4653611
  27.5011906  43.0419961  41.0105304  25.9562837  41.7265135  40.3566889
  25.1504282  42.2681678  40.8519752  25.5996838  41.3382269  39.4026595
  26.4080486  40.5668427  41.2408184  25.6008955  39.8367706  41.3007991
  27.2845126  40.1023986  40.7889313  26.7521351  40.9976956  42.5961598
  27.7452790  41.0680759  42.7658982  25.9148903  41.2823575  43.5931346
  24.5777103  41.2212490  43.4543521  24.1769388  40.9511035  42.5675017
  23.9809873  41.4458112  44.2376739  26.4467426  41.6523953  44.7567196
  27.4504408  41.7076369  44.8548947  25.8439430  41.8760776  45.5356276
  25.4850304  44.6030823  40.1592197  24.2775980  44.4584891  39.9138451
  25.9190318  45.3403954  41.1699809  26.9066409  45.4047850  41.3714300
  24.9840464  46.0195320  42.0639534  24.2311451  45.3252859  42.4371307
  25.7699889  46.5752668  43.2545168  26.6570875  47.0844852  42.8778844
  25.1393048  47.2891854  43.7842885  26.1958593  45.4464103  44.2225806
  25.3170456  44.8345723  44.4261528  26.9493356  44.8423403  43.7171353
  26.7641269  45.9725179  45.5366021  26.0260679  46.6013409  46.0345473
  27.0281114  45.1385230  46.1868821  27.9648824  46.7688406  45.2849624
  27.8284413  47.6856036  44.8836787  29.2070852  46.3696372  45.5494484
  29.4225682  45.1722416  46.0905361  28.6408242  44.5678860  46.2996548
  30.3667721  44.8738366  46.2893655  30.2407007  47.1684462  45.2700056
  30.0767577  48.0757403  44.8576462  31.1813924  46.8614473  45.4723653
  24.2068576  47.1150583  41.3573901  23.1102698  47.4806231  41.8022952
  24.7425996  47.6681016  40.2786656  25.6843418  47.4784177  39.9668306
  23.9693616  48.6662381  39.5640639  23.4200048  49.2927765  40.2667415
  24.9092598  49.5540969  38.7498360  24.4536574  50.5377038  38.6356288
  25.8535801  49.6516298  39.2854165  25.1458665  48.9976874  37.4813448
  25.7373961  49.5693368  36.9864615  22.8955653  48.0366806  38.6838026
  22.0007107  48.7501350  38.2141080  22.9203011  46.7254482  38.5013534
  23.6906972  46.1684483  38.8424403  21.8730322  46.0625861  37.7486465
  21.6750564  46.6096687  36.8269060  22.2967354  44.6467640  37.3918098
  22.6426594  44.1560204  38.3015386  21.4256472  44.1189386  37.0036014
  23.4148289  44.6263405  36.3440108  24.2597038  45.2299323  36.6756193
  23.7399878  43.5962781  36.1979104  22.9203740  45.1717934  35.0166208
  21.9555493  44.6619356  34.4620467  23.5592167  46.2159183  34.5151269
  23.2624926  46.6100968  33.6338327  24.3407638  46.6141382  35.0158328
  20.5612261  46.0560589  38.5393558  20.5704307  46.0432864  39.7747153
  19.4171695  46.0803314  37.8480676  19.2202576  45.9915912  36.3906110
  19.2968632  44.9507823  36.0760498  19.9844579  46.5809429  35.8838946
  17.8425445  46.5524980  36.1955871  17.3767389  46.0861752  35.3274470
  17.9043242  47.6294899  36.0394679  17.1058145  46.2418830  37.4332843
  16.6795964  45.2392424  37.3993894  16.3114114  46.9682045  37.6049832
  18.1468250  46.3285899  38.5581968  18.2120347  47.3345355  38.9728284
  17.8276101  45.3418009  39.6712392  17.2296625  45.7368754  40.6872907
  18.1501628  44.0642047  39.4790603  18.5335439  43.8124344  38.5792103
  17.9453498  43.0079277  40.4632709  17.3458012  43.3845645  41.2919961
  17.2129976  41.8247706  39.8283247  17.7488526  41.5418626  38.9222774
  17.2328571  40.9955256  40.5354727  15.7546024  42.1631603  39.4764458
  15.3449461  42.7914855  40.2673251  15.7445610  42.7123042  38.5349351
  14.9059587  40.9013051  39.3383616  15.1851125  40.2031858  40.1275394
  13.8557079  41.1716325  39.4478866  15.0882825  40.2427561  38.0433584
  14.7155172  40.7186674  37.2342516  15.6983488  39.0729577  37.8670408
  16.2091519  38.4212658  38.9083260  16.1329014  38.8167500  39.8345431
  16.6708512  37.5340225  38.7678530  15.8029798  38.5578028  36.6448040
  15.4187997  39.0568159  35.8551891  16.2661048  37.6700911  36.5122075
  19.2653718  42.5269668  41.0636198  19.3289953  41.4338702  41.6339897
  20.3297710  43.2957210  40.8967206  20.2949933  44.1983728  40.4449358
  21.6123572  42.8195274  41.3868251  22.3335142  43.6205452  41.2243370
  21.5000227  42.6439859  42.4567155  22.1245947  41.5553541  40.7315118
  22.9364288  40.8428894  41.3329014  21.6695417  41.2373557  39.5178294
  20.9528644  41.8079853  39.0925590  22.1623975  40.0766159  38.7766856
  23.0454324  39.6815600  39.2789598  21.1307327  38.9699017  38.6680553
  21.5319388  38.1699203  38.0458306  20.8003570  38.4284964  40.0253104
  20.3986335  39.2278535  40.6480030  20.0588136  37.6353168  39.9300281
  21.7029114  38.0278491  40.4868055  19.9469344  39.5013910  38.0559168
  19.2863426  38.8087443  37.9820295  22.5598101  40.4884394  37.3681507
  22.0170805  41.4415799  36.8090329  23.5102882  39.7548440  36.7977446
  24.0199058  39.0961993  37.3692134  23.8373374  39.8373507  35.3806393
  23.5727015  40.8303952  35.0174180  25.3247266  39.5952868  35.1043306
  25.5987931  38.6755507  35.6211210  25.5302948  39.4880772  34.0392730
  26.2544620  40.6748588  35.6185995  26.0135225  42.0171652  35.3520183
  25.1290303  42.2970991  34.7798203  26.8954664  43.0087818  35.8114436
  26.6777219  44.0574172  35.6088313  28.0437660  42.6595580  36.5227239
  28.7360625  43.4221339  36.8795201  28.3007845  41.3074427  36.7762189
  29.1926816  41.0159240  37.3308689  27.4175074  40.3358470  36.3200169
  27.6232785  39.2817245  36.5059846  23.0707265  38.7765203  34.6123681
  22.7213512  37.7145634  35.1423856  22.8283427  39.0591133  33.3391885
  23.0026578  39.9745780  32.9497814  22.2761250  38.0313399  32.4669904
  21.3728748  37.6139043  32.9119463  21.9260583  38.5944337  31.0841673
  21.5120033  37.7964639  30.4678046  20.9078765  39.7113255  31.2158467
  21.3214215  40.5099230  31.8317381  20.6674569  40.1029011  30.2274307
  20.0021533  39.3247733  31.6831191  23.1171252  39.1032306  30.4396370
  22.8885873  39.4533485  29.5754679  23.2831024  36.9080457  32.3025014
  24.4746765  37.0710526  32.5457667  22.7935458  35.7517337  31.8832463
  21.8060255  35.5735826  31.7685063  23.7195305  34.6494345  31.6879450
  24.3168783  34.4732612  32.5825051  22.8899586  33.3908580  31.3962264
  22.0730997  33.3577109  32.1171579  22.4951816  33.6427572  30.4119511
  23.5588868  32.0511999  31.3378621  24.3520244  32.0430703  30.5902208
  24.1586913  31.8083718  32.7163374  23.3660459  31.8159007  33.4645054
  24.6607638  30.8409768  32.7294072  24.8792066  32.5941790  32.9431968
  22.4094170  31.0983932  31.1245539  21.8970006  31.3486048  30.1956174
  22.7885456  30.0781126  31.0663288  21.7107744  31.1788679  31.9573332
  24.7392432  34.9927232  30.5957889  25.9224195  34.6265336  30.6981269
  24.3286703  35.7810114  29.5923106  23.3637033  36.0695160  29.5167921
  25.2598911  36.1943014  28.5434445  25.6771511  35.3135632  28.0552913
  24.5496661  37.0427420  27.4938002  23.8232537  36.4312934  26.9584921
  24.0372152  37.8732787  27.9792926  25.5078331  37.5490823  26.5777104
  25.0652001  38.0840589  25.9147806  26.4497371  36.9659755  29.1139133
  27.5960811  36.6778814  28.7721033  26.1851912  37.9705209  29.9585311
  25.2342781  38.2754795  30.1097392  27.2588018  38.7177755  30.5956785
  28.0581772  39.0005321  29.9107355  26.7076127  39.9912042  31.2605370
  25.7878058  39.7220482  31.7797773  27.6973862  40.6273852  32.2628364
  28.6173239  40.8972481  31.7441957  27.2504891  41.5213491  32.6978199
  27.9233410  39.9128377  33.0543330  26.3147519  40.9373517  30.2456250
  25.9713773  41.7305696  30.6633563  28.0364271  37.8650561  31.5862306
  29.2690535  37.9135717  31.5980408  27.3383120  37.0638591  32.4021077
  26.3284624  37.0489630  32.3930890  28.0349147  36.1957405  33.3468319
  28.6217928  36.7667719  34.0662737  27.0127820  35.3544652  34.1088540
  26.4210662  34.7719224  33.4027260  27.7581939  34.3898533  35.0821037
  28.3497992  34.9717260  35.7888759  27.0302964  33.7885947  35.6268536
  28.4160908  33.7342522  34.5116132  26.0958563  36.1888683  34.8438354
  25.4658496  35.6364955  35.3124250  29.0245449  35.2580478  32.6412837
  30.1842275  35.1086179  33.0659495  28.5587208  34.5764207  31.5907180
  27.6248028  34.7141619  31.2316584  29.4069375  33.5704411  30.9502013
  29.7947952  32.8835228  31.7024040  28.6051511  32.7640784  29.9152677
  28.0891740  33.5079159  29.3081660  29.2849033  32.1900175  29.2855923
  27.5776702  31.8209846  30.5492725  26.9524685  32.3937526  31.2342254
  26.7041940  31.1745821  29.4870027  27.3286847  30.6012205  28.8018993
  25.9835101  30.5100056  29.9635040  26.1729610  31.9482039  28.9325649
  28.2723969  30.7351642  31.4006350  28.8479831  31.2091637  32.1956976
  27.5198554  30.0796144  31.8388551  28.9402379  30.1494881  30.7689144
  30.5888695  34.2361683  30.2746318  31.7187149  33.7281100  30.3363977
  30.3550469  35.3963080  29.6443328  29.4300401  35.7933558  29.5617807
  31.4534643  36.0520738  28.9455235  32.0381751  35.3105788  28.4010994
  30.9167254  37.0874073  27.9428965  30.1942129  37.7390451  28.4342652
  31.7394675  37.6867358  27.5530237  30.2334275  36.3462421  26.7887288
  30.9696423  35.6993356  26.3116537  29.4279081  35.7377190  27.1997521
  29.6740086  37.2959949  25.7765327  30.4534304  38.0032739  25.4930595
  29.3627682  36.7283689  24.8995894  28.5323462  38.0387173  26.2791135
  27.7712262  37.5040364  26.6727023  28.4393285  39.3642417  26.2728848
  29.4350948  40.0930837  25.7828951  30.2585283  39.6366363  25.4172273
  29.3645582  41.1006060  25.7780847  27.3388665  39.9575732  26.7360209
  26.5776559  39.3966005  27.0909410  27.2714676  40.9653021  26.7298242
  32.4564817  36.6660418  29.9131936  33.6734052  36.6102428  29.6586734
  31.9800099  37.2295606  31.0417268  30.9989557  37.4392624  31.1585906
  32.9014175  37.6110416  32.1086019  33.6474168  38.3074712  31.7257575
  32.1321444  38.2942518  33.2515017  31.2709692  37.6430652  33.4012765
  32.7295498  38.3211077  34.1628115  31.6474796  39.7159669  32.9139473
  31.0190467  39.6764261  32.0242229  30.8285313  40.3042999  34.1022309
  31.4564837  40.3445871  34.9922599  30.4921343  41.3098728  33.8497215
  29.9633855  39.6705065  34.2969844  32.8377635  40.6487451  32.5109397
  33.3402675  40.2393574  31.6345888  32.4579628  41.6438886  32.2795479
  33.5452484  40.7135740  33.3375964  33.6803208  36.3941217  32.6366809
  34.8981642  36.4725384  32.8528276  32.9909006  35.2712461  32.8807467
  31.9962365  35.2012873  32.7199721  33.6914860  34.1017173  33.3972770
  34.0789131  34.3452147  34.3865739  32.9758227  33.2836572  33.4791491
  34.8468739  33.6623723  32.5067262  35.9368303  33.3162548  32.9968157
  34.6373685  33.6816015  31.1899857  33.7257827  33.8985718  30.8131108
  35.7120009  33.3545405  30.2573414  36.0352329  32.3232589  30.3990397
  35.2070086  33.5162682  28.8196433  34.7909823  34.5193956  28.7260659
  36.0646784  33.4156879  28.1545221  34.1500122  32.4926156  28.4408796
  34.5430720  31.5050250  28.6822710  33.2655997  32.6891861  29.0469131
  33.7735409  32.5431104  26.9579859  33.5646563  31.5211713  26.6415895
  32.8663596  33.1415045  26.8740448  34.8409094  33.1286742  26.0826840
  35.0902082  34.1311048  26.4306546  35.7304887  32.4999126  26.1201882
  34.3372612  33.2004794  24.6667375  33.5132069  33.7834084  24.6316950
  35.0538994  33.5945725  24.0740991  34.1066019  32.2716566  24.3439624
  36.9281301  34.2537239  30.4912667  38.0778293  33.7810826  30.5180975
  36.6935055  35.5653305  30.6416611  35.7576175  35.9426612  30.5988288
  37.8106607  36.4968397  30.8190780  38.5798496  36.3096601  30.0698041
  37.3114296  37.9366811  30.6591898  36.5343468  38.1372508  31.3967624
  38.1402984  38.6287087  30.8081000  36.7521770  38.1179649  29.2848191
  37.4068563  37.6149847  28.5731263  35.7475936  37.7015280  29.2106950
  36.6944947  39.5596024  28.9390155  37.5600118  40.3371767  29.3662990
  35.6769254  39.9486500  28.1988798  35.5903685  40.9197598  27.9351470
  34.9878619  39.2740839  27.8984577  38.4879434  36.3304683  32.1691894
  39.7238377  36.3622756  32.2585183  37.7017685  36.1454165  33.2282526
  36.6950490  36.1741304  33.1521566  38.2889393  35.9737582  34.5478699
  39.0201110  36.7572873  34.7467900  37.1960447  36.0068402  35.6286049
  36.4408601  35.2528893  35.4064456  37.8260695  35.7124903  37.0023639
  38.5810818  36.4663429  37.2254410  37.0524698  35.7355558  37.7699004
  38.2912961  34.7269024  36.9856374  36.5099488  37.3823153  35.6171737
  37.1379312  38.0523865  36.2043223  36.4927552  37.7170692  34.5799931
  35.0278906  37.3939183  36.2034459  35.0443401  37.0597018  37.2408121
  34.6251750  38.4056143  36.1545523  34.3991644  36.7243822  35.6164838
  39.0838800  34.6764619  34.5884365  40.1736210  34.6292968  35.1478469
  38.5523672  33.6076228  33.9786291  37.6047869  33.6134836  33.6291201
  39.3216154  32.3625867  33.8815919  39.5826507  31.9958882  34.8743114
  38.4682753  31.3028272  33.1768966  37.6193864  31.1438410  33.8418855
  38.1140960  31.6965987  32.2242156  39.1907162  29.9688312  32.9420037
  40.0576124  30.1703054  32.3127184  39.6447362  29.2957795  34.2308377
  38.7782777  29.0935579  34.8604844  40.1478817  28.3582961  33.9940462
  40.3334014  29.9531744  34.7615661  38.2717613  29.0601572  32.1664712
  38.0237078  29.5228048  31.2112089  38.7679481  28.1059198  31.9894662
  37.3580935  28.8936590  32.7370748  40.6545211  32.5799718  33.1667625
  41.7016121  32.0808669  33.6012516  40.6513867  33.3483060  32.0757072
  39.7900358  33.7045083  31.6867421  41.8982707  33.6602982  31.3922744
  42.3846644  32.7419305  31.0634567  41.6170115  34.5323013  30.1639878
  40.9100677  35.3071570  30.4605149  42.5565982  34.9948253  29.8617486
  41.0461894  33.7464860  29.0042011  41.8125936  33.0422554  28.6804964
  40.1741152  33.1964421  29.3578075  40.6450486  34.6353796  27.8314491
  40.7553240  35.8778909  27.9387757  40.2089594  34.0793812  26.8120483
  42.8788554  34.3738386  32.3045900  44.0975328  34.0886304  32.2847001
  42.3720782  35.3440955  33.0733640  41.3946731  35.5875638  32.9991889
  43.1993128  36.0852865  34.0179315  44.0002776  36.6043673  33.4915194
  42.3439882  37.1189892  34.7457746  41.5463390  36.5965228  35.2738692
  42.9734029  37.6424271  35.4654620  41.7841275  38.0465526  33.8522942
  41.2537670  38.6808262  34.3401617  43.8291663  35.1528145  35.0316571
  45.0173341  35.2530951  35.3389209  43.0169586  34.2742838  35.6059118
  42.0358233  34.2463537  35.3678091  43.5032374  33.3737528  36.6547239
  44.0242738  33.9140817  37.4450814  42.3212126  32.6047244  37.2555414
  41.7141299  32.1908915  36.4503748  42.8504192  31.4367275  38.1660235
  43.4572501  31.8498469  38.9717463  42.0052984  30.8942739  38.5898343
  43.4560223  30.7553785  37.5684388  41.4546955  33.5839868  38.0246516
  42.0377784  33.9459989  38.8714469  41.2266874  34.4163126  37.3588096
  40.1588033  32.9685401  38.5281660  40.3860217  32.1363786  39.1944835
  39.5850932  33.7206994  39.0696569  39.5749314  32.6066901  37.6818457
  44.5576732  32.4370048  36.1087887  45.5811465  32.2032431  36.7611038
  44.3158651  31.8775522  34.9132292  43.4356971  32.0079247  34.4353102
  45.3164852  31.0061616  34.2980317  45.5780599  30.2002561  34.9837387
  44.7642015  30.3897091  33.0038926  43.7627012  30.0180716  33.2206461
  44.7029554  31.1866197  32.2627567  45.6337726  29.2352838  32.4491481
  46.6198604  29.6513605  32.2427218  45.7178379  28.4668298  33.2175950
  45.0651524  28.6193341  31.1746015  43.9673371  29.0443901  30.7410094
  45.7080515  27.6961595  30.6155036  46.5985805  31.7739166  34.0179715
  47.6958696  31.2075965  34.1359036  46.4839106  33.0713228  33.7024622
  45.5761279  33.5016718  33.5983964  47.6686639  33.8779554  33.4226687
  48.2579588  33.3658440  32.6620291  47.2556157  35.2574445  32.8787699
  46.6724188  35.7861034  33.6327601  48.1477202  35.8359069  32.6387053
  46.6538049  35.1285528  31.9791533  48.5540369  34.0246366  34.6573312
  49.7629616  33.7859440  34.5858545  47.9805832  34.4377323  35.7958829
  47.0149176  34.7311577  35.8344941  48.8067414  34.6092598  36.9928853
  49.7622744  35.1020397  36.8133748  48.0424347  35.3576961  38.1155395
  47.7318558  36.3275368  37.7268876  46.7997388  34.5735238  38.5960795
  47.1095896  33.6036879  38.9853242  46.2961939  35.1359788  39.3823286
  46.1160336  34.4272418  37.7598691  49.0289164  35.7390946  39.2523456
  49.3887608  34.7981326  39.6685226  49.8553533  36.2630385  38.7721536
  48.4446671  36.6286392  40.4019773  47.6184269  36.1051260  40.8829771
  49.2234753  36.8305567  41.1373590  48.0850170  37.5700316  39.9866073
  49.3678173  33.2712873  37.4552417  50.5450590  33.1789143  37.8349499
  48.5773349  32.1945941  37.3542152  47.6076923  32.2710024  37.0820860
  49.1049656  30.8685789  37.6760389  49.4929603  30.8668308  38.6946439
  48.0151991  29.8088595  37.5682351  47.5161225  29.8516314  36.6001482
  48.4670101  28.8257501  37.7003823  46.9404616  29.9320275  38.6119319
  45.8098734  29.1482540  38.5987243  45.0343975  29.4733534  39.6241668
  44.0936740  28.9494865  39.7935827  45.6116597  30.4545020  40.2921839
  45.2494588  30.9140324  41.1154350  46.8126670  30.7600198  39.6762154
  47.4468684  31.5493245  40.0798091  50.2587889  30.4854560  36.7551791
  51.2388053  29.8537324  37.1923690  50.1676983  30.8495126  35.4747845
  49.3487972  31.3202773  35.1171802  51.2437124  30.5140799  34.5345242
  51.4485599  29.4440011  34.5672087  50.8297025  30.8890300  33.1112258
  51.4085611  30.2858159  32.4118298  49.7692698  30.6682486  32.9894144
  51.0596135  32.2687368  32.8502200  50.7907974  32.4735413  31.9516696
  52.5681251  31.1894032  34.8721383  53.6273485  30.6928222  34.4552271
  52.5567872  32.3044120  35.6013542  51.6877800  32.7848786  35.7859562
  53.8005303  32.9362068  36.0279834  54.6379046  32.5422258  35.4520647
  53.7605465  34.4634394  35.8549549  54.7462562  34.8771502  36.0678374
  53.3656260  34.8069636  34.4352627  52.3797520  34.3939532  34.2217778
  53.3385476  35.8902033  34.3171149  54.0936846  34.3845493  33.7427322
  52.7703356  35.1138786  36.8311138  53.0691955  34.8905399  37.8552742
  52.7676573  36.1935153  36.6811901  51.7700427  34.7200858  36.6509969
  54.1870299  32.5377452  37.4519147  55.0969659  33.1320088  38.0309815
  53.5507515  31.5135155  38.0139363  52.7469724  31.0816313  37.5809069
  54.0108273  30.9900242  39.2837698  53.8548370  29.9118816  39.2466907
  55.0791104  31.2005243  39.3343679  53.3414259  31.5417242  40.5222507
  53.8035434  31.2572618  41.6342267  52.2440080  32.2906368  40.3845197
  51.8408685  32.4689289  39.4757899  51.6258135  32.9050677  41.5433784
  52.0998898  32.5211757  42.4466932  51.7730267  34.4608761  41.5246830
  51.5604312  34.8033998  40.5119738  51.1000948  34.9568097  42.2241918
  53.1579332  34.9314946  41.8548544  54.1856485  34.7654920  40.9538326
  53.9796965  34.2948688  39.9924806  55.4744049  35.1902083  41.2581943
  56.2678136  35.0825387  40.5185927  55.7515586  35.7476253  42.4940471
  56.7634853  36.0688414  42.7408760  54.7364033  35.8956442  43.4167215
  54.9403008  36.3330416  44.3940697  53.4406504  35.4812216  43.0926852
  52.6360058  35.5892767  43.8199892  50.1459719  32.5590311  41.6420165
  49.4442296  32.4178698  40.6261675  49.6861611  32.4445625  42.8841167
  50.3589516  32.3772002  43.6343930  48.2711983  32.4157956  43.2217939
  47.6909365  31.9986917  42.3987388  48.0691685  31.5368448  44.4568305
  48.6163399  32.0503879  45.2473849  47.0129784  31.4851501  44.7211979
  48.6239620  30.1177227  44.2907409  49.6801159  30.1948436  44.0324929
  48.4701134  29.2829978  45.5657355  47.4141176  29.2050387  45.8243746
  48.8774250  28.2857829  45.3991210  49.0091573  29.7633071  46.3823352
  47.9498902  29.4397346  43.1100304  48.1437367  30.0118039  42.2026938
  48.3465074  28.4310315  42.9946434  46.8751193  29.3892479  43.2844366
  47.8116970  33.8355714  43.5172395  48.5591038  34.6237292  44.0923945
  46.5784408  34.1675328  43.1218854  46.0196393  33.5584875  42.5414510
  46.0490904  35.4861639  43.4511075  46.8368965  36.2356548  43.3754495
  44.9166882  35.8588757  42.4674220  45.2627775  35.7451090  41.4401058
  44.0609475  35.2052469  42.6364703  44.4163412  37.2598812  42.5969962
  43.5957191  37.6682595  43.6287983  43.3311666  38.9568534  43.4847257
  42.7327693  39.4799948  44.2306096  43.8953729  39.3862497  42.3679854
  43.8166167  40.3143254  41.9773795  44.6160100  38.3573271  41.8141004
  45.1997297  38.5261013  40.9091762  45.5831372  35.5442402  44.9030279
  45.9599207  36.4531938  45.6601188  44.7828469  34.5569347  45.3009590
  44.4389199  33.9917909  44.5377906  44.2652349  34.2988443  46.6412061
  43.6939934  33.3706316  46.6269384  45.3883242  34.1687594  47.6838361
  45.9335523  35.1110813  47.7372691  44.9462979  33.9497279  48.6558125
  46.3331594  33.0649487  47.3037555  45.7544393  32.2414317  46.8854212
  47.0233541  33.4432046  46.5496628  47.1089714  32.5777052  48.4917616
  46.4175719  32.2553462  49.2703182  47.7387137  31.7387397  48.1956855
  47.9582722  33.6318171  49.0291405  48.0451761  34.4859609  48.4971767
  48.6202758  33.5297294  50.1787197  48.5285620  32.4151678  50.9165070
  47.9536022  31.6482952  50.5980299  49.0347989  32.3469024  51.7878070
  49.3741264  34.5405245  50.5876545  49.4399080  35.3771187  50.0256198
  49.8792424  34.4694123  51.4593767  43.2118661  35.3035934  47.1052345
  42.6781220  35.1456518  48.2098357  42.8585076  36.3000305  46.3006092
  43.4138319  36.5254266  45.4876450  41.7336025  37.1753327  46.6375193
  41.0542574  36.6465869  47.3061128  42.2026017  38.4495152  47.3281486
  43.0150411  38.1901041  48.0069324  42.5698848  39.1417010  46.5704666
  41.0646742  39.1147122  48.1214524  40.0480403  38.4429947  48.3634072
  41.1701363  40.2993412  48.5016112  40.8773965  37.4775476  45.4148404
  40.5357555  38.6296540  45.1258281  40.4783301  36.4248721  44.6970623
  40.7726832  35.4973403  44.9675068  39.6608221  36.5689540  43.4959578
  39.9758612  37.3908737  42.8530755  39.6713402  35.2599892  42.6944757
  39.5062802  34.4388835  43.3920723  38.5941715  35.2272842  41.6026447
  38.7588551  36.0478779  40.9043568  38.6472838  34.2792325  41.0674085
  37.6099415  35.3314732  42.0593012  41.0575978  34.9488122  42.0830704
  41.7901598  34.9554736  42.8901698  41.0141837  33.9535603  41.6407034
  41.4839693  36.0050111  40.9713379  41.5280536  37.0005037  41.4130968
  42.4641836  35.7402856  40.5748538  40.7520757  35.9985920  40.1636310
  38.2493489  36.9535340  43.9227089  37.6184282  36.2247869  44.6942474
  37.7787991  38.1117765  43.4882838  38.3582913  38.6927174  42.8993901
  36.4588864  38.6150312  43.8772200  35.7317587  37.8047418  43.8241592
  36.4744589  39.1730852  45.3244986  35.4442869  39.4114564  45.5891193
  36.8407311  38.3771531  45.9729097  37.3470041  40.4169643  45.5019093
  38.3364661  40.2199760  45.0892818  36.8910167  41.2511221  44.9686567
  37.4751254  40.7712369  46.9950784  36.4788918  40.9080670  47.4156673
  37.9786812  39.9550337  47.5130971  38.2593951  42.0225683  47.1625946
  39.2678392  41.8982034  46.7680385  37.7700547  42.8523849  46.6526442
  38.3304929  42.3127578  48.6393112  38.7842802  41.5441433  49.1119724
  38.8586901  43.1601969  48.7908190  37.3961673  42.4284547  49.0050284
  36.0494770  39.6746857  42.8819882  36.9033392  40.2481012  42.1722170
  34.7684257  40.0062015  42.8084110  33.6152471  39.4656236  43.5605306
  33.7855995  39.5794274  44.6311047  33.4817834  38.4098666  43.3245991
  32.4485959  40.3331056  43.0517066  32.3357349  41.2247661  43.6683937
  31.5174972  39.7664502  43.0593435  32.8595751  40.6920827  41.6174578
  32.3922437  41.5963395  41.2275604  32.6159808  39.8496953  40.9700437
  34.3822543  40.8785378  41.6838853  34.7751278  40.4130011  40.7799913
  34.8808103  42.3038203  41.7736668  35.1463815  42.8937673  40.7110608
  35.1282817  42.8479042  42.9683711  34.8865761  42.4151902  43.8483918
  35.7010414  44.1875048  42.9915611  35.1902296  44.8323392  42.2764674
  35.5343393  44.7827279  44.3938014  35.8225627  45.8334932  44.3634886
  34.4870619  44.7020337  44.6850033  36.3546048  44.0873189  45.3537549
  36.2323572  44.4783173  46.2219574  37.1750063  44.2078613  42.5502789
  37.7126299  45.2961976  42.2935319  37.8304303  43.0513398  42.4228734
  37.4224315  42.1950930  42.7699725  39.1981659  43.0028793  41.8798781
  39.6729502  43.9760307  42.0049997  40.0467346  41.9456932  42.6039900
  39.4061523  41.0819791  42.7821795  40.8948906  41.6473856  41.9877562
  40.5689156  42.4458056  43.9384875  40.6904045  43.6525626  44.1229949
  40.9236116  41.5211998  44.8689637  41.2747257  41.8219031  45.7669594
  40.8345366  40.5374208  44.6583805  39.2586685  42.7748197  40.3685895
  40.3384441  42.4493485  39.8401928  38.1406954  42.9488832  39.6604991
  37.2614310  43.0269378  40.1513155  38.1211640  42.9518262  38.2036384
  39.1405310  42.9459671  37.8176904  37.3920353  41.7061029  37.6819048
  36.4241956  41.4797067  38.1292641  37.2682714  41.8653298  36.6107235
  38.2316861  40.4810200  37.8375202  39.1260028  40.1121391  36.8657438
  39.1708083  40.6850911  35.9395589  39.9773582  39.0117840  37.0522129
  40.6710813  38.7145138  36.2657782  39.9337921  38.3080692  38.2326181
  40.5992096  37.4582538  38.3847139  39.0159118  38.6906404  39.2607003
  38.9535976  38.1313328  40.1941841  38.2031864  39.7840460  39.0573662
  37.5292486  40.1165218  39.8469025  37.4821394  44.2405878  37.7469646
  36.4095997  44.5947962  38.2196135  38.1498356  44.9542754  36.8452924
  39.0606124  44.6672093  36.5163881  37.5967512  46.2110479  36.3445734
  36.5709865  46.3134794  36.6987112  38.4226596  47.4138933  36.8652147
  39.4501690  47.3302278  36.5112027  37.9861775  48.3419790  36.4961068
  38.4135588  47.4169840  37.9551719  37.5614088  46.2221899  34.8321089
  38.4920404  45.7423667  34.1757100  36.4741493  46.7546866  34.2728782
  35.7282598  47.1298972  34.8411786  36.3423683  46.8286149  32.8222724
  36.6126375  45.8734889  32.3719524  34.8936303  47.1535274  32.4479635
  34.6127194  48.0724522  32.9625171  34.8539863  47.3143117  31.3706164
  33.9198320  46.0344683  32.8333252  33.9625388  45.9391565  33.9183103
  32.9247956  46.3665829  32.5371759  34.2548452  44.4379120  32.0875127
  34.2919340  44.8025731  30.3038491  35.0770964  45.5299010  30.0974196
  34.4916575  43.8857938  29.7491177  33.3292781  45.2106196  29.9958021
  37.2377672  47.9322047  32.2939483  37.4984425  48.9109038  32.9920438
  37.6904253  47.7720192  31.0466543  37.4567892  46.9402598  30.5235006
  38.5255692  48.7781614  30.4065344  39.3926853  48.9570681  31.0423026
  38.8557180  48.3862387  29.4445064  37.7903789  50.1063774  30.1790886
  36.5762245  50.2478275  30.3498101  38.5640334  51.1134399  29.7665565
  39.5620828  51.0054239  29.6555189  37.9809720  52.4334806  29.5405073
  36.9070214  52.3394131  29.3796329  38.2164855  53.3393665  30.7502552
  37.7985673  54.3176188  30.5126289  37.6747958  52.9081926  31.5921348
  39.6894160  53.4916374  31.1179442  40.1687076  52.5126953  31.1252050
  40.1849975  54.1328420  30.3890014  39.7975602  54.1249728  32.5141037
  39.1547101  53.5490000  33.1797598  40.8346088  54.0240105  32.8341604
  39.4152272  55.5384734  32.5984387  39.3492116  56.0562448  31.7337688
  39.0699290  56.1519792  33.7394145  38.7121754  57.4245787  33.7169427
  38.7009074  57.9274209  32.8410872  38.4518024  57.8880239  34.5757349
  38.9946907  55.4763611  34.8997336  39.2008953  54.4878275  34.9192568
  38.7323191  55.9605431  35.7463903  38.5230021  53.0847471  28.2759128
  38.5944416  54.3193483  28.1851807  38.8924339  52.2783939  27.2910281
  38.8285818  51.2810233  27.4368851  39.3905742  52.7571791  26.0126894
  39.2394434  53.8348285  25.9499962  40.8917710  52.4597805  25.8388377
  40.8946888  51.3702242  25.8078898  41.2004788  52.8511033  24.8694740
  41.8612285  52.9396883  26.9120663  41.4851468  52.6874611  27.9035524
  43.1848712  52.2413776  26.6820177  43.5618332  52.4935089  25.6908424
  43.9025614  52.5643945  27.4361275  43.0444451  51.1628098  26.7532381
  41.9804745  54.4780366  26.9061764  41.0025203  54.9195223  27.0979976
  42.6787155  54.7918272  27.6821250  42.3445457  54.8110383  25.9342396
  38.6078003  52.0581420  24.9183778  38.0592832  50.9764105  25.1444864
  38.5633639  52.6248958  23.7093499  38.9503969  54.0029634  23.3407850
  40.0362287  54.0912672  23.3764490  38.5061080  54.7012159  24.0501155
  38.3918499  54.1750701  21.9231907  39.0886785  54.7611361  21.3239781
  37.4313241  54.6883594  21.9681988  38.2322394  52.7874052  21.3766666
  39.1553475  52.4622322  20.8968406  37.4113957  52.7279574  20.6619770
  37.9334329  51.8952596  22.5949949  36.8645616  51.8446595  22.8024847
  38.4732307  50.5017761  22.4008912  37.7221376  49.5863829  22.0123255
  39.7572220  50.2881190  22.6923460  40.3528378  51.0436134  22.9998674
  40.3513362  48.9776792  22.5009774  39.8789478  48.4648961  21.6631218
  41.8471635  49.1391333  22.1969013  42.2993408  48.1521950  22.0989838
  41.9634837  49.6859629  21.2611945  42.4902597  49.8531019  23.2461778
  43.4239832  49.9470531  23.0438580  40.1577187  48.0364540  23.6795504
  40.4839118  46.8547887  23.5578698  39.6360343  48.5118835  24.8066379
  39.2564359  49.4475349  24.8303176  39.6003501  47.7166531  26.0362851
  39.8048081  46.6628058  25.8473356  40.6199166  48.2383953  27.0543687
  40.5711104  47.5996117  27.9362268  42.0488876  48.2409024  26.5049294
  42.0985869  48.8798870  25.6232672  42.7308023  48.6195313  27.2663306
  42.3361051  47.2250755  26.2334475  40.2251035  49.5622466  27.4592443
  40.8555150  49.9028123  28.0981470  38.2533160  47.7086479  26.7418721
  38.1360093  47.0363841  27.7656116  37.2563807  48.4489326  26.2541029
  37.3213654  48.9561639  25.3831306  36.0482871  48.6115708  27.0629438
  36.3228460  48.8424585  28.0922190  35.1801838  49.7585790  26.5164872
  34.4728843  49.9093330  27.3320237  35.7698526  50.6644063  26.3755342
  34.4277769  49.4486990  25.2516219  35.0614395  49.5032032  24.0108629
  36.1236437  49.7445486  23.9711860  34.3692353  49.2587419  22.8507117
  34.8825605  49.2672683  21.8891887  33.0145560  48.9938453  22.9082074
  32.3053386  48.7484987  21.7530330  32.8499799  48.7860161  20.9633761
  32.3599535  48.9786397  24.1108987  31.2901730  48.7736452  24.1514876
  33.0569058  49.2230670  25.2691913  32.5345991  49.2426535  26.2257017
  35.2342179  47.3328311  27.1684382  34.3325191  47.2805428  28.0069066
  35.5051572  46.3180063  26.3462584  36.1113453  46.4271120  25.5458014
  34.8261710  45.0454872  26.5282439  34.0032796  45.1551331  27.2345914
  34.2597546  44.5672609  25.1868737  35.0421498  44.5870142  24.4282125
  33.8787755  43.5511073  25.2887888  33.1142275  45.5043134  24.7662524
  32.3321037  45.4062373  25.5190900  33.5116165  46.5191010  24.7860003
  32.5338678  45.2150429  23.3933503  31.6843143  45.8804565  23.2397838
  33.3021749  45.4302608  22.6507300  32.0871122  43.8394624  23.2176303
  32.7390885  43.2199321  22.7580559  30.9112099  43.3505483  23.6040895
  30.0208448  44.1206469  24.2170977  30.2346985  45.0916460  24.3946571
  29.1335473  43.7321269  24.5032007  30.6306978  42.0728307  23.3751160
  31.3089848  41.4852601  22.9116641  29.7403662  41.6945491  23.6654802
  35.7111389  43.9957767  27.1719617  35.3707177  42.8038448  27.1386325
  36.8219286  44.4190154  27.7754884  36.9987614  45.4132330  27.7944814
  37.7809930  43.5365544  28.4171332  37.4977906  42.4959647  28.2588020
  39.1578839  43.7585270  27.8269563  39.3336741  44.8278144  27.7093912
  39.9102714  43.3383766  28.4944042  39.2492881  43.0678195  26.4493125
  39.4594125  42.0125694  26.6236564  38.2778865  43.1691971  25.9653667
  40.3094635  43.6480577  25.5659548  40.0423008  43.4223685  24.5335849
  40.3101386  44.7281299  25.7127302  41.6729914  43.1042870  25.8583960
  42.0492484  43.5793703  26.7643911  41.5908594  42.0294135  26.0196426
  42.6203178  43.3688112  24.7247987  42.6968967  44.3647759  24.5755009
  43.5294696  42.9913517  24.9507795  42.2720711  42.9283132  23.8852842
  37.8119893  43.8633410  29.9037251  37.7073497  45.0259103  30.3098005
  37.8934955  42.8549486  30.7576499  37.7796290  41.8855421  30.4980642
  38.0860448  43.1738375  32.1615665  37.9696809  44.2507527  32.2832723
  37.0978384  42.4630928  33.1025655  37.1990369  42.8515297  34.1159632
  36.0753113  42.6141208  32.7565470  37.3252678  40.6802778  33.2259171
  36.3308293  40.4723278  34.0842569  39.5116706  42.8388335  32.5641771
  40.1703107  41.9854229  31.9676199  39.9542008  43.5298919  33.6067151
  39.2802926  44.1293510  34.0612433  41.3335449  43.5458133  34.0907588
  41.9308523  42.8305116  33.5253683  41.9475185  44.9387453  33.9207361
  41.2251800  45.6291414  34.3562583  42.9099267  45.0591087  34.4181125
  42.1013067  45.2340200  32.4531292  41.0188165  45.6693640  31.6964129
  40.0652595  45.8542569  32.1910271  41.1401868  45.8672572  30.3387647
  40.2887555  46.1886521  29.7388714  42.3478552  45.6007653  29.7330254
  42.4653468  45.8204159  28.3925112  41.6573229  46.1526286  27.9946020
  43.4421935  45.1721919  30.4488665  44.4003178  44.9909606  29.9617797
  43.3100100  44.9717089  31.8106822  44.1559075  44.6051691  32.3922372
  41.4288557  43.0914292  35.5455241  40.7099217  43.5865536  36.4050977
  42.3826599  42.2114746  35.8067585  42.9491215  41.8662246  35.0451661
  42.6351008  41.6914308  37.1492342  41.6962215  41.5281780  37.6783404
  43.3685367  40.3612004  37.0375888  42.6989694  39.6767221  36.5167545
  44.2520912  40.5407469  36.4250575  43.7951428  39.7375441  38.3867682
  44.3987427  40.4469617  38.9528907  42.9144436  39.4652533  38.9684285
  44.7726518  38.2544224  38.0599470  43.4981603  37.0149409  38.0054098
  42.7915350  37.2543632  37.2107673  43.9463256  36.0405469  37.8109755
  42.9744713  36.9892507  38.9610201  43.4591531  42.6768028  37.9666227
  44.5176395  43.1404567  37.5184835  43.0043053  42.9778570  39.1772394
  42.1576447  42.5369726  39.5072186  43.6704870  43.9343325  40.0507961
  44.5637793  44.3189324  39.5586468  42.7480815  45.1088005  40.3760546
  42.0015502  44.6917211  41.0519504  43.3457288  45.8491170  40.9078903
  42.0535960  45.7693205  39.2027208  41.6199110  45.0034657  38.5596931
  40.9345213  46.7006503  39.7208267  41.3675264  47.4671004  40.3636017
  40.4357340  47.1751711  38.8757575  40.2098555  46.1175153  40.2890813
  43.0738801  46.5361348  38.4066674  43.8416933  45.8524101  38.0446137
  42.5869636  47.0169958  37.5582652  43.5333608  47.2954427  39.0394612
  44.0868056  43.2611941  41.3487732  43.6229698  42.1606851  41.6651120
  44.9530462  43.9816949  42.0920711  45.4414609  44.7085982  41.5889190
  45.3136586  43.7432858  43.4921475  46.0543552  44.4792633  43.8048853
  44.0902203  43.8571204  44.4122482  43.4258179  44.6199047  44.0062571
  43.5768903  42.8955933  44.4198533  44.4884704  44.2363245  45.8477126
  45.7053155  44.1764063  46.1461481  43.6205330  44.5861020  46.6639475
  46.0252134  42.4247083  43.7628767  45.3955554  41.4515898  44.1950761
  47.3344448  42.3657976  43.4423900  47.7459122  43.1310326  42.9274052
  48.1729797  41.2160358  43.7594906  47.5879781  40.2989666  43.6898026
  49.3474362  41.1258690  42.7714001  50.0215990  41.9753837  42.8806177
  49.8933880  40.2023239  42.9640166  48.9332498  41.0877117  41.3234403
  47.7818833  40.4031698  40.9223122  47.1758728  39.8858177  41.6660850
  47.4058917  40.3798649  39.5738037  46.5189078  39.8264587  39.2654179
  48.1563853  41.0559492  38.6368386  47.8640647  41.0589047  37.5867720
  49.3082751  41.7458566  39.0467380  49.9153892  42.2704691  38.3089749
  49.6690689  41.7614503  40.3630198  50.5545445  42.3130323  40.6789156
  48.7159604  41.2594636  45.2044083  49.6791745  40.5509725  45.5102268
  48.1237921  42.0679673  46.0834967  47.3044082  42.5943653  45.8158878
  48.6313343  42.2202721  47.4477365  49.6676935  42.5486735  47.3689238
  48.0386136  43.0009617  47.9245019  48.5739328  40.9619894  48.3037731
  49.3324654  40.8359906  49.2769568  47.6983717  40.0212008  47.9764757
  47.0236214  40.1664841  47.2391127  47.6322167  38.7845855  48.7371241
  48.2261652  38.8738491  49.6467155  46.1834170  38.4848753  49.1267318
  45.6267076  38.6104756  48.1980777  46.1131805  37.4476690  49.4544055
  45.5951785  39.3984707  50.2000965  45.4580559  40.3944824  49.7790751
  44.2495091  38.8622406  50.6879920  44.3859135  37.8663789  51.1095985
  43.8480184  39.5278543  51.4521023  43.5536298  38.8095570  49.8506887
  46.5663304  39.5560652  51.3658469  47.4989547  39.9908061  51.0062474
  46.1275841  40.2105773  52.1189849  46.7673779  38.5795815  51.8064812
  48.2458821  37.6244319  47.9774687  48.1354584  36.4764628  48.4211201
  48.9135226  37.8998986  46.8566015  49.0248717  38.8584482  46.5584682
  49.4613600  36.8471154  46.0139867  48.6711739  36.1292203  45.7941419
  49.9860790  37.4169182  44.6932051  50.7843094  38.1307837  44.8964887
  50.3727916  36.6064532  44.0753863  49.1752027  37.9197241  44.1661708
  50.5868212  36.1043342  46.7230608  51.2393615  36.6356321  47.6190199
  50.7668217  34.8394251  46.3375845  50.1554526  34.4481795  45.6352639
  51.8230639  33.9963631  46.8808108  52.5839636  34.6213971  47.3482113
  51.2674965  33.0266611  47.9363944  50.9960635  33.6229595  48.8075152
  50.3711155  32.5727456  47.5138284  52.2548424  31.9178293  48.3595800
  52.3245209  31.1837111  47.5568869  53.2345204  32.3648214  48.5284917
  51.7754153  31.2200106  49.6568971  51.8393239  31.9347234  50.4773850
  50.7378193  30.9147138  49.5216646  52.5683351  30.0432687  49.9989244
  52.1701587  29.1358580  49.8035769  53.7679207  30.1002083  50.5701828
  54.3149907  31.2785722  50.8325146  53.8183869  32.1260402  50.5973921
  55.2259628  31.3236343  51.2663335  54.4378809  28.9832817  50.8611802
  54.0316802  28.0838886  50.6462544  55.3480406  29.0424948  51.2950027
  52.4137314  33.1954697  45.7357358  51.6691661  32.6117544  44.9408352
  53.7436324  33.1467312  45.6534807  54.3377011  33.7466887  46.2077664
  54.3718793  32.2394144  44.7053393  53.9102872  32.3482037  43.7239134
  55.8610505  32.5559665  44.5821120  55.9704730  33.6401516  44.6079718
  56.3629573  32.1199485  45.4458700  56.4783077  32.0208042  43.3220327
  56.3300512  30.9448450  43.2302027  55.9798013  32.5275647  42.4957233
  57.9475620  32.3103193  43.2452631  58.4162420  33.3288042  43.7627316
  58.6993446  31.3880885  42.6570878  59.6961687  31.5294942  42.5767913
  58.2711388  30.5491443  42.2925142  54.1691190  30.7945970  45.1434170
  54.4331637  30.4490617  46.2949945  53.6966793  29.9485481  44.2290561
  53.4232475  30.2841467  43.3165277  53.4737783  28.5373531  44.5445903
  53.6201952  28.3736421  45.6122326  52.0406463  28.1115062  44.1732630
  51.8276702  27.1728088  44.6847193  51.3863007  28.8923904  44.5607572
  51.7986688  27.9418790  42.6817861  51.4676191  29.0428812  41.8822072
  51.3840174  30.0250487  42.3474568  51.2500521  28.9013711  40.5370435
  50.9691577  29.7649436  39.9341813  51.3800383  27.6632596  39.9479930
  51.1828457  27.5389205  38.5905395  50.9625578  28.3711458  38.1657171
  51.7119970  26.5581025  40.7101564  51.8075294  25.5768277  40.2453189
  51.9227220  26.7026969  42.0668386  52.1908100  25.8367223  42.6720798
  54.4880880  27.6273330  43.8746813  54.4131863  26.4080552  44.0412962
  55.4215465  28.1874559  43.1193830  55.3533867  29.1694878  42.8934033
  56.5398375  27.4323824  42.5799210  56.2909635  26.3721259  42.6248321
  56.8044279  27.8097630  41.1259334  57.7215774  27.3291687  40.7853954
  55.6342741  27.3441396  40.2607000  54.7167849  27.8247018  40.6003663
  55.8210784  27.6127509  39.2209638  55.5290240  26.2623335  40.3426667
  56.9075544  29.2364565  41.0179536  57.0741310  29.4769438  40.1036132
  57.7852666  27.7074460  43.4111896  57.8957250  28.7358885  44.0856524
  58.7209707  26.7583767  43.3691988  58.4951220  25.8417229  43.0102594
  60.0599202  26.9827028  43.8968976  60.0257215  27.7564791  44.6638395
  60.6255859  25.6980188  44.5206518  61.6345255  25.8885150  44.8865086
  59.9817399  25.4258363  45.3570004  60.6746781  24.5241198  43.5387057
  61.0146038  24.6858732  42.3671796  60.3524166  23.3298585  44.0311815
  60.3670000  22.5184177  43.4299736  60.0948473  23.2408191  45.0037198
  60.9943052  27.5058362  42.8126845  61.7276006  28.4743541  43.0407571
  60.9672402  26.8769256  41.6354008  60.3173182  26.1127158  41.5184214
  61.8478531  27.2158850  40.5172540  61.6744758  28.2624917  40.2669460
  63.3560700  27.0291835  40.8596724  63.5363371  25.9849304  41.1148967
  64.2195821  27.4159597  39.6716821  64.0401942  28.4602874  39.4161449
  65.2706814  27.2801348  39.9263212  63.9684934  26.7854418  38.8187447
  63.7166207  27.8785808  41.9551456  64.6466502  27.7584205  42.1605890
  61.4912496  26.3333823  39.3178701  62.1100853  25.2879837  39.0863638
  60.5587555  26.6354963  38.5765054  59.5483199  23.5167560  40.5543892
  59.5765555  23.1638094  41.5002921  60.0849784  24.3712624  40.5106083
  59.7528330  22.7588590  39.9188845  58.1748766  23.9085613  40.2576822
  58.1322810  24.9676012  40.0032825  57.6500108  23.0943474  39.0624761
  56.6539038  23.4863497  38.8570393  58.2918025  23.2631869  38.1977814
  57.5595266  21.6039362  39.3421830  57.9879187  21.1615594  40.4295293
  57.0978038  20.8682199  38.4418889  57.2900355  23.8362367  41.5269515
  57.5850864  24.5743560  42.4625121  56.2527320  22.9899987  41.6111459
  56.0835024  22.2715794  40.9217009  55.2555490  23.1851447  42.6735631
  54.8676812  24.2001381  42.5872728  54.0881589  22.2034654  42.5505834
  54.4356608  21.1907650  42.7549840  53.0096784  22.5848633  43.5617177
  52.6613302  23.5973422  43.3576562  52.1734704  21.8903341  43.4811836
  53.4231770  22.5395955  44.5692252  53.4978086  22.2935212  41.1597698
  54.2616013  22.0435347  40.4234074  52.6661681  21.5944589  41.0715335
  53.1399204  23.3075174  40.9813646  55.9066867  23.1143484  44.0471440
  56.5084007  22.1028382  44.4298140  55.7654939  24.2044742  44.7915769
  55.1701833  24.9317688  44.4217834  56.3945199  24.4198059  46.0813969
  57.4684774  24.2415893  46.0270522  56.1612534  25.8724177  46.4839433
  56.5147136  26.4564818  45.6342173  55.0784555  25.9680041  46.5646402
  56.8006630  26.3788840  47.7368744  56.4096171  25.8542460  48.6086191
  57.8828490  26.2556715  47.6945175  56.4628036  27.8585556  47.8421497
  56.8379523  28.3707917  46.9561607  55.3799178  27.9710740  47.8950400
  57.0541507  28.4740016  49.0225038  57.5979376  27.8832372  49.6351967
  56.9135404  29.7527461  49.3383381  56.1921839  30.5523370  48.5608240
  55.7527212  30.1820376  47.7302514  56.0864457  31.5269686  48.8037487
  57.5024656  30.2291742  50.4284195  58.0538567  29.6147722  51.0102941
  57.3964538  31.2038785  50.6709309  55.7861668  23.4936997  47.1288523
  54.5905068  23.2084940  47.0807479  56.5784241  23.0244807  48.0959881
  58.0311052  23.2100181  48.2520896  58.2993688  24.2360847  48.0004508
  58.5619090  22.5239473  47.5920493  58.2531176  22.8955784  49.7019293
  58.1320888  23.8020029  50.2950952  59.2604998  22.5030694  49.8405620
  57.2351232  21.8773069  50.0554073  56.9886626  22.0172908  51.1079094
  57.5359266  20.8431536  49.8876461  56.0146008  22.2169541  49.1829403
  55.5359409  21.3339793  48.7594565  54.9919017  23.0211176  49.9608585
  55.2665506  24.1602331  50.3651491  53.8029769  22.4676183  50.1834147
  53.2816915  21.2155219  49.6079174  53.9584699  20.3941845  49.8434509
  53.1968597  21.3168409  48.5259576  51.9356800  21.0697087  50.2804302
  52.0411587  20.4921895  51.1988227  51.2403380  20.5631250  49.6111217
  51.4877181  22.4516883  50.5597736  50.7974991  22.4472320  51.4033830
  51.0188700  22.9478597  49.7100119  52.7781178  23.1837309  50.9461222
  52.7911407  24.2264039  50.6286926  53.0075696  23.1087960  52.4477222
  53.5254715  22.1240126  52.9784267  52.6015666  24.1735046  53.1359454
  52.3111582  25.0215361  52.6705371  52.6024218  24.1506609  54.5917292
  53.5570826  23.7640194  54.9484229  52.3970260  25.5591473  55.1685001
  51.4581831  25.9321982  54.7592249  52.3023163  25.4454789  56.2484119
  53.5121857  26.5457188  54.8588286  54.3730436  26.3058725  55.4829265
  53.7858359  26.4440822  53.8086440  53.0755797  27.9622654  55.1288897
  52.4256400  27.9768544  56.0037980  53.9542647  28.5784938  55.3193492
  52.3448734  28.5257987  53.9923068  52.3328954  27.9925643  53.1346257
  51.7057657  29.6885133  54.0240858  51.7108735  30.4112955  55.1381872
  52.2004810  30.0725314  55.9540446  51.2251259  31.2964261  55.1645056
  51.0612503  30.1258037  52.9475019  51.0588772  29.5705185  52.1038474
  50.5766958  31.0114604  52.9777996  51.5016452  23.2214362  55.0909698
  50.4242834  23.1113544  54.4880374  51.7800739  22.5480180  56.2104860
  52.6894516  22.5953991  56.6473916  50.7805768  21.6548771  56.7880939
  50.5478743  20.8692966  56.0691974  51.3277881  21.0049211  58.0638517
  52.2347817  20.4481574  57.8283185  51.5569473  21.7784598  58.7968074
  50.3122834  20.0465696  58.6694911  49.2182493  19.8778148  58.1355883
  50.6775531  19.4176680  59.7889931  50.0408051  18.7707696  60.2319086
  51.5889764  19.5916462  60.1879165  49.4812552  22.4075605  57.0615255
  48.3930927  21.9438325  56.7005408  49.5759150  23.5861907  57.6767510
  50.4772194  23.9071170  58.0004114  48.4074089  24.4161440  57.9493770
  47.6074617  24.1958252  57.2425224  47.8685211  24.2108927  59.3860314
  48.6403862  24.4843675  60.1054305  46.6590902  25.0738326  59.5981674
  45.8865625  24.8006124  58.8793818  46.2810590  24.9280562  60.6100676
  46.9300121  26.1204605  59.4593404  47.5084595  22.7443562  59.6755406
  48.3954765  22.1218824  59.5579429  47.1357816  22.6558281  60.6960177
  46.7385102  22.4142481  58.9781832  48.8020848  25.8743903  57.7188519
  49.7869770  26.3542030  58.2902660  48.0338040  26.5847202  56.8946516
  47.1885599  26.1605971  56.5399951  48.3644482  27.9368324  56.4589107
  49.2671564  28.2757140  56.9672182  48.6043037  27.9950792  54.9389477
  47.7058867  27.6672573  54.4159948  48.8411618  29.0181703  54.6469151
  49.4358849  27.3410981  54.6764962  47.2344760  28.8882774  56.8239917
  46.0580855  28.5340739  56.7203807  47.5936831  30.1085555  57.2195329
  48.5644127  30.3853666  57.2535765  46.5875586  31.0774305  57.6144454
  45.8747308  30.5856223  58.2763369  47.0801676  31.8887637  58.1503316
  45.8403034  31.6535053  56.4235225  46.3901024  31.8337484  55.3331650
  44.5656993  31.9608542  56.6503907  44.1741847  31.7701493  57.5616795
  43.6918337  32.5236335  55.6258741  44.1339502  32.3825210  54.6396087
  42.3307183  31.8253196  55.6560008  42.4093414  30.8415529  55.1932690
  41.9870553  31.7160202  56.6846160  41.2541195  32.5593903  54.9207237
  41.2793125  32.6691060  53.5519558  42.0938267  32.2192607  52.9842360
  40.2636953  33.3554581  52.8888603  40.2881823  33.4222998  51.8011870
  39.2437736  33.9416168  53.5874615  38.4630168  34.4909746  53.0614152
  39.2065568  33.8378707  54.9318616  38.3886736  34.2953862  55.4885004
  40.2082514  33.1493143  55.6078529  40.1762935  33.0686627  56.6943951
  43.5371673  34.0207896  55.8571638  43.2184006  34.4457008  56.9708973
  43.7737956  34.8256499  54.8146228  44.0858288  34.4574631  53.9273950
  43.6554941  36.2729251  54.9600203  43.1112497  36.5075501  55.8748144
  45.0459727  36.9258254  55.0342459  45.7782645  36.1217566  55.1071931
  45.1980193  37.4716554  54.1030899  45.2165100  37.8769559  56.2143789
  44.4848092  38.6816029  56.1418682  45.0650572  37.3317050  57.1459720
  46.6230262  38.4659355  56.1933995  47.3553188  37.6618674  56.2663448
  46.7750709  39.0117666  55.2622442  46.8255372  39.3959826  57.3267145
  46.0612176  39.5457480  57.9697426  47.9680272  40.0435625  57.5370894
  49.0186362  39.8982399  56.7345917  48.9599772  39.2803481  55.9378051
  49.8702985  40.4064399  56.9256514  48.0408939  40.8561740  58.5874482
  47.2412386  40.9642679  59.1948749  48.8955478  41.3614434  58.7728353
  42.8555835  36.9676880  53.8669981  42.7751038  38.1999097  53.8864291
  42.2606767  36.2295276  52.9202816  42.3354088  35.2229296  52.9559875
  41.5044152  36.8257345  51.8329569  42.0242524  37.7274750  51.5093327
  41.4690333  36.1121407  51.0097733  40.0906413  37.1885456  52.2310930
  39.7820213  37.4093186  53.4089020  39.2022104  37.2198730  51.2430832
  39.4772916  36.9554853  50.3079208  37.8410454  37.6943130  51.4545316
  37.7530666  38.3370772  52.3304386  37.3972474  38.4818821  50.2252313
  37.3977934  37.7973506  49.3769881  35.9926224  39.1100049  50.3793489
  35.9914223  39.7950569  51.2271708  35.7365864  39.6559967  49.4713634
  35.2583627  38.3223389  50.5483031  38.3810779  39.4997980  49.9851672
  38.1282854  40.0138037  49.2147814  36.9354480  36.5074784  51.7415006
  36.8962805  35.5442145  50.9606641  36.1920155  36.5960527  52.8482701
  36.1595710  37.4544772  53.3794519  35.4718061  35.4334400  53.3651948
  36.1413321  34.5870459  53.5183324  34.8048985  35.7832118  54.7094950
  34.3150498  36.7521066  54.6125912  33.7813074  34.7371374  55.1045984
  34.2705292  33.7679903  55.2021531  33.3286304  35.0125707  56.0571322
  33.0077325  34.6776318  54.3389989  35.8680490  35.8969423  55.7877113
  36.5763291  36.6807005  55.5190768  35.3966471  36.1443676  56.7388477
  36.3954156  34.9475127  55.8802787  34.4537660  34.9376908  52.3473087
  34.3553625  33.7288255  52.0846180  33.7047670  35.8627914  51.7411515
  33.9043472  36.8465850  51.8525835  32.5493092  35.4742498  50.9163583
  31.8300456  34.9459279  51.5421658  31.8553344  36.6812927  50.2874448
  31.7628961  37.4765662  51.0271032  32.4406672  37.0396393  49.4406430
  30.4795089  36.2733769  49.8120049  30.5930379  35.3922838  49.1804299
  29.8863654  36.0166394  50.6897114  29.7895706  37.3501688  49.0435192
  30.3696452  37.6182511  48.1604879  28.7955925  37.0225363  48.7389474
  29.6562196  38.5089304  49.8739849  29.9292837  38.4254250  50.8427791
  29.1969472  39.6787924  49.4434077  28.7997975  39.8352713  48.1769183
  28.8479787  39.0562712  47.5358742  28.4533045  40.7318083  47.8666546
  29.1390486  40.6861933  50.2896820  29.4413649  40.5574527  51.2447373
  28.7925963  41.5828508  49.9797225  32.9307717  34.5302487  49.7871709
  32.1842703  33.5902075  49.4931007  34.0609633  34.7736815  49.1350833
  34.6268077  35.5622551  49.4144954  34.4829318  33.9946384  47.9675540
  33.6457654  33.4265774  47.5618961  34.9952777  34.9664449  46.8779194
  35.9181007  35.4425222  47.2093518  35.1839884  34.4084556  45.9607845
  33.9283613  36.0450153  46.6119527  32.8177036  35.7669796  45.8086634
  32.7488100  34.7858340  45.3388692  31.8116989  36.7114461  45.6022862
  30.9389811  36.4778051  44.9924687  31.9614151  37.9711079  46.1350153
  30.9996968  38.9540447  45.9409971  30.2563601  38.6526220  45.4135556
  33.0614825  38.2781876  46.9343943  33.1573079  39.2707236  47.3746105
  34.0339966  37.3193537  47.1690019  34.8939630  37.5571493  47.7951098
  35.5315749  32.9360234  48.2800918  35.9958703  32.2600829  47.3629968
  35.8773649  32.7257711  49.5320348  35.4295598  33.2136926  50.2945981
  36.9643573  31.7889560  49.8472397  37.7897988  31.9505351  49.1539593
  37.4582596  32.0685744  51.2700815  36.6452036  31.9022078  51.9767371
  38.2862882  31.4000504  51.5057606  37.7952232  33.1027108  51.3416133
  36.5373691  30.3255171  49.7349165  35.4375794  29.9489443  50.1453609
  37.4290032  29.4579482  49.2565893  38.3271602  29.7329976  48.8854274
  37.0695408  28.0437777  49.2217122  36.0754594  27.9242905  48.7908710
  38.0767626  27.2570378  48.3614358  37.6261675  26.3114995  48.0597393
  38.3215539  27.8415938  47.4746035  39.2499951  27.0040972  49.0943011
  39.8689772  26.5139521  48.5482070  37.0078875  27.4323478  50.6140923
  37.5299693  27.9883859  51.5965297  36.3964708  26.2380711  50.7004040
  35.8612025  25.8575358  49.9330839  36.4216586  25.4989636  51.9618602
  35.9694936  26.0943907  52.7550264  35.6440506  24.1767572  51.8352507
  36.0769645  23.5945578  51.0217837  35.7119390  23.3735244  53.1251779
  35.2787573  23.9549315  53.9390701  35.1536885  22.4450207  53.0054373
  36.7520910  23.1442114  53.3566965  34.1942338  24.4522137  51.5123513
  34.1283027  24.9958931  50.5699248  33.6552260  23.5088063  51.4254450
  33.7515879  25.0509804  52.3083689  37.8562915  25.2660741  52.4049865
  38.1925991  25.4392617  53.5848256  38.7353374  24.9093606  51.4536979
  38.4434167  24.7849642  50.4948407  40.1362550  24.6419135  51.7941107
  40.1747351  23.8250018  52.5147172  40.9704199  24.2516690  50.5646884
  41.0541874  25.1595866  49.9673879  41.9652199  23.9199488  50.8620681
  40.3357306  23.1747930  49.7188979  40.0622159  22.0529522  50.2172913
  40.1492813  23.4672103  48.3963543  39.7285392  22.7819278  47.7852375
  40.4331248  24.3671970  48.0364130  40.7954922  25.8389501  52.4636916
  41.5432704  25.6810191  53.4390375  40.5481489  27.0355765  51.9359202
  40.0394877  27.1203945  51.0674911  41.0678399  28.2485150  52.5532519
  42.1490193  28.1609932  52.6604443  40.7600391  29.4623910  51.6705828
  39.6807299  29.5685618  51.5614064  41.1681082  30.3612257  52.1328340
  41.2119847  29.3222141  50.6886486  40.4950350  28.4213196  53.9544760
  41.2095330  28.8330595  54.8812267  39.2383106  28.0420668  54.1432329
  38.6968973  27.6388750  53.3919625  38.6053837  28.1659364  55.4773101
  38.7417746  29.1849275  55.8394617  37.1161945  27.8584106  55.4405358
  36.9144839  27.1269190  54.6580193  36.7438551  27.4823384  56.3934435
  36.3159316  29.0536015  55.1170750  36.0188941  30.0139514  56.0344461
  35.3003449  30.9336625  55.4566750  34.9312825  31.7856840  56.0275965
  35.1550412  30.6170647  54.1911622  34.6559906  31.1566572  53.4984225
  35.7795584  29.4512855  53.9564578  35.7718034  29.0207945  52.9550994
  39.2347804  27.1642287  56.4319491  39.4994893  27.5575329  57.5400087
  39.5963403  25.9768674  55.9358721  39.4600472  25.8181652  54.9477743
  40.1522276  24.8650469  56.7606899  39.7151817  24.8965358  57.7587373
  39.8364806  23.5092575  56.1321576  40.0570945  23.6125913  55.0697307
  40.5336734  22.8013122  56.5803046  38.4137653  22.9992042  56.3070855
  38.1925615  22.8951704  57.3693221  37.7159819  23.7064472  55.8587466
  38.2722223  21.6433375  55.6235534  38.4928379  21.7466699  54.5611268
  38.9694141  20.9353929  56.0717022  36.8462057  21.1321029  55.7988858
  36.6250007  21.0280697  56.8611221  36.1484249  21.8393447  55.3505444
  36.7097688  19.8251357  55.1400073  37.3559612  19.1695276  55.5555951
  35.7653250  19.4865474  55.2561277  36.9142839  19.9213982  54.1556262
  41.6672212  24.9893088  56.9350523  42.2651713  24.0477178  57.3751604
  42.2380019  26.1172606  56.5449254  41.6958344  26.7039068  55.9268639
  43.6643165  26.4186786  56.7171046  43.9284503  27.3255531  56.1731275
  43.9612776  26.6346274  58.1986262  43.4457124  25.8563664  58.7612997
  45.0259809  26.6048659  58.4301887  43.4147441  27.9740493  58.6180784
  42.4480398  28.0660494  59.3540327  43.9913435  29.0347941  58.1014668
  43.6621340  29.9565368  58.3506884  44.7613363  28.9239388  57.4573216
  44.5386437  25.4536086  55.9235695  45.7046300  25.4249350  56.2954226
  44.0685751  25.0656919  54.9595668  43.0978516  25.1808547  54.7055337
  44.9346844  24.3242322  54.0559550  45.6318426  23.7143932  54.6305558
  44.1078389  23.4038737  53.1543855  43.2096645  23.9488758  52.8639467
  44.7047607  23.1895669  52.2678997  43.7121509  22.0957450  53.8282939
  44.4073557  21.3243658  53.4969855  43.8073694  22.2315293  54.9056045
  42.2930697  21.6739741  53.4954758  41.6768415  22.5544090  53.3132777
  42.2920928  21.0405489  52.6084183  41.7179198  20.9222805  54.6078912
  41.5907094  21.4208861  55.4769766  41.3625078  19.6426768  54.5529305
  41.5019208  18.9603696  53.4252839  41.8794163  19.4156270  52.6065422
  41.2300220  17.9883007  53.3898905  40.8607280  19.0484275  55.6277015
  40.7504784  19.5711661  56.4848418  40.5912830  18.0760210  55.5838409
  45.7408989  25.3020467  53.2106361  45.2907055  26.4137267  52.9140679
  46.9554964  24.8941245  52.8409210  47.3685074  24.0422863  53.1929053
  47.7310090  25.7051032  51.9116069  47.9043398  26.6869013  52.3522067
  49.0741670  25.0710084  51.5957359  49.6173547  24.9375259  52.5312726
  48.8935688  24.0979158  51.1390357  49.9097987  25.9412006  50.6365308
  50.6823920  25.3107347  50.1964024  49.2377063  26.2916798  49.8532331
  50.5608195  27.1396787  51.3216813  51.5426626  26.9141906  52.0676419
  50.1164158  28.2907024  51.1188124  46.9359119  25.8687177  50.6248214
  46.4074554  24.8967572  50.0716285  46.8258001  27.0984764  50.1543280
  47.2824534  27.8919971  50.5808160  45.9515491  27.3351554  49.0228656
  45.0636737  26.7078249  49.1018139  45.5142080  28.7978277  48.9899946
  46.3618405  29.4118471  49.2942946  45.2360943  29.0453869  47.9655595
  44.3482025  29.0639901  49.9044637  43.4472242  28.5874206  49.5181731
  44.5577212  28.6864606  50.9053011  44.0899325  30.8307931  49.9850788
  42.8738040  31.0348924  48.6496253  41.9839780  30.4470323  48.8748566
  42.6014390  32.0867687  48.5631714  43.3057000  30.6934388  47.7088934
  46.6467926  26.9307547  47.7277360  47.8743023  26.9761060  47.6081697
  45.8419504  26.4690796  46.7750162  44.8475958  26.4366244  46.9490997
  46.3270399  26.0105903  45.4987213  47.4053784  26.1560935  45.4345806
  46.0951991  24.9535078  45.3686223  45.6565564  26.8015920  44.3950827
  44.8243187  27.6975518  44.6372511  46.0345880  26.4498956  43.1672428
  46.7774266  25.7809227  43.0231404  45.4124959  27.0487073  42.0013445
  45.5559315  28.1292136  42.0069521  46.0543101  26.4773918  40.7374042
  46.0198351  25.3901722  40.8071482  45.4610248  26.8051880  39.8837870
  47.4903897  26.9263445  40.5563028  47.4904732  27.9790531  40.2736274
  48.0126919  26.8054776  41.5053517  48.1850178  26.1265598  39.4997715
  47.4942860  25.9009621  38.6873097  49.0360214  26.6838914  39.1082695
  48.6655173  24.8784354  40.0613235  48.3725731  24.6197732  40.9926543
  49.4496337  24.0380038  39.3842414  49.8584836  24.3578108  38.1545560
  49.5723166  25.2344364  37.7425657  50.4521515  23.7217169  37.6416791
  49.8475384  22.9160038  39.9444805  49.5575036  22.6948255  40.8863192
  50.4411774  22.2810922  39.4301083  43.9180184  26.7830412  42.0051757
  43.1296999  27.6169260  41.5407318  43.5117312  25.6307774  42.5464047
  44.1634317  24.9340539  42.8780103  42.0965945  25.3103704  42.5591511
  41.6769674  25.4777040  41.5671774  41.8638984  23.8381980  42.9503081
  40.8182505  23.5394699  42.8762732  42.4596296  23.2497104  42.2525355
  42.3192101  23.4634800  44.3225467  43.5098429  23.8980453  44.8688915
  43.6562583  23.3693778  46.0746440  44.5335633  23.6005926  46.6787753
  42.6103977  22.5968438  46.3223270  42.4453541  22.0716587  47.1691099
  41.7733189  22.6204867  45.2348290  40.8632923  22.0205261  45.2344011
  41.3144467  26.2566827  43.4583040  40.1372750  26.4812352  43.2060264
  41.9443289  26.8486087  44.4792785  42.9070796  26.6580359  44.7177999
  41.1745656  27.7350887  45.3546673  40.1883228  27.3157931  45.5537035
  41.9156461  27.8862620  46.6779610  42.9161172  28.2866573  46.5141302
  41.3354870  28.5916479  47.2728948  42.0144650  26.5702891  47.4127829
  40.9752125  25.8919244  47.5448914  43.1268861  26.1677211  47.8219422
  40.8874781  29.0840965  44.6994545  39.8265297  29.6853645  44.9518735
  41.7661557  29.5609405  43.7987407  42.6994099  29.1933798  43.6802708
  41.3659420  30.7132879  42.9888664  41.0520985  31.5227490  43.6479371
  42.5135960  31.2143962  42.1119846  42.9377116  30.2968476  41.7041492
  42.1496309  31.8395729  41.2966420  43.5846156  31.9665556  42.8882263
  43.2740020  32.5075825  43.9582600  44.7201065  32.0894327  42.3551732
  40.1682039  30.3821191  42.1147402  39.2896450  31.2408651  41.9062252
  40.1173817  29.1544973  41.5628952  40.8770262  28.4950264  41.6531038
  38.9741950  28.7851881  40.7298232  38.7478566  29.6008280  40.0430906
  39.2697550  27.5118731  39.9042328  39.4899281  26.7192363  40.6193202
  38.3798885  27.2480253  39.3327243  40.4550088  27.6827954  38.9518763
  41.2677861  28.1527868  39.5055929  40.9246516  26.3792248  38.3880756
  40.1124994  25.9088249  37.8337908  41.7668428  26.5546145  37.7187078
  41.2373067  25.7230285  39.2003277  40.0567795  28.6091073  37.8041722
  39.7694508  29.5814369  38.2043183  40.9009067  28.7311421  37.1254543
  39.2154434  28.1765988  37.2627030  37.6990276  28.6012505  41.5533381
  36.5991161  28.8256783  41.0443411  37.7972440  28.1797459  42.8153224
  38.6679881  27.8456531  43.2029900  36.6172844  28.1747211  43.6651947
  35.8453182  27.5272816  43.2492746  37.0110032  27.6420456  45.0465290
  38.0527087  27.8722371  45.2700481  36.3675666  28.1162207  45.7876412
  36.8498707  26.1496242  45.2254253  37.8303760  25.2187675  45.3820174
  38.8585296  25.5786261  45.3432645  37.2672825  23.9446142  45.5668664
  37.7563159  23.0675205  45.6748134  35.8967485  24.0973990  45.5202910
  34.8781607  23.1354236  45.6135164  35.1487855  22.0910935  45.7691942
  33.5695718  23.5905967  45.4985439  32.7550220  22.8687978  45.5586687
  33.2668099  24.9345586  45.3096560  32.2329517  25.2726642  45.2395053
  34.2853593  25.8984821  45.2033844  34.0058966  26.9433760  45.0684842
  35.6200070  25.4690737  45.2956826  36.0411728  29.5824563  43.7883323
  34.8160404  29.7783120  43.7949760  36.9120663  30.5780498  43.9768110
  37.9042588  30.4137245  44.0698187  36.4210651  31.9519882  44.1027760
  35.7097528  32.0242129  44.9255260  37.5909658  32.8902930  44.3857568
  38.3378213  32.8002802  43.5969578  37.2370902  33.9200952  44.4345376
  38.1733567  32.5293698  45.6336667  38.9114785  33.1132305  45.8230942
  35.6897744  32.3653124  42.8307830  34.6181028  32.9815846  42.9027391
  36.2283639  31.9919603  41.6627027  37.1399399  31.5581014  41.6327862
  35.5465219  32.2587041  40.3986472  35.3670948  33.3268596  40.2763817
  36.4429271  31.7730568  39.2390351  37.2578722  32.4967485  39.2237367
  36.8451007  30.7777027  39.4277853  35.7255095  31.7849786  37.8882087
  34.8369184  31.1588642  37.9687527  35.3096260  33.2229535  37.4613585
  36.1977956  33.8495783  37.3801493  34.8035640  33.1841144  36.4967375
  34.6358799  33.6435494  38.2078608  36.5991572  31.1029071  36.8419041
  36.7895331  30.0726054  37.1424614  36.0878173  31.1114612  35.8793245
  37.5457744  31.6361966  36.7546277  34.1827104  31.5941132  40.3556337
  33.1749937  32.2263001  39.9956286  34.1198100  30.3092656  40.7300335
  34.9590037  29.7930790  40.9523053  32.8384154  29.6042468  40.7783165
  32.4163019  29.5093832  39.7778564  33.0622960  28.2002576  41.3505417
  33.7474952  27.6164741  40.7358888  33.4761600  28.3078014  42.3531638
  31.8190107  27.3923783  41.4872916  31.3513641  26.6523045  40.4062354
  31.8974619  26.6737346  39.4631459  30.1961490  25.8891886  40.5228884
  29.8202087  25.3249869  39.6693979  29.5127187  25.8472313  41.7476548
  28.6100360  25.2451245  41.8512466  29.9959850  26.5856143  42.8444325
  29.4755814  26.5775745  43.8021462  31.1552644  27.3322271  42.6911171
  31.5606483  27.8890141  43.5359555  31.8243131  30.3709234  41.6133121
  30.6948314  30.6021711  41.1846774  32.2187272  30.7538994  42.8199358
  33.1342839  30.5111742  43.1705634  31.3008300  31.4872631  43.7108406
  30.3724135  30.9300236  43.8358451  31.9472862  31.6681359  45.0770201
  32.9492281  32.0281378  44.8433316  31.4027456  32.4390673  45.6222176
  32.0462254  30.4136581  45.9353100  31.0470651  29.4297451  45.9047843
  30.1959576  29.5527698  45.2350228  31.1351210  28.3008318  46.7216846
  30.3855996  27.5117594  46.6609869  32.2116016  28.1750240  47.6021315
  32.3077507  27.1101367  48.4363865  31.5780263  26.4933856  48.3430051
  33.1838364  29.1601562  47.6499351  34.0136996  29.0648617  48.3501825
  33.1075357  30.2383330  46.8322462  33.8864244  31.0003101  46.8609407
  30.9162412  32.8313200  43.0987904  29.7464108  33.2320440  43.1482788
  31.8761140  33.5174698  42.4694664  32.8267606  33.1774480  42.4419799
  31.5788813  34.7982555  41.8283183  31.1949684  35.5016595  42.5671910
  32.8461768  35.3890366  41.2021668  33.3357456  34.5926988  40.6415709
  32.5352648  36.1772213  40.5164566  33.7914484  35.9450988  42.1966202
  33.2749338  36.6644328  42.8321296  34.1929185  35.1399543  42.8119788
  35.1425060  36.7698642  41.3486868  34.2710580  37.6332189  40.0531672
  33.5531212  38.3239757  40.4953445  34.9831333  38.1904558  39.4444500
  33.7437614  36.9134284  39.4270991  30.5175869  34.6441915  40.7528889
  29.5756775  35.4517565  40.6610925  30.6541812  33.6144064  39.9202866
  31.4125542  32.9535863  40.0113170  29.7360813  33.4600497  38.8044561
  29.6095568  34.4135871  38.2917601  30.2810525  32.4463643  37.8155363
  30.4175854  31.4987932  38.3366573  29.5149142  32.3316229  37.0487466
  31.5845385  32.8575199  37.1678224  32.3968686  32.8579228  37.8946101
  31.8835006  31.7996943  36.0516227  31.0717736  31.7990359  35.3241630
  32.8185056  32.0525887  35.5517119  31.9685262  30.8104084  36.5012720
  31.4974590  34.2464001  36.5090052  31.2460498  34.9918624  37.2634447
  32.4579120  34.4961056  36.0581411  30.7266800  34.2358747  35.7383640
  28.3603808  33.0555639  39.2691876  27.3672018  33.5001230  38.6904167
  28.2622932  32.2206384  40.3218543  29.0643574  31.7380663  40.7012177
  26.9513689  31.9412369  40.8970527  26.2109852  31.5954284  40.1757015
  27.0646959  30.8911294  42.0331677  27.8918929  31.1664422  42.6874208
  25.7634384  30.8333119  42.8496070  24.9358067  30.5575872  42.1960761
  25.8633732  30.0909009  43.6414021  25.5671627  31.8103961  43.2910636
  27.4766692  29.5044758  41.4521489  28.4412601  29.5915513  40.9520645
  27.5519508  28.7785626  42.2617675  26.7252667  29.1723598  40.7357733
  26.3214376  33.2321285  41.4013319  25.1555654  33.5185239  41.1251422
  27.1017605  34.0649172  42.0963435  28.0624274  33.8507570  42.3229574
  26.5320968  35.3098155  42.6031587  25.6294585  35.1145323  43.1821301
  27.5582723  35.9770836  43.5111900  27.9059158  35.2200348  44.2141270
  28.3881899  36.2942393  42.8797241  27.0136213  37.1899335  44.2906978
  26.6032488  37.9105833  43.5833371  26.2219348  36.8412562  44.9538386
  28.1089495  37.8544770  45.1139560  29.1286056  38.3235541  44.5509221
  27.9581919  37.9235517  46.3378636  26.1179066  36.2386081  41.4700525
  25.0640530  36.8885184  41.5594728  26.8920008  36.2712757  40.3823691
  27.7397729  35.7249660  40.3282626  26.5139713  37.0894113  39.2193726
  26.5095991  38.1441558  39.4943162  27.5100518  36.8862966  38.0800381
  27.7488995  35.8244658  38.0203188  27.0774260  37.2145742  37.1349620
  28.8361054  37.6238707  38.2324033  29.0602299  38.4985668  39.2958007
  28.2870189  38.6353427  40.0518013  30.2734524  39.2012272  39.3962221
  30.4427059  39.8985442  40.2167115  31.2705792  38.9994668  38.4300870
  32.2081276  39.5525497  38.4866759  31.0615463  38.0961693  37.4041490
  31.8569558  37.8904455  36.6878380  29.8146044  37.4389543  37.2845517
  29.6245316  36.7807955  36.4367314  25.1353207  36.6826885  38.7049508
  24.2832653  37.5289188  38.4045777  24.9121908  35.3833679  38.5718448
  25.5898492  34.7091646  38.8979251  23.7190059  34.8902466  37.8833921
  23.4518478  35.6010875  37.1014516  24.0381244  33.5428264  37.2312417
  24.2986898  32.8179594  38.0024573  23.1661919  33.1893965  36.6808589
  24.8770746  33.6601952  36.5453216  22.5082988  34.7717455  38.8219590
  21.3702270  35.0800743  38.4011799  22.7283109  34.3678718  40.0778617
  23.6821918  34.1779437  40.3501444  21.6629818  34.1400876  41.0653714
  20.6795602  33.9801352  40.6233349  21.9962664  32.9358629  41.9796068
  22.9533940  33.1163894  42.4689086  20.9047714  32.7501986  43.0436949
  19.9473665  32.5691552  42.5551254  21.1553453  31.8994497  43.6773663
  20.8357409  33.6500190  43.6549720  22.2312016  31.6774210  41.2043994
  23.0679611  31.8219122  40.5209830  22.4609831  30.8638041  41.8923874
  21.3360109  31.4286993  40.6344239  21.4351987  35.3777942  41.9167950
  20.3065646  35.6614659  42.3442777  22.5052612  36.1337067  42.1304481
  23.4049668  35.7958840  41.8197957  22.4446304  37.4444230  42.8001173
  23.1197636  38.1107710  42.2632051  21.4217976  37.8081008  42.7018790
  22.8231471  37.4338172  44.2579175  22.8787921  38.4996246  44.8637701
  23.0591171  36.2536298  44.7961488  22.9820762  35.3998075  44.2621530
  23.4554062  36.1587492  46.2104994  24.1717852  36.9474285  46.4404673
  22.2544936  36.3107854  47.1288027  22.5825068  36.0840690  48.1432515
  21.9272312  37.3491981  47.0768572  21.1080510  35.4033271  46.7566916
  20.6814626  35.7401422  45.8118749  21.5061379  34.3957832  46.6363419
  20.0153761  35.3685616  47.7929556  19.0486232  34.6278015  47.6777634
  20.1694685  36.1648676  48.8284513  19.4685838  36.1842707  49.5554214
  20.9879605  36.7532211  48.8917953  24.0876016  34.7891994  46.4612809
  23.9765649  33.9487633  45.6199701  24.8121499  34.6748818  47.5572637
  25.0231611  35.4966761  48.1051940  25.3734569  33.3847895  47.9897465
  25.1131287  32.6090207  47.2696693  26.8943797  33.4690438  48.0874457
  27.1072635  34.3504407  48.6923584  27.2559153  32.5792728  48.6029062
  27.5951643  33.5957606  46.7429853  27.0533159  34.3123759  46.1257628
  29.0112962  34.0673080  46.9323196  29.5539423  33.3509193  47.5491027
  29.4991644  34.1529339  45.9613646  29.0081937  35.0401815  47.4238559
  27.6029007  32.2736957  45.9959702  26.5773258  31.9480916  45.8219660
  28.1109496  32.3990243  45.0397901  28.1259873  31.5236466  46.5891866
  24.7325870  33.0463676  49.3259506  24.4166882  33.9407482  50.0586103
  24.5811431  31.7749794  49.6918135  25.0015866  30.6248231  48.9123753
  26.0641879  30.4290683  49.0561068  24.8019829  30.7834207  47.8526092
  24.1296031  29.5493669  49.5064583  24.6073756  28.5778624  49.3799213
  23.1607067  29.5449823  49.0071369  23.9847985  29.8982459  50.9379233
  24.8119027  29.5694904  51.5671429  23.0515030  29.4848437  51.3202291
  23.9138329  31.4249745  50.9289431  22.8907293  31.7825693  50.8128256
  24.4995155  31.9699598  52.2365340  23.7409260  32.1358695  53.1557576
  25.8125872  32.1841762  52.2845765  26.3769267  31.9552780  51.4788310
  26.4849646  32.7002269  53.4795139  25.8727116  32.5319229  54.3654706
  27.8121922  31.9688640  53.6578961  28.4354903  32.5381667  54.3474563
  27.7105690  30.9460467  54.0206875  28.5928213  31.8891357  52.3145676
  29.4617248  32.8408379  51.7783590  29.6663918  33.7437274  52.3536865
  29.8995182  32.3867765  50.5431063  30.5460896  32.8733267  49.9386943
  29.3313320  31.1752045  50.2828535  29.4906375  30.3369222  49.1900362
  30.1535329  30.6623603  48.3883140  28.8095400  29.1573294  49.1836226
  28.9112108  28.4921462  48.3261296  27.9927923  28.7784034  50.2326832
  27.4575032  27.8289049  50.2368805  27.8344967  29.6267157  51.3343536
  27.2234644  29.2712882  52.1640594  28.5020237  30.8387752  51.3550065
  26.7457471  34.2113192  53.4402395  27.5184059  34.7116531  54.2626952
  26.1202907  34.9415062  52.5291318  25.4272977  34.5231836  51.9250900
  26.4266829  36.3614654  52.3540873  27.4777784  36.5071937  52.1049671
  25.5796799  36.8856114  51.2089769  25.7586061  36.1810583  50.3967641
  24.5538446  36.7795966  51.5618547  25.7975952  38.2984271  50.7085115
  26.8240717  38.5858057  50.9362401  25.6504945  38.3035748  49.6284944
  24.8751461  39.2500798  51.3309406  23.8455232  38.9441364  51.1455379
  25.0535715  39.2910630  52.4054564  25.0778430  40.6067090  50.7630328
  24.4239439  40.9308691  50.0648669  26.0629859  41.4100260  51.1258183
  26.8796228  40.9702347  52.0669994  26.7326707  40.0569468  52.4724746
  27.6469787  41.5494102  52.3765481  26.2489788  42.6214753  50.5738407
  25.6209330  42.9462225  49.8525933  27.0159298  43.2014718  50.8828538
  26.1350449  37.1508963  53.6332367  26.8673217  38.0881578  53.9625763
  25.1086198  36.7566133  54.3847514  24.5645107  35.9540582  54.1019970
  24.6686127  37.5185091  55.5737651  24.9824144  38.5592641  55.4934115
  23.1375352  37.4740994  55.6726753  22.8236321  36.4335943  55.7558218
  22.8299802  38.0183111  56.5656163  22.4894614  38.1028188  54.4473928
  23.0672862  38.9947175  54.2050376  22.5786189  37.3810401  53.6354885
  21.0537414  38.4738811  54.6279115  20.9559187  38.9752237  55.5908161
  20.7836258  39.1653252  53.8297625  20.1310241  37.2718346  54.5884276
  20.1866306  36.8126505  53.6014330  20.4513411  36.5522829  55.3419139
  18.6978997  37.6959543  54.8698383  18.4007473  38.3623831  54.1715026
  18.0951750  36.8860448  54.8403496  18.6460753  38.1210827  55.7845399
  25.3164587  37.0467534  56.8720020  24.9970295  37.5845202  57.9480902
  26.2218641  36.0760669  56.8003517  26.3462129  35.6072495  55.9144358
  27.0078677  35.6205699  57.9390294  26.6037900  36.0306372  58.8645915
  27.0233864  34.0854494  58.0228041  27.2999692  33.6891503  57.0457937
  28.0116977  33.5944429  59.0661317  27.7354814  33.9899818  60.0435539
  27.9959777  32.5050204  59.0979474  29.0139841  33.9354156  58.8067886
  25.6266288  33.5732016  58.3517787  25.7239212  32.7801937  59.0932458
  25.0556589  34.3988929  58.7764277  24.9278013  33.0526693  57.1662914
  25.4979777  32.2265889  56.7413327  23.9372502  32.6999488  57.4535126
  24.8297175  33.8452881  56.4245132  28.4125481  36.1884443  57.7772341
  29.1017532  35.9103037  56.7877251  28.8298135  37.0159609  58.7317616
  28.2314795  37.2385569  59.5144152  30.1319535  37.6683922  58.6491974
  30.5087656  37.6303893  57.6271076  29.9982660  39.1411857  59.0690272
  29.2707186  39.1786767  59.8798098  30.9725729  39.4582742  59.4408888
  29.5548311  40.0741737  57.9439921  28.5688529  39.7474259  57.6135626
  29.4838547  41.0799874  58.3580009  30.5100309  40.0797791  56.7599063
  30.7734024  39.0504707  56.5164754  30.0090573  40.5375319  55.9069190
  31.7744901  40.8633931  57.0860429  31.5306145  41.6231770  57.8285748
  32.5124656  40.1758692  57.4993252  32.3337541  41.5197525  55.8686082
  31.6502443  42.1571908  55.4857421  33.1694148  42.0305343  56.1153328
  32.5601994  40.8158591  55.1805998  31.2037953  36.9928135  59.5003799
  32.3944171  37.2269126  59.2653858  30.8041540  36.1655565  60.4669328
  29.8383613  36.2009714  60.7603430  31.6989137  35.2279162  61.1411529
  32.4711647  35.7624981  61.6942801  30.8875942  34.3996650  62.1191961
  30.0648697  34.9887744  62.5243796  30.4874041  33.5782891  61.5248144
  31.7085986  33.8472555  63.2457527  32.8266516  33.3566298  62.9827817
  31.2593838  33.9660886  64.4100580  32.4407105  34.2743674  60.2100716
  31.8427679  33.3259824  59.7038349  33.7588651  34.4531456  60.0726787
  34.2458517  35.1832479  60.5725727  34.5219779  33.6228100  59.1405399
  34.1457390  33.7418639  58.1244840  35.9872597  34.0604571  59.1735890
  36.0266337  35.0893499  58.8159179  36.3130126  34.0250153  60.2131701
  36.8898268  33.2080694  58.3393081  37.0170162  32.2289680  58.8011352
  36.4748371  33.0861434  57.3387984  38.2374950  33.9028755  58.2469169
  38.5279919  33.9403861  57.1970105  38.1222880  34.9175827  58.6279629
  39.3088803  33.1837394  59.0417739  39.1180927  33.3307234  60.1048338
  39.2663923  32.1196754  58.8092619  40.6728021  33.7174488  58.6990077
  40.7125205  34.7033300  58.9147861  41.3716830  33.2263972  59.2380196
  40.8499605  33.5809605  57.7140788  34.3950323  32.1344685  59.4701797
  34.2718153  31.2841824  58.5661902  34.4696966  31.7921906  60.7555610
  34.6152306  32.4737478  61.4865870  34.4184503  30.3872503  61.1237220
  35.1379472  29.8214226  60.5318922  34.7626575  30.2152806  62.6103412
  35.6286075  30.8365511  62.8389298  33.9107279  30.5480116  63.2033050
  35.0767352  28.7668332  62.9441006  34.2710463  28.1661572  62.5220169
  36.0169511  28.5051853  62.4586795  35.1838608  28.4938694  64.4359615
  35.3011639  29.4537779  65.2367621  35.1653799  27.3004018  64.8000365
  33.0541901  29.7882244  60.8045165  32.9687768  28.6616783  60.3061145
  31.9777258  30.5343423  61.0802962  32.0746293  31.4250283  61.5465446
  30.6363867  30.0823744  60.7233473  30.4153761  29.1415617  61.2274553
  29.5973912  31.1195518  61.1476414  30.0108121  32.0750580  60.8248563
  28.7139120  30.8870696  60.5530688  29.2087789  31.2053084  62.6271519
  30.0989518  31.4711304  63.1972673  28.4636678  31.9943172  62.7290174
  28.6370436  29.9247285  63.1930167  29.1508989  29.3834255  64.1685298
  27.5639094  29.4332722  62.5879310  27.1432436  28.5798777  62.9268402
  27.1723544  29.9147005  61.7910541  30.5254259  29.8666477  59.2230674
  29.9719684  28.8605261  58.7615805  31.0499102  30.8122837  58.4409206
  31.4974488  31.6295259  58.8306945  30.9308937  30.7144646  56.9889304
  29.8904929  30.5995070  56.6848742  31.5000082  31.9773294  56.3241550
  32.4838353  32.2016289  56.7363117  31.6255146  31.7217878  54.7830465
  30.6419458  31.4978619  54.3700689  32.0286273  32.6110210  54.2984179
  32.2933868  30.8784915  54.6072629  30.6503748  33.1457542  56.5734089
  30.5810502  33.3229124  57.6466802  31.0834443  34.0206327  56.0884984
  29.6540182  32.9636864  56.1706365  31.6450729  29.4628181  56.4963180
  31.1571596  28.7549553  55.6060856  32.8089636  29.1613388  57.0819227
  33.2168931  29.7680663  57.7787545  33.5209280  27.9422533  56.7261711
  33.7584464  27.9899426  55.6634341  34.4450061  27.9123085  57.3034773
  32.7266628  26.6767392  56.9987640  32.6752260  25.7762578  56.1461653
  32.0533328  26.6107693  58.1513127  32.1386601  27.3284247  58.8568546
  31.2251949  25.4448696  58.4463914  31.8050522  24.5396889  58.2660788
  30.7488490  25.4390149  59.9014438  29.9517200  26.1790110  59.9727895
  30.3408532  24.4466114  60.0932113  31.7994501  25.7448600  60.9064379
  32.6726296  25.1138069  60.7408166  32.0909755  26.7929124  60.8378729
  31.1380383  25.4207806  62.5493003  30.3734042  26.9981028  62.8887929
  29.6117460  27.2026836  62.1363818  29.9111678  26.9734895  63.8756224
  31.1298378  27.7824417  62.8619251  30.0337969  25.3694311  57.5122421
  29.6625394  24.2733811  57.0728923  29.4228990  26.5212428  57.1912502
  29.6592691  27.3935483  57.6421510  28.3165604  26.5116021  56.2413034
  27.5345199  25.8032325  56.5146610  27.7050182  27.9227969  56.0968616
  28.5126761  28.6449823  55.9775416  26.7593498  27.9937907  54.8623799
  25.9511222  27.2721604  54.9812009  26.3410071  28.9970782  54.7817299
  27.3228147  27.7619132  53.9585883  26.9944659  28.3418957  57.3784410
  25.9980454  27.9001757  57.3670164  27.5596379  27.9405290  58.2196216
  26.8742412  29.8971888  57.5250263  26.3087535  30.2992496  56.6843892
  26.3598681  30.1362448  58.4558172  27.8703467  30.3396032  57.5369921
  28.7770637  25.9486745  54.9051825  28.0969371  25.1110441  54.3058855
  29.9283389  26.4212464  54.3990804  30.4770202  27.1259718  54.8706844
  30.3865758  25.9440978  53.0873487  29.5873339  26.0654663  52.3561981
  31.6008407  26.7274587  52.6143598  32.3358320  26.6969648  53.4186962
  31.9969779  26.2092664  51.7410602  31.3015260  28.1897006  52.2497335
  30.8595926  28.2369000  51.2544607  30.6077804  28.6144581  52.9752679
  32.5871380  28.9746214  52.2656445  32.9169745  29.0817393  53.2990044
  33.3386091  28.4235589  51.7002060  32.3938926  30.3828726  51.6349444
  32.1159123  30.2321809  50.5918147  31.5701373  30.8615973  52.1644245
  33.6127387  31.2603912  51.7067301  34.3760459  30.8171730  51.2157926
  33.4106199  32.1529189  51.2793634  33.8702357  31.4005000  52.6732516
  30.7154019  24.4673785  53.1241144  30.4631843  23.7475364  52.1507617
  31.3090753  24.0141413  54.2265980  31.5565743  24.6489002  54.9722016
  31.6598720  22.6074030  54.3720144  32.3292341  22.2988317  53.5689968
  32.3692916  22.3974516  55.7054825  33.0623351  23.2289844  55.8333227
  31.6066592  22.4379133  56.4832065  33.1240843  21.0929612  55.8082533
  32.4402616  20.3070392  55.4876070  33.9872932  21.1164521  55.1431083
  33.5856192  20.8137214  57.2247771  32.7498411  20.3960646  58.0650632
  34.7813057  21.0471613  57.4982463  30.4239631  21.7205819  54.2842498
  30.4738849  20.6263048  53.7080976  29.3147089  22.1638034  54.8750796
  29.3244951  23.0618587  55.3371405  28.0876851  21.3867436  54.9059299
  28.3183355  20.3214445  54.8998088  27.2999345  21.7092308  56.1776803
  27.0786245  22.7762730  56.1544011  26.3689587  21.1444507  56.1286120
  28.0278730  21.3723196  57.4644656  29.0072332  21.8502763  57.4418431
  27.4507121  21.7671188  58.3006001  28.1996445  19.8803290  57.6313300
  27.2290430  19.3896410  57.5588245  28.8585425  19.4981533  56.8516540
  28.8107460  19.5960478  58.9958405  29.7183325  20.1935939  59.0814327
  28.0931718  19.9158912  59.7514109  29.1362603  18.1823498  59.1994665
  29.8014967  17.8858895  58.4997013  29.5363662  18.0580044  60.1184625
  28.2953351  17.6285204  59.1206195  27.1874988  21.6419504  53.7035726
  26.2356560  20.8970914  53.5011859  27.4265005  22.6952607  52.9417948
  28.2529279  23.2610812  53.0720418  26.4701893  23.0944935  51.9167860
  25.4588189  23.0450387  52.3202500  26.7426078  24.5377866  51.4447023
  26.9558740  25.1275489  52.3362163  27.6050311  24.5623178  50.7785759
  25.5360754  25.1186642  50.7310848  24.4584978  25.6005455  51.4473220
  24.5120434  25.5736825  52.5356743  23.3339543  26.1069884  50.8229139
  22.5163895  26.5196638  51.4140050  23.2771071  26.1461182  49.4438482
  22.1180107  26.6212305  48.8554886  21.4522556  26.8826552  49.4958219
  24.3331353  25.6595584  48.6947060  24.2804812  25.6823323  47.6062166
  25.4668450  25.1391072  49.3298727  26.2941328  24.7505269  48.7359869
  26.5131140  22.1554475  50.7216545  27.5877443  21.8034873  50.2306323
  25.3364877  21.8139558  50.2126210  24.4819117  22.0547658  50.6940873
  25.2400986  21.0408227  48.9674033  26.0359494  20.2966995  48.9357562
  23.8942841  20.3209414  48.8772190  23.8415441  19.6142314  49.7053970
  23.1106835  21.0702882  48.9892434  23.6969943  19.5629924  47.5375265
  22.8645521  18.8915858  47.7481303  23.4334669  20.2183371  46.7073604
  24.9062581  18.7591145  47.1737804  25.1575521  17.7712264  47.8902254
  25.6788543  19.1661318  46.2524520  25.4289848  21.9850817  47.7906769
  24.4816006  22.6449101  47.3416440  26.6625513  22.0437762  47.2656105
  27.4128582  21.4485107  47.5862316  26.9593908  23.0400614  46.2453430
  26.6814135  24.0359256  46.5904260  28.4493894  23.0242845  45.9597376
  28.8504821  22.0113992  45.9238589  28.6291231  23.5196915  45.0056057
  29.2434266  23.7599501  46.9767026  29.2707145  23.4018018  48.3118997
  30.0108779  24.2760170  48.9740470  30.1523480  24.1794693  50.0505059
  30.4728270  25.1760075  48.1104580  31.0649757  25.9642322  48.3299155
  30.0118008  24.8615359  46.8534757  30.2943782  25.4771686  45.9995157
  26.1611208  22.8166696  44.9548186  26.0160139  23.7589575  44.1532212
  25.6275791  21.6081057  44.7448123  25.8432005  20.8098631  45.3248256
  24.7909138  21.4003549  43.5609048  25.2961943  21.7889543  42.6767209
  24.5232349  19.9056519  43.3546822  24.1290721  19.4877661  44.2810225
  23.7862722  19.7865411  42.5604538  25.8185958  19.1658713  42.9681363
  26.0741335  19.4623922  41.9508474  26.6013884  19.4976675  43.6502281
  25.6924270  17.6348220  43.0390631  25.4016671  17.3063580  44.0368953
  24.9729034  17.2617029  42.3102508  26.9967146  17.0816376  42.7294860
  27.2198178  16.9378111  41.7549922  27.8896977  16.7203169  43.6442169
  27.6000995  16.8124175  44.9310698  26.6960380  17.1590032  45.2185610
  28.2842901  16.5357593  45.6205937  29.0911312  16.3041319  43.2738435
  29.3273696  16.2619731  42.2927654  29.7656264  16.0308043  43.9741627
  23.5085664  22.2192547  43.6618219  22.9079852  22.5254891  42.6331452
  23.1189367  22.6129941  44.8840162  23.6061668  22.2937933  45.7091326
  21.9557124  23.4668562  45.0577915  21.0994425  23.0397053  44.5358306
  21.6086343  23.5930961  46.5490498  22.5469599  23.7534526  47.0800206
  20.9772431  24.4754350  46.6535642  20.8881018  22.3764529  47.1414568
  19.9482331  22.2031280  46.6173326  21.5172100  21.4899689  47.0610131
  20.5363210  22.7122281  48.9251648  19.7518657  21.2003626  49.4581184
  20.4362798  20.3645446  49.3129131  19.4924469  21.2776585  50.5139726
  18.8470824  21.0342030  48.8734310  22.2116194  24.8486878  44.4478062
  21.2753387  25.5258293  44.0090674  23.4744742  25.2615146  44.4107536
  24.1974753  24.7111593  44.8517501  23.8484469  26.5273363  43.7967416
  23.2409463  27.3254063  44.2235045  25.3266264  26.8580498  44.0314733
  25.8196734  25.9966596  43.5809062  25.6119163  27.7619621  43.4932798
  25.7502863  26.9801889  45.4875760  25.4272520  26.0845739  46.0182580
  27.2533570  27.1290026  45.6165066  27.5771027  28.0247173  45.0864285
  27.5215960  27.2137402  46.6695822  27.7436767  26.2557049  45.1863459
  25.0078880  28.1042456  46.2106412  23.9360401  27.9078439  46.1847971
  25.3427801  28.1538379  47.2467344  25.2148057  29.0535787  45.7166263
  23.5782552  26.5552653  42.3205128  23.5334963  27.6425400  41.7376438
  23.4811452  25.3792235  41.6823026  23.5434737  24.5254046  42.2182204
  23.3875461  25.2796386  40.2409348  23.6436590  26.2307786  39.7742034
  24.3664959  24.2185404  39.7529986  23.9965673  23.2829509  40.1724319
  24.3058334  24.1776644  38.6654558  25.8300579  24.4267568  40.1769755
  25.9093192  24.3878113  41.2633925  26.7057256  23.2880016  39.5482089
  26.6273334  23.3266010  38.4617175  27.7464110  23.4250213  39.8419779
  26.3529859  22.3196915  39.9032450  26.3815143  25.8126813  39.7516109
  25.7841954  26.5991397  40.2129055  27.4179553  25.9069456  40.0756564
  26.3304730  25.9072880  38.6669251  21.9660543  24.9989260  39.7519701
  21.7579910  24.7839506  38.5540155  20.9765756  25.1016446  40.6356115
  21.1612578  25.3678032  41.5922469  19.5964473  24.7771461  40.2579521
  19.5365080  23.7452304  39.9120383  18.6704417  24.9428098  41.4656089
  19.1255824  24.3915742  42.2884610  18.6546350  26.0058756  41.7059029
  17.2493511  24.4511929  41.2521370  16.8186216  24.9597629  40.3896235
  17.2641237  23.3766717  41.0696873  16.4016685  24.7465644  42.4950271
  16.8087206  24.1759888  43.3298032  16.4752233  25.8118926  42.7135793
  14.9342226  24.3692322  42.2874890  14.3692406  24.7407664  43.1423914
  14.5868105  24.8637664  41.3803837  14.7313185  22.8974829  42.1596969
  15.0527783  22.4390869  43.0003136  13.7493339  22.7034831  42.0248993
  15.2544192  22.5530798  41.3673262  19.1148129  25.6442438  39.1075543
  18.3876070  25.1624358  38.2297829  19.5157370  26.9136135  39.0842021
  20.0353765  27.2725602  39.8723845  19.1432970  27.8404564  38.0217367
  18.5061267  27.3337295  37.2969325  18.3780201  29.0347079  38.5946910
  19.0317227  29.6172642  39.2438446  17.9980025  29.6720166  37.7962399
  17.1990755  28.6365758  39.4215050  16.0490588  28.1037587  38.8693379
  15.1871139  27.8324193  39.8348740  14.2143974  27.3974671  39.6052260
  15.7325886  28.1763409  40.9885404  15.3019886  28.0866034  41.8977328
  16.9905448  28.6807564  40.7581449  17.6032395  29.0196963  41.5935048
  20.3319204  28.2998475  37.1894776  20.2921800  29.3790146  36.5867570
  21.4090084  27.5087319  37.1652129  21.3964176  26.7167184  37.7918350
  22.5884318  27.7108177  36.3286702  22.5667124  28.7164978  35.9088666
  23.8835573  27.5451831  37.1405151  23.8926478  26.5295140  37.5360312
  24.7186050  27.6738533  36.4518647  24.0152704  28.5407482  38.2916783
  23.0770485  28.5438755  38.8465032  24.8208040  28.2016126  38.9429884
  24.3760795  30.2191748  37.7247507  26.1406568  30.1979083  37.3659241
  26.3464667  29.4542314  36.5960631  26.4520878  31.1810903  37.0131287
  26.6930011  29.9455121  38.2710833  22.5997438  26.7121230  35.1776142
  21.9209489  25.6821081  35.2346132  23.3669634  26.9782784  34.1176099
  24.1857930  28.1725292  33.8138380  25.1606633  28.0907435  34.2945034
  23.6816460  29.0722216  34.1666672  24.2746982  28.1163802  32.3187069
  25.1047973  28.7117207  31.9384384  23.3483250  28.4411593  31.8449426
  24.5051041  26.6478366  32.0958351  25.5289272  26.3992768  32.3753047
  24.3151214  26.3106492  31.0768597  23.5233328  25.9741544  33.0612053
  22.5425208  25.7889971  32.6232295  24.0994583  24.6650185  33.5867674
  25.0194984  24.6528443  34.4071496  23.5902119  23.5430601  33.0617099
  22.9290405  23.5358934  32.2982308  23.9465282  22.2665332  33.6831605
  23.7937792  22.3209290  34.7610324  23.0684499  21.1444780  33.1203145
  23.3887734  20.1918478  33.5422005  22.0295031  21.3307337  33.3923412
  23.1844926  21.0995840  31.7265830  22.6316548  20.3944300  31.3820138
  25.4268618  21.9242701  33.5143987  25.9676176  21.1360578  34.3016563
  26.0929097  22.5236262  32.5282838  25.6014915  23.1137844  31.8722954
  27.5254354  22.3262286  32.3418190  27.7502103  21.2730926  32.1730591
  27.9771648  23.1278065  31.1117392  27.4779205  24.0959780  31.1504482
  29.0546138  23.2717096  31.1923339  27.6621461  22.4597178  29.8226039
  26.6085031  22.1812298  29.8030673  27.8597953  23.1872054  29.0353328
  28.5095581  21.2340685  29.5977717  29.6882448  21.4102991  29.2128283
  28.0198846  20.1213794  29.8332646  28.3168883  22.7613952  33.5653359
  29.4585936  22.3124521  33.7553154  27.7572618  23.6481898  34.3953879
  26.8615919  24.0742352  34.2047043  28.4888395  24.0841362  35.5638560
  29.4794170  24.4380841  35.2782405  27.7343849  25.2344236  36.2443466
  26.6574590  25.1663120  36.0904291  27.9495483  25.2240225  37.3128486
  28.1560589  26.5794011  35.7351436  27.8645052  26.9872543  34.4578174
  27.3001634  26.3221086  33.8042125  28.2861026  28.2520464  33.9859280
  28.0969076  28.5592777  32.9573781  28.9571542  29.1161771  34.8639245
  29.2708484  30.1036952  34.5255404  29.2151614  28.7218148  36.1338594
  29.7309574  29.4080957  36.8054793  28.8315469  27.4594009  36.5865227
  29.0580748  27.1547344  37.6082679  28.7456949  22.9425778  36.5378035
  29.6460630  23.0649079  37.3727320  27.9791401  21.8683201  36.4123120
  27.2051798  21.8454937  35.7638031  28.2046183  20.6901613  37.2761055
  28.1732157  20.9999486  38.3206843  27.1517511  19.6257846  37.0555110
  26.8580398  19.5385404  36.0094607  27.5118510  18.6610638  37.4129208
  25.9226109  19.9256816  37.8156170  24.8480170  20.5054175  37.2502187
  23.9198140  20.6545064  38.1448190  22.9518466  21.0792023  37.8787898
  24.3781508  20.2268208  39.2798777  23.8841025  20.2505694  40.1604753
  25.6222049  19.7425134  39.1051668  26.1624645  19.3111771  39.9478825
  29.5917186  20.1808924  36.9771340  30.2967632  19.7661644  37.8619860
  30.0308310  20.3120553  35.7130594  29.4078479  20.6266732  34.9829862
  31.4253916  19.9150967  35.3347926  31.6060765  18.8915602  35.6631600
  31.6511789  19.9907806  33.8210773  31.5352092  21.0614815  33.6530007
  32.6939669  19.7108996  33.6715448  30.7732628  19.2240479  32.8373563
  29.9014551  19.8232308  32.5746170  31.5814336  18.9318649  31.5865505
  32.4532219  18.3322836  31.8484404  30.9645442  18.3835194  30.8746057
  31.9078322  19.8696329  31.1369333  30.2097144  17.9564064  33.3991501
  29.5972132  18.1855694  34.2711741  29.5963550  17.4648236  32.6440090
  31.0245769  17.2943300  33.6919862  32.6436051  20.6658867  35.9738044
  33.6746422  20.2372339  36.5817431  32.3420873  21.9596248  36.1473293
  31.4602330  22.2772227  35.7710795  33.2387912  22.9571428  36.7691717
  34.2547394  22.8580079  36.3869144  32.7176087  24.3580121  36.4194143
  32.7362803  24.4661851  35.3349563  31.6854020  24.3826000  36.7687634
  33.3948627  25.5815411  36.9871200  34.5709426  25.5124862  37.6943155
  35.0199356  24.5340056  37.8648467  35.1841454  26.6490637  38.1855300
  36.1181113  26.5771683  38.7428804  34.6108385  27.8697481  37.9679182
  35.0877911  28.7738724  38.3463037  33.4405868  27.9555003  37.2763827
  32.9765961  28.9305253  37.1275909  32.8424369  26.8217623  36.7660018
  31.9253631  26.9049118  36.1827680  33.2776826  22.6455718  38.2644372
  34.3056203  22.5257084  38.8136347  32.1058643  22.4941754  38.8671536
  31.2296604  22.6090181  38.3780961  32.0665783  22.1932064  40.3206952
  32.5606140  22.9791790  40.8919003  30.6060129  22.1150998  40.7601368
  30.2753223  23.1519505  40.6994437  30.0533005  21.5150905  40.0372274
  30.3491851  21.5814766  42.1652470  30.7481486  20.5693312  42.2322600
  31.0069062  22.4493248  43.2038843  30.6080897  23.4615875  43.1377907
  30.8067873  22.0445775  44.1959694  32.0829290  22.4713149  43.0312811
  28.8793157  21.4566979  42.4241334  28.4395420  20.7697489  41.7010846
  28.7185733  21.0743266  43.4321291  28.4085654  22.4350771  42.3278668
  32.8043899  20.8832883  40.6260597  33.6248015  20.8632138  41.4992881
  32.4519548  19.8313474  39.9068740  31.6958657  19.8816929  39.2391211
  33.0632405  18.5079974  40.1781828  33.0010278  18.2884876  41.2440366
  32.3415935  17.4079238  39.4119677  32.3005996  17.6485015  38.3496395
  32.9265996  16.4995527  39.5559460  30.9372502  17.1915005  39.9346051
  30.6881603  17.5857452  41.0622568  30.1342716  16.6913814  39.2068577
  34.5645481  18.5375848  39.9157977  35.2759938  17.8767017  40.6057453
  34.9889498  19.3086152  38.9274388  34.3699087  19.8187658  38.3137338
  36.4171140  19.3676274  38.6692031  36.8200069  18.3577061  38.5928129
  36.6954605  20.1041905  37.3610946  36.2207620  19.6302460  36.5019455
  36.3347130  21.1284013  37.4557172  38.1487410  20.1915196  37.0502916
  38.9216108  19.0847482  36.7738311  40.1659564  19.4662766  36.5534105
  40.9335343  18.7333604  36.3049011  40.2326974  20.7758215  36.6914172
  41.0606107  21.3432599  36.5788418  38.9832128  21.2567628  37.0169498
  38.8375336  22.3231888  37.1890382  37.1644356  20.0274077  39.8167786
  38.1381868  19.4580266  40.3304417  36.7436291  21.2353634  40.2122440
  35.9834222  21.7257619  39.7631403  37.5076587  21.9352250  41.2365987
  38.5860694  21.8335604  41.1149686  37.1408326  23.4266819  41.3311485
  37.7268389  23.9048948  42.1160113  37.4532936  24.0961978  39.9758292
  36.8672701  23.6187925  39.1904876  37.1987812  25.1548921  40.0257354
  38.5147811  23.9883465  39.7528684  35.7012695  23.6453122  41.8156027
  35.0224766  23.1303778  41.1357619  35.6020215  23.2236135  42.8158124
  35.3526118  25.1324404  41.8533444  35.4511885  25.5547618  40.8533308
  34.3268323  25.2569719  42.2002846  36.0307354  25.6479981  42.5333801
  37.3852622  21.2199352  42.5800769  38.3595639  21.1598772  43.3387272
  36.2257624  20.6158744  42.8701142  35.4131352  20.7417859  42.2836992
  36.0946113  19.7950257  44.0624149  36.3097961  20.3986908  44.9441082
  34.6576812  19.2750914  44.1640877  34.4303461  18.6612109  43.2925548
  34.5508064  18.6755007  45.0680617  33.9677316  20.1179834  44.2041120
  37.0713014  18.6221922  44.0544204  37.4566556  18.1346522  45.1246489
  37.4505018  18.1343276  42.8702481  37.0979219  18.5239857  42.0077208
  38.3320153  16.9800920  42.7957893  38.1138092  16.2942284  43.6143713
  38.1291970  16.2331834  41.4584514  38.4035550  15.1868444  41.5926214
  37.0795392  16.2991989  41.1721643  38.9353295  16.8069540  40.4379027
  38.7969422  16.3313912  39.6155348  39.8036731  17.3192130  42.9566780
  40.6209743  16.3931662  43.0884851  40.1726965  18.5968081  42.8619066
  39.4642835  19.3089801  42.7567340  41.5660299  19.0032945  42.8381628
  42.1609081  18.2431989  42.3317303  41.7341926  20.3427180  42.0876589
  41.1887267  21.1034388  42.6461121  42.8019143  20.5580088  42.1291340
  41.2686707  20.3491352  40.6282634  40.2717991  19.9115232  40.5749375
  41.2298105  21.7502178  40.0870217  42.2264902  22.1883553  40.1395942
  40.8964946  21.7303333  39.0494255  40.5382151  22.3498421  40.6788383
  42.2603837  19.5623753  39.8246745  42.3053155  18.5406047  40.2015903
  41.9533800  19.5501388  38.7788733  43.2444081  20.0236326  39.9085599
  42.1636926  19.1225440  44.2309273  41.4677953  19.3799942  45.2053324
  43.4865916  18.9478147  44.3084760  43.9940964  18.5755864  43.5185492
  44.2265401  19.2402547  45.5294592  43.5426732  19.6128548  46.2920825
  44.9134322  17.9841957  46.0615468  45.4681883  18.2564453  46.9594472
  44.1425975  17.2573679  46.3177402  45.8675734  17.3741116  45.0403941
  46.5738179  16.3921685  45.3769645  45.9231383  17.8675636  43.8955501
  45.2495471  20.3330709  45.2353105  45.3758282  20.7915066  44.1017393
  46.0164792  20.7129208  46.2626927  45.8429335  20.3569737  47.1918228
  47.0720276  21.7146997  46.0883032  46.6371219  22.6721280  45.8014452
  47.8358077  21.8983810  47.4033534  47.1701241  22.3406551  48.1445404
  48.0784085  20.8771214  47.6970772  49.1129405  22.7172752  47.3173580
  50.3224427  22.1363098  46.9307877  50.3433388  21.0712703  46.6998035
  51.4846728  22.8894826  46.8381540  52.4292051  22.4107523  46.5797398
  51.4466593  24.2414412  47.1000014  52.6060558  24.9795606  46.9901814
  53.3637462  24.4512106  46.7287407  50.2458410  24.8541891  47.4441517
  50.2057832  25.9270004  47.6327564  49.0944715  24.0889942  47.5464559
  48.1482754  24.5608080  47.8114178  48.0355290  21.3818189  44.9628014
  48.5660097  22.2862554  44.3059408  48.2847504  20.1097614  44.7198500
  47.7729704  19.3635100  45.1685029  49.3838167  19.7574261  43.8360955
  50.1766115  20.5026511  43.9010202  49.9522920  18.4032217  44.2509357
  49.2477007  17.5873258  44.0898017  50.8564329  18.2219037  43.6697705
  50.3535270  18.3457903  45.7009106  51.4625855  19.0404496  46.1557200
  52.0408504  19.6357298  45.4490721  51.8397634  18.9863401  47.4860737
  52.7406980  19.5002782  47.8211636  51.0707921  18.2782296  48.3909469
  51.3528427  18.2460857  49.4433319  49.9379379  17.6077835  47.9561498
  49.3216039  17.0535214  48.6639817  49.5906926  17.6443553  46.6164971
  48.7036569  17.1148783  46.2687593  48.9935657  19.7373680  42.3628668
  49.8457526  19.9992053  41.5081571  47.7317991  19.4597717  42.0419144
  47.0344325  19.4044937  42.7704222  47.3268422  19.1551935  40.6697351
  48.1320105  18.6881147  40.1026013  46.1204186  18.2109148  40.6755560
  45.2910031  18.7200867  41.1663861  45.7046255  17.8065640  39.2624496
  46.5334331  17.2968874  38.7711174  44.8459587  17.1370880  39.3133655
  45.4373606  18.6967689  38.6930593  46.4388177  17.0432269  41.4531806
  45.6855856  16.4480827  41.4598844  47.0144460  20.4147346  39.8632670
  46.2517048  21.2831271  40.3103702  47.5907528  20.4980617  38.6648463
  48.2706051  19.8203369  38.3508569  47.2620528  21.6123661  37.7774123
  47.4286438  22.5532554  38.3018871  48.1264199  21.5955141  36.5193394
  49.1615779  21.4730603  36.8380119  47.8238580  20.7307034  35.9288661
  48.0023085  22.8495333  35.6779951  46.9695808  22.9398258  35.3412138
  48.2583428  23.7090047  36.2975574  48.9323194  22.8014888  34.4633608
  49.9610568  22.6695379  34.7986029  48.6496875  21.9664412  33.8223350
  48.8154161  24.1166743  33.6732096  47.7529105  24.3122954  33.5285906
  49.2483509  24.9033437  34.2911237  49.4974286  24.0915976  32.3551189
  49.0961173  23.3630010  31.7822349  49.3781650  24.9839596  31.8973348
  50.4820573  23.9107687  32.4889328  45.7951659  21.5479338  37.3772908
  45.3092529  20.4866513  36.9699150  45.0372753  22.6354436  37.5261206
  45.3336925  23.8181144  38.3489241  46.0229108  24.4696173  37.8116882
  45.7900928  23.5016969  39.2868355  43.9961803  24.4420523  38.5502789
  44.1077371  25.5262809  38.5604091  43.5892780  24.1102462  39.5054943
  43.1300476  23.9923233  37.4154855  43.2650730  24.6657126  36.5690731
  42.0715644  23.9368399  37.6697188  43.6553630  22.5999458  37.0611600
  43.1389950  21.8064267  37.6013357  43.5508916  22.3458812  35.5690102
  44.4695382  22.6196440  34.7880901  42.4073777  21.7993261  35.1746657
  41.7591430  21.4239860  35.8521691  42.0862253  21.6581025  33.7569556
  43.0048804  21.6160536  33.1718028  41.2947467  20.3745151  33.5156587
  41.7984786  19.5634242  34.0414771  40.3019101  20.5211868  33.9409384
  41.1677162  20.0216606  32.0451568  41.3829212  20.8715751  31.1525896
  40.8511783  18.8546691  31.7802406  41.3257864  22.9194487  33.3607794
  40.0964960  22.9520540  33.3000583  42.0927292  24.0002906  33.1331272
  43.0961446  23.9634949  33.2422282  41.4830465  25.2742650  32.7705086
  40.8049011  25.5990074  33.5596602  42.5576923  26.3405486  32.5818561
  43.1405387  26.0888223  31.6958408  42.0007452  27.2598273  32.4006476
  43.4867619  26.5384103  33.7555828  43.1298895  27.3512929  34.8068650
  42.1593315  27.8462874  34.7737427  43.9803569  27.5499442  35.9019147
  43.7038483  28.2024163  36.7301205  45.2025592  26.8615618  35.9290475
  46.0580746  27.0377256  36.9927471  45.7178209  27.6484893  37.6506184
  45.5554784  26.0427731  34.8957512  46.5172149  25.5302973  34.9188125
  44.7029058  25.8619028  33.8262046  44.9767919  25.1814776  33.0199118
  40.6519968  25.1498389  31.5085021  39.5876804  25.7679869  31.3931525
  41.1428318  24.3812344  30.5462956  42.0499134  23.9488916  30.6481873
  40.4175569  24.1746388  29.3063538  40.2463541  25.1286160  28.8076391
  41.2356247  23.2713146  28.3706662  42.2547140  23.6522949  28.3042574
  41.2524090  22.2585985  28.7734371  40.6350218  23.2556703  27.0411338
  41.2801950  22.6590065  26.3962736  39.6425940  22.8063522  27.0772205
  40.5170880  24.6290344  26.4603439  41.5271246  25.3261248  26.3022204
  39.2769969  25.0544483  26.1679555  39.1418702  25.9744303  25.7736518
  38.4853235  24.4524053  26.3437362  39.0441659  23.5572115  29.5403743
  38.0895045  23.8693055  28.8165400  38.9419206  22.6142068  30.4848578
  39.7548864  22.2558054  30.9652061  37.6404535  22.0343721  30.8002401
  37.1929186  21.6124524  29.9003537  37.7972979  20.9186283  31.8383545
  38.4716733  20.1816678  31.4022281  38.2971854  21.4234868  32.6649925
  36.5500733  20.2216137  32.3514679  35.8753126  20.9719329  32.7635600
  35.8545868  19.4750505  31.2475028  36.5286120  18.7241891  30.8351971
  34.9648579  18.9855621  31.6435891  35.5652835  20.1733055  30.4621087
  36.9682788  19.1887991  33.4020374  37.4779514  19.6916599  34.2239038
  36.0837194  18.6777196  33.7821080  37.6412473  18.4608669  32.9489071
  36.6947657  23.1106649  31.2996984  35.5511986  23.2002132  30.8441215
  37.1872906  23.9854225  32.1690771  38.1162555  23.8971141  32.5555031
  36.3240373  25.0549455  32.6742567  35.3707160  24.6218212  32.9770456
  36.9696228  25.7561659  33.8732371  37.9112847  26.2091480  33.5631073
  36.0144349  26.8623381  34.4124443  35.0726643  26.4100266  34.7232224
  36.4773688  27.3587643  35.2652948  35.8239700  27.5933177  33.6266382
  37.2430503  24.7494400  34.9941253  36.2896026  24.5478090  35.4823704
  37.6091743  23.8375003  34.5225124  38.2454305  25.2219844  36.0224665
  37.8797568  26.1336967  36.4948682  38.3809447  24.4500548  36.7800018
  39.1993284  25.4233902  35.5350094  35.9786971  26.0300468  31.5472488
  34.8283820  26.4742881  31.4198294  36.9518095  26.3668932  30.6961009
  37.9085017  26.0675941  30.8196300  36.6421986  27.2528206  29.5759082
  36.2427786  28.1959384  29.9488582  37.9026690  27.5435579  28.7645511
  38.6454770  27.9137630  29.4711511  38.2339851  26.5884577  28.3569810
  37.7331255  28.5602685  27.6177898  38.6879469  28.6168704  27.0950919
  36.9741340  28.1614875  26.9447314  37.2453314  30.2211456  28.1475379
  38.7055391  30.8007781  29.0016518  39.5507801  30.8080456  28.3134557
  38.5323917  31.8103584  29.3743022  38.9247794  30.1377451  29.8385641
  35.5607398  26.6419513  28.6902584  34.6099607  27.3296856  28.2960683
  35.6663392  25.3411596  28.3972964  36.4855362  24.8043659  28.6440109
  34.6135853  24.6838394  27.6057281  34.4337812  25.2495692  26.6915512
  35.0328330  23.2556121  27.2248237  35.1594457  22.6728188  28.1371944
  34.2458753  22.8103075  26.6161353  36.2646761  23.2607902  26.4854280
  36.5058284  22.3595513  26.2591233  33.2496752  24.6685540  28.3011565
  32.2238031  24.7005294  27.6168019  33.1976388  24.6328776  29.6419672
  34.0145143  24.4461549  30.2058364  31.9129533  24.8077483  30.3189519
  31.1557818  24.0755854  30.0383667  32.0934673  24.7678664  31.8487722
  33.0024734  25.3185274  32.0908045  30.8607139  25.4049000  32.6360041
  29.9513602  24.8544392  32.3948201  31.0454974  25.3480648  33.7087228
  30.7418367  26.4480543  32.3430894  32.3786219  23.3420070  32.2890080
  33.2897245  22.9876722  31.8068866  32.5062817  23.3139592  33.3711429
  31.5447342  22.6999522  32.0052868  31.2762367  26.1082643  29.8873282
  30.0882082  26.1594733  29.5351549  32.0616304  27.1907611  29.9322082
  33.0021792  27.1419148  30.2970113  31.5456466  28.4913623  29.5233129
  30.6180800  28.7048550  30.0544816  32.5639425  29.5993448  29.8468702
  33.4866063  29.4728769  29.2804812  32.1151569  30.5613012  29.5992186
  32.9580218  29.6683299  31.3069276  32.0544694  29.2961188  32.3304958
  31.0449823  28.9896102  32.0564736  32.4402787  29.3170501  33.6826068
  31.7437604  28.9937491  34.4561955  33.7238423  29.7549849  34.0342581
  34.0245867  29.8167871  35.0801229  34.6230881  30.1149466  33.0257367
  35.6291000  30.4384884  33.2928713  34.2321217  30.0609758  31.6567501
  34.9428973  30.3314760  30.8758995  31.1894240  28.4961039  28.0472482
  30.1001903  28.9326124  27.6552758  32.0968429  28.0013813  27.2172256
  32.9996910  27.6884678  27.5444103  31.8579186  28.0392938  25.7803374
  31.5387433  29.0383441  25.4834791  33.1287689  27.6918530  25.0259632
  33.5968023  26.8192839  25.4816683  32.8874873  27.4724695  23.9858891
  34.0872443  28.8694474  25.0856822  33.5859480  29.6848387  24.5642037
  34.2382430  29.1448178  26.1294589  35.4106900  28.6071655  24.4436677
  35.7328043  27.4162382  24.2509408  36.1335199  29.5930694  24.1706962
  30.6753098  27.1745707  25.3747792  29.8259878  27.6245356  24.5979428
  30.5513182  25.9685230  25.9467731  31.2718892  25.5756027  26.5354075
  29.3852382  25.1437484  25.6343594  29.2475274  25.0971438  24.5540989
  29.5707041  23.7124873  26.1686696  29.7676826  23.7876720  27.2380835
  28.6603732  23.1351618  26.0071362  30.7461339  22.9742559  25.5026276
  31.0662149  23.2227839  24.3299366  31.3674251  22.0450390  26.2350968
  32.1445824  21.5332394  25.8424297  31.0569762  21.8588207  27.1779887
  28.0987848  25.7743852  26.1645517  27.0580541  25.7158446  25.4976922
  28.1430046  26.3892558  27.3557850  28.9696607  26.3804722  27.9360108
  26.9369150  27.0380689  27.8751937  26.1291842  26.3080332  27.9273287
  27.1684140  27.6150828  29.2797492  28.0350485  28.2753583  29.2468846
  26.2874479  28.1869469  29.5712456  27.3973113  26.5782559  30.2304023
  27.5387216  26.9648320  31.0976749  26.4608403  28.1286364  26.9318378
  25.2497440  28.3115974  26.7346171  27.3982551  28.8650367  26.3335384
  28.3834688  28.7700098  26.5345937  26.9800726  29.9103698  25.4124613
  26.1968360  30.5102538  25.8759038  28.1441031  30.8247929  25.0508646
  28.9414758  30.2131503  24.6287398  27.7991798  31.5382243  24.3024371
  28.6788754  31.5890963  26.2825098  27.8955684  32.2780792  26.5984740
  28.8527446  30.8528888  27.0672838  30.1936442  32.5105127  25.9909048
  31.1939562  31.1999485  25.3345067  30.7275784  30.8028896  24.4328776
  32.1842741  31.5849577  25.0913216  31.2853186  30.4058542  26.0755657
  26.3501443  29.3185023  24.1562550  25.3182617  29.8144025  23.6918088
  26.9509722  28.2609133  23.6024289  27.7955476  27.8676762  23.9925011
  26.4161113  27.6746051  22.3683878  26.3490051  28.4407150  21.5959427
  27.3248831  26.5541754  21.8668937  27.4503594  25.8620405  22.6995426
  26.7862642  26.0572298  21.0600264  28.6880854  26.9965925  21.3673914
  28.5564268  27.6995797  20.5448490  29.2250791  27.4856109  22.1801649
  29.4917121  25.7854709  20.8803364  29.6756407  25.1274429  21.7296116
  28.9014780  25.2560982  20.1323472  30.8148960  26.2080122  20.2730496
  31.2802707  25.3281165  19.8288533  30.6110463  26.9428266  19.4942093
  31.7346502  26.7986146  21.2834668  31.9240117  26.1177332  22.0050223
  32.6001905  27.0646172  20.8360490  31.3037889  27.6142086  21.6948838
  25.0044946  27.1352242  22.5603660  24.1383135  27.3205749  21.6914855
  24.7631742  26.4329977  23.6708283  25.5016386  26.2538967  24.3361798
  23.4331505  25.8991871  23.9522356  23.1781599  25.1360984  23.2168618
  23.3934797  25.2683033  25.3451720  23.6852162  26.0522040  26.0440917
  22.3551090  24.9898683  25.5250614  24.2765225  24.0658165  25.5434319
  23.9641174  23.2832570  24.8519808  25.3007503  24.3622201  25.3171544
  24.2046494  23.5435478  26.9613429  23.9864971  24.3471964  27.8974709
  24.3575972  22.3186783  27.1306666  22.3702556  26.9792398  23.8955812
  21.2156558  26.7049664  23.5545731  22.7365276  28.2029717  24.2477732
  23.7132110  28.3765631  24.4376542  21.7943541  29.2840657  24.4526799
  20.7701249  28.9112058  24.4580899  22.0864241  29.9221895  25.8021017
  23.1522261  29.8253209  26.0089391  21.8211017  30.9782104  25.7518629
  21.3113013  29.2688296  26.8855626  20.2919193  29.6546600  26.8757646
  21.2937413  28.1930287  26.7110743  21.9404107  29.5493522  28.2228285
  23.0211666  29.6372083  28.1117111  21.5410861  30.4774853  28.6317396
  21.6500133  28.4540539  29.1661291  20.8622615  28.5904505  29.7833345
  22.3061431  27.3002592  29.2212506  23.3730427  27.1062665  28.4606500
  23.6860016  27.8380849  27.8388795  23.8686978  26.2274187  28.5059510
  21.9334533  26.3617363  30.0762933  21.1470254  26.5243905  30.6888085
  22.4371254  25.4870348  30.1124927  21.8124929  30.3165499  23.3438994
  21.0696227  31.2967021  23.4249153  22.6182817  30.1022158  22.3013336
  23.1619297  29.2517671  22.2655117  22.7467417  31.0448251  21.2113077
  23.2316407  30.5221212  20.3868365  21.7390646  31.3353166  20.9141529
  23.5382283  32.2850905  21.5389596  23.5021793  33.2439097  20.7719321
  24.2701294  32.2957966  22.6503696  24.3310644  31.4643190  23.2204846
  24.9502636  33.5028833  23.1116734  24.3522985  34.3985550  22.9434204
  25.3049745  33.3975311  24.6002372  25.8381141  32.4628153  24.7739293
  26.1874116  34.5726589  25.0204532  25.6547329  35.5077703  24.8474772
  26.4310311  34.4843700  26.0792050  27.1066618  34.5650544  24.4347738
  24.0335432  33.3109588  25.4363632  23.6488797  34.3228716  25.5635135
  23.3095467  32.7147128  24.8810083  24.2617279  32.6960200  26.7718695
  24.9853169  33.2920118  27.3280283  23.3212858  32.6610585  27.3218199
  24.6459864  31.6838531  26.6455228  26.1985203  33.7482778  22.2812412
  27.0598484  32.8716334  22.1582267  26.2969440  34.9541876  21.7224860
  25.5494948  35.6089025  21.9035037  27.3806930  35.3699842  20.8458548
  27.9287003  34.4905131  20.5077456  26.8293873  36.1048291  19.6194234
  26.2857038  36.9930016  19.9413830  27.6542075  36.3996355  18.9706854
  26.1555319  35.4453118  19.0725641  28.3623013  36.2711813  21.5895025
  27.9788482  37.0634759  22.4570467  29.6360234  36.1539127  21.2138030
  29.8744439  35.5175073  20.4666463  30.7149334  36.8652756  21.8855872
  30.6612679  36.7093604  22.9630423  32.0625319  36.3313953  21.3790900
  31.9802364  35.2445878  21.3923636  32.1550639  36.6756884  20.3490414
  33.3023144  36.7596830  22.1743100  34.1634144  36.2444682  21.7486795
  33.4184705  37.8347545  22.0370944  33.2070220  36.4448379  23.6641936
  33.3270751  35.2569979  24.0447203  33.0168888  37.3864539  24.4638594
  30.6365070  38.3769670  21.6904989  31.2195855  39.1192498  22.4847947
  29.9257481  38.8608642  20.6730387  29.4700675  38.2340646  20.0252912
  29.8384098  40.2963886  20.4242925  30.6454427  40.8089142  20.9478522
  29.9576031  40.5970722  18.9273950  29.9968420  41.6748676  18.7695449
  30.8857622  40.1451266  18.5775864  28.7998625  40.0265786  18.1124621
  27.8395784  39.4737704  18.6592157  28.8755285  40.1898573  16.7877222
  28.1391522  39.8337806  16.1952199  29.6687225  40.6685421  16.3854724
  28.5563623  40.9310135  20.9575968  28.2479331  42.0686162  20.5890570
  27.7870046  40.2155397  21.7712306  27.9983349  39.2455755  21.9572638
  26.5957158  40.7909525  22.3782083  25.9391641  41.1909870  21.6055431
  25.8325881  39.7149790  23.1610666  26.5753120  39.0729838  23.6346726
  25.2519320  40.2258414  23.9291539  24.8997477  38.8643705  22.2989686
  24.0801481  39.4894860  21.9445847  25.4958976  38.5316539  21.4492603
  24.3366959  37.6563875  23.0255763  24.1805197  36.6145249  22.3491679
  24.0867310  37.7370701  24.2632374  26.9624607  41.9496117  23.2960984
  28.0379010  41.9800153  23.8939610  26.0523151  42.9065029  23.4123830
  25.2400609  42.9469779  22.8134639  26.2213086  43.9466121  24.4180127
  27.1398011  44.5047668  24.2365356  25.0452925  44.9180421  24.3821117
  24.1191374  44.3753064  24.5712540  25.1809345  45.6820207  25.1476429
  24.9944725  45.3917679  23.4017544  26.3152711  43.3259499  25.8024233
  25.6218036  42.3530356  26.1135801  27.1878170  43.8904495  26.6383812
  27.8901766  44.5265416  26.2888427  27.1680996  43.6022264  28.0555963
  27.0409252  42.5306620  28.2094650  28.4808520  44.0412557  28.7212092
  28.7871442  44.9756774  28.2509535  28.3609931  44.1968921  29.7933618
  29.6407905  43.0650812  28.5488028  29.6512226  41.8379556  29.2052477
  28.7999392  41.5767278  29.8338784  30.7206037  40.9487805  29.0726967
  30.6915460  39.9898635  29.5901274  31.8121337  41.2795750  28.2901245
  32.6477866  40.5884574  28.1799402  31.8363771  42.5221725  27.6332047
  32.6915243  42.8013627  27.0176754  30.7475339  43.4098188  27.7730966
  30.7653888  44.3775259  27.2717743  25.9944203  44.3446613  28.6916006
  25.5221531  45.3535435  28.1656630  25.5420796  43.8511510  29.8526297
  26.0030342  43.0642448  30.2866790  24.3356851  44.3911129  30.4926838
  23.4699772  44.2106286  29.8554441  24.0942373  43.7201997  31.8475851
  25.0253473  43.8209702  32.4052396  23.2960722  44.2404348  32.3771020
  23.7456727  42.2745925  31.7189905  23.4049194  41.8579817  30.5951811
  23.7702069  41.5691842  32.7376692  24.3812747  45.8993373  30.6865570
  23.3626229  46.5823754  30.5236574  25.5350672  46.4327514  31.0600530
  26.3429174  45.8386390  31.1805017  25.6751231  47.8598187  31.3466174
  24.8014772  48.2110276  31.8957022  26.9180731  48.1229403  32.1889874
  27.1224116  49.1925784  32.2360965  26.7799182  47.7351611  33.1982647
  28.1557422  47.4731876  31.6453536  29.0011225  47.9609794  30.6852056
  28.7547849  48.9281241  30.2469720  30.0313189  47.0697188  30.4768046
  30.8069323  47.2114254  29.8455815  29.8441087  45.9646172  31.2798294
  30.6071865  44.7984940  31.4017801  31.5051074  44.6912037  30.7932363
  30.1631732  43.8445466  32.3014102  30.7302368  42.9228000  32.4314951
  29.0043136  44.0346610  33.0477525  28.6674684  43.2710275  33.7488222
  28.2427300  45.1924496  32.9276190  27.2968052  45.2525271  33.4658732
  28.6861446  46.1924695  32.0449879  25.7566671  48.7087150  30.0970240
  25.7589915  49.9385304  30.2134276  25.8292608  48.0946059  28.9254890
  25.9087011  47.0885739  28.8844012  25.8596103  48.8421105  27.6739377
  26.3650197  49.7973510  27.8159799  26.6224659  48.0369417  26.6164012
  26.1863038  47.0393971  26.5638005  26.5047129  48.5355986  25.6543328
  28.1347757  47.9235544  26.9593302  28.5834637  48.9080111  26.8265709
  28.2192503  47.6242229  28.0040138  28.8643678  46.9076019  26.0772980
  28.2070792  46.1819139  25.3282402  30.1065421  46.8275446  26.1266033
  24.4245530  49.1410573  27.2441254  23.5556743  48.2650602  27.2899599
  24.1714991  50.3839655  26.8617892  24.9017666  51.0780881  26.7910604
  22.7945684  50.8013407  26.6191934  22.1050528  50.0081850  26.9082805
  22.4781107  52.0521190  27.4483021  21.4109126  52.2384815  27.3280669
  22.6865329  51.7933752  28.4864311  23.2557924  53.3023110  27.0722916
  24.3222146  53.1135984  27.1957096  23.0500493  53.5549900  26.0321353
  22.8392008  54.4599070  27.9668853  21.7625902  54.5967470  27.8654789
  23.0757552  54.1946418  28.9973104  23.5494213  55.7501841  27.6012749
  24.6217346  55.5970749  27.7229394  23.3314309  55.9771261  26.5576866
  23.1083687  56.8907791  28.4616689  23.3106667  56.6808735  29.4286823
  23.6016949  57.7287668  28.1887115  22.1148419  57.0330949  28.3487545
  22.4885373  51.0467980  25.1405218  23.2864374  51.6270996  24.4076457
  21.4416005  50.6372805  24.6438745  47.4434854  45.0727681  39.0747675
  47.1759586  45.9271265  40.2857403  45.9492141  46.6097040  40.3843042
  45.6405064  47.4092240  41.4953826  44.3514476  48.1306304  41.5475759
  44.1876219  49.0226818  40.4946303  43.0323121  49.7578430  40.4217794
  42.9148535  50.6519202  39.3565054  41.7640000  51.4301446  39.2221591
  40.7287592  51.3136340  40.1526873  40.8467450  50.4202065  41.2144541
  39.7956997  50.3558862  42.0869789  42.0006690  49.6429618  41.3480179
  42.1651932  48.6927620  42.4484637  41.2959806  48.5276861  43.3025716
  43.4287714  47.9219329  42.5053216  43.5686037  47.0166115  43.5407964
  46.5932629  47.5323252  42.5125469  47.8142160  46.8588474  42.4307656
  48.1234967  46.0480146  41.3256613  49.4566954  45.3333631  41.2736567
  50.4909349  46.1109827  41.6972300  49.8020486  44.9147505  40.0216644
  49.4844543  44.2146317  42.0520135  46.5001221  44.6276123  38.7250203
  47.8747488  45.6941831  38.2761404  48.1511671  44.2735319  39.3390459
  45.2145904  46.5138708  39.5709327  43.7290404  50.7434484  38.6224971
  41.6723455  52.1359781  38.3827977  39.8214491  51.9266099  40.0462969
  39.9532822  50.2249997  43.0014178  43.1523978  46.1787061  43.4898047
  46.3789835  48.1660277  43.3852688  48.5459119  46.9650364  43.2456153
  34.8900843  55.9733016  14.2286643  47.5380146  65.5020372  21.5675729
  62.9443948  27.6987365  59.8703894  58.6962618  22.1181800  76.9791364
  76.4233508  55.9438531  29.0348952  70.1729185  17.9018049  40.8074901
  25.5295732  35.9252061  65.2869168  16.3901783  48.1999900  77.5223367
  34.9801781  18.5992080  13.9211290  39.3464663  18.9497940   7.8373046
  39.1132426  -0.9971410  31.9799519  64.1834230  57.2242425  14.4354021
  48.3303677  32.0117864  87.4541659  47.6791657  32.5971944  87.0675673
  49.1248040  32.5424058  87.5136696  54.5970401  28.5042799  88.7146496
  53.8199844  28.1653959  88.2701658  55.2761882  28.5095423  88.0401461
  46.0021462  27.6007970  83.2581030  45.0948524  27.3697224  83.4572179
  46.4992494  26.8045590  83.4455012  48.9089541  36.3105478  86.1777717
  48.2351240  36.6137174  86.7862674  49.2955363  37.1134558  85.8283174
  46.8785784  29.2429309  85.1193099  46.4405213  28.5265168  84.6598736
  47.6196224  29.4705424  84.5578190  47.1080756  36.4785150  88.3924796
  47.2832512  36.0073193  89.2070418  46.4213544  37.1050916  88.6206056
  50.9997011  28.1013691  84.7125157  50.3826182  27.3760519  84.6158209
  50.5313500  28.8623051  84.3692231  51.8234696  31.4252863  88.8317796
  52.0994540  31.3109457  89.7411670  50.9539195  31.0270347  88.7929969
  48.7930926  34.6007399  89.7365658  49.3218692  34.0899853  89.1235821
  49.0559145  34.2849929  90.6011191  51.8871109  34.5724197  90.3520641
  52.0607987  34.0070619  89.5994494  52.3800001  35.3725092  90.1700131
  52.8746282  33.8890961  87.4517540  53.5697187  34.5097654  87.6704854
  53.2169432  33.0386312  87.7269918  54.7737705  31.3390667  88.9804870
  55.2989029  31.6777939  88.2554190  54.6860058  30.4037682  88.7968005
  46.9661150  33.9952713  86.3592633  46.3935117  34.6142900  85.9063105
  47.5393944  34.5452075  86.8932555  50.1858410  34.2789863  87.4901216
  51.1189083  34.2135425  87.6934091  50.0981623  35.1146130  87.0315748
  52.8146427  33.5955733  84.4505163  52.7360058  33.2615597  85.3440921
  53.6356094  34.0877501  84.4496635  47.3507949  25.3313526  83.7008686
  48.2967054  25.2019734  83.7697104  46.9722194  24.5928188  84.1778114
  50.3850379  30.9123729  84.0715141  51.0886229  31.1173731  84.6872797
  49.6613027  31.4800491  84.3364225  52.2937076  31.3506258  86.1213602
  53.1282680  30.9187456  85.9391076  52.1321419  31.1788272  87.0490496
  51.9482968  27.8538371  87.4869941  51.8931772  27.6882643  86.5458385
  51.3229023  28.5614404  87.6432131  55.4319337  40.5891585  85.4847243
  55.6844857  40.0673106  84.7230706  54.4943896  40.4257730  85.5873927
  57.1352653  36.9819737  86.3879656  57.3027056  37.8499974  86.7550127
  56.9449822  37.1447019  85.4640945  53.7550931  37.8043805  86.6348554
  52.9188244  38.1418492  86.9557829  53.6155701  37.6692785  85.6975691
  55.7304012  32.6480593  91.3427738  55.0768424  32.3329610  90.7184353
  55.6884486  32.0256334  92.0687561  56.8415217  42.9299888  83.2581030
  55.9342279  42.6989142  83.4572179  57.3386249  42.1337507  83.4455012
  51.0837846  40.2782031  89.4461175  50.1535434  40.2166487  89.6631137
  51.1795318  39.7557984  88.6497816  53.6289312  37.6491033  83.8346461
  52.7518778  37.5279833  83.4708708  54.1047065  36.8577111  83.5825350
  48.3568005  39.2432888  89.2759367  48.6521446  38.3343566  89.2226420
  47.4556041  39.2220627  88.9540369  50.0855847  36.9246986  89.3998692
  49.7568553  36.0444364  89.2173798  50.4395218  36.8694654  90.2875081
  55.1865817  35.7094577  87.9667462  55.9074180  36.0875830  87.4631179
  54.5631121  36.4283454  88.0702440  55.3329440  35.2442367  90.7964999
  55.4545352  34.3159014  90.9955886  55.0431483  35.2581053  89.8843314
  51.3307780  38.5890035  87.3928116  50.6377025  38.6634390  86.7368152
  51.0859532  37.8250379  87.9149633  58.1901703  40.6605443  83.7008686
  59.1360808  40.5311651  83.7697104  57.8115948  39.9220105  84.1778114
  56.3744620  38.5855420  83.6363571  55.4676076  38.2888532  83.7126285
  56.6520601  38.2885238  82.7697857  55.1443405  35.4442355  83.7775550
  56.0062569  35.7697253  84.0371368  55.3293749  34.6573851  83.2648616
  56.0972848  32.6838398  87.0655259  56.0851518  33.6280238  87.2223530
  56.9896270  32.5008543  86.7714720  48.3303679   9.0179986  74.1786965
  47.6791658   9.6034067  73.7920979  49.1248041   9.5486181  74.2382003
  54.5970402   5.5104922  75.4391802  53.8199845   5.1716082  74.9946964
  55.2761883   5.5157545  74.7646767  46.0021464   4.6070093  69.9826337
  45.0948525   4.3759347  70.1817486  46.4992496   3.8107712  70.1700319
  48.9089542  13.3167600  72.9023023  48.2351241  13.6199297  73.5107981
  49.2955364  14.1196681  72.5528480  46.8785785   6.2491432  71.8438406
  46.4405215   5.5327291  71.3844043  47.6196226   6.4767546  71.2823497
  47.1080758  13.4847273  75.1170102  47.2832513  13.0135316  75.9315725
  46.4213546  14.1113039  75.3451363  50.9997012   5.1075813  71.4370463
  50.3826183   4.3822641  71.3403516  50.5313501   5.8685174  71.0937538
  51.8234698   8.4314985  75.5563103  52.0994541   8.3171580  76.4656977
  50.9539196   8.0332470  75.5175276  48.7930927  11.6069521  76.4610965
  49.3218694  11.0961976  75.8481127  49.0559147  11.2912051  77.3256498
  51.8871111  11.5786319  77.0765948  52.0607988  11.0132742  76.3239801
  52.3800002  12.3787214  76.8945438  52.8746283  10.8953084  74.1762846
  53.5697188  11.5159776  74.3950161  53.2169433  10.0448435  74.4515224
  54.7737706   8.3452789  75.7050177  55.2989030   8.6840062  74.9799497
  54.6860059   7.4099805  75.5213312  46.9661152  11.0014835  73.0837940
  46.3935119  11.6205023  72.6308412  47.5393945  11.5514197  73.6177862
  50.1858411  11.2851986  74.2146522  51.1189085  11.2197547  74.4179398
  50.0981624  12.1208252  73.7561055  52.8146428  10.6017856  71.1750470
  52.7360060  10.2677720  72.0686228  53.6356095  11.0939624  71.1741942
  47.3507950   2.3375648  70.4253992  48.2967055   2.2081856  70.4942410
  46.9722195   1.5990310  70.9023421  50.3850380   7.9185851  70.7960448
  51.0886230   8.1235854  71.4118104  49.6613029   8.4862613  71.0609532
  52.2937077   8.3568381  72.8458908  53.1282681   7.9249579  72.6636383
  52.1321420   8.1850394  73.7735803  51.9482969   4.8600494  74.2115247
  51.8931773   4.6944765  73.2703692  51.3229025   5.5676527  74.3677437
  53.5897874  20.6800936  78.8672501  53.0262739  20.5890873  78.0988788
  53.4750269  19.8600841  79.3474993  51.1362306  22.1752128  81.7056721
  51.9283598  21.8342952  81.2903020  51.3758956  22.2847103  82.6258874
  59.1697433  24.3471904  74.1786965  58.5185413  24.9325984  73.7920979
  59.9641796  24.8778099  74.2382003  53.0953060  21.4361041  74.5774100
  53.8683936  20.8890028  74.4386976  53.4478459  22.3005290  74.7888561
  55.4319338  17.5953707  72.2092550  55.6844859  17.0735228  71.4476013
  54.4943897  17.4319853  72.3119233  60.6472698  22.0362336  74.7155950
  60.0118531  22.1096962  75.4276854  60.3170105  22.6255935  74.0375029
  55.1515627  19.4981813  74.4116925  55.0351885  18.8226716  75.0798009
  55.2617887  19.0114187  73.5949078  57.4947168  18.9591960  78.1163614
  57.1305375  18.4322581  78.8276535  58.3514284  18.5690429  77.9430099
  57.1352655  13.9881860  73.1124962  57.3027057  14.8562096  73.4795433
  56.9449824  14.1509142  72.1886252  53.3440469  18.9012636  80.8127497
  52.4190966  18.7688850  81.0205189  53.5924883  19.6806855  81.3097440
  57.1141876  16.4439517  74.0971629  56.9941501  16.8896568  74.9357110
  56.4194464  16.7924835  73.5385167  50.7049280  18.5445909  81.6471286
  50.8341662  18.7980388  82.5610698  50.0246732  19.1373617  81.3275941
  54.8748768  29.2143159  77.7461760  54.7972797  30.1650984  77.8250241
  54.2710411  28.8689032  78.4036687  62.8126942  16.9160991  74.9251963
  63.7244798  17.1488377  74.7499661  62.3036589  17.4998035  74.3627042
  56.9724486  21.6361217  79.5815630  57.4362831  21.9148920  78.7920252
  56.7081284  20.7344662  79.3988721  53.8648567  21.1832699  82.5195393
  54.4349924  21.6119967  81.8812878  54.4556679  20.9015283  83.2179579
  55.9093372  17.7584369  76.3905195  56.6117415  18.2105413  76.8579121
  55.5774000  17.1168188  77.0185088  51.6033451  16.3812501  78.6505805
  50.8064615  16.4931196  79.1689301  51.3759043  16.7199154  77.7846696
  57.1487137  24.5725312  76.4667300  57.0132811  25.4176848  76.8952148
  57.6896949  24.7744590  75.7033234  50.6016534  22.0900750  77.0395225
  51.1141054  22.8844000  77.1900790  51.2539247  21.3927041  76.9728827
  52.4111419  25.2066506  79.1217978  52.5878047  26.1284471  78.9338962
  53.2068252  24.8924926  79.5512358  53.5342734  26.7244680  85.1228321
  54.0850159  26.5961744  84.3505315  52.6954210  27.0239569  84.7723214
  48.5665451  20.4189404  77.8154796  49.4040673  20.8286413  77.5988504
  48.7443718  19.4788847  77.7854990  60.4629883  18.0864485  73.5038629
  59.9476506  18.8569090  73.7427016  60.1907191  17.4129621  74.1271690
  58.0476994  12.9314186  78.5623867  57.1918590  12.5421036  78.3829506
  58.4603946  13.0106147  77.7023653  65.4364157  20.8396840  75.4391802
  64.6593600  20.5007999  74.9946964  66.1155638  20.8449463  74.7646767
  60.2516186  15.9591577  75.3298410  59.9466322  16.2737726  76.1808553
  61.2046628  16.0372997  75.3725743  53.4281345  12.7801467  79.3397975
  54.0025097  12.5576648  78.6071168  54.0152328  12.8490161  80.0926577
  53.7550933  14.8105928  73.3593861  52.9188245  15.1480614  73.6803135
  53.6155702  14.6754908  72.4220998  55.7304013   9.6542716  78.0673045
  55.0768426   9.3391733  77.4429660  55.6884487   9.0318456  78.7932868
  56.8415218  19.9362011  69.9826337  55.9342280  19.7051264  70.1817486
  57.3386250  19.1399630  70.1700319  59.7483297  28.6459518  72.9023023
  59.0744996  28.9491215  73.5107981  60.1349119  29.4488598  72.5528480
  59.7476801  17.5416065  77.5223373  60.4948620  18.0537462  77.2130495
  60.0168391  17.2200118  78.3827766  58.0203451  20.0374606  74.5050327
  57.1114671  19.7533638  74.6022797  58.0498535  20.4573684  73.6453634
  63.2522719  23.6481195  78.2741495  62.7985046  22.8072105  78.3306685
  62.6216686  24.2842593  78.6116275  61.6955658  25.4857692  79.2091313
  61.9878632  26.0462749  78.4903678  62.2054279  25.7786253  79.9644472
  48.5891622  17.7580120  78.4865529  48.3916022  17.1649480  77.7616596
  48.0338286  17.4532330  79.2041468  56.5688346  17.6503226  80.6060122
  56.6236955  16.6977063  80.5302599  55.7579548  17.8062665  81.0901421
  57.7179539  21.5783349  71.8438406  57.2798969  20.8619208  71.3844043
  58.4589980  21.8059464  71.2823497  54.5080705  16.2680286  78.3650501
  53.6948571  16.5674457  78.7715693  55.0039700  15.8735975  79.0824984
  56.6589283  26.2638043  80.2984766  56.6165462  26.4898889  79.3693298
  57.5751982  26.0301417  80.4470567  54.7755084  23.1401072  80.0946729
  55.5695683  22.6451392  79.8929304  54.0646776  22.6118935  79.7314434
  59.5949929  25.5219167  84.4459096  59.6486951  26.0910104  85.2136812
  58.7264710  25.6921052  84.0813133  51.0837848  17.2844154  76.1706481
  50.1535436  17.2228609  76.3876444  51.1795320  16.7620106  75.3743123
  51.0023397  13.8098966  78.7584723  51.2630214  14.7244300  78.6493884
  51.8240569  13.3423409  78.9081336  57.3526360  23.7130094  83.7744566
  57.2137446  23.3448878  84.6470504  56.5640956  24.2277733  83.6028524
  57.9474512  28.8139190  75.1170102  58.1226268  28.3427234  75.9315725
  57.2607300  29.4404957  75.3451363  58.9031575  23.0911697  81.1633404
  58.5681408  23.0512467  82.0591053  58.4035521  22.4256413  80.6903814
  61.8390767  20.4367731  71.4370463  61.2219938  19.7114559  71.3403516
  61.3707255  21.1977091  71.0937538  52.5135597  31.9628553  81.8909962
  52.7532196  32.5947077  82.5688981  51.6704794  31.6116593  82.1775322
  53.6289313  14.6553155  70.5591768  52.7518779  14.5341956  70.1954014
  54.1047066  13.8639234  70.3070656  45.1491453  19.4430315  80.6533275
  45.8362493  19.1292045  80.0654290  44.9939582  20.3471680  80.3800526
  57.0263459  27.7707676  84.2951466  56.9533631  28.5762647  84.8070771
  56.5840852  27.9699641  83.4699488  56.8153239  27.0079446  77.8054288
  56.0320761  27.5501126  77.8992513  57.5145984  27.5253425  78.2048529
  59.4862143  27.6694510  86.4509625  60.1990115  28.3041974  86.3785527
  58.9952171  27.7658376  85.6349627  61.2079670  21.5745762  78.0226917
  60.2735948  21.6947225  77.8531621  61.3856338  20.6718229  77.7586927
  56.7084858  14.9591458  80.1760178  56.3382645  14.4062498  80.8641084
  57.2043950  14.3549592  79.6235178  54.5374056  25.4188953  87.2715196
  55.2383516  26.0525436  87.4244590  54.0669171  25.7603685  86.5110835
  62.6628452  23.7606903  75.5563103  62.9388296  23.6463497  76.4656977
  61.7932951  23.3624388  75.5175276  59.2982516  28.0093254  79.1995917
  59.4804911  27.1914910  79.6623669  60.1215502  28.2260946  78.7620807
  59.6324682  26.9361439  76.4610965  60.1612448  26.4253893  75.8481127
  59.8952901  26.6203969  77.3256498  50.1341774  24.9525308  84.2046299
  50.7195211  24.2068996  84.3374203  49.9366613  25.2629265  85.0882963
  52.9880430  27.9876556  79.2208741  52.3190805  28.4722683  78.7372781
  52.8493299  28.2345776  80.1352120  57.1285698  30.0220299  85.8191399
  57.6804006  30.1851921  86.5840485  57.4691892  30.6124737  85.1471424
  48.3568007  16.2495010  76.0004673  48.6521448  15.3405689  75.9471727
  47.4556042  16.2282750  75.6785676  60.2654085  27.9702275  82.8055082
  60.1405225  27.1692014  82.2966027  60.9233177  28.4648468  82.3169052
  50.0855848  13.9309108  76.1243998  49.7568554  13.0506487  75.9419104
  50.4395219  13.8756777  77.0120388  59.3335427  25.5664011  80.6338984
  59.1860390  24.6380718  80.8146554  60.1588921  25.5884102  80.1496059
  53.1997671  14.2182078  76.4919476  53.5393744  14.7467999  75.7698084
  53.6469792  14.5562484  77.2678043  62.9369549  26.3892570  81.7203857
  63.8616096  26.1835431  81.5828308  62.7684852  26.1408971  82.6293198
  55.1865819  12.7156700  74.6912769  55.9074181  13.0937952  74.1876486
  54.5631123  13.4345576  74.7947747  59.3296941  13.4201849  75.6271101
  59.5460556  14.3026486  75.3259929  58.8491009  13.0288062  74.8976743
  62.7264865  26.9078237  77.0765948  62.9001743  26.3424660  76.3239801
  63.2193756  27.7079132  76.8945438  55.3329442  12.2504490  77.5210305
  55.4545353  11.3221136  77.7201193  55.0431484  12.2643176  76.6088621
  63.7140038  26.2245001  74.1762846  64.4090942  26.8451694  74.3950161
  64.0563188  25.3740353  74.4515224  65.6131461  23.6744707  75.7050177
  66.1382785  24.0131980  74.9799497  65.5253813  22.7391722  75.5213312
  57.2972121  29.7416690  80.0645430  56.8577112  29.2493069  80.7578287
  58.0480238  29.1989658  79.8237506  49.7764460  25.9328231  80.0670058
  50.6022480  25.6332003  79.6868702  49.4258512  25.1635854  80.5159847
  54.7445994  25.2854699  82.1367732  54.1226003  24.6225404  81.8369960
  55.4150861  25.3115831  81.4541380  47.9773066  23.8514558  81.0258992
  47.1404974  23.4236732  80.8442993  47.9496711  24.0447001  81.9629783
  54.3059501  23.8358623  75.6126193  54.4547621  24.5194087  74.9592865
  55.1125944  23.8163713  76.1275648  52.0612134  19.8623800  76.6187261
  51.8158175  18.9586130  76.8167472  52.2308048  19.8640951  75.6766739
  51.3307781  15.5952158  74.1173423  50.6377026  15.6696513  73.4613459
  51.0859533  14.8312502  74.6394940  57.8054906  26.3306753  73.0837940
  57.2328873  26.9496940  72.6308412  58.3787700  26.8806115  73.6177862
  61.0252166  26.6143903  74.2146522  61.9582839  26.5489465  74.4179398
  60.9375379  27.4500170  73.7561055  63.6540183  25.9309774  71.1750470
  63.5753814  25.5969637  72.0686228  64.4749849  26.4231542  71.1741942
  58.1901705  17.6667566  70.4253992  59.1360809  17.5373774  70.4942410
  57.8115950  16.9282228  70.9023421  56.3744622  15.5917542  70.3608878
  55.4676077  15.2950655  70.4371591  56.6520603  15.2947360  69.4943164
  55.1443406  12.4504477  70.5020857  56.0062570  12.7759376  70.7616674
  55.3293751  11.6635973  69.9893923  49.0747565  20.4645071  80.6567061
  49.0518253  20.5632758  79.7048944  49.3848201  21.3110222  80.9784227
  50.0885171  28.0640845  81.7883873  49.9539639  27.3041246  81.2221871
  49.6717234  28.7881745  81.3212662  61.2244134  23.2477769  70.7960448
  61.9279984  23.4527772  71.4118104  60.5006783  23.8154531  71.0609532
  62.0541945  18.9987630  76.9162718  61.9977146  19.4556182  76.0770351
  62.6070287  18.2378315  76.7385561  53.2454297  28.9610162  82.0002315
  53.1286681  29.9055595  81.8981006  52.4246743  28.6583724  82.3888115
  63.1330832  23.6860298  72.8458908  63.9676436  23.2541497  72.6636383
  62.9715175  23.5142312  73.7735803  62.7876724  20.1892412  74.2115247
  62.7325528  20.0236683  73.2703692  62.1622779  20.8968444  74.3677437
  56.0972849   9.6900521  73.7900566  56.0851519  10.6342360  73.9468837
  56.9896271   9.5070666  73.4960027  54.2708811  29.6138424  85.2158244
  55.1736058  29.6462035  85.5324739  54.0446181  28.6838875  85.2304580
  56.0262413  28.3669411  81.8768323  55.0758044  28.3671273  81.7632695
  56.3294899  27.6202145  81.3604357  64.4291629  36.0092854  78.8672501
  63.8656494  35.9182791  78.0988788  64.3144024  35.1892758  79.3474993
  61.9756061  37.5044045  81.7056721  62.7677353  37.1634870  81.2903020
  62.2152711  37.6139020  82.6258874  70.0091188  39.6763822  74.1786965
  69.3579167  40.2617902  73.7920979  70.8035550  40.2070016  74.2382003
  63.9346815  36.7652959  74.5774100  64.7077691  36.2181946  74.4386976
  64.2872214  37.6297208  74.7888561  66.2713092  32.9245625  72.2092550
  66.5238613  32.4027146  71.4476013  65.3337652  32.7611770  72.3119233
  71.4866453  37.3654253  74.7155950  70.8512286  37.4388880  75.4276854
  71.1563859  37.9547852  74.0375029  65.9909381  34.8273731  74.4116925
  65.8745639  34.1518634  75.0798009  66.1011641  34.3406105  73.5949078
  68.3340922  34.2883878  78.1163614  67.9699129  33.7614499  78.8276535
  69.1908038  33.8982347  77.9430099  67.9746409  29.3173778  73.1124962
  68.1420811  30.1854014  73.4795433  67.7843578  29.4801059  72.1886252
  64.1834224  34.2304553  80.8127497  63.2584720  34.0980767  81.0205189
  64.4318637  35.0098773  81.3097440  67.9535630  31.7731435  74.0971629
  67.8335255  32.2188486  74.9357110  67.2588218  32.1216753  73.5385167
  61.5443035  33.8737827  81.6471286  61.6735416  34.1272306  82.5610698
  60.8640486  34.4665535  81.3275941  65.7142522  44.5435077  77.7461760
  65.6366552  45.4942902  77.8250241  65.1104166  44.1980949  78.4036687
  73.6520696  32.2452908  74.9251963  74.5638552  32.4780295  74.7499661
  73.1430343  32.8289952  74.3627042  67.8118240  36.9653135  79.5815630
  68.2756586  37.2440838  78.7920252  67.5475038  36.0636579  79.3988721
  64.7042321  36.5124616  82.5195393  65.2743678  36.9411885  81.8812878
  65.2950433  36.2307201  83.2179579  66.7487126  33.0876287  76.3905195
  67.4511170  33.5397331  76.8579121  66.4167755  32.4460106  77.0185088
  60.4912460  31.3459840  81.6922329  59.7011514  31.6017368  81.2162439
  60.9823708  32.1608178  81.7974369  62.4427206  31.7104419  78.6505805
  61.6458369  31.8223113  79.1689301  62.2152798  32.0491071  77.7846696
  58.7750163  31.5990330  84.1237319  59.0258202  32.4837340  84.3894895
  59.3109712  31.4194932  83.3512411  67.9880891  39.9017230  76.4667300
  67.8526566  40.7468765  76.8952148  68.5290704  40.1036507  75.7033234
  61.4410288  37.4192668  77.0395225  61.9534809  38.2135918  77.1900790
  62.0933001  36.7218958  76.9728827  63.2505173  40.5358424  79.1217978
  63.4271801  41.4576389  78.9338962  64.0462007  40.2216843  79.5512358
  59.4059205  35.7481322  77.8154796  60.2434427  36.1578330  77.5988504
  59.5837473  34.8080764  77.7854990  71.3023637  33.4156403  73.5038629
  70.7870261  34.1861007  73.7427016  71.0300946  32.7421539  74.1271690
  68.8870748  28.2606104  78.5623867  68.0312345  27.8712954  78.3829506
  69.2997700  28.3398064  77.7023653  76.2757911  36.1688757  75.4391802
  75.4987354  35.8299917  74.9946964  76.9549392  36.1741381  74.7646767
  71.0909940  31.2883495  75.3298410  70.7860076  31.6029644  76.1808553
  72.0440383  31.3664915  75.3725743  69.5356372  37.4473718  76.9791364
  69.0077734  36.7126478  76.6664601  69.0343875  38.2248395  76.7331332
  64.2675100  28.1093384  79.3397975  64.8418852  27.8868566  78.6071168
  64.8546082  28.1782079  80.0926577  64.5944687  30.1397845  73.3593861
  63.7581999  30.4772532  73.6803135  64.4549457  30.0046825  72.4220998
  66.5697768  24.9834633  78.0673045  65.9162180  24.6683651  77.4429660
  66.5278242  24.3610374  78.7932868  67.6808973  35.2653928  69.9826337
  66.7736034  35.0343182  70.1817486  68.1780004  34.4691548  70.1700319
  70.5877051  43.9751436  72.9023023  69.9138750  44.2783132  73.5107981
  70.9742873  44.7780516  72.5528480  70.5870556  32.8707983  77.5223373
  71.3342375  33.3829380  77.2130495  70.8562145  32.5492035  78.3827766
  68.8597206  35.3666523  74.5050327  67.9508425  35.0825556  74.6022797
  68.8892290  35.7865602  73.6453634  74.0916473  38.9773113  78.2741495
  73.6378800  38.1364023  78.3306685  73.4610440  39.6134511  78.6116275
  72.5349413  40.8149609  79.2091313  72.8272387  41.3754667  78.4903678
  73.0448033  41.1078170  79.9644472  59.4285376  33.0872037  78.4865529
  59.2309776  32.4941398  77.7616596  58.8732040  32.7824248  79.2041468
  67.4082100  32.9795144  80.6060122  67.4630710  32.0268980  80.5302599
  66.5973302  33.1354583  81.0901421  68.5573294  36.9075267  71.8438406
  68.1192724  36.1911126  71.3844043  69.2983735  37.1351382  71.2823497
  65.3474460  31.5972204  78.3650501  64.5342325  31.8966374  78.7715693
  65.8433454  31.2027892  79.0824984  67.4983038  41.5929961  80.2984766
  67.4559217  41.8190807  79.3693298  68.4145737  41.3593335  80.4470567
  65.6148839  38.4692990  80.0946729  66.4089437  37.9743310  79.8929304
  64.9040531  37.9410853  79.7314434  61.9231602  32.6136071  76.1706481
  60.9929190  32.5520527  76.3876444  62.0189074  32.0912024  75.3743123
  61.8417151  29.1390884  78.7584723  62.1023968  30.0536217  78.6493884
  62.6634323  28.6715327  78.9081336  68.7868267  44.1431108  75.1170102
  68.9620022  43.6719151  75.9315725  68.1001055  44.7696874  75.3451363
  69.7425330  38.4203614  81.1633404  69.4075162  38.3804384  82.0591053
  69.2429275  37.7548330  80.6903814  72.6784521  35.7659649  71.4370463
  72.0613692  35.0406477  71.3403516  72.2101010  36.5269009  71.0937538
  64.4683067  29.9845073  70.5591768  63.5912534  29.8633874  70.1954014
  64.9440820  29.1931151  70.3070656  55.9885207  34.7722233  80.6533275
  56.6756247  34.4583963  80.0654290  55.8333336  35.6763597  80.3800526
  60.7919930  29.6612429  85.0818298  60.7078118  29.0538099  84.3468708
  59.9702636  30.1521448  85.0827795  67.6546993  42.3371363  77.8054288
  66.8714515  42.8793043  77.8992513  68.3539738  42.8545343  78.2048529
  72.0473424  36.9037680  78.0226917  71.1129703  37.0239142  77.8531621
  72.2250093  36.0010147  77.7586927  67.5478612  30.2883376  80.1760178
  67.1776400  29.7354416  80.8641084  68.0437705  29.6841509  79.6235178
  73.5022207  39.0898821  75.5563103  73.7782050  38.9755415  76.4656977
  72.6326705  38.6916305  75.5175276  70.1376271  43.3385171  79.1995917
  70.3198665  42.5206827  79.6623669  70.9609257  43.5552864  78.7620807
  70.4718436  42.2653357  76.4610965  71.0006203  41.7545811  75.8481127
  70.7346656  41.9495887  77.3256498  60.9735529  40.2817226  84.2046299
  61.5588966  39.5360914  84.3374203  60.7760367  40.5921183  85.0882963
  63.8274184  43.3168473  79.2208741  63.1584559  43.8014601  78.7372781
  63.6887054  43.5637694  80.1352120  55.5653184  32.8522826  82.9250742
  55.6037283  32.3186417  83.7187860  55.0593476  32.3258032  82.3061719
  59.1961761  31.5786928  76.0004673  59.4915202  30.6697607  75.9471727
  58.2949797  31.5574668  75.6785676  62.7256008  29.6542925  81.9832222
  62.0042594  30.2678892  81.8439695  63.5149264  30.1900690  81.9048868
  60.9249603  29.2601026  76.1243998  60.5962309  28.3798405  75.9419104
  61.2788973  29.2048695  77.0120388  70.1729182  40.8955929  80.6338984
  70.0254144  39.9672636  80.8146554  70.9982675  40.9176019  80.1496059
  64.0391426  29.5473996  76.4919476  64.3787498  30.0759917  75.7698084
  64.4863546  29.8854402  77.2678043  66.0259573  28.0448617  74.6912769
  66.7467935  28.4229870  74.1876486  65.4024877  28.7637494  74.7947747
  70.1690696  28.7493766  75.6271101  70.3854310  29.6318404  75.3259929
  69.6884763  28.3579980  74.8976743  64.9089917  31.7079479  82.2041846
  64.7634498  32.0219782  83.0966127  64.4315121  32.3264380  81.6512744
  73.5658620  42.2370155  77.0765948  73.7395497  41.6716577  76.3239801
  74.0587511  43.0371050  76.8945438  59.3835579  34.2484824  85.1429507
  58.8389048  35.0244632  85.2749781  60.2614929  34.5955628  84.9848628
  66.1723196  27.5796408  77.5210305  66.2939107  26.6513054  77.7201193
  65.8825238  27.5935094  76.6088621  74.5533792  41.5536919  74.1762846
  75.2484697  42.1743612  74.3950161  74.8956942  40.7032270  74.4515224
  60.1701601  33.3754720  88.0359664  59.4283337  33.5237355  88.6224294
  59.8494346  33.6362986  87.1726413  76.4525215  39.0036625  75.7050177
  76.9776539  39.3423897  74.9799497  76.3647568  38.0683640  75.5213312
  60.6158215  41.2620149  80.0670058  61.4416235  40.9623921  79.6868702
  60.2652267  40.4927771  80.5159847  65.5839748  40.6146617  82.1367732
  64.9619757  39.9517322  81.8369960  66.2544615  40.6407749  81.4541380
  58.8166820  39.1806475  81.0258992  57.9798728  38.7528650  80.8442993
  58.7890465  39.3738919  81.9629783  65.1453255  39.1650540  75.6126193
  65.2941375  39.8486005  74.9592865  65.9519698  39.1455630  76.1275648
  62.9005888  35.1915718  76.6187261  62.6551930  34.2878048  76.8167472
  63.0701803  35.1932868  75.6766739  62.1701536  30.9244076  74.1173423
  61.4770780  30.9988431  73.4613459  61.9253287  30.1604419  74.6394940
  68.6448661  41.6598671  73.0837940  68.0722628  42.2788858  72.6308412
  69.2181454  42.2098033  73.6177862  71.8645920  41.9435821  74.2146522
  72.7976594  41.8781383  74.4179398  71.7769133  42.7792088  73.7561055
  74.4933937  41.2601691  71.1750470  74.4147569  40.9261555  72.0686228
  75.3143604  41.7523459  71.1741942  69.0295459  32.9959484  70.4253992
  69.9754564  32.8665692  70.4942410  68.6509704  32.2574145  70.9023421
  67.2138376  30.9209460  70.3608878  66.3069832  30.6242573  70.4371591
  67.4914357  30.6239278  69.4943164  58.1316317  32.2415823  80.8107924
  57.8119101  31.3881132  80.5182298  57.5849745  32.4564402  81.5665891
  61.9096224  34.9578264  84.5277431  62.1282234  35.8895372  84.5465464
  62.3221998  34.5986239  85.3132234  65.9837161  27.7796395  70.5020857
  66.8456325  28.1051293  70.7616674  66.1687505  26.9927891  69.9893923
  58.0004577  35.8618735  82.7801046  57.3068048  35.4472688  82.2671000
  58.7477568  35.9039271  82.1834465  59.9141319  35.7936989  80.6567061
  59.8912007  35.8924676  79.7048944  60.2241956  36.6402139  80.9784227
  62.5728697  37.8513144  84.7713675  63.5271951  37.8197086  84.7043607
  62.3741221  37.3903767  85.5863901  60.9278926  43.3932763  81.7883873
  60.7933394  42.6333164  81.2221871  60.5110988  44.1173663  81.3212662
  72.0637889  38.5769687  70.7960448  72.7673739  38.7819689  71.4118104
  71.3400538  39.1446449  71.0609532  72.8935699  34.3279548  76.9162718
  72.8370900  34.7848099  76.0770351  73.4464042  33.5670233  76.7385561
  73.9724586  39.0152216  72.8458908  74.8070190  38.5833414  72.6636383
  73.8108929  38.8434230  73.7735803  73.6270478  35.5184329  74.2115247
  73.5719282  35.3528601  73.2703692  73.0016534  36.2260362  74.3677437
  58.4162993  30.7552394  88.0376670  59.0621857  30.2451348  88.5263895
  58.2080144  31.4921075  88.6120095  66.9366604  25.0192438  73.7900566
  66.9245274  25.9634278  73.9468837  67.8290026  24.8362584  73.4960027
  77.1106847  48.2537542  72.2092550  77.3632368  47.7319064  71.4476013
  76.1731406  48.0903688  72.3119233  78.8140164  44.6465695  73.1124962
  78.9814566  45.5145932  73.4795433  78.6237333  44.8092977  72.1886252
  75.4338442  45.4689763  73.3593861  74.5975754  45.8064450  73.6803135
  75.2943211  45.3338743  72.4220998  77.4091522  40.3126551  78.0673045
  76.7555934  39.9975568  77.4429660  77.3671996  39.6902291  78.7932868
  78.5202727  50.5945846  69.9826337  77.6129789  50.3635100  70.1817486
  79.0173759  49.7983465  70.1700319  72.7625357  47.9427989  76.1706481
  71.8322945  47.8812444  76.3876444  72.8582829  47.4203942  75.3743123
  75.3076822  45.3136991  70.5591768  74.4306288  45.1925791  70.1954014
  75.7834575  44.5223069  70.3070656  70.0355516  46.9078846  76.0004673
  70.3308957  45.9989524  75.9471727  69.1343551  46.8866585  75.6785676
  71.7643357  44.5892943  76.1243998  71.4356063  43.7090322  75.9419104
  72.1182728  44.5340612  77.0120388  76.8653327  43.3740535  74.6912769
  77.5861690  43.7521788  74.1876486  76.2418632  44.0929412  74.7947747
  77.0116951  42.9088325  77.5210305  77.1332862  41.9804972  77.7201193
  76.7218993  42.9227011  76.6088621  73.0095290  46.2535993  74.1173423
  72.3164535  46.3280348  73.4613459  72.7647042  45.4896337  74.6394940
  79.8689214  48.3251401  70.4253992  80.8148318  48.1957609  70.4942410
  79.4903459  47.5866063  70.9023421  78.0532131  46.2501378  70.3608878
  77.1463586  45.9534490  70.4371591  78.3308112  45.9531196  69.4943164
  76.8230915  43.1088313  70.5020857  77.6850079  43.4343211  70.7616674
  77.0081259  42.3219809  69.9893923  77.7760358  40.3484356  73.7900566
  77.7639028  41.2926196  73.9468837  78.6683780  40.1654501  73.4960027
  54.8748769   6.2205282  64.4707067  54.7972799   7.1713107  64.5495548
  54.2710412   5.8751154  65.1281993  53.5342735   3.7306803  71.8473627
  54.0850160   3.6023866  71.0750621  52.6954211   4.0301692  71.4968520
  59.7483298   5.6521641  59.6268330  59.0744997   5.9553337  60.2353288
  60.1349120   6.4550721  59.2773787  57.9474513   5.8201313  61.8415409
  58.1226269   5.3489356  62.6561032  57.2607301   6.4467079  62.0696670
  52.5135599   8.9690676  68.6155269  52.7532197   9.6009200  69.2934288
  51.6704795   8.6178716  68.9020628  57.0263460   4.7769798  71.0196773
  56.9533632   5.5824770  71.5316078  56.5840854   4.9761764  70.1944795
  56.8153240   4.0141568  64.5299595  56.0320762   4.5563248  64.6237819
  57.5145985   4.5315548  64.9293836  59.4862144   4.6756632  73.1754932
  60.1990116   5.3104097  73.1030833  58.9952173   4.7720498  72.3594934
  50.1341776   1.9587431  70.9291605  50.7195212   1.2131119  71.0619509
  49.9366614   2.2691387  71.8128269  52.9880431   4.9938678  65.9454048
  52.3190806   5.4784806  65.4618088  52.8493300   5.2407899  66.8597426
  57.1285699   7.0282422  72.5436706  57.6804007   7.1914043  73.3085791
  57.4691893   7.6186859  71.8716731  57.2972123   6.7478813  66.7890737
  56.8577113   6.2555192  67.4823594  58.0480240   6.2051781  66.5482812
  49.7764462   2.9390354  66.7915365  50.6022482   2.6394126  66.4114009
  49.4258514   2.1697976  67.2405154  47.9773067   0.8576680  67.7504299
  47.1404975   0.4298855  67.5688300  47.9496712   1.0509124  68.6875090
  50.0885173   5.0702968  68.5129179  49.9539640   4.3103369  67.9467177
  49.6717235   5.7943868  68.0457968  53.2454298   5.9672285  68.7247622
  53.1286683   6.9117718  68.6226312  52.4246745   5.6645847  69.1133421
  54.2708813   6.6200547  71.9403551  55.1736059   6.6524157  72.2570045
  54.0446183   5.6900998  71.9549886  56.0262415   5.3731534  68.6013629
  55.0758046   5.3733395  68.4878001  56.3294901   4.6264268  68.0849664
  64.4291630  13.0154976  65.5917807  63.8656495  12.9244913  64.8234095
  64.3144025  12.1954881  66.0720300  61.9756062  14.5106168  68.4302028
  62.7677354  14.1696993  68.0148327  62.2152712  14.6201143  69.3504181
  70.0091189  16.6825944  60.9032272  69.3579169  17.2680025  60.5166286
  70.8035552  17.2132139  60.9627310  63.9346816  13.7715081  61.3019406
  64.7077692  13.2244068  61.1632282  64.2872215  14.6359331  61.5133868
  66.2713094   9.9307747  58.9337856  66.5238614   9.4089269  58.1721319
  65.3337653   9.7673893  59.0364540  71.4866454  14.3716376  61.4401256
  70.8512287  14.4451003  62.1522161  71.1563860  14.9609975  60.7620336
  65.9909382  11.8335853  61.1362231  65.8745641  11.1580757  61.8043316
  66.1011642  11.3468227  60.3194384  68.3340923  11.2946000  64.8408921
  67.9699131  10.7676621  65.5521842  69.1908039  10.9044470  64.6675406
  64.1834225  11.2366676  67.5372804  63.2584722  11.1042890  67.7450496
  64.4318638  12.0160895  68.0342746  67.9535631   8.7793558  60.8216936
  67.8335256   9.2250608  61.6602416  67.2588220   9.1278875  60.2630474
  61.5443036  10.8799949  68.3716593  61.6735417  11.1334428  69.2856005
  60.8640487  11.4727657  68.0521248  65.7142523  21.5497199  64.4707067
  65.6366553  22.5005024  64.5495548  65.1104167  21.2043072  65.1281993
  67.8118242  13.9715257  66.3060937  68.2756587  14.2502960  65.5165559
  67.5475040  13.0698702  66.1234027  64.7042323  13.5186739  69.2440700
  65.2743680  13.9474007  68.6058184  65.2950435  13.2369324  69.9424885
  66.7487128  10.0938410  63.1150502  67.4511171  10.5459453  63.5824428
  66.4167756   9.4522229  63.7430395  60.4912462   8.3521962  68.4167635
  59.7011516   8.6079491  67.9407746  60.9823709   9.1670300  68.5219676
  62.4427207   8.7166542  65.3751112  61.6458370   8.8285236  65.8934608
  62.2152799   9.0553194  64.5092002  58.7750165   8.6052453  70.8482626
  59.0258203   9.4899463  71.1140202  59.3109713   8.4257054  70.0757718
  67.9880892  16.9079352  63.1912607  67.8526567  17.7530888  63.6197455
  68.5290705  17.1098630  62.4278541  61.4410290  14.4254790  63.7640532
  61.9534810  15.2198041  63.9146097  62.0933003  13.7281081  63.6974133
  63.2505174  17.5420547  65.8463285  63.4271803  18.4638511  65.6584269
  64.0462008  17.2278966  66.2757665  64.3736490  19.0598720  71.8473627
  64.9243915  18.9315784  71.0750621  63.5347966  19.3593609  71.4968520
  59.4059206  12.7543445  64.5400102  60.2434428  13.1640453  64.3233810
  59.5837474  11.8142887  64.5100296  71.3023639  10.4218525  60.2283935
  70.7870262  11.1923130  60.4672323  71.0300947   9.7483662  60.8516997
  76.2757913  13.1750880  62.1637109  75.4987355  12.8362039  61.7192271
  76.9549394  13.1803503  61.4892074  69.5356374  14.4535841  63.7036671
  69.0077735  13.7188600  63.3909908  69.0343876  15.2310517  63.4576639
  64.5944688   7.1459968  60.0839167  63.7582001   7.4834655  60.4048442
  64.4549458   7.0108948  59.1466304  67.6808974  12.2716051  56.7071644
  66.7736036  12.0405304  56.9062793  68.1780006  11.4753670  56.8945625
  70.5877053  20.9813558  59.6268330  69.9138751  21.2845255  60.2353288
  70.9742875  21.7842639  59.2773787  70.5870557   9.8770105  64.2468679
  71.3342376  10.3891502  63.9375801  70.8562147   9.5554158  65.1073073
  68.8597207  12.3728646  61.2295634  67.9508426  12.0887679  61.3268103
  68.8892291  12.7927724  60.3698941  74.0916475  15.9835235  64.9986801
  73.6378802  15.1426145  65.0551992  73.4610441  16.6196634  65.3361581
  72.5349414  17.8211732  65.9336619  72.8272388  18.3816789  65.2148985
  73.0448034  18.1140293  66.6889779  59.4285378  10.0934160  65.2110836
  59.2309777   9.5003521  64.4861902  58.8732042   9.7886370  65.9286775
  67.4082101   9.9857266  67.3305429  67.4630711   9.0331103  67.2547906
  66.5973303  10.1416706  67.8146727  68.5573295  13.9137390  58.5683712
  68.1192725  13.1973248  58.1089350  69.2983736  14.1413504  58.0068804
  65.3474461   8.6034326  65.0895808  64.5342327   8.9028497  65.4961000
  65.8433455   8.2090015  65.8070290  67.4983039  18.5992083  67.0230073
  67.4559218  18.8252929  66.0938605  68.4145738  18.3655458  67.1715874
  65.6148840  15.4755112  66.8192035  66.4089438  14.9805432  66.6174610
  64.9040532  14.9472975  66.4559741  70.4343684  17.8573208  71.1704403
  70.4880707  18.4264144  71.9382119  69.5658466  18.0275093  70.8058440
  61.9231603   9.6198194  62.8951788  60.9929191   9.5582649  63.1121750
  62.0189075   9.0974147  62.0988429  61.8417152   6.1453007  65.4830030
  62.1023970   7.0598340  65.3739190  62.6634325   5.6777449  65.6326643
  68.1920116  16.0484134  70.4989872  68.0531202  15.6802919  71.3715811
  67.4034712  16.5631774  70.3273830  68.7868268  21.1493231  61.8415409
  68.9620023  20.6781274  62.6561032  68.1001056  21.7758997  62.0696670
  69.7425331  15.4265737  67.8878710  69.4075164  15.3866507  68.7836360
  69.2429277  14.7610453  67.4149120  72.6784523  12.7721771  58.1615770
  72.0613693  12.0468599  58.0648823  72.2101011  13.5331131  57.8182844
  63.3529353  24.2982593  68.6155269  63.5925951  24.9301118  69.2934288
  62.5098550  23.9470633  68.9020628  55.9885209  11.7784355  67.3778581
  56.6756249  11.4646085  66.7899597  55.8333337  12.6825720  67.1045833
  60.7919931   6.6674552  71.8063605  60.7078120   6.0600221  71.0714015
  59.9702637   7.1583570  71.8073101  67.8657215  20.1061716  71.0196773
  67.7927386  20.9116687  71.5316078  67.4234608  20.3053682  70.1944795
  67.6546995  19.3433486  64.5299595  66.8714516  19.8855166  64.6237819
  68.3539740  19.8607466  64.9293836  70.3255898  20.0048550  73.1754932
  71.0383871  20.6396015  73.1030833  69.8345927  20.1012416  72.3594934
  72.0473425  13.9099803  64.7472223  71.1129704  14.0301265  64.5776928
  72.2250094  13.0072269  64.4832233  65.3767812  17.7542993  73.9960503
  66.0777271  18.3879476  74.1489897  64.9062927  18.0957725  73.2356142
  73.5022208  16.0960943  62.2808410  73.7782052  15.9817538  63.1902284
  72.6326707  15.6978428  62.2420583  70.1376272  20.3447294  65.9241223
  70.3198666  19.5268950  66.3868976  70.9609258  20.5614986  65.4866113
  70.4718437  19.2715479  63.1856272  71.0006204  18.7607934  62.5726434
  70.7346657  18.9558009  64.0501805  60.9735530  17.2879348  70.9291605
  61.5588967  16.5423036  71.0619509  60.7760369  17.5983305  71.8128269
  63.8274185  20.3230596  65.9454048  63.1584561  20.8076723  65.4618088
  63.6887055  20.5699816  66.8597426  55.5653185   9.8584949  69.6496048
  55.6037284   9.3248539  70.4433167  55.0593478   9.3320154  69.0307026
  67.9679454  22.3574339  72.5436706  68.5197762  22.5205961  73.3085791
  68.3085647  22.9478777  71.8716731  59.1961762   8.5849051  62.7249980
  59.4915203   7.6759729  62.6717034  58.2949798   8.5636790  62.4030982
  71.1047841  20.3056315  69.5300388  70.9798981  19.5046055  69.0211334
  71.7626932  20.8002508  69.0414358  62.7256009   6.6605047  68.7077528
  62.0042595   7.2741015  68.5685002  63.5149265   7.1962812  68.6294174
  60.9249604   6.2663148  62.8489305  60.5962310   5.3860527  62.6664411
  61.2788975   6.2110817  63.7365694  70.1729183  17.9018051  67.3584290
  70.0254145  16.9734759  67.5391861  70.9982676  17.9238142  66.8741366
  64.0391427   6.5536118  63.2164783  64.3787500   7.0822039  62.4943391
  64.4863548   6.8916524  63.9923349  73.7763305  18.7246610  68.4449163
  74.7009852  18.5189471  68.3073614  73.6078608  18.4763011  69.3538505
  64.9089919   8.7141602  68.9287152  64.7634499   9.0281905  69.8211434
  64.4315122   9.3326502  68.3758051  73.5658621  19.2432277  63.8011255
  73.7395498  18.6778700  63.0485107  74.0587512  20.0433172  63.6190745
  59.3835581  11.2546946  71.8674814  58.8389049  12.0306754  71.9995088
  60.2614931  11.6017751  71.7093935  74.5533793  18.5599042  60.9008153
  75.2484698  19.1805734  61.1195468  74.8956944  17.7094393  61.1760531
  60.1701603  10.3816843  74.7604970  59.4283339  10.5299478  75.3469601
  59.8494347  10.6425108  73.8971720  76.4525216  16.0098747  62.4295484
  76.9776541  16.3486020  61.7044804  76.3647569  15.0745763  62.2458618
  68.1365877  22.0770731  66.7890737  67.6970868  21.5847109  67.4823594
  68.8873994  21.5343698  66.5482812  60.6158216  18.2682271  66.7915365
  61.4416236  17.9686043  66.4114009  60.2652268  17.4989894  67.2405154
  65.5839749  17.6208740  68.8613039  64.9619759  16.9579445  68.5615266
  66.2544616  17.6469872  68.1786686  58.8166821  16.1868598  67.7504299
  57.9798730  15.7590772  67.5688300  58.7890467  16.3801041  68.6875090
  65.1453256  16.1712663  62.3371499  65.2941377  16.8548127  61.6838172
  65.9519700  16.1517753  62.8520955  62.9005889  12.1977841  63.3432568
  62.6551931  11.2940171  63.5412778  63.0701804  12.1994991  62.4012046
  62.1701537   7.9306198  60.8418730  61.4770782   8.0050553  60.1858765
  61.9253289   7.1666542  61.3640246  68.6448662  18.6660793  59.8083247
  68.0722629  19.2850981  59.3553718  69.2181455  19.2160155  60.3423169
  71.8645922  18.9497944  60.9391829  72.7976595  18.8843505  61.1424704
  71.7769134  19.7854210  60.4806362  74.4933938  18.2663814  57.8995776
  74.4147570  17.9323677  58.7931534  75.3143605  18.7585582  57.8987249
  69.0295460  10.0021606  57.1499299  69.9754565   9.8727814  57.2187717
  68.6509705   9.2636268  57.6268727  67.2138377   7.9271583  57.0854184
  66.3069833   7.6304695  57.1616898  67.4914358   7.6301401  56.2188471
  58.1316318   9.2477946  67.5353231  57.8119102   8.3943254  67.2427605
  57.5849746   9.4626524  68.2911198  61.9096225  11.9640387  71.2522737
  62.1282235  12.8957495  71.2710771  62.3221999  11.6048361  72.0377541
  58.0004578  12.8680857  69.5046352  57.3068049  12.4534810  68.9916307
  58.7477569  12.9101394  68.9079771  59.9141320  12.7999111  67.3812367
  59.8912008  12.8986798  66.4294250  60.2241957  13.6464262  67.7029533
  62.5728698  14.8575266  71.4958982  63.5271952  14.8259209  71.4288913
  62.3741222  14.3965890  72.3109207  63.1628080  13.4276382  74.0629779
  63.9820969  13.9220461  74.0864617  63.4364888  12.5108350  74.0347347
  60.9278927  20.3994886  68.5129179  60.7933395  19.6395287  67.9467177
  60.5110989  21.1235786  68.0457968  72.0637890  15.5831809  57.5205755
  72.7673740  15.7881812  58.1363410  71.3400539  16.1508571  57.7854838
  72.8935700  11.3341671  63.6408025  72.8370902  11.7910222  62.8015657
  73.4464043  10.5732355  63.4630868  64.0848053  21.2964203  68.7247622
  63.9680437  22.2409635  68.6226312  63.2640499  20.9937764  69.1133421
  73.9724587  16.0214338  59.5704215  74.8070191  15.5895537  59.3881690
  73.8108930  15.8496352  60.4981109  73.6270480  12.5246452  60.9360554
  73.5719283  12.3590723  59.9948998  73.0016535  13.2322485  61.0922744
  58.4162995   7.7614516  74.7621976  59.0621858   7.2513470  75.2509201
  58.2080146   8.4983198  75.3365402  65.1102567  21.9492465  71.9403551
  66.0129814  21.9816075  72.2570045  64.8839937  21.0192916  71.9549886
  66.8656169  20.7023451  68.6013629  65.9151800  20.7025313  68.4878001
  67.1688655  19.9556186  68.0849664  75.2685385  28.3446894  65.5917807
  74.7050250  28.2536831  64.8234095  75.1537780  27.5246799  66.0720300
  72.8149816  29.8398086  68.4302028  73.6071108  29.4988910  68.0148327
  73.0546467  29.9493061  69.3504181  80.8484943  32.0117862  60.9032272
  80.1972923  32.5971942  60.5166286  81.6429306  32.5424057  60.9627310
  74.7740570  29.1006999  61.3019406  75.5471446  28.5535986  61.1632282
  75.1265969  29.9651248  61.5133868  77.1106848  25.2599665  58.9337856
  77.3632369  24.7381186  58.1721319  76.1731407  25.0965811  59.0364540
  82.3260208  29.7008294  61.4401256  81.6906041  29.7742920  62.1522161
  81.9957615  30.2901893  60.7620336  76.8303137  27.1627771  61.1362231
  76.7139395  26.4872674  61.8043316  76.9405397  26.6760145  60.3194384
  79.1734678  26.6237918  64.8408921  78.8092885  26.0968539  65.5521842
  80.0301794  26.2336387  64.6675406  78.8140165  21.6527818  59.8370269
  78.9814567  22.5208054  60.2040740  78.6237334  21.8155100  58.9131558
  75.0227980  26.5658594  67.5372804  74.0978476  26.4334808  67.7450496
  75.2712393  27.3452813  68.0342746  78.7929386  24.1085475  60.8216936
  78.6729011  24.5542526  61.6602416  78.0981974  24.4570793  60.2630474
  72.3836791  26.2091867  68.3716593  72.5129172  26.4626346  69.2856005
  71.7034242  26.8019575  68.0521248  76.5536278  36.8789117  64.4707067
  76.4760308  37.8296942  64.5495548  75.9497921  36.5334990  65.1281993
  78.6511996  29.3007175  66.3060937  79.1150342  29.5794878  65.5165559
  78.3868794  28.3990620  66.1234027  75.5436077  28.8478657  69.2440700
  76.1137434  29.2765925  68.6058184  76.1344189  28.5661241  69.9424885
  77.5880882  25.4230327  63.1150502  78.2904925  25.8751371  63.5824428
  77.2561511  24.7814146  63.7430395  71.3306216  23.6813880  68.4167635
  70.5405270  23.9371409  67.9407746  71.8217463  24.4962218  68.5219676
  73.2820961  24.0458459  65.3751112  72.4852125  24.1577154  65.8934608
  73.0546554  24.3845112  64.5092002  69.6143919  23.9344371  70.8482626
  69.8651958  24.8191380  71.1140202  70.1503467  23.7548972  70.0757718
  78.8274647  32.2371270  63.1912607  78.6920322  33.0822806  63.6197455
  79.3684459  32.4390548  62.4278541  72.2804044  29.7546708  63.7640532
  72.7928565  30.5489958  63.9146097  72.9326757  29.0572999  63.6974133
  74.0898929  32.8712464  65.8463285  74.2665557  33.7930429  65.6584269
  74.8855762  32.5570884  66.2757665  75.2130244  34.3890638  71.8473627
  75.7637669  34.2607702  71.0750621  74.3741720  34.6885527  71.4968520
  70.2452961  28.0835362  64.5400102  71.0828183  28.4932371  64.3233810
  70.4231229  27.1434805  64.5100296  82.1417393  25.7510443  60.2283935
  81.6264016  26.5215048  60.4672323  81.8694702  25.0775579  60.8516997
  79.7264504  20.5960144  65.2869174  78.8706100  20.2066994  65.1074813
  80.1391456  20.6752105  64.4268959  81.9303696  23.6237535  62.0543717
  81.6253832  23.9383684  62.9053860  82.8834138  23.7018955  62.0971050
  80.3750128  29.7827758  63.7036671  79.8471490  29.0480518  63.3909908
  79.8737631  30.5602435  63.4576639  75.1068856  20.4447425  66.0643282
  75.6812608  20.2222606  65.3316475  75.6939838  20.5136119  66.8171883
  75.4338443  22.4751886  60.0839167  74.5975755  22.8126572  60.4048442
  75.2943212  22.3400866  59.1466304  77.4091523  17.3188674  64.7918352
  76.7555936  17.0037691  64.1674966  77.3671998  16.6964414  65.5178174
  78.5202728  27.6007969  56.7071644  77.6129790  27.3697222  56.9062793
  79.0173760  26.8045588  56.8945625  81.4270807  36.3105476  59.6268330
  80.7532506  36.6137173  60.2353288  81.8136629  37.1134556  59.2773787
  81.4264312  25.2062023  64.2468679  82.1736130  25.7183420  63.9375801
  81.6955901  24.8846076  65.1073073  79.6990962  27.7020564  61.2295634
  78.7902181  27.4179596  61.3268103  79.7286046  28.1219642  60.3698941
  70.2679132  25.4226078  65.2110836  70.0703532  24.8295438  64.4861902
  69.7125796  25.1178288  65.9286775  78.2475856  25.3149184  67.3305429
  78.3024466  24.3623021  67.2547906  77.4367058  25.4708623  67.8146727
  79.3967050  29.2429307  58.5683712  78.9586479  28.5265166  58.1089350
  80.1377490  29.4705422  58.0068804  76.1868216  23.9326244  65.0895808
  75.3736081  24.2320414  65.4961000  76.6827210  23.5381933  65.8070290
  78.3376794  33.9284001  67.0230073  78.2952972  34.1544847  66.0938605
  79.2539492  33.6947375  67.1715874  76.4542594  30.8047030  66.8192035
  77.2483193  30.3097350  66.6174610  75.7434287  30.2764893  66.4559741
  81.2737439  33.1865125  71.1704403  81.3274461  33.7556062  71.9382119
  80.4052220  33.3567010  70.8058440  72.7625358  24.9490112  62.8951788
  71.8322946  24.8874567  63.1121750  72.8582830  24.4266064  62.0988429
  72.6810907  21.4744924  65.4830030  72.9417724  22.3890258  65.3739190
  73.5028079  21.0069367  65.6326643  79.0313870  31.3776052  70.4989872
  78.8924956  31.0094836  71.3715811  78.2428467  31.8923691  70.3273830
  79.6262022  36.4785148  61.8415409  79.8013778  36.0073192  62.6561032
  78.9394810  37.1050915  62.0696670  80.5819085  30.7557655  67.8878710
  80.2468918  30.7158425  68.7836360  80.0823031  30.0902370  67.4149120
  74.1923108  39.6274511  68.6155269  74.4319706  40.2593035  69.2934288
  73.3492304  39.2762551  68.9020628  75.3076823  22.3199113  57.2837074
  74.4306289  22.1987914  56.9199321  75.7834576  21.5285191  57.0315963
  66.8278963  27.1076273  67.3778581  67.5150003  26.7938003  66.7899597
  66.6727092  28.0117638  67.1045833  71.6313685  21.9966469  71.8063605
  71.5471874  21.3892139  71.0714015  70.8096392  22.4875488  71.8073101
  78.7050969  35.4353634  71.0196773  78.6321141  36.2408605  71.5316078
  78.2628363  35.6345599  70.1944795  78.4940749  34.6725404  64.5299595
  77.7108271  35.2147084  64.6237819  79.1933494  35.1899383  64.9293836
  81.1649653  35.3340468  73.1754932  81.8777625  35.9687932  73.1030833
  80.6739682  35.4304334  72.3594934  82.8867180  29.2391720  64.7472223
  81.9523459  29.3593183  64.5776928  83.0643848  28.3364187  64.4832233
  78.3872368  22.6237416  66.9005485  78.0170155  22.0708456  67.5886390
  78.8831460  22.0195549  66.3480485  76.2161566  33.0834911  73.9960503
  76.9171026  33.7171394  74.1489897  75.7456681  33.4249643  73.2356142
  80.9770026  35.6739212  65.9241223  81.1592421  34.8560868  66.3868976
  81.8003012  35.8906904  65.4866113  81.3112192  34.6007397  63.1856272
  81.8399958  34.0899851  62.5726434  81.5740411  34.2849927  64.0501805
  71.8129285  32.6171266  70.9291605  72.3982721  31.8714954  71.0619509
  71.6154123  32.9275223  71.8128269  74.6667940  35.6522513  65.9454048
  73.9978315  36.1368641  65.4618088  74.5280809  35.8991734  66.8597426
  66.4046939  25.1876866  69.6496048  66.4431039  24.6540457  70.4433167
  65.8987232  24.6612072  69.0307026  78.8073208  37.6866257  72.5436706
  79.3591516  37.8497878  73.3085791  79.1479402  38.2770695  71.8716731
  70.0355517  23.9140968  62.7249980  70.3308958  23.0051647  62.6717034
  69.1343553  23.8928708  62.4030982  81.9441596  35.6348233  69.5300388
  81.8192735  34.8337972  69.0211334  82.6020687  36.1294426  69.0414358
  73.5649764  21.9896965  68.7077528  72.8436350  22.6032933  68.5685002
  74.3543020  22.5254730  68.6294174  71.7643358  21.5955066  62.8489305
  71.4356065  20.7152445  62.6664411  72.1182729  21.5402735  63.7365694
  81.0122937  33.2309969  67.3584290  80.8647900  32.3026676  67.5391861
  81.8376431  33.2530060  66.8741366  74.8785182  21.8828036  63.2164783
  75.2181254  22.4113957  62.4943391  75.3257302  22.2208442  63.9923349
  76.8653329  20.3802657  61.4158075  77.5861691  20.7583910  60.9121792
  76.2418633  21.0991534  61.5193053  81.0084452  21.0847806  62.3516408
  81.2248066  21.9672444  62.0505236  80.5278519  20.6934020  61.6222050
  75.7483673  24.0433520  68.9287152  75.6028254  24.3573823  69.8211434
  75.2708877  24.6618420  68.3758051  70.2229335  26.5838864  71.8674814
  69.6782803  27.3598672  71.9995088  71.1008685  26.9309669  71.7093935
  77.0116952  19.9150448  64.2455612  77.1332863  18.9867094  64.4446500
  76.7218994  19.9289134  63.3333927  71.0095357  25.7108760  74.7604970
  70.2677093  25.8591396  75.3469601  70.6888101  25.9717026  73.8971720
  78.9759632  37.4062648  66.7890737  78.5364622  36.9139027  67.4823594
  79.7267749  36.8635616  66.5482812  71.4551971  33.5974189  66.7915365
  72.2809991  33.2977961  66.4114009  71.1046023  32.8281812  67.2405154
  76.4233504  32.9500657  68.8613039  75.8013513  32.2871362  68.5615266
  77.0938371  32.9761789  68.1786686  69.6560576  31.5160516  67.7504299
  68.8192484  31.0882690  67.5688300  69.6284221  31.7092959  68.6875090
  75.9847011  31.5004581  62.3371499  76.1335131  32.1840045  61.6838172
  76.7913454  31.4809671  62.8520955  73.7399644  27.5269758  63.3432568
  73.4945686  26.6232088  63.5412778  73.9095558  27.5286909  62.4012046
  73.0095291  23.2598116  60.8418730  72.3164536  23.3342471  60.1858765
  72.7647043  22.4958459  61.3640246  79.4842416  33.9952711  59.8083247
  78.9116383  34.6142898  59.3553718  80.0575210  34.5452073  60.3423169
  79.8689215  25.3313524  57.1499299  80.8148320  25.2019732  57.2187717
  79.4903460  24.5928186  57.6268727  78.0532132  23.2563500  57.0854184
  77.1463587  22.9596613  57.1616898  78.3308113  22.9593318  56.2188471
  68.9710072  24.5769864  67.5353231  68.6512857  23.7235172  67.2427605
  68.4243501  24.7918442  68.2911198  72.7489980  27.2932305  71.2522737
  72.9675990  28.2249412  71.2710771  73.1615754  26.9340279  72.0377541
  76.8230917  20.1150435  57.2266163  77.6850081  20.4405334  57.4861981
  77.0081261  19.3281931  56.7139229  68.8398332  28.1972775  69.5046352
  68.1461804  27.7826728  68.9916307  69.5871323  28.2393312  68.9079771
  70.7535075  28.1291029  67.3812367  70.7305763  28.2278716  66.4294250
  71.0635711  28.9756180  67.7029533  73.4122453  30.1867184  71.4958982
  74.3665706  30.1551126  71.4288913  73.2134976  29.7257808  72.3109207
  74.0021835  28.7568300  74.0629779  74.8214724  29.2512379  74.0864617
  74.2758643  27.8400268  74.0347347  71.7672682  35.7286803  68.5129179
  71.6327149  34.9687204  67.9467177  71.3504744  36.4527703  68.0457968
  74.9241807  36.6256120  68.7247622  74.8074192  37.5701553  68.6226312
  74.1034254  36.3229682  69.1133421  69.2556749  23.0906434  74.7621976
  69.9015613  22.5805388  75.2509201  69.0473900  23.8275115  75.3365402
  77.7760360  17.3546478  60.5145872  77.7639029  18.2988318  60.6714143
  78.6683781  17.1716624  60.2205334  75.9496322  37.2784382  71.9403551
  76.8523568  37.3107993  72.2570045  75.7233692  36.3484833  71.9549886
  77.7049924  36.0315369  68.6013629  76.7545555  36.0317230  68.4878001
  78.0082410  35.2848103  68.0849664  82.1699971  39.0105798  68.4167635
  81.3799025  39.2663326  67.9407746  82.6611218  39.8254136  68.5219676
  80.4537674  39.2636288  70.8482626  80.7045712  40.1483298  71.1140202
  80.9897222  39.0840890  70.0757718  81.0846715  43.4127280  64.5400102
  81.9221937  43.8224288  64.3233810  81.2624983  42.4726722  64.5100296
  81.1072887  40.7517995  65.2110836  80.9097286  40.1587356  64.4861902
  80.5519551  40.4470206  65.9286775  77.6672718  42.4368191  67.3778581
  78.3543757  42.1229921  66.7899597  77.5120846  43.3409555  67.1045833
  82.4707440  37.3258387  71.8063605  82.3865629  36.7184057  71.0714015
  81.6490146  37.8167405  71.8073101  77.2440694  40.5168784  69.6496048
  77.2824793  39.9832375  70.4433167  76.7380987  39.9903989  69.0307026
  80.8749271  39.2432886  62.7249980  81.1702712  38.3343565  62.6717034
  79.9737307  39.2220626  62.4030982  82.6037113  36.9246984  62.8489305
  82.2749819  36.0444363  62.6664411  82.9576484  36.8694652  63.7365694
  81.0623090  41.9130782  71.8674814  80.5176558  42.6890590  71.9995088
  81.9402440  42.2601586  71.7093935  81.8489112  41.0400678  74.7604970
  81.1070848  41.1883313  75.3469601  81.5281856  41.3008944  73.8971720
  82.2945725  48.9266107  66.7915365  83.1203745  48.6269879  66.4114009
  81.9439777  48.1573729  67.2405154  80.4954330  46.8452433  67.7504299
  79.6586239  46.4174608  67.5688300  80.4677976  47.0384877  68.6875090
  79.8103827  39.9061781  67.5353231  79.4906611  39.0527090  67.2427605
  79.2637255  40.1210359  68.2911198  79.6792087  43.5264693  69.5046352
  78.9855558  43.1118646  68.9916307  80.4265078  43.5685229  68.9079771
  81.5928829  43.4582947  67.3812367  81.5699517  43.5570634  66.4294250
  81.9029466  44.3048097  67.7029533  82.6066436  51.0578721  68.5129179
  82.4720904  50.2979122  67.9467177  82.1898498  51.7819621  68.0457968
  80.0950504  38.4198352  74.7621976  80.7409367  37.9097305  75.2509201
  79.8867655  39.1567033  75.3365402  76.5536279  13.8851240  51.1952374
  76.4760309  14.8359065  51.2740854  75.9497923  13.5397112  51.8527300
  75.2130246  11.3952761  58.5718934  75.7637671  11.2669824  57.7995928
  74.3741721  11.6947650  58.2213827  81.4270808  13.3167598  46.3513636
  80.7532507  13.6199295  46.9598594  81.8136630  14.1196679  46.0019093
  79.6262024  13.4847271  48.5660716  79.8013779  13.0135314  49.3806338
  78.9394812  14.1113037  48.7941976  74.1923109  16.6336634  55.3400576
  74.4319707  17.2655158  56.0179594  73.3492305  16.2824674  55.6265935
  78.7050971  12.4415756  57.7442080  78.6321142  13.2470728  58.2561384
  78.2628364  12.6407722  56.9190101  78.4940750  11.6787526  51.2544901
  77.7108272  12.2209206  51.3483126  79.1933495  12.1961506  51.6539142
  81.1649654  12.3402590  59.9000238  81.8777626  12.9750055  59.8276140
  80.6739683  12.4366456  59.0840240  71.8129286   9.6233389  57.6536912
  72.3982723   8.8777077  57.7864816  71.6154124   9.9337345  58.5373576
  74.6667941  12.6584636  52.6699354  73.9978316  13.1430764  52.1863394
  74.5280811  12.9053857  53.5842733  78.8073210  14.6928380  59.2682013
  79.3591518  14.8560001  60.0331098  79.1479403  15.2832817  58.5962038
  78.9759633  14.4124771  53.5136044  78.5364623  13.9201149  54.2068900
  79.7267750  13.8697738  53.2728119  71.4551972  10.6036312  53.5160672
  72.2809992  10.3040084  53.1359315  71.1046024   9.8343934  53.9650460
  69.6560577   8.5222638  54.4749605  68.8192485   8.0944812  54.2933606
  69.6284222   8.7155081  55.4120396  71.7672683  12.7348926  55.2374486
  71.6327151  11.9749327  54.6712484  71.3504745  13.4589826  54.7703275
  74.9241809  13.6318243  55.4492929  74.8074193  14.5763676  55.3471619
  74.1034255  13.3291805  55.8378728  75.9496323  14.2846505  58.6648857
  76.8523570  14.3170115  58.9815352  75.7233693  13.3546956  58.6795193
  77.7049925  13.0377491  55.3258936  76.7545556  13.0379353  55.2123308
  78.0082411  12.2910226  54.8094970  82.1699972  16.0167920  55.1412942
  81.3799026  16.2725449  54.6653052  82.6611219  16.8316258  55.2464982
  80.4537675  16.2698411  57.5727933  80.7045713  17.1545421  57.8385509
  80.9897223  16.0903012  56.8003024  81.0846717  20.4189403  51.2645409
  81.9221939  20.8286411  51.0479117  81.2624984  19.4788845  51.2345603
  81.1072888  17.7580118  51.9356143  80.9097288  17.1649479  51.2107209
  80.5519552  17.4532328  52.6532081  77.6672719  19.4430313  54.1023888
  78.3543759  19.1292043  53.5144903  77.5120848  20.3471678  53.8291139
  82.4707441  14.3320510  58.5308912  82.3865630  13.7246179  57.7959322
  81.6490147  14.8229528  58.5318408  77.2440695  17.5230907  56.3741355
  77.2824795  16.9894497  57.1678473  76.7380988  16.9966112  55.7552332
  80.8749273  16.2495009  49.4495286  81.1702714  15.3405687  49.3962340
  79.9737308  16.2282748  49.1276289  82.6037114  13.9309106  49.5734612
  82.2749820  13.0506485  49.3909718  82.9576485  13.8756775  50.4611001
  81.0623091  18.9192904  58.5920120  80.5176559  19.6952712  58.7240394
  81.9402441  19.2663709  58.4339242  81.8489113  18.0462801  61.4850277
  81.1070849  18.1945436  62.0714907  81.5281857  18.3071066  60.6217026
  82.2945726  25.9328229  53.5160672  83.1203746  25.6332001  53.1359315
  81.9439778  25.1635852  53.9650460  80.4954332  23.8514556  54.4749605
  79.6586240  23.4236730  54.2933606  80.4677977  24.0446999  55.4120396
  79.8103828  16.9123904  54.2598537  79.4906612  16.0589212  53.9672911
  79.2637256  17.1272482  55.0156505  79.6792088  20.5326815  56.2291659
  78.9855560  20.1180768  55.7161613  80.4265079  20.5747352  55.6325078
  81.5928831  20.4645069  54.1057674  81.5699519  20.5632756  53.1539557
  81.9029467  21.3110220  54.4274840  82.6066437  28.0640844  55.2374486
  82.4720905  27.3041245  54.6712484  82.1898500  28.7881744  54.7703275
  80.0950505  15.4260474  61.4867283  80.7409368  14.9159428  61.9754508
  79.8867656  16.1629156  62.0610708  26.6516168  47.3409781  87.4541656
  26.0004148  47.9263862  87.0675670  27.4460531  47.8715976  87.5136693
  32.9182892  43.8334717  88.7146493  32.1412335  43.4945877  88.2701655
  33.5974373  43.8387340  88.0401458  24.3233953  42.9299888  83.2581027
  23.4161015  42.6989142  83.4572176  24.8204985  42.1337507  83.4455009
  27.2302032  51.6397395  86.1777713  26.5563731  51.9429092  86.7862671
  27.6167854  52.4426476  85.8283170  25.1998275  44.5721227  85.1193096
  24.7617704  43.8557086  84.6598733  25.9408715  44.7997342  84.5578187
  25.4293247  51.8077068  88.3924793  25.6045003  51.3365111  89.2070415
  24.7426035  52.4342834  88.6206053  29.3209502  43.4305608  84.7125154
  28.7038673  42.7052437  84.6158206  28.8525991  44.1914969  84.3692228
  30.1447187  46.7544780  88.8317793  30.4207031  46.6401375  89.7411667
  29.2751686  46.3562265  88.7929966  27.1143417  49.9299316  89.7365655
  27.6431183  49.4191771  89.1235817  27.3771636  49.6141846  90.6011188
  30.2083600  49.9016114  90.3520638  30.3820478  49.3362537  89.5994491
  30.7012492  50.7017009  90.1700128  31.1958773  49.2182879  87.4517537
  31.8909678  49.8389572  87.6704851  31.5381923  48.3678230  87.7269915
  33.0950196  46.6682584  88.9804867  33.6201520  47.0069857  88.2554187
  33.0072549  45.7329600  88.7968002  25.2873641  49.3244631  86.3592630
  24.7147608  49.9434818  85.9063102  25.8606435  49.8743992  86.8932552
  28.5070901  49.6081781  87.4901212  29.4401574  49.5427342  87.6934088
  28.4194114  50.4438048  87.0315745  31.1358918  48.9247651  84.4505160
  31.0572549  48.5907515  85.3440918  31.9568585  49.4169419  84.4496632
  25.6720440  40.6605443  83.7008683  26.6179545  40.5311651  83.7697101
  25.2934685  39.9220105  84.1778111  28.7062870  46.2415646  84.0715138
  29.4098720  46.4465649  84.6872794  27.9825518  46.8092408  84.3364222
  30.6149567  46.6798176  86.1213598  31.4495171  46.2479374  85.9391073
  30.4533910  46.5080189  87.0490493  30.2695459  43.1830289  87.4869938
  30.2144263  43.0174560  86.5458382  29.6441514  43.8906322  87.6432127
  33.7531828  55.9183502  85.4847240  34.0057348  55.3965023  84.7230703
  32.8156387  55.7549648  85.5873924  35.4565144  52.3111655  86.3879653
  35.6239547  53.1791891  86.7550124  35.2662313  52.4738937  85.4640942
  32.0763422  53.1335723  86.6348551  31.2400735  53.4710409  86.9557826
  31.9368192  52.9984703  85.6975688  34.0516503  47.9772511  91.3427735
  33.3980915  47.6621528  90.7184350  34.0096977  47.3548251  92.0687558
  35.1627708  58.2591806  83.2581027  34.2554770  58.0281059  83.4572176
  35.6598740  57.4629425  83.4455009  29.4050337  55.6073949  89.4461172
  28.4747925  55.5458404  89.6631134  29.5007809  55.0849901  88.6497813
  31.9501803  52.9782950  83.8346458  31.0731269  52.8571751  83.4708704
  32.4259556  52.1869029  83.5825346  26.6780496  54.5724806  89.2759363
  26.9733937  53.6635484  89.2226417  25.7768532  54.5512545  88.9540366
  28.4068338  52.2538903  89.3998689  28.0781044  51.3736282  89.2173795
  28.7607709  52.1986572  90.2875078  33.5078308  51.0386495  87.9667459
  34.2286671  51.4167747  87.4631176  32.8843612  51.7575371  88.0702437
  33.6541931  50.5734285  90.7964996  33.7757843  49.6450931  90.9955883
  33.3643974  50.5872971  89.8843311  29.6520271  53.9181953  87.3928113
  28.9589516  53.9926308  86.7368149  29.4072023  53.1542297  87.9149630
  36.5114194  55.9897361  83.7008683  37.4573299  55.8603569  83.7697101
  36.1328439  55.2512023  84.1778111  34.6957111  53.9147337  83.6363568
  33.7888567  53.6180450  83.7126282  34.9733093  53.6177155  82.7697854
  36.3119177  48.4584227  89.7907809  35.5019906  48.1131312  90.1663055
  37.0003594  48.1491771  90.3795421  33.4655896  50.7734273  83.7775547
  34.3275060  51.0989171  84.0371364  33.6506240  49.9865768  83.2648613
  34.4185339  48.0130316  87.0655256  34.4064009  48.9572156  87.2223527
  35.3108761  47.8300461  86.7714717  38.2337459  44.6073092  91.3201193
  37.4669854  44.0531579  91.4657875  38.6448164  44.6794961  92.1815345
  26.6516170  24.3471904  74.1786962  26.0004149  24.9325984  73.7920976
  27.4460532  24.8778099  74.2382000  32.9182893  20.8396840  75.4391799
  32.1412336  20.5007999  74.9946961  33.5974374  20.8449463  74.7646764
  24.3233955  19.9362011  69.9826334  23.4161016  19.7051264  70.1817483
  24.8204987  19.1399630  70.1700315  27.2302033  28.6459518  72.9023020
  26.5563732  28.9491215  73.5107978  27.6167855  29.4488598  72.5528477
  25.1998276  21.5783349  71.8438403  24.7617706  20.8619208  71.3844040
  25.9408717  21.8059464  71.2823494  25.4293249  28.8139190  75.1170099
  25.6045004  28.3427234  75.9315722  24.7426037  29.4404957  75.3451360
  29.3209503  20.4367731  71.4370460  28.7038674  19.7114559  71.3403513
  28.8525992  21.1977091  71.0937534  30.1447189  23.7606903  75.5563100
  30.4207033  23.6463497  76.4656974  29.2751687  23.3624388  75.5175273
  27.1143418  26.9361439  76.4610962  27.6431185  26.4253893  75.8481124
  27.3771638  26.6203969  77.3256495  30.2083602  26.9078237  77.0765945
  30.3820479  26.3424660  76.3239797  30.7012493  27.7079132  76.8945435
  31.1958774  26.2245001  74.1762843  31.8909679  26.8451694  74.3950158
  31.5381924  25.3740353  74.4515221  33.0950197  23.6744707  75.7050174
  33.6201521  24.0131980  74.9799494  33.0072550  22.7391722  75.5213309
  25.2873643  26.3306753  73.0837937  24.7147610  26.9496940  72.6308409
  25.8606436  26.8806115  73.6177859  28.5070902  26.6143903  74.2146519
  29.4401576  26.5489465  74.4179395  28.4194115  27.4500170  73.7561052
  31.1358919  25.9309774  71.1750467  31.0572551  25.5969637  72.0686225
  31.9568586  26.4231542  71.1741939  25.6720441  17.6667566  70.4253989
  26.6179546  17.5373774  70.4942407  25.2934686  16.9282228  70.9023418
  28.7062871  23.2477769  70.7960445  29.4098721  23.4527772  71.4118101
  27.9825520  23.8154531  71.0609529  30.6149568  23.6860298  72.8458905
  31.4495172  23.2541497  72.6636380  30.4533911  23.5142312  73.7735800
  30.2695460  20.1892412  74.2115244  30.2144264  20.0236683  73.2703688
  29.6441516  20.8968444  74.3677434  39.2433843  34.2029949  82.9414082
  39.8812253  34.0836697  82.2377422  39.1254686  35.1510793  83.0002034
  36.0523550  34.1557377  82.8775607  35.7142061  34.0398442  81.9896141
  36.9213318  33.7548543  82.8576613  31.9110365  36.0092854  78.8672497
  31.3475230  35.9182791  78.0988785  31.7962760  35.1892758  79.3474990
  29.4574797  37.5044045  81.7056718  30.2496089  37.1634870  81.2903017
  29.6971447  37.6139020  82.6258871  37.4909924  39.6763822  74.1786962
  36.8397904  40.2617902  73.7920976  38.2854287  40.2070016  74.2382000
  31.4165551  36.7652959  74.5774097  32.1896427  36.2181946  74.4386973
  31.7690950  37.6297208  74.7888558  34.1806801  35.4706189  84.3742356
  34.7770373  35.2462212  83.6599319  34.2381772  34.7290935  84.9767804
  33.7531829  32.9245625  72.2092547  34.0057350  32.4027146  71.4476010
  32.8156388  32.7611770  72.3119230  38.7975112  31.9281403  80.0167290
  39.5838201  31.5100826  79.6657707  39.0613816  32.8327495  80.1848938
  38.9685189  37.3654253  74.7155947  38.3331022  37.4388880  75.4276851
  38.6382596  37.9547852  74.0375026  44.1983539  31.8656636  80.9200268
  44.9308711  31.2955853  81.1538098  43.4422895  31.4778237  81.3606774
  33.4728118  34.8273731  74.4116922  33.3564376  34.1518634  75.0798006
  33.5830378  34.3406105  73.5949075  35.8159659  34.2883878  78.1163611
  35.4517866  33.7614499  78.8276532  36.6726775  33.8982347  77.9430096
  35.4565146  29.3173778  73.1124959  35.6239548  30.1854014  73.4795430
  35.2662315  29.4801059  72.1886249  38.2140479  37.7790756  84.7790790
  37.9141202  38.6815795  84.6706597  37.8691538  37.5122940  85.6311943
  31.6652960  34.2304553  80.8127494  30.7403457  34.0980767  81.0205186
  31.9137374  35.0098773  81.3097437  41.6137623  30.2973297  82.4588227
  40.7054500  30.2288705  82.1646988  41.5625218  30.7745242  83.2870053
  35.4354367  31.7731435  74.0971626  35.3153992  32.2188486  74.9357106
  34.7406955  32.1216753  73.5385164  29.0261771  33.8737827  81.6471283
  29.1554153  34.1272306  82.5610695  28.3459223  34.4665535  81.3275938
  33.1961259  44.5435077  77.7461757  33.1185288  45.4942902  77.8250238
  32.5922902  44.1980949  78.4036684  43.4799269  28.4989735  84.2366101
  42.8373649  28.7922268  83.5905896  42.9754198  28.3842655  85.0419298
  41.1339433  32.2452908  74.9251960  42.0457289  32.4780295  74.7499658
  40.6249080  32.8289952  74.3627039  39.7409015  37.2278727  82.3165542
  39.1117877  37.3924441  81.6141610  39.3534677  37.6420336  83.0876506
  43.6198247  38.1633165  79.6709905  42.9349285  38.5432066  79.1206939
  43.7042096  38.7728491  80.4041853  40.8749179  35.8093124  86.2705249
  41.0866074  36.4524883  85.5939630  40.8278927  34.9755440  85.8027179
  35.2936977  36.9653135  79.5815627  35.7575322  37.2440838  78.7920249
  35.0293775  36.0636579  79.3988717  32.1861058  36.5124616  82.5195390
  32.7562415  36.9411885  81.8812875  32.7769170  36.2307201  83.2179576
  34.2305863  33.0876287  76.3905192  34.9329906  33.5397331  76.8579118
  33.8986491  32.4460106  77.0185085  41.9895006  38.6865079  84.4427606
  42.8112450  38.2845266  84.1610288  41.9857409  38.5833313  85.3943722
  29.9245942  31.7104419  78.6505802  29.1277106  31.8223113  79.1689298
  29.6971534  32.0491071  77.7846693  35.7551610  38.2349122  86.5988317
  35.8196042  38.6969530  87.4346489  35.0462534  37.6046487  86.7270627
  50.0801000  35.0303827  80.7912578  49.3264708  34.4611226  80.6356582
  50.2148541  34.9966492  81.7383212  35.4699628  39.9017230  76.4667297
  35.3345302  40.7468765  76.8952145  36.0109440  40.1036507  75.7033231
  28.9229025  37.4192668  77.0395222  29.4353546  38.2135918  77.1900787
  29.5751738  36.7218958  76.9728824  30.7323910  40.5358424  79.1217975
  30.9090538  41.4576389  78.9338959  31.5280743  40.2216843  79.5512355
  31.8555225  42.0536598  85.1228318  32.4062650  41.9253661  84.3505312
  31.0166701  42.3531487  84.7723211  39.1949342  40.8043596  88.6249040
  39.1767817  41.6252477  88.1329310  40.1169262  40.6797671  88.8499182
  26.8877942  35.7481322  77.8154793  27.7253164  36.1578330  77.5988500
  27.0656209  34.8080764  77.7854987  38.7842374  33.4156403  73.5038626
  38.2688997  34.1861007  73.7427013  38.5119682  32.7421539  74.1271687
  36.3689485  28.2606104  78.5623864  35.5131081  27.8712954  78.3829503
  36.7816437  28.3398064  77.7023650  43.7576648  36.1688757  75.4391799
  42.9806091  35.8299917  74.9946961  44.4368129  36.1741381  74.7646764
  38.5728677  31.2883495  75.3298407  38.2678813  31.6029644  76.1808550
  39.5259119  31.3664915  75.3725740  37.0175109  37.4473718  76.9791361
  36.4896470  36.7126478  76.6664598  36.5162612  38.2248395  76.7331329
  41.9967955  35.6422739  82.0958407  41.3391629  36.3322000  82.1838536
  42.8008354  36.0319171  82.4392394  31.7493836  28.1093384  79.3397972
  32.3237588  27.8868566  78.6071165  32.3364819  28.1782079  80.0926574
  40.8073414  33.9967111  80.1462349  41.3205295  34.6297103  80.6484059
  41.4574638  33.3968307  79.7805709  32.0763424  30.1397845  73.3593858
  31.2400736  30.4772532  73.6803132  31.9368193  30.0046825  72.4220995
  34.0516504  24.9834633  78.0673042  33.3980917  24.6683651  77.4429657
  34.0096978  24.3610374  78.7932865  35.1627709  35.2653928  69.9826334
  34.2554771  35.0343182  70.1817483  35.6598741  34.4691548  70.1700315
  38.0695788  43.9751436  72.9023020  37.3957487  44.2783132  73.5107978
  38.4561610  44.7780516  72.5528477  37.2854245  31.4716567  82.3920689
  36.3676806  31.6931514  82.2342378  37.7014388  31.5462877  81.5332397
  38.0689292  32.8707983  77.5223370  38.8161111  33.3829380  77.2130492
  38.3380882  32.5492035  78.3827763  36.3415942  35.3666523  74.5050324
  35.4327162  35.0825556  74.6022794  36.3711026  35.7865602  73.6453631
  41.5735210  38.9773113  78.2741492  41.1197537  38.1364023  78.3306682
  40.9429177  39.6134511  78.6116272  40.5168129  29.9065099  79.5042159
  39.7790886  29.3942485  79.8352402  40.7694903  29.4665480  78.6925436
  40.0168149  40.8149609  79.2091310  40.3091124  41.3754667  78.4903675
  40.5266770  41.1078170  79.9644469  40.6179757  22.6841351  80.0983928
  40.9238634  21.8238714  79.8109843  41.3432362  23.2758971  79.8982922
  26.9104113  33.0872037  78.4865526  26.7128513  32.4941398  77.7616593
  26.3550777  32.7824248  79.2041465  34.8900837  32.9795144  80.6060119
  34.9449446  32.0268980  80.5302596  34.0792039  33.1354583  81.0901418
  36.0392030  36.9075267  71.8438403  35.6011460  36.1911126  71.3844040
  36.7802471  37.1351382  71.2823494  32.8293196  31.5972204  78.3650498
  32.0161062  31.8966374  78.7715690  33.3252191  31.2027892  79.0824980
  34.9801774  41.5929961  80.2984763  34.9377953  41.8190807  79.3693295
  35.8964473  41.3593335  80.4470564  44.1565145  35.1832464  77.9014721
  44.0183044  35.3734060  76.9735910  43.8001364  35.9451847  78.3582772
  44.1834525  37.2508991  82.9125993  44.6171031  37.1584280  83.7609047
  44.8966105  37.2266491  82.2746009  33.0967575  38.4692990  80.0946726
  33.8908174  37.9743310  79.8929301  32.3859267  37.9410853  79.7314431
  37.9162420  40.8511085  84.4459093  37.9699442  41.4202021  85.2136809
  37.0477201  41.0212970  84.0813130  29.4050339  32.6136071  76.1706478
  28.4747927  32.5520527  76.3876440  29.5007811  32.0912024  75.3743120
  29.3235888  29.1390884  78.7584720  29.5842705  30.0536217  78.6493880
  30.1453060  28.6715327  78.9081333  45.0450074  37.2932692  85.4458878
  45.2385964  38.1978502  85.6918153  44.9450692  36.8340111  86.2797463
  36.8750519  35.0171347  86.0046025  37.8042579  35.1682507  85.8314992
  36.4541549  35.1055368  85.1494672  35.6738851  39.0422012  83.7744563
  35.5349937  38.6740796  84.6470501  34.8853447  39.5569651  83.6028521
  36.2687003  44.1431108  75.1170099  36.4438759  43.6719151  75.9315722
  35.5819791  44.7696874  75.3451360  37.2244066  38.4203614  81.1633401
  36.8893899  38.3804384  82.0591050  36.7248012  37.7548330  80.6903811
  40.1603258  35.7659649  71.4370460  39.5432429  35.0406477  71.3403513
  39.6919746  36.5269009  71.0937534  41.8157390  40.4758557  89.0976241
  41.7569936  39.7917777  88.4306824  42.2176908  41.2177547  88.6456867
  30.8348088  47.2920471  81.8909959  31.0744687  47.9238995  82.5688978
  29.9917285  46.9408511  82.1775319  31.9501804  29.9845073  70.5591764
  31.0731270  29.8633874  70.1954011  32.4259557  29.1931151  70.3070653
  41.8174797  38.4398141  87.3290220  40.9301576  38.1024063  87.4516619
  42.3873348  37.7081172  87.5658986  23.4703944  34.7722233  80.6533272
  24.1574984  34.4583963  80.0654287  23.3152073  35.6763597  80.3800523
  35.3475950  43.0999593  84.2951463  35.2746122  43.9054565  84.8070768
  34.9053343  43.2991559  83.4699485  35.1365730  42.3371363  77.8054285
  34.3533252  42.8793043  77.8992509  35.8358475  42.8545343  78.2048526
  38.4462380  28.1465993  80.4488490  38.9431079  27.3935955  80.1289561
  37.6749361  28.1830309  79.8831700  46.2992137  33.8506358  82.0906782
  46.2882014  34.7331074  81.7200715  45.4309517  33.4977909  81.8961319
  37.8074634  42.9986427  86.4509622  38.5202606  43.6333892  86.3785524
  37.3164662  43.0950293  85.6349624  39.5292161  36.9037680  78.0226914
  38.5948439  37.0239142  77.8531618  39.7068829  36.0010147  77.7586924
  35.0297349  30.2883376  80.1760175  34.6595136  29.7354416  80.8641081
  35.5256441  29.6841509  79.6235175  42.9164712  32.7454999  78.5576948
  43.3825164  33.5782991  78.4837251  43.3672212  32.2799981  79.2622206
  32.8586547  40.7480871  87.2715193  33.5596007  41.3817354  87.4244587
  32.3881662  41.0895602  86.5110832  40.9840943  39.0898821  75.5563100
  41.2600787  38.9755415  76.4656974  40.1145442  38.6916305  75.5175273
  40.6587833  33.3025478  85.0967743  40.0059283  33.5501386  84.4420196
  41.0368213  32.4889616  84.7630221  37.6195007  43.3385171  79.1995914
  37.8017402  42.5206827  79.6623666  38.4427993  43.5552864  78.7620804
  37.9537173  42.2653357  76.4610962  38.4824939  41.7545811  75.8481124
  38.2165392  41.9495887  77.3256495  28.4554265  40.2817226  84.2046296
  29.0407702  39.5360914  84.3374200  28.2579104  40.5921183  85.0882959
  31.3092921  43.3168473  79.2208738  30.6403296  43.8014601  78.7372778
  31.1705790  43.5637694  80.1352116  35.4498189  45.3512217  85.8191396
  36.0016497  45.5143838  86.5840482  35.7904383  45.9416655  85.1471421
  26.6780498  31.5786928  76.0004670  26.9733939  30.6697607  75.9471724
  25.7768533  31.5574668  75.6785672  38.5866576  43.2994192  82.8055078
  38.4617716  42.4983932  82.2966024  39.2445668  43.7940386  82.3169048
  40.6501485  41.1003212  84.4334629  39.7031820  40.9808564  84.3612955
  40.9984258  40.2125710  84.5160890  28.4068339  29.2601026  76.1243995
  28.0781045  28.3798405  75.9419101  28.7607710  29.2048695  77.0120384
  37.6547918  40.8955929  80.6338981  37.5072881  39.9672636  80.8146551
  38.4801412  40.9176019  80.1496056  31.5210162  29.5473996  76.4919473
  31.8606235  30.0759917  75.7698081  31.9682283  29.8854402  77.2678039
  41.2582040  41.7184487  81.7203854  42.1828587  41.5127349  81.5828305
  41.0897343  41.4700888  82.6293195  33.5078310  28.0448617  74.6912766
  34.2286672  28.4229870  74.1876483  32.8843614  28.7637494  74.7947744
  37.6509432  28.7493766  75.6271098  37.8673047  29.6318404  75.3259926
  37.1703500  28.3579980  74.8976740  41.0477356  42.2370155  77.0765945
  41.2214234  41.6716577  76.3239797  41.5406247  43.0371050  76.8945435
  33.6541933  27.5796408  77.5210302  33.7757844  26.6513054  77.7201190
  33.3643975  27.5935094  76.6088618  46.9016747  35.0006578  78.6956245
  47.3447893  34.2513903  78.2975368  46.0243258  34.9916714  78.3129977
  42.0352529  41.5536919  74.1762843  42.7303433  42.1743612  74.3950158
  42.3775679  40.7032270  74.4515221  43.9343952  39.0036625  75.7050174
  44.4595276  39.3423897  74.9799494  43.8466304  38.0683640  75.5213309
  35.5964000  42.9170698  87.8340051  35.9051127  42.6719845  88.7062750
  36.3939482  43.1217337  87.3458921  35.6184613  45.0708608  80.0645427
  35.1789603  44.5784987  80.7578284  36.3692729  44.5281576  79.8237502
  28.0976951  41.2620149  80.0670055  28.9234971  40.9623921  79.6868699
  27.7471003  40.4927771  80.5159844  33.0658485  40.6146617  82.1367729
  32.4438494  39.9517322  81.8369957  33.7363352  40.6407749  81.4541377
  26.2985557  39.1806475  81.0258989  25.4617465  38.7528650  80.8442990
  26.2709202  39.3738919  81.9629780  43.6237858  39.6369528  91.0101372
  42.8333402  39.6193667  90.4705871  43.3871212  40.1757822  91.7650409
  43.7435733  36.4861995  88.3234101  43.7933738  36.3212002  89.2649623
  43.6349656  35.6189254  87.9331981  32.6271992  39.1650540  75.6126189
  32.7760112  39.8486005  74.9592862  33.4338435  39.1455630  76.1275645
  45.2453930  38.9058936  88.5676122  44.9538738  39.2688917  89.4039583
  44.6326061  38.1925944  88.3889454  46.4449612  36.4711816  81.0878692
  47.2796503  36.9101620  81.2516253  46.5808741  35.9950469  80.2686938
  43.4941118  34.0291551  87.0356180  43.9695240  34.2219197  86.2275031
  42.5706683  34.0850737  86.7899564  30.3824625  35.1915718  76.6187258
  30.1370666  34.2878048  76.8167468  30.5520539  35.1932868  75.6766736
  29.6520272  30.9244076  74.1173420  28.9589517  30.9988431  73.4613456
  29.4072024  30.1604419  74.6394937  36.1267397  41.6598671  73.0837937
  35.5541364  42.2788858  72.6308409  36.7000191  42.2098033  73.6177859
  42.1942787  30.9057311  85.2684486  43.1460210  31.0055409  85.2896710
  42.0246237  30.1135579  85.7782570  39.3464657  41.9435821  74.2146519
  40.2795330  41.8781383  74.4179395  39.2587870  42.7792088  73.7561052
  41.9752674  41.2601691  71.1750467  41.8966305  40.9261555  72.0686225
  42.7962340  41.7523459  71.1741939  44.6730865  34.1263431  84.3826785
  44.6407185  33.1879431  84.5686469  45.2831488  34.2047467  83.6492610
  36.5114196  32.9959484  70.4253989  37.4573300  32.8665692  70.4942407
  36.1328441  32.2574145  70.9023418  44.8225353  30.9174474  84.4285069
  44.3064402  30.1332931  84.2414997  45.7065302  30.5893191  84.5931588
  42.4836080  24.6615490  80.3880881  42.2860901  24.3530578  81.2724213
  43.0935786  25.3877129  80.5178811  50.4907415  35.1879437  83.5232822
  51.2210803  34.9264726  84.0840525  49.8814360  34.4508159  83.5634890
  48.5722712  33.3287300  84.1207273  47.8455875  33.1943265  83.5123765
  48.1569999  33.6364129  84.9263991  34.6957113  30.9209460  70.3608875
  33.7888568  30.6242573  70.4371588  34.9733094  30.6239278  69.4943161
  36.3119178  25.4646350  76.5153116  35.5019907  25.1193435  76.8908362
  37.0003595  25.1553893  77.1040727  38.2409727  24.5424396  78.1377413
  38.7940765  24.9619850  78.7967436  38.4779813  23.6160145  78.1800369
  33.4655897  27.7796395  70.5020854  34.3275061  28.1051293  70.7616671
  33.6506242  26.9927891  69.9893920  41.6188534  26.6524922  77.6456077
  41.0387203  27.3109726  77.2634129  41.3524467  25.8302266  77.2343494
  40.0692100  26.0529979  79.8477397  40.5691879  26.1646514  79.0391716
  40.7127708  25.7491032  80.4878206  27.3960056  35.7936989  80.6567057
  27.3730744  35.8924676  79.7048941  27.7060692  36.6402139  80.9784224
  40.4013412  28.8125012  76.7012425  39.5139267  29.0974663  76.4832620
  40.8167401  28.6518775  75.8539702  43.7527948  28.8371533  80.4166764
  44.5288338  29.3267985  80.6891381  43.0276082  29.2629587  80.8738634
  46.1900507  29.5499152  81.4740705  46.7844997  29.3094888  80.7634013
  46.2627090  28.8306283  82.1014241  28.4097662  43.3932763  81.7883870
  28.2752130  42.6333164  81.2221868  27.9929725  44.1173663  81.3212659
  39.5456625  38.5769687  70.7960445  40.2492475  38.7819689  71.4118101
  38.8219274  39.1446449  71.0609529  40.3754436  34.3279548  76.9162715
  40.3189637  34.7848099  76.0770348  40.9282778  33.5670233  76.7385558
  44.1859242  30.1169280  77.7412835  43.9296176  29.7165915  78.5721042
  43.5612110  30.8313074  77.6162974  48.4971579  32.8565353  80.2484126
  47.9371137  32.9258542  81.0215688  47.8915083  32.6806338  79.5283622
  31.5666788  44.2902080  82.0002312  31.4499172  45.2347513  81.8981003
  30.7459234  43.9875642  82.3888112  41.4543323  39.0152216  72.8458905
  42.2888927  38.5833414  72.6636380  41.2927666  38.8434230  73.7735800
  41.1089215  35.5184329  74.2115244  41.0538019  35.3528601  73.2703688
  40.4835270  36.2260362  74.3677434  34.4185340  25.0192438  73.7900563
  34.4064010  25.9634278  73.9468834  35.3108762  24.8362584  73.4960024
  32.5921302  44.9430342  85.2158241  33.4948549  44.9753952  85.5324736
  32.3658672  44.0130793  85.2304577  34.3474904  43.6961329  81.8768319
  33.3970535  43.6963190  81.7632692  34.6507390  42.9494063  81.3604354
  38.2337460  21.6135215  78.0446500  37.4669856  21.0593702  78.1903182
  38.6448165  21.6857084  78.9060651  50.0827598  49.5321867  82.9414082
  50.7206008  49.4128614  82.2377422  49.9648441  50.4802711  83.0002034
  46.8917304  49.4849295  82.8775607  46.5535816  49.3690360  81.9896141
  47.7607072  49.0840460  82.8576613  42.7504120  51.3384772  78.8672497
  42.1868985  51.2474708  78.0988785  42.6356515  50.5184676  79.3474990
  40.2968552  52.8335963  81.7056718  41.0889844  52.4926788  81.2903017
  40.5365202  52.9430938  82.6258871  48.3303679  55.0055739  74.1786962
  47.6791658  55.5909820  73.7920976  49.1248041  55.5361934  74.2382000
  42.2559306  52.0944876  74.5774097  43.0290182  51.5473863  74.4386973
  42.6084705  52.9589126  74.7888558  45.0200555  50.7998107  84.3742356
  45.6164127  50.5754130  83.6599319  45.0775527  50.0582853  84.9767804
  44.5925584  48.2537542  72.2092547  44.8451104  47.7319064  71.4476010
  43.6550143  48.0903688  72.3119230  49.6368866  47.2573321  80.0167290
  50.4231956  46.8392744  79.6657707  49.9007571  48.1619413  80.1848938
  49.8078944  52.6946171  74.7155947  49.1724777  52.7680798  75.4276851
  49.4776350  53.2839770  74.0375026  55.0377293  47.1948554  80.9200268
  55.7702465  46.6247771  81.1538098  54.2816649  46.8070154  81.3606774
  44.3121872  50.1565648  74.4116922  44.1958130  49.4810552  75.0798006
  44.4224132  49.6698022  73.5949075  46.6553413  49.6175796  78.1163611
  46.2911620  49.0906417  78.8276532  47.5120529  49.2274265  77.9430096
  52.5602714  40.9070128  85.3794877  52.2286039  41.7765539  85.1556092
  51.9648327  40.5906412  86.0588907  46.2958900  44.6465695  73.1124959
  46.4633303  45.5145932  73.4795430  46.1056069  44.8092977  72.1886249
  42.5046715  49.5596471  80.8127494  41.5797211  49.4272685  81.0205186
  42.7531128  50.3390690  81.3097437  52.4531377  45.6265214  82.4588227
  51.5448254  45.5580623  82.1646988  52.4018973  46.1037159  83.2870053
  46.2748121  47.1023353  74.0971626  46.1547746  47.5480404  74.9357106
  45.5800709  47.4508670  73.5385164  39.8655526  49.2029745  81.6471283
  39.9947907  49.4564223  82.5610695  39.1852977  49.7957453  81.3275938
  44.0355013  59.8726994  77.7461757  43.9579043  60.8234820  77.8250238
  43.4316657  59.5272867  78.4036684  54.3193024  43.8281653  84.2366101
  53.6767404  44.1214186  83.5905896  53.8147952  43.7134573  85.0419298
  51.9733187  47.5744826  74.9251960  52.8851043  47.8072213  74.7499658
  51.4642834  48.1581870  74.3627039  46.6105025  46.9342061  85.9346810
  47.4566220  47.3581474  86.0781459  46.5503663  46.2775685  86.6285373
  49.3169162  43.7502862  83.1741821  48.4553641  44.0484115  83.4658559
  49.3431597  43.9673261  82.2422854  46.1330731  52.2945052  79.5815627
  46.5969077  52.5732755  78.7920249  45.8687529  51.3928497  79.3988717
  43.0254812  51.8416534  82.5195390  43.5956169  52.2703802  81.8812875
  43.6162924  51.5599119  83.2179576  45.0699617  48.4168205  76.3905192
  45.7723661  48.8689248  76.8579118  44.7380246  47.7752024  77.0185085
  38.8124951  46.6751757  81.6922325  38.0224005  46.9309286  81.2162436
  39.3036199  47.4900095  81.7974366  40.7639697  47.0396337  78.6505802
  39.9670860  47.1515031  79.1689298  40.5365289  47.3782989  77.7846693
  37.0962654  46.9282248  84.1237316  37.3470693  47.8129258  84.3894892
  37.6322203  46.7486849  83.3512408  46.3093382  55.2309147  76.4667297
  46.1739057  56.0760683  76.8952145  46.8503195  55.4328425  75.7033231
  39.7622779  52.7484585  77.0395222  40.2747300  53.5427836  77.1900787
  40.4145492  52.0510876  76.9728824  41.5717664  55.8650342  79.1217975
  41.7484292  56.7868306  78.9338959  42.3674498  55.5508761  79.5512355
  40.8570021  47.9114974  88.9980139  40.7423536  47.0100231  89.2987238
  40.0014538  48.1578670  88.6464955  49.6585846  38.7539709  84.9966191
  49.3150115  39.6441351  84.9205301  50.0264808  38.5641367  84.1335776
  37.7271696  51.0773240  77.8154793  38.5646918  51.4870248  77.5988500
  37.9049964  50.1372682  77.7854987  49.6236128  48.7448320  73.5038626
  49.1082752  49.5152925  73.7427013  49.3513437  48.0713457  74.1271687
  47.2083239  43.5898021  78.5623864  46.3524836  43.2004872  78.3829503
  47.6210191  43.6689982  77.7023650  48.7382386  41.1244364  82.9615424
  48.2347182  41.0874500  82.1483229  49.0312993  42.0337107  83.0212081
  44.9825272  41.2083094  81.9681606  45.8478269  41.0125903  81.6087495
  45.0502781  40.9793446  82.8950962  54.5970402  51.4980675  75.4391799
  53.8199845  51.1591835  74.9946961  55.2761883  51.5033298  74.7646764
  49.4122432  46.6175413  75.3298407  49.1072567  46.9321562  76.1808550
  50.3652874  46.6956832  75.3725740  47.8568863  52.7765636  76.9791361
  47.3290225  52.0418395  76.6664598  47.3556366  53.5540312  76.7331329
  42.5887591  43.4385302  79.3397972  43.1631343  43.2160484  78.6071165
  43.1758573  43.5073997  80.0926574  51.6467168  49.3259029  80.1462349
  52.1599050  49.9589021  80.6484059  52.2968392  48.7260225  79.7805709
  42.9157178  45.4689763  73.3593858  42.0794490  45.8064450  73.6803132
  42.7761948  45.3338743  72.4220995  44.8910259  40.3126551  78.0673042
  44.2374671  39.9975568  77.4429657  44.8490733  39.6902291  78.7932865
  46.0021464  50.5945846  69.9826334  45.0948525  50.3635100  70.1817483
  46.4992496  49.7983465  70.1700315  48.9089542  59.3043353  72.9023020
  48.2351241  59.6075050  73.5107978  49.2955364  60.1072434  72.5528477
  48.1247999  46.8008485  82.3920689  47.2070560  47.0223432  82.2342378
  48.5408143  46.8754795  81.5332397  48.9083047  48.1999900  77.5223370
  49.6554866  48.7121297  77.2130492  49.1774636  47.8783953  78.3827763
  47.1809697  50.6958441  74.5050324  46.2720916  50.4117474  74.6022794
  47.2104781  51.1157520  73.6453631  52.4128964  54.3065030  78.2741492
  51.9591291  53.4655940  78.3306682  51.7822931  54.9426429  78.6116272
  51.3561884  45.2357017  79.5042159  50.6184641  44.7234403  79.8352402
  51.6088657  44.7957398  78.6925436  50.8561904  56.1441527  79.2091310
  51.1484878  56.7046584  78.4903675  51.3660524  56.4370088  79.9644469
  51.4573511  38.0133269  80.0983928  51.7632388  37.1530632  79.8109843
  52.1826116  38.6050889  79.8982922  37.7497867  48.4163955  78.4865526
  37.5522267  47.8233316  77.7616593  37.1944531  48.1116165  79.2041465
  45.7294591  48.3087062  80.6060119  45.7843201  47.3560898  80.5302596
  44.9185793  48.4646501  81.0901418  46.8785785  52.2367185  71.8438403
  46.4405215  51.5203044  71.3844040  47.6196226  52.4643299  71.2823494
  43.6686951  46.9264121  78.3650498  42.8554816  47.2258292  78.7715690
  44.1645945  46.5319810  79.0824980  45.8195529  56.9221878  80.2984763
  45.7771708  57.1482725  79.3693295  46.7358228  56.6885253  80.4470564
  54.9958900  50.5124382  77.9014721  54.8576798  50.7025978  76.9735910
  54.6395118  51.2743765  78.3582772  43.1601026  44.4982477  83.9811733
  43.8000405  44.3571236  83.2834696  42.3278556  44.2116990  83.6050335
  43.9361330  53.7984907  80.0946726  44.7301928  53.3035227  79.8929301
  43.2253022  53.2702770  79.7314431  40.2444093  47.9427989  76.1706478
  39.3141681  47.8812444  76.3876440  40.3401565  47.4203942  75.3743120
  40.1629642  44.4682802  78.7584720  40.4236459  45.3828135  78.6493880
  40.9846814  44.0007244  78.9081333  41.6354567  45.8820559  85.9283544
  42.3077621  45.6737921  85.2796193  40.8084354  45.6842645  85.4888777
  47.5380139  42.5082500  87.9449205  46.8908054  43.2072450  87.8513682
  48.3081155  42.9418644  88.3125454  47.1080758  59.4723026  75.1170099
  47.2832513  59.0011069  75.9315722  46.4213546  60.0988792  75.3451360
  48.0637821  53.7495532  81.1633401  47.7287653  53.7096302  82.0591050
  47.5641766  53.0840248  80.6903811  42.0382065  49.1563162  86.6885982
  41.9001863  48.4243401  87.2897521  42.9486988  49.0672062  86.4070169
  50.9997012  51.0951566  71.4370460  50.3826183  50.3698394  71.3403513
  50.5313501  51.8560927  71.0937534  44.6664365  48.8683121  86.1769661
  45.3763984  48.2276314  86.1356280  44.6233674  49.1196016  87.0995842
  43.3793299  45.8548339  87.9965301  42.8430656  45.4039078  88.6486897
  42.7910008  45.9894248  87.2535765  42.7895558  45.3136991  70.5591764
  41.9125025  45.1925791  70.1954011  43.2653311  44.5223069  70.3070653
  34.3097698  50.1014150  80.6533272  34.9968738  49.7875880  80.0654287
  34.1545827  51.0055515  80.3800523  39.1132421  44.9904347  85.0818295
  39.0290609  44.3830016  84.3468705  38.2915127  45.4813365  85.0827792
  45.9759484  57.6663281  77.8054285  45.1927006  58.2084961  77.8992509
  46.6752230  58.1837261  78.2048526  49.2856134  43.4757910  80.4488490
  49.7824834  42.7227873  80.1289561  48.5143116  43.5122227  79.8831700
  50.3685915  52.2329598  78.0226914  49.4342194  52.3531060  77.8531618
  50.5462584  51.3302064  77.7586924  45.8691103  45.6175293  80.1760175
  45.4988891  45.0646334  80.8641081  46.3650196  45.0133427  79.6235175
  53.7558466  48.0746917  78.5576948  54.2218919  48.9074909  78.4837251
  54.2065967  47.6091898  79.2622206  51.8234698  54.4190738  75.5563100
  52.0994541  54.3047333  76.4656974  50.9539196  54.0208223  75.5175273
  51.7275129  40.4427504  82.5967849  50.8138209  40.6731731  82.7650056
  52.1568231  40.5265948  83.4481882  48.4588762  58.6677089  79.1995914
  48.6411156  57.8498745  79.6623666  49.2821748  58.8844781  78.7620804
  48.7930927  57.5945274  76.4610962  49.3218694  57.0837729  75.8481124
  49.0559147  57.2787804  77.3256495  39.2948020  55.6109143  84.2046296
  39.8801457  54.8652831  84.3374200  39.0972858  55.9213100  85.0882959
  42.1486675  58.6460391  79.2208738  41.4797050  59.1306518  78.7372778
  42.0099545  58.8929611  80.1352116  33.8865675  48.1814744  82.9250739
  33.9249774  47.6478334  83.7187857  33.3805967  47.6549949  82.3061716
  41.2656437  43.0279284  86.4213281  41.3297763  43.8894115  86.0090679
  41.2023557  42.4153286  85.6885640  40.7408709  45.1002417  90.0686315
  41.3680748  44.7179494  90.6823840  39.8836628  44.8816619  90.4342008
  37.5174252  46.9078846  76.0004670  37.8127693  45.9989524  75.9471724
  36.6162288  46.8866585  75.6785672  41.0468499  44.9834842  81.9832219
  40.3255085  45.5970810  81.8439692  41.8361755  45.5192607  81.9048865
  43.8494813  42.3189269  88.2572870  44.3729214  42.5651565  89.0199180
  43.6307146  43.1509304  87.8376008  39.2462094  44.5892943  76.1243995
  38.9174800  43.7090322  75.9419101  39.6001464  44.5340612  77.0120384
  48.4941673  56.2247846  80.6338981  48.3466635  55.2964554  80.8146551
  49.3195166  56.2467937  80.1496056  42.3603917  44.8765913  76.4919473
  42.6999989  45.4051835  75.7698081  42.8076037  45.2146319  77.2678039
  45.0547358  43.2602964  85.9422541  44.7144178  42.4610777  86.3443221
  44.3486364  43.5604675  85.3699374  45.7063830  40.3452276  84.3949864
  46.5289899  39.8712755  84.2728754  45.9501893  41.1242760  84.8948550
  44.3472064  43.3740535  74.6912766  45.0680427  43.7521788  74.1876483
  43.7237368  44.0929412  74.7947744  48.4903187  44.0785684  75.6271098
  48.7066801  44.9610322  75.3259926  48.0097254  43.6871897  74.8976740
  43.2302408  47.0371397  82.2041843  43.0846989  47.3511700  83.0966124
  42.7527612  47.6556297  81.6512741  45.0898791  44.0273945  82.2522732
  45.0760360  43.1315038  81.9155030  45.8071219  44.0344609  82.8861018
  46.9424922  44.4611285  84.2975860  46.6842700  45.3828356  84.2960190
  46.4109962  44.0641720  84.9876324  51.8871111  57.5662072  77.0765945
  52.0607988  57.0008495  76.3239797  52.3800002  58.3662967  76.8945435
  37.7048070  49.5776741  85.1429504  37.1601539  50.3536549  85.2749778
  38.5827420  49.9247546  84.9848625  44.4935687  42.9088325  77.5210302
  44.6151598  41.9804972  77.7201190  44.2037729  42.9227011  76.6088618
  47.3626877  40.5943236  80.6577022  47.3848574  40.6582569  79.7029002
  47.7794936  39.7547744  80.8517528  57.7410502  50.3298495  78.6956245
  58.1841648  49.5805821  78.2975368  56.8637012  50.3208632  78.3129977
  52.8746283  56.8828837  74.1762843  53.5697188  57.5035529  74.3950158
  53.2169433  56.0324188  74.4515221  38.4914092  48.7046638  88.0359661
  37.7495828  48.8529273  88.6224291  38.1706837  48.9654903  87.1726410
  54.7737706  54.3328542  75.7050174  55.2989030  54.6715815  74.9799494
  54.6860059  53.3975558  75.5213309  38.9370706  56.5912066  80.0670055
  39.7628726  56.2915838  79.6868699  38.5864758  55.8219689  80.5159844
  43.9052239  55.9438535  82.1367729  43.2832248  55.2809240  81.8369957
  44.5757106  55.9699667  81.4541377  37.1379311  54.5098393  81.0258989
  36.3011219  54.0820567  80.8442990  37.1102956  54.7030836  81.9629780
  43.4665746  54.4942458  75.6126189  43.6153866  55.1777922  74.9592862
  44.2732190  54.4747548  76.1275645  41.2218379  50.5207636  76.6187258
  40.9764421  49.6169966  76.8167468  41.3914294  50.5224786  75.6766736
  48.9115089  41.3931312  86.0012014  49.4297033  42.1292339  85.6758503
  48.5570222  41.6995305  86.8358773  40.4914027  46.2535993  74.1173420
  39.7983272  46.3280348  73.4613456  40.2465778  45.4896337  74.6394937
  49.1627683  37.8131595  81.5212911  49.4429437  37.1454784  82.1473337
  49.9478290  38.0060690  81.0087574  46.9661152  56.9890588  73.0837937
  46.3935119  57.6080776  72.6308409  47.5393945  57.5389950  73.6177859
  51.0550921  43.3204812  85.4543887  50.4600853  43.6009825  84.7590375
  50.7700618  43.8098713  86.2260628  50.1858411  57.2727739  74.2146519
  51.1189085  57.2073300  74.4179395  50.0981624  58.1084005  73.7561052
  52.8146428  56.5893609  71.1750467  52.7360060  56.2553473  72.0686225
  53.6356095  57.0815377  71.1741939  47.3507950  48.3251401  70.4253989
  48.2967055  48.1957609  70.4942407  46.9722195  47.5866063  70.9023418
  53.3229835  39.9907407  80.3880881  53.1254656  39.6822495  81.2724213
  53.9329540  40.7169046  80.5178811  45.5350867  46.2501378  70.3608875
  44.6282323  45.9534490  70.4371588  45.8126848  45.9531196  69.4943161
  36.4528808  47.5707741  80.8107921  36.1331592  46.7173049  80.5182295
  35.9062236  47.7856319  81.5665888  40.2308715  50.2870182  84.5277428
  40.4494725  51.2187290  84.5465461  40.6434489  49.9278156  85.3132231
  47.1512933  40.7938267  76.5153116  46.3413661  40.4485352  76.8908362
  47.8397350  40.4845811  77.1040727  49.0803481  39.8716314  78.1377413
  49.6334520  40.2911768  78.7967436  49.3173568  38.9452062  78.1800369
  44.3049652  43.1088313  70.5020854  45.1668816  43.4343211  70.7616671
  44.4899996  42.3219809  69.9893920  36.3217068  51.1910653  82.7801043
  35.6280539  50.7764605  82.2670997  37.0690059  51.2331189  82.1834461
  52.4582288  41.9816839  77.6456077  51.8780957  42.6401643  77.2634129
  52.1918221  41.1594184  77.2343494  50.9085855  41.3821897  79.8477397
  51.4085633  41.4938432  79.0391716  51.5521463  41.0782950  80.4878206
  38.2353810  51.1228906  80.6567057  38.2124498  51.2216594  79.7048941
  38.5454447  51.9694057  80.9784224  40.8941188  53.1805061  84.7713672
  41.8484442  53.1489004  84.7043603  40.6953712  52.7195685  85.5863898
  51.2407166  44.1416930  76.7012425  50.3533021  44.4266580  76.4832620
  51.6561155  43.9810693  75.8539702  54.5921703  44.1663451  80.4166764
  55.3682093  44.6559903  80.6891381  53.8669837  44.5921505  80.8738634
  57.0294261  44.8791070  81.4740705  57.6238752  44.6386806  80.7634013
  57.1020845  44.1598200  82.1014241  39.2491417  58.7224681  81.7883870
  39.1145885  57.9625082  81.2221868  38.8323479  59.4465581  81.3212659
  50.3850380  53.9061604  70.7960445  51.0886230  54.1111607  71.4118101
  49.6613029  54.4738366  71.0609529  51.2148190  49.6571466  76.9162715
  51.1583392  50.1140017  76.0770348  51.7676533  48.8962150  76.7385558
  55.0252996  45.4461197  77.7412835  54.7689930  45.0457833  78.5721042
  54.4005864  46.1604991  77.6162974  59.3365334  48.1857271  80.2484126
  58.7764892  48.2550460  81.0215688  58.7308837  48.0098255  79.5283622
  52.2937077  54.3444134  72.8458905  53.1282681  53.9125332  72.6636380
  52.1321420  54.1726147  73.7735800  51.9482969  50.8476247  74.2115244
  51.8931773  50.6820518  73.2703688  51.3229025  51.5552280  74.3677434
  36.7375484  46.0844311  88.0376667  37.3834348  45.5743265  88.5263892
  36.5292636  46.8212993  88.6120092  45.2579095  40.3484356  73.7900563
  45.2457765  41.2926196  73.9468834  46.1502517  40.1654501  73.4960024
  49.0731214  36.9427133  78.0446500  48.3063610  36.3885619  78.1903182
  49.4841919  37.0149001  78.9060651  55.4319338  63.5829460  72.2092547
  55.6844859  63.0610981  71.4476010  54.4943897  63.4195606  72.3119230
  57.1352655  59.9757613  73.1124959  57.3027057  60.8437849  73.4795430
  56.9449824  60.1384895  72.1886249  53.7550933  60.7981681  73.3593858
  52.9188245  61.1356367  73.6803132  53.6155702  60.6630661  72.4220995
  55.7304013  55.6418469  78.0673042  55.0768426  55.3267486  77.4429657
  55.6884487  55.0194209  78.7932865  56.8415218  65.9237764  69.9826334
  55.9342280  65.6927017  70.1817483  57.3386250  65.1275383  70.1700315
  51.0837848  63.2719907  76.1706478  50.1535436  63.2104362  76.3876440
  51.1795320  62.7495859  75.3743120  53.6289313  60.6428908  70.5591764
  52.7518779  60.5217709  70.1954011  54.1047066  59.8514987  70.3070653
  48.3568007  62.2370764  76.0004670  48.6521448  61.3281442  75.9471724
  47.4556042  62.2158503  75.6785672  50.0855848  59.9184861  76.1243995
  49.7568554  59.0382240  75.9419101  50.4395219  59.8632530  77.0120384
  55.1865819  58.7032453  74.6912766  55.9074181  59.0813705  74.1876483
  54.5631123  59.4221329  74.7947744  55.3329442  58.2380243  77.5210302
  55.4545353  57.3096889  77.7201190  55.0431484  58.2518929  76.6088618
  51.3307781  61.5827911  74.1173420  50.6377026  61.6572266  73.4613456
  51.0859533  60.8188255  74.6394937  58.1901705  63.6543319  70.4253989
  59.1360809  63.5249527  70.4942407  57.8115950  62.9157981  70.9023418
  56.3744622  61.5793295  70.3608875  55.4676077  61.2826408  70.4371588
  56.6520603  61.2823113  69.4943161  57.9906687  56.1230185  76.5153116
  57.1807416  55.7777270  76.8908362  58.6791104  55.8137729  77.1040727
  55.1443406  58.4380231  70.5020854  56.0062570  58.7635129  70.7616671
  55.3293751  57.6511726  69.9893920  56.0972849  55.6776274  73.7900563
  56.0851519  56.6218113  73.9468834  56.9896271  55.4946419  73.4960024
  59.9124969  52.2719050  78.0446500  59.1457365  51.7177537  78.1903182
  60.3235674  52.3440919  78.9060651  26.6516171   1.3534026  60.9032269
  26.0004151   1.9388107  60.5166283  27.4460534   1.8840221  60.9627306
  32.9182895  -2.1541038  62.1637106  32.1412338  -2.4929878  61.7192268
  33.5974376  -2.1488415  61.4892071  24.3233956  -3.0575867  56.7071641
  23.4161018  -3.2886613  56.9062790  24.8204988  -3.8538247  56.8945622
  27.2302035   5.6521641  59.6268327  26.5563733   5.9553337  60.2353285
  27.6167857   6.4550721  59.2773784  25.1998277  -1.4154528  58.5683709
  24.7617707  -2.1318669  58.1089347  25.9408718  -1.1878413  58.0068801
  25.4293250   5.8201313  61.8415406  25.6045006   5.3489356  62.6561029
  24.7426038   6.4467079  62.0696667  29.3209505  -2.5570146  58.1615767
  28.7038675  -3.2823318  58.0648819  28.8525993  -1.7960786  57.8182841
  30.1447190   0.7669025  62.2808407  30.4207034   0.6525620  63.1902281
  29.2751689   0.3686510  62.2420580  27.1143419   3.9423561  63.1856269
  27.6431186   3.4316016  62.5726431  27.3771639   3.6266092  64.0501802
  30.2083603   3.9140360  63.8011252  30.3820480   3.3486782  63.0485104
  30.7012494   4.7141255  63.6190742  31.1958775   3.2307124  60.9008150
  31.8909680   3.8513817  61.1195465  31.5381926   2.3802475  61.1760528
  33.0950199   0.6806830  62.4295481  33.6201523   1.0194102  61.7044801
  33.0072551  -0.2546155  62.2458615  25.2873644   3.3368876  59.8083244
  24.7147611   3.9559063  59.3553715  25.8606438   3.8868237  60.3423165
  28.5070904   3.6206026  60.9391826  29.4401577   3.5551588  61.1424701
  28.4194116   4.4562293  60.4806358  31.1358920   2.9371896  57.8995773
  31.0572552   2.6031760  58.7931531  31.9568587   3.4293664  57.8987246
  28.7062872   0.2539892  57.5205752  29.4098722   0.4589894  58.1363407
  27.9825521   0.8216653  57.7854835  30.6149570   0.6922421  59.5704212
  31.4495173   0.2603619  59.3881687  30.4533912   0.5204434  60.4981106
  30.2695462  -2.8045466  60.9360551  30.2144265  -2.9701194  59.9948995
  29.6441517  -2.0969433  61.0922741  39.2433845  11.2092072  69.6659388
  39.8812255  11.0898819  68.9622729  39.1254687  12.1572916  69.7247341
  36.0523551  11.1619500  69.6020913  35.7142062  11.0460565  68.7141448
  36.9213319  10.7610665  69.5821919  31.9110367  13.0154976  65.5917804
  31.3475232  12.9244913  64.8234092  31.7962762  12.1954881  66.0720297
  29.4574799  14.5106168  68.4302025  30.2496090  14.1696993  68.0148324
  29.6971449  14.6201143  69.3504178  37.4909925  16.6825944  60.9032269
  36.8397905  17.2680025  60.5166283  38.2854288  17.2132139  60.9627306
  31.4165552  13.7715081  61.3019403  32.1896428  13.2244068  61.1632279
  31.7690951  14.6359331  61.5133865  34.1806802  12.4768312  71.0987662
  34.7770374  12.2524334  70.3844625  34.2381773  11.7353058  71.7013110
  33.7531830   9.9307747  58.9337853  34.0057351   9.4089269  58.1721316
  32.8156389   9.7673893  59.0364537  38.7975113   8.9343526  66.7412597
  39.5838202   8.5162949  66.3903014  39.0613817   9.8389618  66.9094245
  38.9685190  14.3716376  61.4401253  38.3331023  14.4451003  62.1522158
  38.6382597  14.9609975  60.7620333  44.1983540   8.8718759  67.6445575
  44.9308712   8.3017976  67.8783404  43.4422896   8.4840359  68.0852081
  33.4728119  11.8335853  61.1362228  33.3564377  11.1580757  61.8043313
  33.5830379  11.3468227  60.3194381  35.8159660  11.2946000  64.8408917
  35.4517867  10.7676621  65.5521839  36.6726776  10.9044470  64.6675403
  35.4565147   6.3235900  59.8370266  35.6239549   7.1916137  60.2040737
  35.2662316   6.4863182  58.9131555  38.2140480  14.7852879  71.5036096
  37.9141203  15.6877918  71.3951904  37.8691540  14.5185062  72.3557249
  31.6652962  11.2366676  67.5372801  30.7403458  11.1042890  67.7450493
  31.9137375  12.0160895  68.0342743  41.6137624   7.3035419  69.1833534
  40.7054501   7.2350828  68.8892295  41.5625220   7.7807364  70.0115359
  35.4354368   8.7793558  60.8216933  35.3153993   9.2250608  61.6602413
  34.7406956   9.1278875  60.2630471  29.0261773  10.8799949  68.3716590
  29.1554154  11.1334428  69.2856002  28.3459224  11.4727657  68.0521245
  33.1961260  21.5497199  64.4707064  33.1185290  22.5005024  64.5495545
  32.5922903  21.2043072  65.1281990  43.4799270   5.5051858  70.9611408
  42.8373651   5.7984391  70.3151202  42.9754199   5.3904778  71.7664604
  41.1339434   9.2515031  61.6497267  42.0457290   9.4842418  61.4744964
  40.6249081   9.8352075  61.0872345  39.7409016  14.2340849  69.0410848
  39.1117879  14.3986563  68.3386916  39.3534678  14.6482459  69.8121812
  43.6198248  15.1695287  66.3955212  42.9349286  15.5494188  65.8452245
  43.7042097  15.7790614  67.1287160  40.8749180  12.8155246  72.9950556
  41.0866075  13.4587006  72.3184937  40.8278928  11.9817563  72.5272486
  35.2936978  13.9715257  66.3060933  35.7575324  14.2502960  65.5165556
  35.0293776  13.0698702  66.1234024  32.1861059  13.5186739  69.2440697
  32.7562416  13.9474007  68.6058181  32.7769171  13.2369324  69.9424882
  34.2305864  10.0938410  63.1150499  34.9329908  10.5459453  63.5824425
  33.8986493   9.4522229  63.7430392  41.9895008  15.6927202  71.1672913
  42.8112451  15.2907389  70.8855595  41.9857411  15.5895436  72.1189029
  29.9245944   8.7166542  65.3751109  29.1277107   8.8285236  65.8934604
  29.6971536   9.0553194  64.5091999  35.7551611  15.2411245  73.3233623
  35.8196044  15.7031652  74.1591795  35.0462535  14.6108610  73.4515933
  50.0801001  12.0365950  67.5157884  49.3264709  11.4673348  67.3601889
  50.2148542  12.0028615  68.4628519  35.4699629  16.9079352  63.1912604
  35.3345304  17.7530888  63.6197452  36.0109441  17.1098630  62.4278538
  28.9229026  14.4254790  63.7640529  29.4353547  15.2198041  63.9146094
  29.5751739  13.7281081  63.6974130  30.7323911  17.5420547  65.8463282
  30.9090539  18.4638511  65.6584266  31.5280744  17.2278966  66.2757662
  31.8555226  19.0598720  71.8473624  32.4062651  18.9315784  71.0750618
  31.0166702  19.3593609  71.4968517  39.1949343  17.8105719  75.3494347
  39.1767819  18.6314600  74.8574616  40.1169263  17.6859794  75.5744488
  26.8877943  12.7543445  64.5400099  27.7253165  13.1640453  64.3233807
  27.0656211  11.8142887  64.5100293  38.7842375  10.4218525  60.2283932
  38.2688999  11.1923130  60.4672320  38.5119684   9.7483662  60.8516994
  36.3689486   5.2668226  65.2869171  35.5131082   4.8775077  65.1074809
  36.7816438   5.3460187  64.4268956  43.7576649  13.1750880  62.1637106
  42.9806092  12.8362039  61.7192268  44.4368130  13.1803503  61.4892071
  38.5728678   8.2945617  62.0543714  38.2678814   8.6091767  62.9053857
  39.5259120   8.3727037  62.0971047  37.0175110  14.4535841  63.7036668
  36.4896472  13.7188600  63.3909905  36.5162613  15.2310517  63.4576636
  41.9967956  12.6484861  68.8203714  41.3391631  13.3384123  68.9083842
  42.8008355  13.0381293  69.1637700  31.7493838   5.1155507  66.0643279
  32.3237590   4.8930689  65.3316472  32.3364820   5.1844202  66.8171880
  40.8073415  11.0029234  66.8707656  41.3205297  11.6359226  67.3729365
  41.4574639  10.4030429  66.5051016  32.0763425   7.1459968  60.0839164
  31.2400737   7.4834655  60.4048439  31.9368194   7.0108948  59.1466301
  34.0516505   1.9896756  64.7918348  33.3980918   1.6745773  64.1674963
  34.0096980   1.3672496  65.5178171  35.1627710  12.2716051  56.7071641
  34.2554772  12.0405304  56.9062790  35.6598742  11.4753670  56.8945622
  37.2854246   8.4778689  69.1165996  36.3676807   8.6993637  68.9587684
  37.7014389   8.5525000  68.2577703  38.0689294   9.8770105  64.2468676
  38.8161113  10.3891502  63.9375798  38.3380883   9.5554158  65.1073070
  36.3415944  12.3728646  61.2295631  35.4327163  12.0887679  61.3268100
  36.3711028  12.7927724  60.3698937  41.5735211  15.9835235  64.9986798
  41.1197538  15.1426145  65.0551989  40.9429178  16.6196634  65.3361578
  40.5168131   6.9127221  66.2287466  39.7790888   6.4004608  66.5597708
  40.7694904   6.4727603  65.4170743  40.0168150  17.8211732  65.9336616
  40.3091125  18.3816789  65.2148982  40.5266771  18.1140293  66.6889775
  40.6179758  -0.3096527  66.8229235  40.9238635  -1.1699163  66.5355150
  41.3432363   0.2821094  66.6228229  26.9104114  10.0934160  65.2110833
  26.7128514   9.5003521  64.4861899  26.3550778   9.7886370  65.9286772
  34.8900838   9.9857266  67.3305426  34.9449448   9.0331103  67.2547903
  34.0792040  10.1416706  67.8146724  36.0392032  13.9137390  58.5683709
  35.6011461  13.1973248  58.1089347  36.7802472  14.1413504  58.0068801
  32.8293198   8.6034326  65.0895805  32.0161063   8.9028497  65.4960997
  33.3252192   8.2090015  65.8070287  34.9801776  18.5992083  67.0230070
  34.9377954  18.8252929  66.0938602  35.8964474  18.3655458  67.1715871
  44.1565146  12.1894587  64.6260028  44.0183045  12.3796183  63.6981217
  43.8001365  12.9513969  65.0828079  44.1834526  14.2571114  69.6371299
  44.6171033  14.1646403  70.4854353  44.8966107  14.2328614  68.9991315
  33.0967576  15.4755112  66.8192032  33.8908175  14.9805432  66.6174607
  32.3859269  14.9472975  66.4559738  37.9162421  17.8573208  71.1704400
  37.9699443  18.4264144  71.9382116  37.0477202  18.0275093  70.8058437
  29.4050340   9.6198194  62.8951785  28.4747928   9.5582649  63.1121747
  29.5007812   9.0974147  62.0988426  29.3235889   6.1453007  65.4830027
  29.5842706   7.0598340  65.3739187  30.1453061   5.6777449  65.6326639
  45.0450076  14.2994814  72.1704185  45.2385966  15.2040625  72.4163460
  44.9450694  13.8402233  73.0042770  36.8750521  12.0233470  72.7291332
  37.8042581  12.1744629  72.5560299  36.4541551  12.1117491  71.8739978
  35.6738852  16.0484134  70.4989869  35.5349938  15.6802919  71.3715807
  34.8853449  16.5631774  70.3273827  36.2687004  21.1493231  61.8415406
  36.4438760  20.6781274  62.6561029  35.5819792  21.7758997  62.0696667
  37.2244068  15.4265737  67.8878707  36.8893900  15.3866507  68.7836357
  36.7248013  14.7610453  67.4149117  40.1603259  12.7721771  58.1615767
  39.5432430  12.0468599  58.0648819  39.6919748  13.5331131  57.8182841
  41.8157391  17.4820680  75.8221547  41.7569937  16.7979900  75.1552130
  42.2176909  18.2239670  75.3702173  30.8348090  24.2982593  68.6155266
  31.0744688  24.9301118  69.2934285  29.9917286  23.9470633  68.9020625
  31.9501805   6.9907196  57.2837071  31.0731271   6.8695996  56.9199318
  32.4259558   6.1993274  57.0315960  41.8174798  15.4460264  74.0535527
  40.9301577  15.1086185  74.1761926  42.3873349  14.7143295  74.2904292
  23.4703945  11.7784355  67.3778578  24.1574985  11.4646085  66.7899594
  23.3152074  12.6825720  67.1045830  35.3475951  20.1061716  71.0196770
  35.2746123  20.9116687  71.5316075  34.9053345  20.3053682  70.1944791
  35.1365731  19.3433486  64.5299592  34.3533253  19.8855166  64.6237816
  35.8358476  19.8607466  64.9293833  38.4462381   5.1528115  67.1733797
  38.9431081   4.3998078  66.8534867  37.6749363   5.1892432  66.6077006
  46.2992139  10.8568481  68.8152088  46.2882015  11.7393196  68.4446022
  45.4309518  10.5040032  68.6206626  37.8074635  20.0048550  73.1754929
  38.5202607  20.6396015  73.1030830  37.3164664  20.1012416  72.3594931
  39.5292162  13.9099803  64.7472220  38.5948441  14.0301265  64.5776925
  39.7068830  13.0072269  64.4832230  35.0297350   7.2945498  66.9005482
  34.6595137   6.7416539  67.5886387  35.5256442   6.6903632  66.3480482
  42.9164713   9.7517122  65.2822255  43.3825165  10.5845113  65.2082557
  43.3672214   9.2862103  65.9867513  32.8586549  17.7542993  73.9960500
  33.5596008  18.3879476  74.1489894  32.3881664  18.0957725  73.2356139
  40.9840944  16.0960943  62.2808407  41.2600788  15.9817538  63.1902281
  40.1145443  15.6978428  62.2420580  40.6587835  10.3087601  71.8213050
  40.0059285  10.5563508  71.1665503  41.0368214   9.4951739  71.4875527
  37.6195008  20.3447294  65.9241220  37.8017403  19.5268950  66.3868972
  38.4427994  20.5614986  65.4866110  37.9537174  19.2715479  63.1856269
  38.4824940  18.7607934  62.5726431  38.2165393  18.9558009  64.0501802
  28.4554267  17.2879348  70.9291602  29.0407703  16.5423036  71.0619506
  28.2579105  17.5983305  71.8128266  31.3092922  20.3230596  65.9454045
  30.6403297  20.8076723  65.4618085  31.1705792  20.5699816  66.8597423
  35.4498190  22.3574339  72.5436703  36.0016498  22.5205961  73.3085788
  35.7904384  22.9478777  71.8716728  26.6780499   8.5849051  62.7249977
  26.9733940   7.6759729  62.6717030  25.7768535   8.5636790  62.4030979
  38.5866578  20.3056315  69.5300385  38.4617717  19.5046055  69.0211331
  39.2445669  20.8002508  69.0414355  40.6501486  18.1065335  71.1579935
  39.7031822  17.9870686  71.0858262  40.9984259  17.2187833  71.2406197
  28.4068341   6.2663148  62.8489302  28.0781047   5.3860527  62.6664408
  28.7607711   6.2110817  63.7365691  37.6547919  17.9018051  67.3584287
  37.5072882  16.9734759  67.5391857  38.4801413  17.9238142  66.8741363
  31.5210164   6.5536118  63.2164780  31.8606236   7.0822039  62.4943388
  31.9682284   6.8916524  63.9923346  41.2582041  18.7246610  68.4449160
  42.1828589  18.5189471  68.3073611  41.0897345  18.4763011  69.3538502
  33.5078311   5.0510740  61.4158072  34.2286673   5.4291993  60.9121789
  32.8843615   5.7699617  61.5193050  37.6509434   5.7555889  62.3516405
  37.8673048   6.6380527  62.0505233  37.1703501   5.3642102  61.6222047
  41.0477357  19.2432277  63.8011252  41.2214235  18.6778700  63.0485104
  41.5406249  20.0433172  63.6190742  33.6541934   4.5858530  64.2455609
  33.7757845   3.6575176  64.4446496  33.3643976   4.5997216  63.3333924
  46.9016749  12.0068700  65.4201551  47.3447895  11.2576025  65.0220675
  46.0243259  11.9978837  65.0375283  42.0352530  18.5599042  60.9008150
  42.7303435  19.1805734  61.1195465  42.3775680  17.7094393  61.1760528
  43.9343953  16.0098747  62.4295481  44.4595277  16.3486020  61.7044801
  43.8466306  15.0745763  62.2458615  35.5964002  19.9232821  74.5585357
  35.9051128  19.6781968  75.4308057  36.3939484  20.1279459  74.0704228
  35.6184614  22.0770731  66.7890734  35.1789604  21.5847109  67.4823591
  36.3692731  21.5343698  66.5482809  28.0976953  18.2682271  66.7915362
  28.9234973  17.9686043  66.4114005  27.7471005  17.4989894  67.2405151
  33.0658486  17.6208740  68.8613036  32.4438495  16.9579445  68.5615263
  33.7363353  17.6469872  68.1786683  26.2985558  16.1868598  67.7504296
  25.4617466  15.7590772  67.5688297  26.2709203  16.3801041  68.6875087
  43.6237859  16.6431651  77.7346679  42.8333403  16.6255790  77.1951178
  43.3871214  17.1819945  78.4895715  43.7435734  13.4924117  75.0479407
  43.7933739  13.3274125  75.9894930  43.6349657  12.6251376  74.6577288
  32.6271993  16.1712663  62.3371496  32.7760113  16.8548127  61.6838169
  33.4338436  16.1517753  62.8520952  45.2453931  15.9121059  75.2921429
  44.9538739  16.2751039  76.1284890  44.6326062  15.1988067  75.1134761
  46.4449613  13.4773939  67.8123999  47.2796505  13.9163743  67.9761559
  46.5808742  13.0012592  66.9932245  43.4941119  11.0353673  73.7601487
  43.9695241  11.2281320  72.9520338  42.5706685  11.0912859  73.5144870
  30.3824626  12.1977841  63.3432565  30.1370668  11.2940171  63.5412775
  30.5520540  12.1994991  62.4012043  29.6520273   7.9306198  60.8418726
  28.9589518   8.0050553  60.1858762  29.4072025   7.1666542  61.3640243
  36.1267398  18.6660793  59.8083244  35.5541365  19.2850981  59.3553715
  36.7000192  19.2160155  60.3423165  42.1942788   7.9119433  71.9929792
  43.1460211   8.0117531  72.0142016  42.0246239   7.1197702  72.5027877
  39.3464658  18.9497944  60.9391826  40.2795331  18.8843505  61.1424701
  39.2587871  19.7854210  60.4806358  44.6730866  11.1325553  71.1072092
  44.6407186  10.1941554  71.2931776  45.2831490  11.2109590  70.3737917
  36.5114197  10.0021606  57.1499296  37.4573302   9.8727814  57.2187714
  36.1328442   9.2636268  57.6268724  44.8225354   7.9236597  71.1530375
  44.3064403   7.1395053  70.9660304  45.7065303   7.5955313  71.3176895
  42.4836081   1.6677612  67.1126188  42.2860903   1.3592700  67.9969520
  43.0935787   2.3939251  67.2424118  50.4907416  12.1941560  70.2478129
  51.2210804  11.9326848  70.8085832  49.8814361  11.4570282  70.2880197
  48.5722713  10.3349423  70.8452580  47.8455877  10.2005388  70.2369072
  48.1570000  10.6426251  71.6509298  34.6957114   7.9271583  57.0854181
  33.7888569   7.6304695  57.1616895  34.9733095   7.6301401  56.2188467
  36.3119180   2.4708472  63.2398423  35.5019908   2.1255557  63.6153669
  37.0003597   2.1616016  63.8286034  38.2409728   1.5486519  64.8622719
  38.7940767   1.9681972  65.5212742  38.4779814   0.6222267  64.9045675
  33.4655899   4.7858518  57.2266160  34.3275063   5.1113416  57.4861978
  33.6506243   3.9990014  56.7139226  41.6188535   3.6587044  64.3701383
  41.0387204   4.3171848  63.9879436  41.3524468   2.8364389  63.9588801
  40.0692101   3.0592102  66.5722704  40.5691880   3.1708636  65.7637023
  40.7127709   2.7553155  67.2123512  27.3960057  12.7999111  67.3812364
  27.3730745  12.8986798  66.4294247  27.7060693  13.6464262  67.7029530
  40.4013413   5.8187135  63.4257732  39.5139268   6.1036785  63.2077926
  40.8167402   5.6580898  62.5785009  43.7527949   5.8433656  67.1412071
  44.5288339   6.3330108  67.4136688  43.0276083   6.2691710  67.5983940
  46.1900508   6.5561275  68.1986012  46.7844999   6.3157011  67.4879320
  46.2627092   5.8368405  68.8259548  28.4097664  20.3994886  68.5129176
  28.2752132  19.6395287  67.9467174  27.9929726  21.1235786  68.0457965
  39.5456627  15.5831809  57.5205752  40.2492477  15.7881812  58.1363407
  38.8219275  16.1508571  57.7854835  40.3754437  11.3341671  63.6408022
  40.3189638  11.7910222  62.8015654  40.9282779  10.5732355  63.4630865
  44.1859243   7.1231402  64.4658141  43.9296177   6.7228038  65.2966349
  43.5612111   7.8375196  64.3408280  48.4971581   9.8627476  66.9729433
  47.9371139   9.9320665  67.7460995  47.8915084   9.6868460  66.2528929
  31.5666789  21.2964203  68.7247619  31.4499174  22.2409635  68.6226309
  30.7459236  20.9937764  69.1133418  41.4543324  16.0214338  59.5704212
  42.2888928  15.5895537  59.3881687  41.2927667  15.8496352  60.4981106
  41.1089216  12.5246452  60.9360551  41.0538020  12.3590723  59.9948995
  40.4835271  13.2322485  61.0922741  34.4185342   2.0254561  60.5145869
  34.4064011   2.9696401  60.6714140  35.3108764   1.8424706  60.2205331
  32.5921304  21.9492465  71.9403547  33.4948550  21.9816075  72.2570042
  32.3658674  21.0192916  71.9549883  34.3474906  20.7023451  68.6013626
  33.3970537  20.7025313  68.4877998  34.6507392  19.9556186  68.0849661
  38.2337461  -1.3802663  64.7691806  37.4669857  -1.9344176  64.9148489
  38.6448166  -1.3080794  65.6305958  50.0827599  26.5383990  69.6659388
  50.7206009  26.4190737  68.9622729  49.9648442  27.4864834  69.7247341
  46.8917305  26.4911418  69.6020913  46.5535817  26.3752482  68.7141448
  47.7607074  26.0902583  69.5821919  42.7504121  28.3446894  65.5917804
  42.1868986  28.2536831  64.8234092  42.6356516  27.5246799  66.0720297
  47.3737088  27.6446269  75.5607119  47.3625729  27.2499068  74.6887622
  47.5357728  26.9112342  76.1540890  40.2968553  29.8398086  68.4302025
  41.0889845  29.4988910  68.0148324  40.5365203  29.9493061  69.3504178
  44.0944350  30.4283381  74.5086303  43.8034215  31.3329012  74.3932969
  44.7301334  30.4699909  75.2230372  45.0200556  27.8060230  71.0987662
  45.6164129  27.5816252  70.3844625  45.0775528  27.0644975  71.7013110
  49.6368868  24.2635443  66.7412597  50.4231957  23.8454867  66.3903014
  49.9007572  25.1681536  66.9094245  49.8078945  29.7008294  61.4401253
  49.1724778  29.7742920  62.1522158  49.4776351  30.2901893  60.7620333
  55.0377295  24.2010677  67.6445575  55.7702467  23.6309893  67.8783404
  54.2816650  23.8132277  68.0852081  46.6553414  26.6237918  64.8408917
  46.2911622  26.0968539  65.5521839  47.5120530  26.2336387  64.6675403
  52.5602715  17.9132251  72.1040184  52.2286040  18.7827662  71.8801399
  51.9648328  17.5968535  72.7834214  49.0534235  30.1144797  71.5036096
  48.7534958  31.0169836  71.3951904  48.7085294  29.8476980  72.3557249
  42.5046716  26.5658594  67.5372801  41.5797213  26.4334808  67.7450493
  42.7531129  27.3452813  68.0342743  52.4531378  22.6327337  69.1833534
  51.5448256  22.5642745  68.8892295  52.4018974  23.1099282  70.0115359
  39.8655527  26.2091867  68.3716590  39.9947908  26.4626346  69.2856002
  39.1852978  26.8019575  68.0521245  44.0355014  36.8789117  64.4707064
  43.9579044  37.8296942  64.5495545  43.4316658  36.5334990  65.1281990
  46.5272244  24.0516983  77.1268431  45.7505578  24.6110903  77.1171296
  47.1662807  24.5373765  77.6483301  54.3193025  20.8343775  70.9611408
  53.6767405  21.1276308  70.3151202  53.8147953  20.7196696  71.7664604
  51.9733188  24.5806949  61.6497267  52.8851045  24.8134335  61.4744964
  51.4642836  25.1643993  61.0872345  44.7818616  26.8602436  76.6886398
  45.5233301  27.3987480  76.4121222  44.0755602  27.4868725  76.8457950
  50.2573956  29.0031576  75.2858559  50.6657312  28.5613987  74.5413192
  49.5351218  28.4284204  75.5392752  46.6105026  23.9404183  72.6592116
  47.4566221  24.3643597  72.8026765  46.5503664  23.2837807  73.3530679
  50.5802771  29.5632767  69.0410848  49.9511633  29.7278481  68.3386916
  50.1928433  29.9774377  69.8121812  54.4592003  30.4987205  66.3955212
  53.7743041  30.8786106  65.8452245  54.5435852  31.1082531  67.1287160
  49.7604471  21.6008551  74.3173290  49.5165403  22.3550612  73.7807566
  50.0364402  21.9793899  75.1520537  51.7142934  28.1447164  72.9950556
  51.9259829  28.7878924  72.3184937  51.6672683  27.3109480  72.5272486
  49.3169163  20.7564984  69.8987128  48.4553642  21.0546238  70.1903865
  49.3431598  20.9735383  68.9668160  46.1330733  29.3007175  66.3060933
  46.5969078  29.5794878  65.5165556  45.8687531  28.3990620  66.1234024
  43.0254814  28.8478657  69.2440697  43.5956171  29.2765925  68.6058181
  43.6162926  28.5661241  69.9424882  43.5179980  24.0142084  77.4901708
  42.8878641  24.6958365  77.7237105  43.4116068  23.9025166  76.5454846
  38.8124953  23.6813880  68.4167632  38.0224007  23.9371409  67.9407743
  39.3036200  24.4962218  68.5219673  52.8288762  31.0219119  71.1672913
  53.6506206  30.6199307  70.8855595  52.8251165  30.9187353  72.1189029
  40.7639698  24.0458459  65.3751109  39.9670861  24.1577154  65.8934604
  40.5365290  24.3845112  64.5091999  46.5945366  30.5703163  73.3233623
  46.6589798  31.0323570  74.1591795  45.8856290  29.9400527  73.4515933
  37.0962656  23.9344371  70.8482623  37.3470694  24.8191380  71.1140199
  37.6322204  23.7548972  70.0757715  60.9194755  27.3657868  67.5157884
  60.1658464  26.7965266  67.3601889  61.0542296  27.3320532  68.4628519
  46.3093383  32.2371270  63.1912604  46.1739058  33.0822806  63.6197452
  46.8503196  32.4390548  62.4278538  39.7622781  29.7546708  63.7640529
  40.2747301  30.5489958  63.9146094  40.4145494  29.0572999  63.6974130
  41.5717665  32.8712464  65.8463282  41.7484294  33.7930429  65.6584266
  42.3674499  32.5570884  66.2757662  45.7128684  19.7320729  77.4447216
  46.4538397  20.3327882  77.3651678  45.9446607  18.9898367  76.8865258
  40.8570022  24.9177096  75.7225445  40.7423537  24.0162353  76.0232544
  40.0014540  25.1640793  75.3710262  47.9361860  32.8594837  77.3212946
  47.4925714  32.0731215  77.0033850  48.5979073  33.0473987  76.6556837
  42.6948981  34.3890638  71.8473624  43.2456406  34.2607702  71.0750618
  41.8560457  34.6885527  71.4968517  50.0343098  33.1397636  75.3494347
  50.0161573  33.9606518  74.8574616  50.9563018  33.0151712  75.5744488
  46.4916152  30.6541766  76.1917855  47.0244489  29.8930054  75.9617163
  45.9630233  30.3615418  76.9342010  49.6585847  15.7601832  71.7211497
  49.3150116  16.6503474  71.6450608  50.0264809  15.5703490  70.8581082
  47.2083241  20.5960144  65.2869171  46.3524837  20.2066994  65.1074809
  47.6210192  20.6752105  64.4268956  48.7382387  18.1306487  69.6860730
  48.2347183  18.0936622  68.8728536  49.0312994  19.0399230  69.7457387
  44.9825273  18.2145217  68.6926912  45.8478270  18.0188025  68.3332802
  45.0502782  17.9855569  69.6196269  54.5970404  28.5042798  62.1637106
  53.8199846  28.1653957  61.7192268  55.2761885  28.5095421  61.4892071
  47.8568865  29.7827758  63.7036668  47.3290226  29.0480518  63.3909905
  47.3556367  30.5602435  63.4576636  52.8361711  27.9776779  68.8203714
  52.1785385  28.6676040  68.9083842  53.6402110  28.3673211  69.1637700
  42.5887592  20.4447425  66.0643279  43.1631344  20.2222606  65.3316472
  43.1758575  20.5136119  66.8171880  51.6467169  26.3321152  66.8707656
  52.1599051  26.9651143  67.3729365  52.2968393  25.7322347  66.5051016
  44.8910260  17.3188674  64.7918348  44.2374672  17.0037691  64.1674963
  44.8490734  16.6964414  65.5178171  48.9089544  36.3105476  59.6268327
  48.2351242  36.6137173  60.2353285  49.2955366  37.1134556  59.2773784
  48.1248000  23.8070607  69.1165996  47.2070562  24.0285554  68.9587684
  48.5408144  23.8816918  68.2577703  48.9083048  25.2062023  64.2468676
  49.6554867  25.7183420  63.9375798  49.1774638  24.8846076  65.1073070
  52.4128966  31.3127153  64.9986798  51.9591293  30.4718063  65.0551989
  51.7822932  31.9488551  65.3361578  51.3561885  22.2419139  66.2287466
  50.6184642  21.7296525  66.5597708  51.6088659  21.8019521  65.4170743
  50.8561905  33.1503650  65.9336616  51.1484879  33.7108707  65.2148982
  51.3660525  33.4432211  66.6889775  51.4573513  15.0195391  66.8229235
  51.7632389  14.1592755  66.5355150  52.1826117  15.6113011  66.6228229
  45.7294592  25.3149184  67.3305426  45.7843202  24.3623021  67.2547903
  44.9185794  25.4708623  67.8146724  43.6686952  23.9326244  65.0895805
  42.8554818  24.2320414  65.4960997  44.1645946  23.5381933  65.8070287
  45.8195530  33.9284001  67.0230070  45.7771709  34.1544847  66.0938602
  46.7358229  33.6947375  67.1715871  49.2661164  24.3968068  73.9210699
  49.6210552  24.6239542  74.7805164  49.9133295  24.7286445  73.2987954
  54.9958901  27.5186504  64.6260028  54.8576799  27.7088100  63.6981217
  54.6395120  28.2805887  65.0828079  43.1601027  21.5044599  70.7057040
  43.8000406  21.3633359  70.0080003  42.3278557  21.2179113  70.3295642
  55.0228280  29.5863031  69.6371299  55.4564787  29.4938320  70.4854353
  55.7359861  29.5620532  68.9991315  43.9361331  30.8047030  66.8192032
  44.7301929  30.3097350  66.6174607  43.2253023  30.2764893  66.4559738
  48.7556175  33.1865125  71.1704400  48.8093198  33.7556062  71.9382116
  47.8870957  33.3567010  70.8058437  40.2444094  24.9490112  62.8951785
  39.3141682  24.8874567  63.1121747  40.3401566  24.4266064  62.0988426
  40.1629643  21.4744924  65.4830027  40.4236461  22.3890258  65.3739187
  40.9846816  21.0069367  65.6326639  41.6354569  22.8882682  72.6528851
  42.3077622  22.6800044  72.0041500  40.8084355  22.6904768  72.2134083
  55.8843830  29.6286732  72.1704185  56.0779720  30.5332542  72.4163460
  55.7844448  29.1694151  73.0042770  47.5380141  19.5144623  74.6694512
  46.8908056  20.2134572  74.5758988  48.3081156  19.9480766  75.0370760
  50.9458939  29.7793475  77.7445065  50.7944445  29.5504026  76.8275149
  50.9363618  30.7364076  77.7576410  47.7144275  27.3525387  72.7291332
  48.6436335  27.5036547  72.5560299  47.2935305  27.4409408  71.8739978
  46.5132607  31.3776052  70.4989869  46.3743693  31.0094836  71.3715807
  45.7247203  31.8923691  70.3273827  47.1080759  36.4785148  61.8415406
  47.2832515  36.0073192  62.6561029  46.4213547  37.1050915  62.0696667
  48.0637822  30.7557655  67.8878707  47.7287655  30.7158425  68.7836357
  47.5641768  30.0902370  67.4149117  42.0382066  26.1625285  73.4131288
  41.9001864  25.4305523  74.0142827  42.9486989  26.0734185  73.1315476
  44.6664367  25.8745244  72.9014968  45.3763985  25.2338436  72.8601586
  44.6233675  26.1258139  73.8241149  52.6551145  32.8112597  75.8221547
  52.5963691  32.1271817  75.1552130  53.0570664  33.5531587  75.3702173
  43.3793301  22.8610462  74.7210607  42.8430658  22.4101200  75.3732204
  42.7910009  22.9956371  73.9781072  41.6741844  39.6274511  68.6155266
  41.9138442  40.2593035  69.2934285  40.8311041  39.2762551  68.9020625
  52.6568553  30.7752181  74.0535527  51.7695331  30.4378103  74.1761926
  53.2267104  30.0435212  74.2904292  39.1132422  21.9966469  71.8063602
  39.0290611  21.3892139  71.0714012  38.2915128  22.4875488  71.8073098
  46.1869706  35.4353634  71.0196770  46.1139877  36.2408605  71.5316075
  45.7447099  35.6345599  70.1944791  45.9759486  34.6725404  64.5299592
  45.1927007  35.2147084  64.6237816  46.6752231  35.1899383  64.9293833
  49.2856136  20.4820033  67.1733797  49.7824835  19.7289995  66.8534867
  48.5143117  20.5184350  66.6077006  57.1385893  26.1860399  68.8152088
  57.1275769  27.0685114  68.4446022  56.2703273  25.8331949  68.6206626
  48.6468389  35.3340468  73.1754929  49.3596362  35.9687932  73.1030830
  48.1558418  35.4304334  72.3594931  50.3685916  29.2391720  64.7472220
  49.4342195  29.3593183  64.5776925  50.5462585  28.3364187  64.4832230
  45.8691104  22.6237416  66.9005482  45.4988892  22.0708456  67.5886387
  46.3650197  22.0195549  66.3480482  53.7558468  25.0809040  65.2822255
  54.2218920  25.9137031  65.2082557  54.2065968  24.6154021  65.9867513
  43.6980303  33.0834911  73.9960500  44.3989763  33.7171394  74.1489894
  43.2275418  33.4249643  73.2356139  51.8234699  31.4252861  62.2808407
  52.0994543  31.3109455  63.1902281  50.9539198  31.0270346  62.2420580
  51.7275130  17.4489627  69.3213156  50.8138210  17.6793853  69.4895363
  52.1568232  17.5328071  70.1727188  51.4981589  25.6379518  71.8213050
  50.8453039  25.8855426  71.1665503  51.8761969  24.8243657  71.4875527
  48.4588763  35.6739212  65.9241220  48.6411157  34.8560868  66.3868972
  49.2821749  35.8906904  65.4866110  48.7930928  34.6007397  63.1856269
  49.3218695  34.0899851  62.5726431  49.0559148  34.2849927  64.0501802
  47.5469162  26.3799330  78.3079087  46.8709799  26.2793459  78.9781462
  48.3696796  26.2238543  78.7715084  39.2948021  32.6171266  70.9291602
  39.8801458  31.8714954  71.0619506  39.0972860  32.9275223  71.8128266
  42.1486676  35.6522513  65.9454045  41.4797052  36.1368641  65.4618085
  42.0099546  35.8991734  66.8597423  33.8865676  25.1876866  69.6496045
  33.9249775  24.6540457  70.4433163  33.3805969  24.6612072  69.0307023
  46.2891945  37.6866257  72.5436703  46.8410253  37.8497878  73.3085788
  46.6298138  38.2770695  71.8716728  41.2656438  20.0341407  73.1458588
  41.3297765  20.8956238  72.7335985  41.2023558  19.4215408  72.4130946
  40.7408711  22.1064539  76.7931622  41.3680749  21.7241617  77.4069146
  39.8836630  21.8878741  77.1587314  51.1402819  32.5127514  78.3985357
  51.6842723  33.1257473  77.9040312  50.5589664  33.0707093  78.9152370
  37.5174253  23.9140968  62.7249977  37.8127694  23.0051647  62.6717030
  36.6162289  23.8928708  62.4030979  49.4260332  35.6348233  69.5300385
  49.3011472  34.8337972  69.0211331  50.0839423  36.1294426  69.0414355
  41.0468500  21.9896965  68.7077525  40.3255086  22.6032933  68.5684999
  41.8361756  22.5254730  68.6294171  51.4895241  33.4357253  71.1579935
  50.5425576  33.3162604  71.0858262  51.8378014  32.5479751  71.2406197
  43.8494814  19.3251392  74.9818177  44.3729216  19.5713688  75.7444486
  43.6307147  20.1571426  74.5621314  39.2462095  21.5955066  62.8489302
  38.9174801  20.7152445  62.6664408  39.6001466  21.5402735  63.7365691
  48.4941674  33.2309969  67.3584287  48.3466636  32.3026676  67.5391857
  49.3195167  33.2530060  66.8741363  42.3603918  21.8828036  63.2164780
  42.6999991  22.4113957  62.4943388  42.8076039  22.2208442  63.9923346
  52.0975796  34.0538528  68.4449160  53.0222343  33.8481389  68.3073611
  51.9291099  33.8054929  69.3538502  45.0547359  20.2665087  72.6667848
  44.7144179  19.4672900  73.0688528  44.3486365  20.5666797  72.0944681
  45.7063831  17.3514399  71.1195171  46.5289900  16.8774877  70.9974061
  45.9501894  18.1304883  71.6193857  44.3472065  20.3802657  61.4158072
  45.0680428  20.7583910  60.9121789  43.7237369  21.0991534  61.5193050
  43.2302410  24.0433520  68.9287149  43.0846990  24.3573823  69.8211431
  42.7527613  24.6618420  68.3758048  45.0898792  21.0336068  68.9768039
  45.0760361  20.1377161  68.6400337  45.8071221  21.0406731  69.6106325
  46.9424923  21.4673408  71.0221166  46.6842701  22.3890479  71.0205497
  46.4109964  21.0703842  71.7121630  51.8871112  34.5724195  63.8011252
  52.0607989  34.0070617  63.0485104  52.3800003  35.3725090  63.6190742
  37.7048072  26.5838864  71.8674810  37.1601540  27.3598672  71.9995085
  38.5827422  26.9309669  71.7093932  44.4935688  19.9150448  64.2455609
  44.6151600  18.9867094  64.4446496  44.2037731  19.9289134  63.3333924
  47.3626879  17.6005358  67.3822329  47.3848576  17.6644691  66.4274308
  47.7794938  16.7609867  67.5762835  57.7410503  27.3360618  65.4201551
  58.1841649  26.5867943  65.0220675  56.8637013  27.3270754  65.0375283
  52.8746284  33.8890959  60.9008150  53.5697189  34.5097652  61.1195465
  53.2169435  33.0386311  61.1760528  38.4914094  25.7108760  74.7604967
  37.7495830  25.8591396  75.3469598  38.1706838  25.9717026  73.8971717
  54.7737708  31.3390665  62.4295481  55.2989032  31.6777938  61.7044801
  54.6860060  30.4037680  62.2458615  46.4357756  35.2524739  74.5585357
  46.7444883  35.0073885  75.4308057  47.2333238  35.4571377  74.0704228
  46.4578368  37.4062648  66.7890734  46.0183359  36.9139027  67.4823591
  47.2086485  36.8635616  66.5482809  38.9370707  33.5974189  66.7915362
  39.7628727  33.2977961  66.4114005  38.5864759  32.8281812  67.2405151
  43.9052240  32.9500657  68.8613036  43.2832250  32.2871362  68.5615263
  44.5757107  32.9761789  68.1786683  37.1379312  31.5160516  67.7504296
  36.3011221  31.0882690  67.5688297  37.1102958  31.7092959  68.6875087
  43.9776768  21.4282445  78.4545542  44.0264923  22.3044568  78.0723311
  44.5199282  20.8859838  77.8817185  54.4631614  31.9723569  77.7346679
  53.6727157  31.9547707  77.1951178  54.2264968  32.5111862  78.4895715
  54.5829489  28.8216035  75.0479407  54.6327494  28.6566042  75.9894930
  54.4743412  27.9543294  74.6577288  43.4665747  31.5004581  62.3371496
  43.6153868  32.1840045  61.6838169  44.2732191  31.4809671  62.8520952
  51.8733251  24.8046963  76.3638714  52.7743114  24.6653428  76.0722712
  51.9481226  24.9701418  77.3036891  46.2076056  22.1813818  75.2091900
  45.3379366  22.4747384  74.9374489  46.4435537  22.7654263  75.9299164
  56.0847685  31.2412976  75.2921429  55.7932494  31.6042957  76.1284890
  55.4719817  30.5279985  75.1134761  57.2843368  28.8065856  67.8123999
  58.1190259  29.2455660  67.9761559  57.4202497  28.3304509  66.9932245
  54.3334874  26.3645591  73.7601487  54.8088995  26.5573237  72.9520338
  53.4100439  26.4204777  73.5144870  41.2218380  27.5269758  63.3432565
  40.9764422  26.6232088  63.5412775  41.3914295  27.5286909  62.4012043
  48.9115090  18.3993435  72.7257321  49.4297034  19.1354462  72.4003809
  48.5570223  18.7057428  73.5604080  40.4914028  23.2598116  60.8418726
  39.7983273  23.3342471  60.1858762  40.2465780  22.4958459  61.3640243
  49.1627684  14.8193717  68.2458217  49.4429438  14.1516906  68.8718644
  49.9478291  15.0122813  67.7332881  53.0336543  23.2411351  71.9929792
  53.9853966  23.3409449  72.0142016  52.8639993  22.4489620  72.5027877
  51.0550922  20.3266934  72.1789193  50.4600854  20.6071947  71.4835682
  50.7700619  20.8160835  72.9505934  50.1858413  34.2789861  60.9391826
  51.1189086  34.2135423  61.1424701  50.0981625  35.1146128  60.4806358
  52.8146429  33.5955732  57.8995773  52.7360061  33.2615595  58.7931531
  53.6356096  34.0877499  57.8987246  55.5124620  26.4617471  71.1072092
  55.4800941  25.5233472  71.2931776  56.1225244  26.5401508  70.3737917
  55.6619109  23.2528514  71.1530375  55.1458158  22.4686971  70.9660304
  56.5459057  22.9247231  71.3176895  53.3229836  16.9969530  67.1126188
  53.1254657  16.6884618  67.9969520  53.9329541  17.7231169  67.2424118
  61.3301170  27.5233478  70.2478129  62.0604559  27.2618766  70.8085832
  60.7208116  26.7862200  70.2880197  59.4116467  25.6641340  70.8452580
  58.6849631  25.5297305  70.2369072  58.9963754  25.9718169  71.6509298
  47.2346644  29.3831270  78.6099953  48.1549653  29.5609869  78.8039999
  47.1996227  28.4387315  78.4579652  36.4528809  24.5769864  67.5353228
  36.1331593  23.7235172  67.2427602  35.9062237  24.7918442  68.2911195
  40.2308716  27.2932305  71.2522734  40.4494726  28.2249412  71.2710768
  40.6434490  26.9340279  72.0377538  47.1512934  17.8000390  63.2398423
  46.3413663  17.4547475  63.6153669  47.8397351  17.4907934  63.8286034
  49.0803483  16.8778437  64.8622719  49.6334521  17.2973890  65.5212742
  49.3173569  15.9514185  64.9045675  45.1036582  22.8665510  80.6425483
  45.0033309  23.8159867  80.5737574  44.8858124  22.5383749  79.7701553
  36.3217069  28.1972775  69.5046349  35.6280540  27.7826728  68.9916304
  37.0690060  28.2393312  68.9079768  52.4582290  18.9878962  64.3701383
  51.8780959  19.6463766  63.9879436  52.1918222  18.1656306  63.9588801
  50.9085856  18.3884020  66.5722704  51.4085634  18.5000554  65.7637023
  51.5521464  18.0845072  67.2123512  44.9667852  26.2962649  79.4590545
  44.4834934  27.0963009  79.6654434  45.0528791  26.3070594  78.5057989
  38.2353811  28.1291029  67.3812364  38.2124500  28.2278716  66.4294247
  38.5454448  28.9756180  67.7029530  40.8941189  30.1867184  71.4958979
  41.8484443  30.1551126  71.4288910  40.6953713  29.7257808  72.3109204
  41.4840571  28.7568300  74.0629776  42.3033460  29.2512379  74.0864613
  41.7577379  27.8400268  74.0347344  51.2407168  21.1479052  63.4257732
  50.3533023  21.4328703  63.2077926  51.6561157  20.9872816  62.5785009
  54.5921704  21.1725573  67.1412071  55.3682094  21.6622026  67.4136688
  53.8669838  21.5983627  67.5983940  57.0294262  21.8853192  68.1986012
  57.6238753  21.6448928  67.4879320  57.1020846  21.1660323  68.8259548
  39.2491418  35.7286803  68.5129176  39.1145886  34.9687204  67.9467174
  38.8323480  36.4527703  68.0457965  51.2148191  26.6633588  63.6408022
  51.1583393  27.1202140  62.8015654  51.7676534  25.9024273  63.4630865
  55.0252997  22.4523320  64.4658141  54.7689932  22.0519956  65.2966349
  54.4005865  23.1667114  64.3408280  59.3365335  25.1919393  66.9729433
  58.7764893  25.2612583  67.7460995  58.7308838  25.0160378  66.2528929
  42.4060544  36.6256120  68.7247619  42.2892928  37.5701553  68.6226309
  41.5852990  36.3229682  69.1133418  52.2937078  31.3506256  59.5704212
  53.1282682  30.9187455  59.3881687  52.1321421  31.1788270  60.4981106
  51.9482971  27.8538369  60.9360551  51.8931774  27.6882641  59.9948995
  51.3229026  28.5614402  61.0922741  36.7375486  23.0906434  74.7621973
  37.3834349  22.5805388  75.2509198  36.5292637  23.8275115  75.3365398
  49.2628878  30.1587281  80.2614114  50.1320037  30.3327934  79.9000749
  48.7835629  30.9781698  80.1389843  45.2579096  17.3546478  60.5145869
  45.2457766  18.2988318  60.6714140  46.1502518  17.1716624  60.2205331
  43.4315058  37.2784382  71.9403547  44.3342305  37.3107993  72.2570042
  43.2052428  36.3484833  71.9549883  45.1868660  36.0315369  68.6013626
  44.2364291  36.0317230  68.4877998  45.4901146  35.2848103  68.0849661
  49.0731216  13.9489255  64.7691806  48.3063611  13.3947742  64.9148489
  49.4841921  14.0211124  65.6305958  60.9221354  41.8675907  69.6659388
  61.5599764  41.7482655  68.9622729  60.8042196  42.8156751  69.7247341
  57.7311060  41.8203335  69.6020913  57.3929571  41.7044400  68.7141448
  58.6000828  41.4194500  69.5821919  53.5897876  43.6738812  65.5917804
  53.0262741  43.5828749  64.8234092  53.4750271  42.8538716  66.0720297
  58.2130843  42.9738187  75.5607119  58.2019484  42.5790985  74.6887622
  58.3751482  42.2404260  76.1540890  51.1362307  45.1690003  68.4302025
  51.9283599  44.8280828  68.0148324  51.3758958  45.2784978  69.3504178
  59.1697434  47.3409779  60.9032269  58.5185414  47.9263860  60.5166283
  59.9641797  47.8715974  60.9627306  54.9338104  45.7575299  74.5086303
  54.6427970  46.6620930  74.3932969  55.5695088  45.7991827  75.2230372
  55.8594311  43.1352147  71.0987662  56.4557883  42.9108170  70.3844625
  55.9169282  42.3936893  71.7013110  60.4762622  39.5927361  66.7412597
  61.2625711  39.1746784  66.3903014  60.7401326  40.4973453  66.9094245
  60.6472699  45.0300211  61.4401253  60.0118532  45.1034838  62.1522158
  60.3170106  45.6193810  60.7620333  65.8771049  39.5302594  67.6445575
  66.6096221  38.9601811  67.8783404  65.1210405  39.1424195  68.0852081
  55.1515628  42.4919689  61.1362228  55.0351886  41.8164592  61.8043313
  55.2617888  42.0052063  60.3194381  57.4947169  41.9529836  64.8408917
  57.1305376  41.4260457  65.5521839  58.3514285  41.5628305  64.6675403
  63.3996470  33.2424168  72.1040184  63.0679794  34.1119579  71.8801399
  62.8042083  32.9260452  72.7834214  57.1352656  36.9819736  59.8370266
  57.3027058  37.8499972  60.2040737  56.9449825  37.1447017  58.9131555
  59.8927989  45.4436714  71.5036096  59.5928712  46.3461753  71.3951904
  59.5479049  45.1768898  72.3557249  53.3440471  41.8950511  67.5372801
  52.4190967  41.7626725  67.7450493  53.5924884  42.6744730  68.0342743
  63.2925133  37.9619255  69.1833534  62.3842010  37.8934663  68.8892295
  63.2412729  38.4391200  70.0115359  57.1141877  39.4377393  60.8216933
  56.9941502  39.8834444  61.6602413  56.4194465  39.7862711  60.2630471
  50.7049282  41.5383785  68.3716590  50.8341663  41.7918264  69.2856002
  50.0246733  42.1311493  68.0521245  54.8748769  52.2081035  64.4707064
  54.7972799  53.1588860  64.5495545  54.2710412  51.8626907  65.1281990
  57.3665999  39.3808900  77.1268431  56.5899333  39.9402820  77.1171296
  58.0056562  39.8665683  77.6483301  65.1586779  36.1635693  70.9611408
  64.5161160  36.4568226  70.3151202  64.6541708  36.0488613  71.7664604
  62.8126943  39.9098866  61.6497267  63.7244799  40.1426253  61.4744964
  62.3036590  40.4935910  61.0872345  55.6212371  42.1894354  76.6886398
  56.3627055  42.7279398  76.4121222  54.9149356  42.8160642  76.8457950
  61.0967711  44.3323494  75.2858559  61.5051067  43.8905905  74.5413192
  60.3744972  43.7576122  75.5392752  57.4498781  39.2696101  72.6592116
  58.2959976  39.6935514  72.8026765  57.3897418  38.6129725  73.3530679
  61.4196525  44.8924685  69.0410848  60.7905388  45.0570399  68.3386916
  61.0322187  45.3066294  69.8121812  65.2985757  45.8279122  66.3955212
  64.6136795  46.2078024  65.8452245  65.3829606  46.4374449  67.1287160
  60.5998226  36.9300469  74.3173290  60.3559158  37.6842530  73.7807566
  60.8758156  37.3085817  75.1520537  62.5536689  43.4739082  72.9950556
  62.7653584  44.1170841  72.3184937  62.5066437  42.6401398  72.5272486
  60.1562918  36.0856902  69.8987128  59.2947397  36.3838156  70.1903865
  60.1825352  36.3027301  68.9668160  56.9724487  44.6299093  66.3060933
  57.4362833  44.9086796  65.5165556  56.7081285  43.7282537  66.1234024
  53.8648568  44.1770574  69.2440697  54.4349925  44.6057843  68.6058181
  54.4556680  43.8953159  69.9424882  55.9093373  40.7522245  63.1150499
  56.6117417  41.2043289  63.5824425  55.5774002  40.1106064  63.7430392
  54.3573735  39.3434002  77.4901708  53.7272395  40.0250283  77.7237105
  54.2509823  39.2317083  76.5454846  49.6518707  39.0105798  68.4167632
  48.8617761  39.2663326  67.9407743  50.1429955  39.8254136  68.5219673
  63.6682517  46.3511037  71.1672913  64.4899960  45.9491224  70.8855595
  63.6644920  46.2479271  72.1189029  51.6033453  39.3750377  65.3751109
  50.8064616  39.4869071  65.8934604  51.3759045  39.7137029  64.5091999
  57.4339120  45.8995080  73.3233623  57.4983553  46.3615487  74.1591795
  56.7250044  45.2692445  73.4515933  47.9356410  39.2636288  70.8482623
  48.1864449  40.1483298  71.1140199  48.4715959  39.0840890  70.0757715
  71.7588510  42.6949785  67.5157884  71.0052218  42.1257183  67.3601889
  71.8936051  42.6612450  68.4628519  57.1487138  47.5663188  63.1912604
  57.0132813  48.4114723  63.6197452  57.6896950  47.7682465  62.4278538
  53.6354477  33.6454768  79.8526959  53.2421423  33.0920966  80.5274603
  54.4520618  33.9565346  80.2433477  50.6016535  45.0838626  63.7640529
  51.1141056  45.8781876  63.9146094  51.2539248  44.3864916  63.6974130
  52.4111420  48.2004382  65.8463282  52.5878048  49.1222347  65.6584266
  53.2068253  47.8862801  66.2757662  56.5522438  35.0612647  77.4447216
  57.2932152  35.6619800  77.3651678  56.7840361  34.3190284  76.8865258
  51.6963776  40.2469014  75.7225445  51.5817292  39.3454271  76.0232544
  50.8408294  40.4932711  75.3710262  58.7755614  48.1886754  77.3212946
  58.3319468  47.4023133  77.0033850  59.4372828  48.3765905  76.6556837
  53.5342735  49.7182556  71.8473624  54.0850160  49.5899619  71.0750618
  52.6954211  50.0177445  71.4968517  60.8736852  48.4689554  75.3494347
  60.8555328  49.2898435  74.8574616  61.7956772  48.3443629  75.5744488
  57.3309906  45.9833684  76.1917855  57.8638243  45.2221972  75.9617163
  56.8023987  45.6907335  76.9342010  60.4979601  31.0893750  71.7211497
  60.1543871  31.9795391  71.6450608  60.8658564  30.8995407  70.8581082
  48.5665452  43.4127280  64.5400099  49.4040674  43.8224288  64.3233807
  48.7443720  42.4726722  64.5100293  60.4629884  41.0802361  60.2283932
  59.9476508  41.8506965  60.4672320  60.1907193  40.4067497  60.8516994
  58.0476995  35.9252061  65.2869171  57.1918591  35.5358912  65.1074809
  58.4603947  36.0044022  64.4268956  59.5776142  33.4598405  69.6860730
  59.0740937  33.4228540  68.8728536  59.8706749  34.3691147  69.7457387
  55.8219028  33.5437134  68.6926912  56.6872024  33.3479943  68.3332802
  55.8896537  33.3147486  69.6196269  65.4364158  43.8334715  62.1637106
  64.6593601  43.4945875  61.7192268  66.1155639  43.8387339  61.4892071
  60.2516187  38.9529453  62.0543714  59.9466323  39.2675602  62.9053857
  61.2046629  39.0310873  62.0971047  58.6962619  45.1119676  63.7036668
  58.1683981  44.3772436  63.3909905  58.1950122  45.8894352  63.4576636
  63.6755465  43.3068697  68.8203714  63.0179140  43.9967958  68.9083842
  64.4795864  43.6965129  69.1637700  53.4281347  35.7739342  66.0643279
  54.0025099  35.5514524  65.3316472  54.0152329  35.8428037  66.8171880
  62.4860924  41.6613069  66.8707656  62.9992806  42.2943061  67.3729365
  63.1362148  41.0614265  66.5051016  55.7304014  32.6480591  64.7918348
  55.0768427  32.3329608  64.1674963  55.6884489  32.0256332  65.5178171
  58.9641755  39.1362525  69.1165996  58.0464316  39.3577472  68.9587684
  59.3801898  39.2108835  68.2577703  59.7476803  40.5353941  64.2468676
  60.4948621  41.0475338  63.9375798  60.0168392  40.2137993  65.1073070
  58.0203453  43.0312481  61.2295631  57.1114672  42.7471514  61.3268100
  58.0498537  43.4511560  60.3698937  63.2522720  46.6419071  64.9986798
  62.7985047  45.8009981  65.0551989  62.6216687  47.2780469  65.3361578
  62.1955640  37.5711057  66.2287466  61.4578396  37.0588443  66.5597708
  62.4482413  37.1311438  65.4170743  61.6955659  48.4795567  65.9336616
  61.9878634  49.0400625  65.2148982  62.2054280  48.7724128  66.6889775
  62.2967267  30.3487309  66.8229235  62.6026144  29.4884672  66.5355150
  63.0219872  30.9404929  66.6228229  48.5891623  40.7517995  65.2110833
  48.3916023  40.1587356  64.4861899  48.0338287  40.4470206  65.9286772
  56.5688347  40.6441102  67.3305426  56.6236957  39.6914938  67.2547903
  55.7579549  40.8000541  67.8146724  54.5080707  39.2618162  65.0895805
  53.6948572  39.5612332  65.4960997  55.0039701  38.8673850  65.8070287
  56.6589285  49.2575919  67.0230070  56.6165463  49.4836765  66.0938602
  57.5751983  49.0239293  67.1715871  60.1054918  39.7259986  73.9210699
  60.4604306  39.9531459  74.7805164  60.7527050  40.0578363  73.2987954
  65.8352655  42.8478422  64.6260028  65.6970554  43.0380018  63.6981217
  65.4788874  43.6097805  65.0828079  53.9994781  36.8336517  70.7057040
  54.6394161  36.6925276  70.0080003  53.1672312  36.5471031  70.3295642
  65.8622035  44.9154949  69.6371299  66.2958542  44.8230238  70.4854353
  66.5753616  44.8912449  68.9991315  54.7755085  46.1338948  66.8192032
  55.5695684  45.6389268  66.6174607  54.0646778  45.6056811  66.4559738
  59.5949930  48.5157043  71.1704400  59.6486952  49.0847979  71.9382116
  58.7264711  48.6858928  70.8058437  51.0837849  40.2782029  62.8951785
  50.1535437  40.2166485  63.1121747  51.1795321  39.7557982  62.0988426
  51.0023398  36.8036842  65.4830027  51.2630215  37.7182175  65.3739187
  51.8240570  36.3361285  65.6326639  52.4748323  38.2174599  72.6528851
  53.1471377  38.0091961  72.0041500  51.6478110  38.0196685  72.2134083
  66.7237584  44.9578650  72.1704185  66.9173475  45.8624460  72.4163460
  66.6238203  44.4986069  73.0042770  58.3773895  34.8436540  74.6694512
  57.7301810  35.5426490  74.5758988  59.1474911  35.2772684  75.0370760
  61.7852693  45.1085392  77.7445065  61.6338200  44.8795944  76.8275149
  61.7757373  46.0655994  77.7576410  58.5538030  42.6817305  72.7291332
  59.4830090  42.8328465  72.5560299  58.1329060  42.7701326  71.8739978
  57.3526361  46.7067970  70.4989869  57.2137447  46.3386754  71.3715807
  56.5640958  47.2215609  70.3273827  57.9474513  51.8077066  61.8415406
  58.1226269  51.3365109  62.6561029  57.2607301  52.4342832  62.0696667
  58.9031576  46.0849572  67.8878707  58.5681409  46.0450342  68.7836357
  58.4035522  45.4194288  67.4149117  52.8775820  41.4917202  73.4131288
  52.7395618  40.7597441  74.0142827  53.7880744  41.4026102  73.1315476
  61.8390768  43.4305607  58.1615767  61.2219939  42.7052435  58.0648819
  61.3707257  44.1914967  57.8182841  55.5058121  41.2037162  72.9014968
  56.2157740  40.5630354  72.8601586  55.4627429  41.4550056  73.8241149
  63.4944900  48.1404515  75.8221547  63.4357446  47.4563735  75.1552130
  63.8964418  48.8823505  75.3702173  54.2187055  38.1902379  74.7210607
  53.6824412  37.7393118  75.3732204  53.6303764  38.3248288  73.9781072
  52.5135599  54.9566429  68.6155266  52.7532197  55.5884953  69.2934285
  51.6704795  54.6054469  68.9020625  63.4962307  46.1044099  74.0535527
  62.6089086  45.7670021  74.1761926  64.0660858  45.3727130  74.2904292
  45.1491454  42.4368191  67.3778578  45.8362494  42.1229921  66.7899594
  44.9939583  43.3409555  67.1045830  49.9526176  37.3258387  71.8063602
  49.8684365  36.7184057  71.0714012  49.1308883  37.8167405  71.8073098
  57.0263460  50.7645551  71.0196770  56.9533632  51.5700523  71.5316075
  56.5840854  50.9637517  70.1944791  56.8153240  50.0017321  64.5299592
  56.0320762  50.5439001  64.6237816  57.5145985  50.5191301  64.9293833
  60.1249890  35.8111951  67.1733797  60.6218590  35.0581913  66.8534867
  59.3536872  35.8476267  66.6077006  67.9779648  41.5152316  68.8152088
  67.9669524  42.3977032  68.4446022  67.1097027  41.1623867  68.6206626
  59.4862144  50.6632385  73.1754929  60.1990116  51.2979850  73.1030830
  58.9952173  50.7596251  72.3594931  61.2079671  44.5683638  64.7472220
  60.2735950  44.6885100  64.5776925  61.3856339  43.6656105  64.4832230
  56.7084859  37.9529334  66.9005482  56.3382646  37.4000374  67.5886387
  57.2043951  37.3487467  66.3480482  64.5952222  40.4100957  65.2822255
  65.0612674  41.2428949  65.2082557  65.0459723  39.9445939  65.9867513
  54.5374058  48.4126829  73.9960500  55.2383517  49.0463312  74.1489894
  54.0669173  48.7541560  73.2356139  62.6628453  46.7544778  62.2808407
  62.9388297  46.6401373  63.1902281  61.7932952  46.3562263  62.2420580
  62.5668885  32.7781544  69.3213156  61.6531965  33.0085771  69.4895363
  62.9961986  32.8619988  70.1727188  62.3375343  40.9671436  71.8213050
  61.6846794  41.2147344  71.1665503  62.7155723  40.1535574  71.4875527
  59.2982517  51.0031129  65.9241220  59.4804912  50.1852785  66.3868972
  60.1215503  51.2198822  65.4866110  59.6324683  49.9299314  63.1856269
  60.1612449  49.4191769  62.5726431  59.8952902  49.6141845  64.0501802
  58.3862916  41.7091247  78.3079087  57.7103554  41.6085377  78.9781462
  59.2090550  41.5530461  78.7715084  50.1341776  47.9463184  70.9291602
  50.7195212  47.2006872  71.0619506  49.9366614  48.2567140  71.8128266
  52.9880431  50.9814431  65.9454045  52.3190806  51.4660559  65.4618085
  52.8493300  51.2283652  66.8597423  44.7259430  40.5168784  69.6496045
  44.7643530  39.9832375  70.4433163  44.2199723  39.9903989  69.0307023
  57.1285699  53.0158175  72.5436703  57.6804007  53.1789796  73.3085788
  57.4691893  53.6062612  71.8716728  52.1050193  35.3633324  73.1458588
  52.1691519  36.2248155  72.7335985  52.0417313  34.7507326  72.4130946
  51.5802465  37.4356457  76.7931622  52.2074504  37.0533534  77.4069146
  50.7230384  37.2170659  77.1587314  61.9796574  47.8419432  78.3985357
  62.5236478  48.4549390  77.9040312  61.3983419  48.3999011  78.9152370
  48.3568008  39.2432886  62.7249977  48.6521449  38.3343565  62.6717030
  47.4556044  39.2220626  62.4030979  60.2654087  50.9640150  69.5300385
  60.1405226  50.1629890  69.0211331  60.9233178  51.4586344  69.0414355
  51.8862255  37.3188883  68.7077525  51.1648841  37.9324850  68.5684999
  52.6755511  37.8546648  68.6294171  62.3288995  48.7649170  71.1579935
  61.3819331  48.6454521  71.0858262  62.6771768  47.8771668  71.2406197
  54.6888568  34.6543309  74.9818177  55.2122970  34.9005606  75.7444486
  54.4700902  35.4863344  74.5621314  50.0855849  36.9246984  62.8489302
  49.7568556  36.0444363  62.6664408  50.4395220  36.8694652  63.7365691
  59.3335428  48.5601886  67.3584287  59.1860391  47.6318594  67.5391857
  60.1588922  48.5821977  66.8741363  53.1997673  37.2119954  63.2164780
  53.5393745  37.7405875  62.4943388  53.6469793  37.5500360  63.9923346
  62.9369550  49.3830445  68.4449160  63.8616098  49.1773307  68.3073611
  62.7684854  49.1346846  69.3538502  55.8941113  35.5957004  72.6667848
  55.5537934  34.7964817  73.0688528  55.1880120  35.8958715  72.0944681
  56.5457585  32.6806317  71.1195171  57.3683655  32.2066795  70.9974061
  56.7895649  33.4596800  71.6193857  55.1865820  35.7094575  61.4158072
  55.9074182  36.0875828  60.9121789  54.5631124  36.4283452  61.5193050
  59.3296943  36.4139724  62.3516405  59.5460557  37.2964362  62.0505233
  58.8491010  36.0225938  61.6222047  54.0696164  39.3725437  68.9287149
  53.9240745  39.6865740  69.8211431  53.5921368  39.9910338  68.3758048
  55.9292547  36.3627985  68.9768039  55.9154116  35.4669079  68.6400337
  56.6464975  36.3698649  69.6106325  57.7818678  36.7965326  71.0221166
  57.5236455  37.7182396  71.0205497  57.2503718  36.3995760  71.7121630
  62.7264866  49.9016113  63.8011252  62.9001744  49.3362535  63.0485104
  63.2193758  50.7017008  63.6190742  48.5441826  41.9130782  71.8674810
  47.9995294  42.6890590  71.9995085  49.4221176  42.2601586  71.7093932
  55.3329443  35.2442366  64.2455609  55.4545354  34.3159012  64.4446496
  55.0431485  35.2581052  63.3333924  58.2020633  32.9297276  67.3822329
  58.2242330  32.9936609  66.4274308  58.6188692  32.0901785  67.5762835
  68.5804258  42.6652536  65.4201551  69.0235404  41.9159861  65.0220675
  67.7030768  42.6562672  65.0375283  63.7140039  49.2182877  60.9008150
  64.4090944  49.8389570  61.1195465  64.0563189  48.3678228  61.1760528
  49.3307848  41.0400678  74.7604967  48.5889584  41.1883313  75.3469598
  49.0100592  41.3008944  73.8971717  65.6131462  46.6682583  62.4295481
  66.1382786  47.0069855  61.7044801  65.5253815  45.7329598  62.2458615
  57.2751511  50.5816656  74.5585357  57.5838637  50.3365803  75.4308057
  58.0726993  50.7863295  74.0704228  57.2972123  52.7354566  66.7890734
  56.8577113  52.2430945  67.4823591  58.0480240  52.1927534  66.5482809
  49.7764462  48.9266107  66.7915362  50.6022482  48.6269879  66.4114005
  49.4258514  48.1573729  67.2405151  54.7445995  48.2792575  68.8613036
  54.1226004  47.6163280  68.5615263  55.4150862  48.3053707  68.1786683
  47.9773067  46.8452433  67.7504296  47.1404975  46.4174608  67.5688297
  47.9496712  47.0384877  68.6875087  54.8170522  36.7574363  78.4545542
  54.8658678  37.6336486  78.0723311  55.3593037  36.2151756  77.8817185
  65.3025368  47.3015486  77.7346679  64.5120912  47.2839625  77.1951178
  65.0658723  47.8403780  78.4895715  65.4223243  44.1507953  75.0479407
  65.4721248  43.9857960  75.9894930  65.3137166  43.2835212  74.6577288
  62.7127006  40.1338881  76.3638714  63.6136868  39.9945345  76.0722712
  62.7874980  40.2993335  77.3036891  57.0469811  37.5105735  75.2091900
  56.1773120  37.8039301  74.9374489  57.2829291  38.0946180  75.9299164
  66.9241440  46.5704894  75.2921429  66.6326248  46.9334875  76.1284890
  66.3113571  45.8571902  75.1134761  68.1237122  44.1357774  67.8123999
  68.9584014  44.5747578  67.9761559  68.2596251  43.6596427  66.9932245
  65.1728628  41.6937509  73.7601487  65.6482750  41.8865155  72.9520338
  64.2494194  41.7496695  73.5144870  52.0612135  42.8561676  63.3432565
  51.8158177  41.9524006  63.5412775  52.2308049  42.8578826  62.4012043
  59.7508845  33.7285352  72.7257321  60.2690789  34.4646379  72.4003809
  59.3963977  34.0349346  73.5604080  60.0021439  30.1485635  68.2458217
  60.2823193  29.4808824  68.8718644  60.7872046  30.3414730  67.7332881
  63.8730297  38.5703269  71.9929792  64.8247720  38.6701367  72.0142016
  63.7033748  37.7781537  72.5027877  61.8944677  35.6558852  72.1789193
  61.2994609  35.9363865  71.4835682  61.6094373  36.1452753  72.9505934
  61.0252167  49.6081779  60.9391826  61.9582840  49.5427341  61.1424701
  60.9375380  50.4438046  60.4806358  63.6540184  48.9247649  57.8995773
  63.5753815  48.5907513  58.7931531  64.4749851  49.4169417  57.8987246
  66.3518375  41.7909389  71.1072092  66.3194695  40.8525389  71.2931776
  66.9618999  41.8693425  70.3737917  58.1901706  40.6605442  57.1499296
  59.1360811  40.5311650  57.2187714  57.8115951  39.9220103  57.6268724
  66.5012863  38.5820432  71.1530375  65.9851912  37.7978889  70.9660304
  67.3852812  38.2539149  71.3176895  64.1623590  32.3261448  67.1126188
  63.9648412  32.0176536  67.9969520  64.7723296  33.0523086  67.2424118
  72.1694925  42.8525395  70.2478129  72.8998313  42.5910684  70.8085832
  71.5601870  42.1154117  70.2880197  70.2510222  40.9933258  70.8452580
  69.5243386  40.8589223  70.2369072  69.8357509  41.3010087  71.6509298
  58.0740398  44.7123188  78.6099953  58.9943408  44.8901787  78.8039999
  58.0389981  43.7679233  78.4579652  56.3744623  38.5855418  57.0854181
  55.4676078  38.2888531  57.1616895  56.6520604  38.2885236  56.2188467
  47.2922563  39.9061781  67.5353228  46.9725348  39.0527090  67.2427602
  46.7455992  40.1210359  68.2911195  51.0702471  42.6224222  71.2522734
  51.2888481  43.5541330  71.2710768  51.4828245  42.2632197  72.0377538
  57.9906689  33.1292308  63.2398423  57.1807417  32.7839393  63.6153669
  58.6791106  32.8199851  63.8286034  59.9197237  32.2070354  64.8622719
  60.4728276  32.6265808  65.5212742  60.1567323  31.2806103  64.9045675
  55.9430336  38.1957428  80.6425483  55.8427063  39.1451785  80.5737574
  55.7251878  37.8675667  79.7701553  55.1443408  35.4442353  57.2266160
  56.0062572  35.7697251  57.4861978  55.3293752  34.6573849  56.7139226
  47.1610823  43.5264693  69.5046349  46.4674295  43.1118646  68.9916304
  47.9083814  43.5685229  68.9079768  63.2976044  34.3170880  64.3701383
  62.7174713  34.9755684  63.9879436  63.0311977  33.4948224  63.9588801
  61.7479610  33.7175937  66.5722704  62.2479389  33.8292472  65.7637023
  62.3915218  33.4136990  67.2123512  55.8061606  41.6254567  79.4590545
  55.3228688  42.4254927  79.6654434  55.8922545  41.6362512  78.5057989
  49.0747566  43.4582947  67.3812364  49.0518254  43.5570634  66.4294247
  49.3848202  44.3048097  67.7029530  51.7334944  45.5159102  71.4958979
  52.6878197  45.4843044  71.4288910  51.5347467  45.0549725  72.3109204
  52.3234326  44.0860218  74.0629776  53.1427215  44.5804296  74.0864613
  52.5971134  43.1692186  74.0347344  62.0800922  36.4770970  63.4257732
  61.1926777  36.7620621  63.2077926  62.4954911  36.3164733  62.5785009
  65.4315458  36.5017491  67.1412071  66.2075848  36.9913943  67.4136688
  64.7063592  36.9275545  67.5983940  67.8688017  37.2145110  68.1986012
  68.4632508  36.9740846  67.4879320  67.9414601  36.4952241  68.8259548
  50.0885173  51.0578721  68.5129176  49.9539640  50.2979122  67.9467174
  49.6717235  51.7819621  68.0457965  61.2244136  46.2415645  57.5205752
  61.9279986  46.4465647  58.1363407  60.5006784  46.8092407  57.7854835
  62.0541946  41.9925506  63.6408022  61.9977147  42.4494057  62.8015654
  62.6070288  41.2316190  63.4630865  65.8646752  37.7815238  64.4658141
  65.6083686  37.3811873  65.2966349  65.2399620  38.4959032  64.3408280
  70.1759090  40.5211311  66.9729433  69.6158648  40.5904500  67.7460995
  69.5702593  40.3452296  66.2528929  53.2454298  51.9548038  68.7247619
  53.1286683  52.8993471  68.6226309  52.4246745  51.6521600  69.1133418
  63.1330833  46.6798174  59.5704212  63.9676437  46.2479372  59.3881687
  62.9715176  46.5080188  60.4981106  62.7876725  43.1830287  60.9360551
  62.7325529  43.0174559  59.9948995  62.1622780  43.8906320  61.0922741
  47.5769240  38.4198352  74.7621973  48.2228104  37.9097305  75.2509198
  47.3686391  39.1567033  75.3365398  60.1022632  45.4879199  80.2614114
  60.9713792  45.6619851  79.9000749  59.6229384  46.3073616  80.1389843
  56.0972851  32.6838396  60.5145869  56.0851520  33.6280236  60.6714140
  56.9896272  32.5008542  60.2205331  54.2708813  52.6076300  71.9403547
  55.1736059  52.6399910  72.2570042  54.0446183  51.6776751  71.9549883
  56.0262415  51.3607287  68.6013626  55.0758046  51.3609148  68.4877998
  56.3294901  50.6140021  68.0849661  59.9124970  29.2781173  64.7691806
  59.1457366  28.7239659  64.9148489  60.3235675  29.3503042  65.6305958
  51.9166731  35.5665969  78.8596987  52.7798193  35.2102773  79.0700312
  51.3432142  35.2279863  79.5472392  71.7615108  57.1967825  69.6659388
  72.3993518  57.0774572  68.9622729  71.6435951  58.1448669  69.7247341
  68.5704814  57.1495253  69.6020913  68.2323326  57.0336318  68.7141448
  69.4394583  56.7486418  69.5821919  64.4291630  59.0030729  65.5917804
  63.8656495  58.9120666  64.8234092  64.3144025  58.1830634  66.0720297
  61.9756062  60.4981921  68.4302025  62.7677354  60.1572746  68.0148324
  62.2152712  60.6076896  69.3504178  70.0091189  62.6701697  60.9032269
  69.3579169  63.2555778  60.5166283  70.8035552  63.2007892  60.9627306
  63.9346816  59.7590834  61.3019403  64.7077692  59.2119821  61.1632279
  64.2872215  60.6235084  61.5133865  66.6988065  58.4644065  71.0987662
  67.2951638  58.2400088  70.3844625  66.7563037  57.7228811  71.7013110
  66.2713094  55.9183500  58.9337853  66.5238614  55.3965022  58.1721316
  65.3337653  55.7549646  59.0364537  71.3156377  54.9219279  66.7412597
  72.1019466  54.5038702  66.3903014  71.5795081  55.8265371  66.9094245
  71.4866454  60.3592129  61.4401253  70.8512287  60.4326756  62.1522158
  71.1563860  60.9485728  60.7620333  76.7164804  54.8594512  67.6445575
  77.4489976  54.2893729  67.8783404  75.9604159  54.4716112  68.0852081
  65.9909382  57.8211606  61.1362228  65.8745641  57.1456510  61.8043313
  66.1011642  57.3343980  60.3194381  68.3340923  57.2821753  64.8408917
  67.9699131  56.7552374  65.5521839  69.1908039  56.8920223  64.6675403
  74.2390224  48.5716086  72.1040184  73.9073549  49.4411497  71.8801399
  73.6435837  48.2552370  72.7834214  67.9746410  52.3111653  59.8370266
  68.1420813  53.1791890  60.2040737  67.7843579  52.4738935  58.9131555
  64.1834225  57.2242429  67.5372801  63.2584722  57.0918643  67.7450493
  64.4318638  58.0036648  68.0342743  74.1318887  53.2911172  69.1833534
  73.2235765  53.2226581  68.8892295  74.0806483  53.7683117  70.0115359
  67.9535631  54.7669311  60.8216933  67.8335256  55.2126361  61.6602413
  67.2588220  55.1154628  60.2630471  61.5443036  56.8675702  68.3716590
  61.6735417  57.1210181  69.2856002  60.8640487  57.4603410  68.0521245
  65.7142523  67.5372952  64.4707064  65.6366553  68.4880778  64.5495545
  65.1104167  67.1918825  65.1281990  75.9980534  51.4927611  70.9611408
  75.3554914  51.7860144  70.3151202  75.4935462  51.3780531  71.7664604
  73.6520697  55.2390784  61.6497267  74.5638554  55.4718171  61.4744964
  73.1430344  55.8227828  61.0872345  68.2892535  54.5988018  72.6592116
  69.1353730  55.0227432  72.8026765  68.2291173  53.9421643  73.3530679
  70.9956672  51.4148820  69.8987128  70.1341151  51.7130073  70.1903865
  71.0219107  51.6319219  68.9668160  67.8118242  59.9591010  66.3060933
  68.2756587  60.2378713  65.5165556  67.5475040  59.0574455  66.1234024
  64.7042323  59.5062492  69.2440697  65.2743680  59.9349760  68.6058181
  65.2950435  59.2245077  69.9424882  66.7487128  56.0814163  63.1150499
  67.4511171  56.5335206  63.5824425  66.4167756  55.4397982  63.7430392
  60.4912462  54.3397715  68.4167632  59.7011516  54.5955244  67.9407743
  60.9823709  55.1546053  68.5219673  62.4427207  54.7042295  65.3751109
  61.6458370  54.8160989  65.8934604  62.2152799  55.0428947  64.5091999
  58.7750165  54.5928206  70.8482623  59.0258203  55.4775216  71.1140199
  59.3109713  54.4132807  70.0757715  67.9880892  62.8955105  63.1912604
  67.8526567  63.7406641  63.6197452  68.5290705  63.0974383  62.4278538
  61.4410290  60.4130543  63.7640529  61.9534810  61.2073794  63.9146094
  62.0933003  59.7156834  63.6974130  63.2505174  63.5296300  65.8463282
  63.4271803  64.4514264  65.6584266  64.0462008  63.2154719  66.2757662
  62.5357531  55.5760932  75.7225445  62.4211046  54.6746189  76.0232544
  61.6802049  55.8224628  75.3710262  71.3373356  46.4185667  71.7211497
  70.9937625  47.3087309  71.6450608  71.7052318  46.2287325  70.8581082
  59.4059206  58.7419198  64.5400099  60.2434428  59.1516206  64.3233807
  59.5837474  57.8018640  64.5100293  71.3023639  56.4094278  60.2283932
  70.7870262  57.1798883  60.4672320  71.0300947  55.7359415  60.8516994
  68.8870750  51.2543979  65.2869171  68.0312346  50.8650830  65.1074809
  69.2997701  51.3335940  64.4268956  70.4169896  48.7890322  69.6860730
  69.9134692  48.7520458  68.8728536  70.7100503  49.6983065  69.7457387
  66.6612782  48.8729052  68.6926912  67.5265779  48.6771861  68.3332802
  66.7290291  48.6439404  69.6196269  76.2757913  59.1626633  62.1637106
  75.4987355  58.8237793  61.7192268  76.9549394  59.1679256  61.4892071
  71.0909942  54.2821370  62.0543714  70.7860077  54.5967520  62.9053857
  72.0440384  54.3602790  62.0971047  69.5356374  60.4411594  63.7036668
  69.0077735  59.7064353  63.3909905  69.0343876  61.2186270  63.4576636
  64.2675101  51.1031260  66.0643279  64.8418853  50.8806442  65.3316472
  64.8546084  51.1719955  66.8171880  73.3254678  56.9904987  66.8707656
  73.8386560  57.6234979  67.3729365  73.9755902  56.3906182  66.5051016
  64.5944688  53.1335721  60.0839164  63.7582001  53.4710408  60.4048439
  64.4549458  52.9984701  59.1466301  66.5697769  47.9772509  64.7918348
  65.9162181  47.6621526  64.1674963  66.5278243  47.3548249  65.5178171
  67.6808974  58.2591804  56.7071641  66.7736036  58.0281058  56.9062790
  68.1780006  57.4629423  56.8945622  70.5877053  66.9689311  59.6268327
  69.9138751  67.2721008  60.2353285  70.9742875  67.7718392  59.2773784
  69.8035509  54.4654443  69.1165996  68.8858071  54.6869390  68.9587684
  70.2195653  54.5400753  68.2577703  70.5870557  55.8645858  64.2468676
  71.3342376  56.3767255  63.9375798  70.8562147  55.5429911  65.1073070
  68.8597207  58.3604399  61.2295631  67.9508426  58.0763432  61.3268100
  68.8892291  58.7803477  60.3698937  74.0916475  61.9710988  64.9986798
  73.6378802  61.1301898  65.0551989  73.4610441  62.6072387  65.3361578
  73.0349394  52.9002974  66.2287466  72.2972151  52.3880361  66.5597708
  73.2876168  52.4603356  65.4170743  72.5349414  63.8087485  65.9336616
  72.8272388  64.3692542  65.2148982  73.0448034  64.1016046  66.6889775
  73.1361022  45.6779226  66.8229235  73.4419898  44.8176590  66.5355150
  73.8613626  46.2696847  66.6228229  59.4285378  56.0809913  65.2110833
  59.2309777  55.4879274  64.4861899  58.8732042  55.7762123  65.9286772
  67.4082101  55.9733020  67.3305426  67.4630711  55.0206856  67.2547903
  66.5973303  56.1292459  67.8146724  68.5573295  59.9013143  58.5683709
  68.1192725  59.1849002  58.1089347  69.2983736  60.1289257  58.0068801
  65.3474461  54.5910079  65.0895805  64.5342327  54.8904250  65.4960997
  65.8433455  54.1965768  65.8070287  67.4983039  64.5867836  67.0230070
  67.4559218  64.8128683  66.0938602  68.4145738  64.3531211  67.1715871
  76.6746410  58.1770340  64.6260028  76.5364308  58.3671936  63.6981217
  76.3182629  58.9389722  65.0828079  64.8388536  52.1628435  70.7057040
  65.4787915  52.0217194  70.0080003  64.0066066  51.8762948  70.3295642
  65.6148840  61.4630865  66.8192032  66.4089438  60.9681185  66.6174607
  64.9040532  60.9348728  66.4559738  61.9231603  55.6073947  62.8951785
  60.9929191  55.5458402  63.1121747  62.0189075  55.0849900  62.0988426
  61.8417152  52.1328760  65.4830027  62.1023970  53.0474093  65.3739187
  62.6634325  51.6653202  65.6326639  63.3142078  53.5466517  72.6528851
  63.9865131  53.3383879  72.0041500  62.4871864  53.3488603  72.2134083
  69.2167650  50.1728458  74.6694512  68.5695565  50.8718408  74.5758988
  69.9868665  50.6064602  75.0370760  68.7868268  67.1368984  61.8415406
  68.9620023  66.6657027  62.6561029  68.1001056  67.7634750  62.0696667
  69.7425331  61.4141490  67.8878707  69.4075164  61.3742260  68.7836357
  69.2429277  60.7486206  67.4149117  63.7169575  56.8209120  73.4131288
  63.5789373  56.0889359  74.0142827  64.6274498  56.7318020  73.1315476
  72.6784523  58.7597524  58.1615767  72.0613693  58.0344352  58.0648819
  72.2101011  59.5206885  57.8182841  66.3451876  56.5329079  72.9014968
  67.0551494  55.8922271  72.8601586  66.3021184  56.7841974  73.8241149
  65.0580810  53.5194297  74.7210607  64.5218167  53.0685036  75.3732204
  64.4697518  53.6540206  73.9781072  64.4683069  52.9782949  57.2837071
  63.5912535  52.8571749  56.9199318  64.9440822  52.1869027  57.0315960
  55.9885209  57.7660108  67.3778578  56.6756249  57.4521838  66.7899594
  55.8333337  58.6701473  67.1045830  60.7919931  52.6550305  71.8063602
  60.7078120  52.0475974  71.0714012  59.9702637  53.1459323  71.8073098
  67.6546995  65.3309239  64.5299592  66.8714516  65.8730919  64.6237816
  68.3539740  65.8483219  64.9293833  70.9643645  51.1403868  67.1733797
  71.4612344  50.3873831  66.8534867  70.1930626  51.1768185  66.6077006
  72.0473425  59.8975556  64.7472220  71.1129704  60.0177018  64.5776925
  72.2250094  58.9948022  64.4832230  67.5478613  53.2821251  66.9005482
  67.1776401  52.7292292  67.5886387  68.0437706  52.6779385  66.3480482
  75.4345977  55.7392875  65.2822255  75.9006429  56.5720866  65.2082557
  75.8853477  55.2737856  65.9867513  73.5022208  62.0836696  62.2808407
  73.7782052  61.9693291  63.1902281  72.6326707  61.6854181  62.2420580
  73.4062639  48.1073462  69.3213156  72.4925719  48.3377689  69.4895363
  73.8355741  48.1911906  70.1727188  70.1376272  66.3323047  65.9241220
  70.3198666  65.5144703  66.3868972  70.9609258  66.5490739  65.4866110
  70.4718437  65.2591232  63.1856269  71.0006204  64.7483687  62.5726431
  70.7346657  64.9433762  64.0501802  60.9735530  63.2755101  70.9291602
  61.5588967  62.5298789  71.0619506  60.7760369  63.5859058  71.8128266
  63.8274185  66.3106349  65.9454045  63.1584561  66.7952476  65.4618085
  63.6887055  66.5575569  66.8597423  55.5653185  55.8460702  69.6496045
  55.6037284  55.3124292  70.4433163  55.0593478  55.3195907  69.0307023
  62.9443947  50.6925242  73.1458588  63.0085274  51.5540073  72.7335985
  62.8811067  50.0799244  72.4130946  62.4196220  52.7648375  76.7931622
  63.0468258  52.3825452  77.4069146  61.5624138  52.5462577  77.1587314
  62.7256009  52.6480800  68.7077525  62.0042595  53.2616768  68.5684999
  63.5149265  53.1838565  68.6294171  65.5282323  49.9835227  74.9818177
  66.0516725  50.2297523  75.7444486  65.3094656  50.8155262  74.5621314
  60.9249604  52.2538901  62.8489302  60.5962310  51.3736280  62.6664408
  61.2788975  52.1986570  63.7365691  70.1729183  63.8893804  67.3584287
  70.0254145  62.9610512  67.5391857  70.9982676  63.9113895  66.8741363
  64.0391427  52.5411871  63.2164780  64.3787500  53.0697792  62.4943388
  64.4863548  52.8792277  63.9923346  66.7334868  50.9248922  72.6667848
  66.3931688  50.1256735  73.0688528  66.0273874  51.2250633  72.0944681
  67.3851340  48.0098234  71.1195171  68.2077409  47.5358713  70.9974061
  67.6289403  48.7888718  71.6193857  66.0259574  51.0386493  61.4158072
  66.7467937  51.4167746  60.9121789  65.4024878  51.7575370  61.5193050
  70.1690697  51.7431642  62.3516405  70.3854312  52.6256280  62.0505233
  69.6884764  51.3517855  61.6222047  64.9089919  54.7017355  68.9287149
  64.7634499  55.0157658  69.8211431  64.4315122  55.3202255  68.3758048
  66.7686301  51.6919903  68.9768039  66.7547870  50.7960996  68.6400337
  67.4858730  51.6990567  69.6106325  68.6212432  52.1257243  71.0221166
  68.3630210  53.0474314  71.0205497  68.0897472  51.7287678  71.7121630
  73.5658621  65.2308030  63.8011252  73.7395498  64.6654453  63.0485104
  74.0587512  66.0308925  63.6190742  59.3835581  57.2422699  71.8674810
  58.8389049  58.0182507  71.9995085  60.2614931  57.5893504  71.7093932
  66.1723197  50.5734283  64.2455609  66.2939109  49.6450929  64.4446496
  65.8825240  50.5872969  63.3333924  69.0414388  48.2589194  67.3822329
  69.0636085  48.3228527  66.4274308  69.4582447  47.4193702  67.5762835
  79.4198012  57.9944453  65.4201551  79.8629158  57.2451778  65.0220675
  78.5424522  57.9854590  65.0375283  74.5533793  64.5474795  60.9008150
  75.2484698  65.1681487  61.1195465  74.8956944  63.6970146  61.1760528
  60.1701603  56.3692596  74.7604967  59.4283339  56.5175231  75.3469598
  59.8494347  56.6300861  73.8971717  76.4525216  61.9974500  62.4295481
  76.9776541  62.3361773  61.7044801  76.3647569  61.0621516  62.2458615
  60.6158216  64.2558024  66.7915362  61.4416236  63.9561796  66.4114005
  60.2652268  63.4865647  67.2405151  65.5839749  63.6084493  68.8613036
  64.9619759  62.9455198  68.5615263  66.2544616  63.6345625  68.1786683
  58.8166821  62.1744351  67.7504296  57.9798730  61.7466525  67.5688297
  58.7890467  62.3676794  68.6875087  65.1453256  62.1588416  62.3371496
  65.2941377  62.8423880  61.6838169  65.9519700  62.1393506  62.8520952
  62.9005889  58.1853594  63.3432565  62.6551931  57.2815924  63.5412775
  63.0701804  58.1870744  62.4012043  70.5902599  49.0577270  72.7257321
  71.1084543  49.7938297  72.4003809  70.2357732  49.3641263  73.5604080
  62.1701537  53.9181951  60.8418726  61.4770782  53.9926306  60.1858762
  61.9253289  53.1542295  61.3640243  70.8415193  45.4777553  68.2458217
  71.1216947  44.8100742  68.8718644  71.6265800  45.6706648  67.7332881
  68.6448662  64.6536546  59.8083244  68.0722629  65.2726734  59.3553715
  69.2181455  65.2035908  60.3423165  72.7338431  50.9850770  72.1789193
  72.1388363  51.2655782  71.4835682  72.4488128  51.4744671  72.9505934
  71.8645922  64.9373697  60.9391826  72.7976595  64.8719258  61.1424701
  71.7769134  65.7729963  60.4806358  74.4933938  64.2539567  57.8995773
  74.4147570  63.9199431  58.7931531  75.3143605  64.7461335  57.8987246
  69.0295460  55.9897359  57.1499296  69.9754565  55.8603567  57.2187714
  68.6509705  55.2512021  57.6268724  75.0017345  47.6553365  67.1126188
  74.8042166  47.3468453  67.9969520  75.6117050  48.3815004  67.2424118
  67.2138377  53.9147336  57.0854181  66.3069833  53.6180448  57.1616895
  67.4914358  53.6177154  56.2188467  58.1316318  55.2353699  67.5353228
  57.8119102  54.3819007  67.2427602  57.5849746  55.4502277  68.2911195
  61.9096225  57.9516140  71.2522734  62.1282235  58.8833248  71.2710768
  62.3221999  57.5924114  72.0377538  68.8300443  48.4584225  63.2398423
  68.0201172  48.1131310  63.6153669  69.5184860  48.1491769  63.8286034
  70.7590991  47.5362272  64.8622719  71.3122030  47.9557726  65.5212742
  70.9961078  46.6098020  64.9045675  65.9837162  50.7734271  57.2266160
  66.8456326  51.0989169  57.4861978  66.1687506  49.9865767  56.7139226
  58.0004578  58.8556610  69.5046349  57.3068049  58.4410563  68.9916304
  58.7477569  58.8977147  68.9079768  74.1369799  49.6462797  64.3701383
  73.5568468  50.3047601  63.9879436  73.8705731  48.8240142  63.9588801
  72.5873365  49.0467855  66.5722704  73.0873143  49.1584389  65.7637023
  73.2308973  48.7428908  67.2123512  59.9141320  58.7874864  67.3812364
  59.8912008  58.8862552  66.4294247  60.2241957  59.6340015  67.7029530
  62.5728698  60.8451019  71.4958979  63.5271952  60.8134962  71.4288910
  62.3741222  60.3841643  72.3109204  72.9194677  51.8062888  63.4257732
  72.0320532  52.0912538  63.2077926  73.3348666  51.6456651  62.5785009
  76.2709213  51.8309409  67.1412071  77.0469603  52.3205861  67.4136688
  75.5457347  52.2567463  67.5983940  78.7081771  52.5437028  68.1986012
  79.3026262  52.3032764  67.4879320  78.7808355  51.8244158  68.8259548
  60.9278927  66.3870639  68.5129176  60.7933395  65.6271040  67.9467174
  60.5110989  67.1111539  68.0457965  72.0637890  61.5707562  57.5205752
  72.7673740  61.7757565  58.1363407  71.3400539  62.1384324  57.7854835
  72.8935700  57.3217424  63.6408022  72.8370902  57.7785975  62.8015654
  73.4464043  56.5608108  63.4630865  76.7040506  53.1107155  64.4658141
  76.4477440  52.7103791  65.2966349  76.0793374  53.8250949  64.3408280
  81.0152844  55.8503229  66.9729433  80.4552402  55.9196418  67.7460995
  80.4096347  55.6744213  66.2528929  73.9724587  62.0090092  59.5704212
  74.8070191  61.5771290  59.3881687  73.8108930  61.8372105  60.4981106
  73.6270480  58.5122205  60.9360551  73.5719283  58.3466476  59.9948995
  73.0016535  59.2198238  61.0922741  58.4162995  53.7490269  74.7621973
  59.0621858  53.2389223  75.2509198  58.2080146  54.4858951  75.3365398
  66.9366605  48.0130314  60.5145869  66.9245275  48.9572154  60.6714140
  67.8290027  47.8300459  60.2205331  70.7518725  44.6073090  64.7691806
  69.9851120  44.0531577  64.9148489  71.1629430  44.6794959  65.6305958
  77.1106848  71.2475418  58.9337853  77.3632369  70.7256939  58.1721316
  76.1731407  71.0841564  59.0364537  78.8140165  67.6403571  59.8370266
  78.9814567  68.5083807  60.2040737  78.6237334  67.8030853  58.9131555
  75.4338443  68.4627639  60.0839164  74.5975755  68.8002325  60.4048439
  75.2943212  68.3276619  59.1466301  77.4091523  63.3064427  64.7918348
  76.7555936  62.9913444  64.1674963  77.3671998  62.6840167  65.5178171
  78.5202728  73.5883722  56.7071641  77.6129790  73.3572975  56.9062790
  79.0173760  72.7921341  56.8945622  72.7625358  70.9365865  62.8951785
  71.8322946  70.8750320  63.1121747  72.8582830  70.4141817  62.0988426
  75.3076823  68.3074866  57.2837071  74.4306289  68.1863667  56.9199318
  75.7834576  67.5160945  57.0315960  70.0355517  69.9016721  62.7249977
  70.3308958  68.9927400  62.6717030  69.1343553  69.8804461  62.4030979
  71.7643358  67.5830819  62.8489302  71.4356065  66.7028198  62.6664408
  72.1182729  67.5278488  63.7365691  76.8653329  66.3678411  61.4158072
  77.5861691  66.7459663  60.9121789  76.2418633  67.0867287  61.5193050
  77.0116952  65.9026201  64.2455609  77.1332863  64.9742847  64.4446496
  76.7218994  65.9164887  63.3333924  73.0095291  69.2473869  60.8418726
  72.3164536  69.3218224  60.1858762  72.7647043  68.4834213  61.3640243
  79.8689215  71.3189277  57.1499296  80.8148320  71.1895485  57.2187714
  79.4903460  70.5803939  57.6268724  78.0532132  69.2439253  57.0854181
  77.1463587  68.9472366  57.1616895  78.3308113  68.9469071  56.2188467
  79.6694198  63.7876143  63.2398423  78.8594926  63.4423228  63.6153669
  80.3578615  63.4783687  63.8286034  76.8230917  66.1026188  57.2266160
  77.6850081  66.4281087  57.4861978  77.0081261  65.3157684  56.7139226
  77.7760360  63.3422231  60.5145869  77.7639029  64.2864071  60.6714140
  78.6683781  63.1592377  60.2205331  81.5912479  59.9365008  64.7691806
  80.8244875  59.3823495  64.9148489  82.0023184  60.0086877  65.6305958
  33.1961261  -1.4440678  51.1952371  33.1185291  -0.4932853  51.2740851
  32.5922905  -1.7894805  51.8527297  31.8555228  -3.9339157  58.5718931
  32.4062653  -4.0622094  57.7995925  31.0166704  -3.6344268  58.2213824
  38.0695790  -2.0124319  46.3513633  37.3957489  -1.7092622  46.9598591
  38.4561612  -1.2095239  46.0019090  36.2687006  -1.8444647  48.5660713
  36.4438761  -2.3156604  49.3806335  35.5819794  -1.2178881  48.7941973
  30.8348091   1.3044716  55.3400573  31.0744689   1.9363240  56.0179591
  29.9917287   0.9532756  55.6265932  35.3475953  -2.8876162  57.7442077
  35.2746124  -2.0821190  58.2561381  34.9053346  -2.6884196  56.9190098
  35.1365732  -3.6504392  51.2544898  34.3533254  -3.1082711  51.3483123
  35.8358478  -3.1330412  51.6539139  37.8074636  -2.9889328  59.9000235
  38.5202608  -2.3541863  59.8276137  37.3164665  -2.8925462  59.0840237
  28.4554268  -5.7058529  57.6536909  29.0407705  -6.4514841  57.7864813
  28.2579106  -5.3954572  58.5373573  31.3092923  -2.6707282  52.6699351
  30.6403298  -2.1861154  52.1863391  31.1705793  -2.4238061  53.5842730
  35.4498192  -0.6363538  59.2682010  36.0016500  -0.4731917  60.0331095
  35.7904385  -0.0459100  58.5962034  35.5964003  -3.0705057  61.2830664
  35.9051129  -3.3155910  62.1553364  36.3939485  -2.8658418  60.7949534
  35.6184615  -0.9167147  53.5136040  35.1789605  -1.4090768  54.2068897
  36.3692732  -1.4594179  53.2728116  28.0976954  -4.7255606  53.5160669
  28.9234974  -5.0251834  53.1359312  27.7471006  -5.4947984  53.9650457
  28.4097665  -2.5942992  55.2374483  28.2752133  -3.3542591  54.6712481
  27.9929727  -1.8702092  54.7703272  31.5666791  -1.6973675  55.4492926
  31.4499175  -0.7528242  55.3471616  30.7459237  -2.0000113  55.8378725
  32.5921305  -1.0445413  58.6648854  33.4948552  -1.0121802  58.9815349
  32.3658675  -1.9744962  58.6795190  34.3474907  -2.2914426  55.3258933
  33.3970538  -2.2912565  55.2123305  34.6507393  -3.0381692  54.8094967
  50.0827600   3.5446112  56.3904695  50.7206010   3.4252860  55.6868035
  49.9648443   4.4926956  56.4492647  46.8917307   3.4973540  56.3266220
  46.5535818   3.3814605  55.4386755  47.7607075   3.0964705  56.3067226
  42.7504122   5.3509017  52.3163111  42.1868987   5.2598954  51.5479398
  42.6356517   4.5308921  52.7965603  47.3737090   4.6508392  62.2852425
  47.3625730   4.2561190  61.4132929  47.5357729   3.9174465  62.8786197
  40.2968554   6.8460208  55.1547331  41.0889846   6.5051033  54.7393630
  40.5365204   6.9555183  56.0749485  48.3303681   9.0179984  47.6277576
  47.6791661   9.6034065  47.2411589  49.1248044   9.5486179  47.6872613
  42.2559308   6.1069122  48.0264710  43.0290184   5.5598109  47.8877586
  42.6084707   6.9713371  48.2379171  44.0944351   7.4345504  61.2331609
  43.8034217   8.3391135  61.1178276  44.7301335   7.4762031  61.9475679
  45.0200558   4.8122352  57.8232969  45.6164130   4.5878375  57.1089932
  45.0775529   4.0707098  58.4258417  44.5925586   2.2661788  45.6583160
  44.8451107   1.7443309  44.8966623  43.6550145   2.1027933  45.7609844
  49.8078946   6.7070416  48.1646560  49.1724779   6.7805043  48.8767465
  49.4776353   7.2964015  47.4865639  44.3121875   4.1689894  47.8607535
  44.1958133   3.4934797  48.5288619  44.4224135   3.6822268  47.0439688
  46.6553416   3.6300041  51.5654224  46.2911623   3.1030662  52.2767146
  47.5120532   3.2398510  51.3920710  49.0534236   7.1206919  58.2281403
  48.7534959   8.0231958  58.1197210  48.7085295   6.8539103  59.0802556
  42.5046717   3.5720716  54.2618107  41.5797214   3.4396930  54.4695799
  42.7531131   4.3514935  54.7588050  46.2748124   1.1147598  47.5462239
  46.1547749   1.5604649  48.3847720  45.5800712   1.4632916  46.9875778
  39.8655528   3.2153990  55.0961896  39.9947910   3.4688469  56.0101308
  39.1852980   3.8081698  54.7766552  44.0355016  13.8851240  51.1952371
  43.9579045  14.8359065  51.2740851  43.4316659  13.5397112  51.8527297
  46.5272245   1.0579105  63.8513738  45.7505579   1.6173025  63.8416602
  47.1662808   1.5435888  64.3728608  44.7818618   3.8664558  63.4131705
  45.5233302   4.4049602  63.1366528  44.0755603   4.4930847  63.5703256
  50.2573957   6.0093699  62.0103866  50.6657313   5.5676109  61.2658498
  49.5351219   5.4346326  62.2638059  46.6105027   0.9466306  59.3837423
  47.4566223   1.3705719  59.5272072  46.5503665   0.2899930  60.0775986
  50.5802772   6.5694890  55.7656155  49.9511634   6.7340604  55.0632223
  50.1928434   6.9836499  56.5367119  54.4592004   7.5049327  53.1200519
  53.7743042   7.8848229  52.5697552  54.5435853   8.1144654  53.8532466
  51.7142936   5.1509286  59.7195862  51.9259831   5.7941046  59.0430243
  51.6672684   4.3171603  59.2517792  46.1330734   6.3069298  53.0306240
  46.5969079   6.5857001  52.2410863  45.8687532   5.4052742  52.8479331
  43.0254815   5.8540779  55.9686003  43.5956172   6.2828048  55.3303488
  43.6162927   5.5723364  56.6670189  45.0699620   2.4292450  49.8395805
  45.7723663   2.8813494  50.3069732  44.7380248   1.7876269  50.4675698
  43.5179981   1.0204207  64.2147015  42.8878642   1.7020488  64.4482411
  43.4116069   0.9087288  63.2700153  38.8124954   0.6876003  55.1412939
  38.0224008   0.9433531  54.6653049  39.3036201   1.5024341  55.2464979
  52.8288763   8.0281242  57.8918220  53.6506207   7.6261429  57.6100901
  52.8251166   7.9249476  58.8434335  40.7639699   1.0520582  52.0996415
  39.9670863   1.1639276  52.6179911  40.5365291   1.3907234  51.2337306
  46.5945367   7.5765285  60.0478930  46.6589799   8.0385692  60.8837102
  45.8856291   6.9462650  60.1761240  37.0962657   0.9406493  57.5727930
  37.3470695   1.8253503  57.8385505  37.6322205   0.7611095  56.8003021
  46.3093385   9.2433393  49.9157910  46.1739059  10.0884928  50.3442758
  46.8503197   9.4452670  49.1523844  39.7622782   6.7608831  50.4885835
  40.2747303   7.5552081  50.6391400  40.4145495   6.0635121  50.4219437
  41.5717667   9.8774587  52.5708589  41.7484295  10.7992552  52.3829573
  42.3674500   9.5633006  53.0002968  40.8570023   1.9239219  62.4470752
  40.7423538   1.0224476  62.7477851  40.0014541   2.1702916  62.0955568
  47.9361861   9.8656959  64.0458252  47.4925715   9.0793338  63.7279157
  48.5979075  10.0536110  63.3802143  42.6948982  11.3952761  58.5718931
  43.2456407  11.2669824  57.7995925  41.8560458  11.6947650  58.2213824
  50.0343099  10.1459759  62.0739654  50.0161574  10.9668640  61.5819923
  50.9563019  10.0213834  62.2989795  46.4916153   7.6603889  62.9163162
  47.0244490   6.8992177  62.6862470  45.9630234   7.3677540  63.6587317
  37.7271699   5.0897485  51.2645406  38.5646921   5.4994493  51.0479114
  37.9049966   4.1496927  51.2345600  49.6236131   2.7572566  46.9529239
  49.1082754   3.5277170  47.1917626  49.3513439   2.0837702  47.5762300
  54.5970405   5.5104920  48.8882412  53.8199848   5.1716080  48.4437575
  55.2761886   5.5157543  48.2137378  47.8568866   6.7889881  50.4281974
  47.3290227   6.0542641  50.1155212  47.3556369   7.5664557  50.1821942
  52.8361712   4.9838902  55.5449020  52.1785386   5.6738163  55.6329149
  53.6402111   5.3735333  55.8883007  51.6467171   3.3383274  53.5952962
  52.1599052   3.9713266  54.0974672  52.2968395   2.7384470  53.2296322
  42.9157181  -0.5185992  46.8084471  42.0794493  -0.1811305  47.1293746
  42.7761950  -0.6537012  45.8711608  46.0021466   4.6070091  43.4316947
  45.0948528   4.3759345  43.6308096  46.4992498   3.8107711  43.6190929
  48.9089545  13.3167598  46.3513633  48.2351244  13.6199295  46.9598591
  49.2955367  14.1196679  46.0019090  48.1248002   0.8132730  55.8411303
  47.2070563   1.0347677  55.6832991  48.5408145   0.8879040  54.9823010
  48.9083049   2.2124145  50.9713983  49.6554868   2.7245543  50.6621105
  49.1774639   1.8908198  51.8318377  47.1809699   4.7082686  47.9540937
  46.2720919   4.4241719  48.0513407  47.2104783   5.1281765  47.0944244
  52.4128967   8.3189276  51.7232105  51.9591294   7.4780186  51.7797295
  51.7822934   8.9550674  52.0606885  50.8561906  10.1565772  52.6581923
  51.1484881  10.7170829  51.9394289  51.3660527  10.4494333  53.4135082
  37.7497870   2.4288200  51.9356139  37.5522270   1.8357561  51.2107206
  37.1944534   2.1240410  52.6532078  45.7294594   2.3211307  54.0550733
  45.7843203   1.3685143  53.9793209  44.9185796   2.4770746  54.5392031
  46.8785787   6.2491430  45.2929016  46.4405217   5.5327289  44.8334653
  47.6196228   6.4767545  44.7314107  43.6686953   0.9388367  51.8141111
  42.8554819   1.2382537  52.2206304  44.1645948   0.5444055  52.5315594
  45.8195531  10.9346123  53.7475376  45.7771710  11.1606970  52.8183908
  46.7358230  10.7009498  53.8961177  49.2661165   1.4030191  60.6456005
  49.6210553   1.6301664  61.5050471  49.9133296   1.7348568  60.0233261
  54.9958902   4.5248627  51.3505334  54.8576801   4.7150223  50.4226524
  54.6395121   5.2868010  51.8073386  55.0228282   6.5925154  56.3616606
  55.4564788   6.5000443  57.2099660  55.7359862   6.5682654  55.7236622
  43.9361332   7.8109152  53.5437339  44.7301931   7.3159473  53.3419914
  43.2253024   7.2827016  53.1805044  48.7556177  10.1927248  57.8949707
  48.8093199  10.7618184  58.6627422  47.8870958  10.3629133  57.5303744
  40.2444096   1.9552234  49.6197092  39.3141684   1.8936690  49.8367054
  40.3401568   1.4328187  48.8233733  40.1629645  -1.5192953  52.2075333
  40.4236462  -0.6047620  52.0984494  40.9846817  -1.9868510  52.3571946
  41.6354570  -0.1055196  59.3774158  42.3077623  -0.3137834  58.7286807
  40.8084356  -0.3033110  58.9379390  55.8843831   6.6348855  58.8949491
  56.0779721   7.5394665  59.1408766  55.7844449   6.1756274  59.7288076
  50.9458940   6.7855597  64.4690372  50.7944446   6.5566149  63.5520456
  50.9363619   7.7426199  64.4821717  47.7144276   4.3587510  59.4536638
  48.6436336   4.5098670  59.2805606  47.2935306   4.4471531  58.5985285
  46.5132608   8.3838174  57.2235176  46.3743694   8.0156959  58.0961114
  45.7247204   8.8985814  57.0519134  47.1080760  13.4847271  48.5660713
  47.2832516  13.0135314  49.3806335  46.4213548  14.1113037  48.7941973
  48.0637823   7.7619777  54.6124014  47.7287656   7.7220547  55.5081664
  47.5641769   7.0964493  54.1394424  42.0382067   3.1687407  60.1376595
  41.9001865   2.4367646  60.7388134  42.9486991   3.0796307  59.8560783
  50.9997015   5.1075811  44.8861073  50.3826186   4.3822640  44.7894126
  50.5313503   5.8685172  44.5428148  44.6664368   2.8807367  59.6260275
  45.3763986   2.2400559  59.5846893  44.6233676   3.1320261  60.5486455
  52.6551147   9.8174720  62.5466854  52.5963693   9.1333940  61.8797437
  53.0570665  10.5593710  62.0947480  43.3793302  -0.1327416  61.4455914
  42.8430659  -0.5836677  62.0977510  42.7910010   0.0018493  60.7026378
  52.6568554   7.7814304  60.7780833  51.7695333   7.4440226  60.9007232
  53.2267105   7.0497335  61.0149599  34.3097701   4.1138396  54.1023885
  34.9968741   3.8000126  53.5144900  34.1545830   5.0179760  53.8291136
  39.1132423  -0.9971408  58.5308909  39.0290612  -1.6045738  57.7959318
  38.2915129  -0.5062390  58.5318405  46.1869707  12.4415756  57.7442077
  46.1139879  13.2470728  58.2561381  45.7447100  12.6407722  56.9190098
  45.9759487  11.6787526  51.2544898  45.1927009  12.2209206  51.3483123
  46.6752232  12.1961506  51.6539139  48.6468391  12.3402590  59.9000235
  49.3596363  12.9750055  59.8276137  48.1558419  12.4366456  59.0840237
  50.3685918   6.2453843  51.4717527  49.4342196   6.3655305  51.3022231
  50.5462586   5.3426310  51.2077537  43.6980304  10.0897034  60.7205806
  44.3989764  10.7233517  60.8735200  43.2275419  10.4311765  59.9601445
  51.8234700   8.4314983  49.0053713  52.0994544   8.3171578  49.9147587
  50.9539199   8.0332468  48.9665886  51.4981590   2.6441641  58.5458357
  50.8453040   2.8917549  57.8910809  51.8761970   1.8305779  58.2120834
  48.4588764  12.6801334  52.6486527  48.6411159  11.8622990  53.1114279
  49.2821750  12.8969026  52.2111417  48.7930930  11.6069519  49.9101575
  49.3218696  11.0961974  49.2971737  49.0559149  11.2912050  50.7747108
  47.5469163   3.3861452  65.0324394  46.8709800   3.2855581  65.7026769
  48.3696797   3.2300666  65.4960391  39.2948022   9.6233389  57.6536909
  39.8801459   8.8777077  57.7864813  39.0972861   9.9337345  58.5373573
  42.1486678  12.6584636  52.6699351  41.4797053  13.1430764  52.1863391
  42.0099547  12.9053857  53.5842730  33.8865677   2.1938989  56.3741352
  33.9249777   1.6602580  57.1678470  33.3805970   1.6674194  55.7552329
  46.2891946  14.6928380  59.2682010  46.8410254  14.8560001  60.0331095
  46.6298140  15.2832817  58.5962034  40.7408712  -0.8873338  63.5176929
  41.3680751  -1.2696261  64.1314453  39.8836631  -1.1059136  63.8832621
  51.1402820   9.5189637  65.1230664  51.6842724  10.1319595  64.6285619
  50.5589665  10.0769215  65.6397677  37.5174255   0.9203091  49.4495283
  37.8127696   0.0113769  49.3962337  36.6162290   0.8990830  49.1276286
  49.4260333  12.6410355  56.2545692  49.3011473  11.8400095  55.7456637
  50.0839425  13.1356548  55.7659662  41.0468502  -1.0040912  55.4322832
  40.3255087  -0.3904945  55.2930305  41.8361757  -0.4683148  55.3539478
  51.4895242  10.4419375  57.8825242  50.5425577  10.3224726  57.8103569
  51.8378015   9.5541873  57.9651503  39.2462096  -1.3982811  49.5734609
  38.9174802  -2.2785432  49.3909714  39.6001467  -1.4535143  50.4610998
  48.4941675  10.2372091  54.0829594  48.3466638   9.3088799  54.2637164
  49.3195169  10.2592182  53.5986669  42.3603919  -1.1109842  49.9410086
  42.6999992  -0.5823920  49.2188695  42.8076040  -0.7729435  50.7168653
  52.0975797  11.0600650  55.1694467  53.0222344  10.8543511  55.0318918
  51.9291100  10.8117051  56.0783808  43.2302411   1.0495642  55.6532456
  43.0846992   1.3635945  56.5456737  42.7527614   1.6680543  55.1003355
  51.8871113  11.5786318  50.5256558  52.0607991  11.0132740  49.7730411
  52.3800004  12.3787212  50.3436048  37.7048073   3.5900987  58.5920117
  37.1601541   4.3660795  58.7240391  38.5827423   3.9371791  58.4339239
  52.8746286  10.8953082  47.6253457  53.5697190  11.5159775  47.8440771
  53.2169436  10.0448433  47.9005834  38.4914095   2.7170883  61.4850274
  37.7495831   2.8653518  62.0714904  38.1706839   2.9779149  60.6217023
  54.7737709   8.3452788  49.1540787  55.2989033   8.6840060  48.4290107
  54.6860061   7.4099803  48.9703922  46.4357757  12.2586861  61.2830664
  46.7444884  12.0136008  62.1553364  47.2333239  12.4633500  60.7949534
  46.4578370  14.4124771  53.5136040  46.0183360  13.9201149  54.2068897
  47.2086486  13.8697738  53.2728116  38.9370708  10.6036312  53.5160669
  39.7628728  10.3040084  53.1359312  38.5864760   9.8343934  53.9650457
  43.9052242   9.9562780  55.5858342  43.2832251   9.2933485  55.2860570
  44.5757109   9.9823912  54.9031990  37.1379314   8.5222638  54.4749602
  36.3011222   8.0944812  54.2933603  37.1102959   8.7155081  55.4120393
  54.4631615   8.9785691  64.4591985  53.6727159   8.9609830  63.9196485
  54.2264969   9.5173985  65.2141022  54.5829490   5.8278158  61.7724714
  54.6327495   5.6628165  62.7140237  54.4743413   4.9605417  61.3822595
  43.4665749   8.5066703  49.0616803  43.6153869   9.1902168  48.4083475
  44.2732192   8.4871793  49.5766258  56.0847687   8.2475099  62.0166735
  55.7932495   8.6105080  62.8530196  55.4719818   7.5342107  61.8380067
  57.2843369   5.8127979  54.5369306  58.1190260   6.2517783  54.7006866
  57.4202498   5.3366632  53.7177551  54.3334875   3.3707714  60.4846793
  54.8088997   3.5635360  59.6765645  53.4100440   3.4266900  60.2390177
  41.2218382   4.5331881  50.0677872  40.9764423   3.6294211  50.2658082
  41.3914296   4.5349031  49.1257350  40.4914029   0.2660238  47.5664033
  39.7983274   0.3404593  46.9104069  40.2465781  -0.4979418  48.0885550
  46.9661154  11.0014834  46.5328550  46.3935121  11.6205021  46.0799022
  47.5393948  11.5514195  47.0668472  50.1858414  11.2851984  47.6637132
  51.1189087  11.2197545  47.8670008  50.0981627  12.1208251  47.2051665
  52.8146431  10.6017854  44.6241080  52.7360062  10.2677718  45.5176838
  53.6356097  11.0939622  44.6232552  47.3507953   2.3375646  43.8744603
  48.2967057   2.2081855  43.9433021  46.9722198   1.5990308  44.3514031
  47.2346645   6.3893393  65.3345260  48.1549655   6.5671992  65.5285306
  47.1996228   5.4449438  65.1824959  45.5350870   0.2625623  43.8099488
  44.6282325  -0.0341264  43.8862201  45.8126851  -0.0344559  42.9433774
  36.4528810   1.5831986  54.2598534  36.1331594   0.7297294  53.9672908
  35.9062238   1.7980564  55.0156502  40.2308718   4.2994427  57.9768041
  40.4494727   5.2311535  57.9956075  40.6434492   3.9402402  58.7622845
  45.1036583  -0.1272367  67.3670790  45.0033310   0.8221990  67.2982881
  44.8858125  -0.4554128  66.4946860  36.3217070   5.2034898  56.2291656
  35.6280542   4.7888851  55.7161610  37.0690061   5.2455434  55.6325075
  44.9667853   3.3024772  66.1835851  44.4834935   4.1025132  66.3899740
  45.0528792   3.3132717  65.2303295  38.2353813   5.1353151  54.1057671
  38.2124501   5.2340839  53.1539554  38.5454449   5.9818302  54.4274837
  40.8941191   7.1929307  58.2204285  41.8484444   7.1613249  58.1534217
  40.6953714   6.7319930  59.0354511  41.4840573   5.7630423  60.7875083
  42.3033462   6.2574501  60.8109920  41.7577380   4.8462391  60.7592650
  39.2491419  12.7348926  55.2374483  39.1145887  11.9749327  54.6712481
  38.8323482  13.4589826  54.7703272  50.3850382   7.9185850  44.2451058
  51.0886232   8.1235852  44.8608714  49.6613031   8.4862611  44.5100142
  51.2148193   3.6695711  50.3653328  51.1583394   4.1264262  49.5260961
  51.7676535   2.9086395  50.1876171  42.4060545  13.6318243  55.4492926
  42.2892929  14.5763676  55.3471616  41.5852991  13.3291805  55.8378725
  52.2937080   8.3568379  46.2949518  53.1282684   7.9249577  46.1126993
  52.1321423   8.1850392  47.2226413  51.9482972   4.8600492  47.6605858
  51.8931776   4.6944763  46.7194302  51.3229027   5.5676525  47.8168047
  36.7375487   0.0968556  61.4867280  37.3834351  -0.4132490  61.9754505
  36.5292638   0.8337238  62.0610705  49.2628879   7.1649404  66.9859420
  50.1320039   7.3390056  66.6246055  48.7835631   7.9843821  66.8635150
  43.4315059  14.2846505  58.6648854  44.3342306  14.3170115  58.9815349
  43.2052429  13.3546956  58.6795190  45.1868661  13.0377491  55.3258933
  44.2364292  13.0379353  55.2123305  45.4901147  12.2910226  54.8094967
  60.9221355  18.8738030  56.3904695  61.5599765  18.7544777  55.6868035
  60.8042198  19.8218874  56.4492647  57.7311061  18.8265458  56.3266220
  57.3929573  18.7106523  55.4386755  58.6000829  18.4256623  56.3067226
  58.2130844  19.9800310  62.2852425  58.2019485  19.5853108  61.4132929
  58.3751484  19.2466382  62.8786197  54.9338105  22.7637421  61.2331609
  54.6427971  23.6683052  61.1178276  55.5695090  22.8053949  61.9475679
  55.8594312  20.1414270  57.8232969  56.4557884  19.9170292  57.1089932
  55.9169284  19.3999015  58.4258417  55.4319341  17.5953705  45.6583160
  55.6844861  17.0735227  44.8966623  54.4943900  17.4319851  45.7609844
  60.4762623  16.5989484  53.4657903  61.2625713  16.1808907  53.1148320
  60.7401328  17.5035576  53.6339552  65.8771050  16.5364717  54.3690882
  66.6096222  15.9663934  54.6028711  65.1210406  16.1486317  54.8097387
  63.3996471  10.2486291  58.8285490  63.0679796  11.1181702  58.6046705
  62.8042084   9.9322575  59.5079521  57.1352657  13.9881858  46.5615573
  57.3027060  14.8562095  46.9286044  56.9449826  14.1509140  45.6376862
  59.8927990  22.4498837  58.2281403  59.5928713  23.3523876  58.1197210
  59.5479050  22.1831020  59.0802556  53.3440472  18.9012634  54.2618107
  52.4190968  18.7688848  54.4695799  53.5924885  19.6806853  54.7588050
  63.2925134  14.9681377  55.9078840  62.3842011  14.8996786  55.6137601
  63.2412730  15.4453322  56.7360666  57.1141878  16.4439516  47.5462239
  56.9941503  16.8896566  48.3847720  56.4194466  16.7924833  46.9875778
  57.3666000  16.3871023  63.8513738  56.5899334  16.9464943  63.8416602
  58.0056563  16.8727806  64.3728608  65.1586781  13.1697816  57.6856714
  64.5161161  13.4630349  57.0396509  64.6541709  13.0550736  58.4909911
  62.8126944  16.9160989  48.3742573  63.7244800  17.1488376  48.1990271
  62.3036591  17.4998033  47.8117652  55.6212372  19.1956476  63.4131705
  56.3627057  19.7341520  63.1366528  54.9149358  19.8222765  63.5703256
  61.0967712  21.3385617  62.0103866  61.5051068  20.8968027  61.2658498
  60.3744973  20.7638244  62.2638059  57.4498782  16.2758223  59.3837423
  58.2959977  16.6997637  59.5272072  57.3897420  15.6191848  60.0775986
  61.4196527  21.8986807  55.7656155  60.7905389  22.0632521  55.0632223
  61.0322189  22.3128417  56.5367119  65.2985758  22.8341245  53.1200519
  64.6136797  23.2140146  52.5697552  65.3829608  23.4436572  53.8532466
  60.5998227  13.9362592  61.0418597  60.3559159  14.6904652  60.5052872
  60.8758158  14.3147939  61.8765844  62.5536690  20.4801204  59.7195862
  62.7653585  21.1232964  59.0430243  62.5066438  19.6463521  59.2517792
  60.1562919  13.0919025  56.6232434  59.2947398  13.3900278  56.9149172
  60.1825354  13.3089424  55.6913467  55.9093374  17.7584368  49.8395805
  56.6117418  18.2105411  50.3069732  55.5774003  17.1168187  50.4675698
  54.3573736  16.3496124  64.2147015  53.7272397  17.0312405  64.4482411
  54.2509824  16.2379206  63.2700153  49.6518708  16.0167920  55.1412939
  48.8617762  16.2725449  54.6653049  50.1429956  16.8316258  55.2464979
  63.6682518  23.3573160  57.8918220  64.4899962  22.9553347  57.6100901
  63.6644921  23.2541394  58.8434335  57.4339121  22.9057203  60.0478930
  57.4983554  23.3677610  60.8837102  56.7250045  22.2754568  60.1761240
  47.9356411  16.2698411  57.5727930  48.1864450  17.1545421  57.8385505
  48.4715960  16.0903012  56.8003021  71.7588511  19.7011908  54.2403191
  71.0052219  19.1319306  54.0847195  71.8936052  19.6674573  55.1873826
  53.6354479  10.6516890  66.5772266  53.2421424  10.0983089  67.2519910
  54.4520619  10.9627469  66.9678783  56.5522440  12.0674769  64.1692522
  57.2932153  12.6681922  64.0896985  56.7840363  11.3252407  63.6110565
  58.7755615  25.1948877  64.0458252  58.3319470  24.4085255  63.7279157
  59.4372829  25.3828027  63.3802143  60.8736853  25.4751677  62.0739654
  60.8555329  26.2960558  61.5819923  61.7956774  25.3505752  62.2989795
  57.3309908  22.9895806  62.9163162  57.8638244  22.2284094  62.6862470
  56.8023989  22.6969458  63.6587317  60.4979603   8.0955872  58.4456804
  60.1543872   8.9857514  58.3695914  60.8658565   7.9057530  57.5826389
  60.4629885  18.0864483  46.9529239  59.9476509  18.8569088  47.1917626
  60.1907194  17.4129619  47.5762300  58.0476996  12.9314184  52.0114477
  57.1918593  12.5421034  51.8320116  58.4603948  13.0106145  51.1514263
  59.5776143  10.4660527  56.4106037  59.0740939  10.4290663  55.5973842
  59.8706750  11.3753270  56.4702694  55.8219029  10.5499257  55.4172219
  56.6872026  10.3542066  55.0578108  55.8896538  10.3209609  56.3441576
  65.4364159  20.8396838  48.8882412  64.6593602  20.5007997  48.4437575
  66.1155640  20.8449461  48.2137378  60.2516189  15.9591575  48.7789020
  59.9466324  16.2737725  49.6299163  61.2046631  16.0372995  48.8216353
  63.6755466  20.3130819  55.5449020  63.0179141  21.0030081  55.6329149
  64.4795866  20.7027251  55.8883007  53.4281348  12.7801465  52.7888586
  54.0025100  12.5576646  52.0561779  54.0152330  12.8490160  53.5417187
  62.4860925  18.6675192  53.5952962  62.9992807  19.3005184  54.0974672
  63.1362149  18.0676387  53.2296322  53.7550935  14.8105926  46.8084471
  52.9188247  15.1480613  47.1293746  53.6155705  14.6754906  45.8711608
  55.7304016   9.6542714  51.5163655  55.0768428   9.3391731  50.8920270
  55.6884490   9.0318454  52.2423478  58.9641756  16.1424647  55.8411303
  58.0464317  16.3639594  55.6832991  59.3801900  16.2170958  54.9823010
  59.7476804  17.5416063  50.9713983  60.4948623  18.0537460  50.6621105
  60.0168393  17.2200116  51.8318377  63.2522721  23.6481193  51.7232105
  62.7985048  22.8072103  51.7797295  62.6216688  24.2842592  52.0606885
  62.1955641  14.5773179  52.9532772  61.4578398  14.0650566  53.2843015
  62.4482414  14.1373561  52.1416049  61.6955661  25.4857690  52.6581923
  61.9878635  26.0462747  51.9394289  62.2054281  25.7786251  53.4135082
  62.2967268   7.3549431  53.5474542  62.6026145   6.4946795  53.2600457
  63.0219873   7.9467052  53.3473535  48.5891624  17.7580118  51.9356139
  48.3916024  17.1649479  51.2107206  48.0338288  17.4532328  52.6532078
  56.5688348  17.6503224  54.0550733  56.6236958  16.6977061  53.9793209
  55.7579550  17.8062664  54.5392031  54.5080708  16.2680284  51.8141111
  53.6948573  16.5674455  52.2206304  55.0039702  15.8735973  52.5315594
  60.1054920  16.7322109  60.6456005  60.4604307  16.9593582  61.5050471
  60.7527051  17.0640485  60.0233261  65.8352657  19.8540545  51.3505334
  65.6970555  20.0442141  50.4226524  65.4788875  20.6159927  51.8073386
  53.9994783  13.8398640  57.4302346  54.6394162  13.6987399  56.7325310
  53.1672313  13.5533153  57.0540948  65.8622036  21.9217072  56.3616606
  66.2958543  21.8292361  57.2099660  66.5753617  21.8974572  55.7236622
  59.5949931  25.5219166  57.8949707  59.6486953  26.0910102  58.6627422
  58.7264712  25.6921051  57.5303744  51.0023399  13.8098965  52.2075333
  51.2630216  14.7244298  52.0984494  51.8240571  13.3423407  52.3571946
  52.4748324  15.2236722  59.3774158  53.1471378  15.0154084  58.7286807
  51.6478111  15.0258808  58.9379390  66.7237586  21.9640772  58.8949491
  66.9173476  22.8686583  59.1408766  66.6238204  21.5048191  59.7288076
  58.3773896  11.8498663  61.3939819  57.7301812  12.5488612  61.3004295
  59.1474912  12.2834807  61.7616067  61.7852694  22.1147515  64.4690372
  61.6338201  21.8858067  63.5520456  61.7757374  23.0718116  64.4821717
  58.5538031  19.6879428  59.4536638  59.4830091  19.8390587  59.2805606
  58.1329061  19.7763448  58.5985285  57.3526363  23.7130092  57.2235176
  57.2137448  23.3448877  58.0961114  56.5640959  24.2277732  57.0519134
  58.9031578  23.0911695  54.6124014  58.5681410  23.0512465  55.5081664
  58.4035523  22.4256411  54.1394424  55.5058122  18.2099284  59.6260275
  56.2157741  17.5692476  59.5846893  55.4627431  18.4612179  60.5486455
  63.4944901  25.1466638  62.5466854  63.4357447  24.4625858  61.8797437
  63.8964419  25.8885628  62.0947480  54.2187056  15.1964502  61.4455914
  53.6824413  14.7455241  62.0977510  53.6303765  15.3310411  60.7026378
  53.6289315  14.6553153  44.0082378  52.7518782  14.5341954  43.6444624
  54.1047068  13.8639232  43.7561266  63.4962308  23.1106221  60.7780833
  62.6089087  22.7732143  60.9007232  64.0660859  22.3789253  61.0149599
  49.9526178  14.3320510  58.5308909  49.8684366  13.7246179  57.7959318
  49.1308884  14.8229528  58.5318405  57.0263462  27.7707674  57.7442077
  56.9533633  28.5762645  58.2561381  56.5840855  27.9699640  56.9190098
  60.1249891  12.8174073  53.8979104  60.6218591  12.0644036  53.5780174
  59.3536873  12.8538390  53.3322313  67.9779649  18.5214439  55.5397395
  67.9669525  19.4039154  55.1691328  67.1097028  18.1685990  55.3451932
  59.4862145  27.6694508  59.9000235  60.1990117  28.3041973  59.8276137
  58.9952174  27.7658374  59.0840237  56.7084860  14.9591456  53.6250788
  56.3382648  14.4062497  54.3131694  57.2043953  14.3549590  53.0725788
  64.5952223  17.4163080  52.0067561  65.0612676  18.2491071  51.9327864
  65.0459724  16.9508061  52.7112820  54.5374059  25.4188951  60.7205806
  55.2383518  26.0525434  60.8735200  54.0669174  25.7603683  59.9601445
  62.6628455  23.7606901  49.0053713  62.9388299  23.6463496  49.9147587
  61.7932953  23.3624386  48.9665886  62.5668886   9.7843667  56.0458462
  61.6531966  10.0147894  56.2140669  62.9961988   9.8682111  56.8972495
  62.3375345  17.9733559  58.5458357  61.6846795  18.2209466  57.8910809
  62.7155725  17.1597697  58.2120834  59.2982519  28.0093252  52.6486527
  59.4804913  27.1914908  53.1114279  60.1215505  28.2260944  52.2111417
  58.3862918  18.7153370  65.0324394  57.7103555  18.6147499  65.7026769
  59.2090552  18.5592584  65.4960391  44.7259432  17.5230907  56.3741352
  44.7643531  16.9894497  57.1678470  44.2199724  16.9966112  55.7552329
  57.1285701  30.0220297  59.2682010  57.6804009  30.1851919  60.0331095
  57.4691894  30.6124735  58.5962034  52.1050194  12.3695447  59.8703894
  52.1691520  13.2310278  59.4581292  52.0417314  11.7569449  59.1376253
  51.5802466  14.4418580  63.5176929  52.2074505  14.0595657  64.1314453
  50.7230385  14.2232782  63.8832621  61.9796575  24.8481555  65.1230664
  62.5236479  25.4611513  64.6285619  61.3983420  25.4061133  65.6397677
  60.2654088  27.9702273  56.2545692  60.1405227  27.1692013  55.7456637
  60.9233179  28.4648466  55.7659662  51.8862256  14.3251005  55.4322832
  51.1648842  14.9386973  55.2930305  52.6755512  14.8608770  55.3539478
  62.3288996  25.7711293  57.8825242  61.3819332  25.6516644  57.8103569
  62.6771769  24.8833791  57.9651503  54.6888570  11.6605432  61.7063484
  55.2122971  11.9067728  62.4689793  54.4700903  12.4925467  61.2866621
  50.0855851  13.9309106  49.5734609  49.7568557  13.0506485  49.3909714
  50.4395221  13.8756775  50.4610998  59.3335430  25.5664009  54.0829594
  59.1860392  24.6380716  54.2637164  60.1588923  25.5884100  53.5986669
  53.1997674  14.2182076  49.9410086  53.5393746  14.7467997  49.2188695
  53.6469794  14.5562482  50.7168653  62.9369551  26.3892568  55.1694467
  63.8616099  26.1835429  55.0318918  62.7684855  26.1408969  56.0783808
  55.8941115  12.6019127  59.3913154  55.5537935  11.8026940  59.7933834
  55.1880121  12.9020838  58.8189987  56.5457587   9.6868439  57.8440477
  57.3683656   9.2128918  57.7219368  56.7895650  10.4658923  58.3439164
  55.1865821  12.7156698  48.1403379  55.9074184  13.0937951  47.6367096
  54.5631125  13.4345575  48.2438357  59.3296944  13.4201847  49.0761711
  59.5460558  14.3026485  48.7750539  58.8491011  13.0288060  48.3467353
  54.0696165  16.3787560  55.6532456  53.9240746  16.6927863  56.5456737
  53.5921369  16.9972460  55.1003355  55.9292548  13.3690108  55.7013345
  55.9154117  12.4731201  55.3645643  56.6464976  13.3760772  56.3351631
  57.7818679  13.8027448  57.7466473  57.5236457  14.7244519  57.7450803
  57.2503719  13.4057883  58.4366937  62.7264868  26.9078235  50.5256558
  62.9001745  26.3424658  49.7730411  63.2193759  27.7079130  50.3436048
  55.3329444  12.2504488  50.9700916  55.4545355  11.3221134  51.1691803
  55.0431486  12.2643174  50.0579231  58.2020634   9.9359399  54.1067635
  58.2242331   9.9998732  53.1519615  58.6188694   9.0963907  54.3008142
  68.5804259  19.6714658  52.1446858  69.0235405  18.9221983  51.7465981
  67.7030769  19.6624795  51.7620590  63.7140040  26.2245000  47.6253457
  64.4090945  26.8451692  47.8440771  64.0563190  25.3740351  47.9005834
  65.6131463  23.6744705  49.1540787  66.1382787  24.0131978  48.4290107
  65.5253816  22.7391721  48.9703922  57.2751512  27.5878779  61.2830664
  57.5838638  27.3427926  62.1553364  58.0726994  27.7925417  60.7949534
  54.8170524  13.7636486  65.1790848  54.8658679  14.6398608  64.7968618
  55.3593038  13.2213879  64.6062491  65.3025369  24.3077609  64.4591985
  64.5120913  24.2901748  63.9196485  65.0658724  24.8465903  65.2141022
  65.4223244  21.1570075  61.7724714  65.4721249  20.9920083  62.7140237
  65.3137168  20.2897334  61.3822595  62.7127007  17.1401003  63.0884021
  63.6136870  17.0007468  62.7968018  62.7874981  17.3055458  64.0282198
  57.0469812  14.5167858  61.9337207  56.1773121  14.8101424  61.6619795
  57.2829292  15.1008303  62.6544470  66.9241441  23.5767017  62.0166735
  66.6326250  23.9396997  62.8530196  66.3113572  22.8634025  61.8380067
  68.1237124  21.1419897  54.5369306  68.9584015  21.5809701  54.7006866
  68.2596252  20.6658550  53.7177551  65.1728629  18.6999631  60.4846793
  65.6482751  18.8927278  59.6765645  64.2494195  18.7558817  60.2390177
  59.7508846  10.7347475  59.4502627  60.2690790  11.4708502  59.1249116
  59.3963979  11.0411468  60.2849386  60.0021440   7.1547757  54.9703524
  60.2823194   6.4870947  55.5963950  60.7872047   7.3476853  54.4578188
  63.8730298  15.5765391  58.7175099  64.8247721  15.6763489  58.7387323
  63.7033749  14.7843660  59.2273183  61.8944678  12.6620975  58.9034500
  61.2994610  12.9425987  58.2080988  61.6094375  13.1514876  59.6751241
  66.3518376  18.7971511  57.8317399  66.3194696  17.8587512  58.0177082
  66.9619000  18.8755548  57.0983223  58.1901707  17.6667564  43.8744603
  59.1360812  17.5373772  43.9433021  57.8115952  16.9282226  44.3514031
  66.5012865  15.5882555  57.8775682  65.9851913  14.8041011  57.6905611
  67.3852813  15.2601271  58.0422201  64.1623592   9.3323570  53.8371494
  63.9648413   9.0238658  54.7214826  64.7723297  10.0585209  53.9669424
  72.1694926  19.8587518  56.9723435  72.8998315  19.5972806  57.5331139
  71.5601872  19.1216240  57.0125503  70.2510223  17.9995381  57.5697887
  69.5243387  17.8651345  56.9614378  69.8357510  18.3072209  58.3754605
  58.0740400  21.7185310  65.3345260  58.9943409  21.8963909  65.5285306
  58.0389983  20.7741356  65.1824959  56.3744624  15.5917540  43.8099488
  55.4676080  15.2950653  43.8862201  56.6520605  15.2947359  42.9433774
  47.2922565  16.9123904  54.2598534  46.9725349  16.0589212  53.9672908
  46.7455993  17.1272482  55.0156502  57.9906690  10.1354430  49.9643729
  57.1807418   9.7901515  50.3398975  58.6791107   9.8261974  50.5531341
  59.9197238   9.2132477  51.5868026  60.4728277   9.6327930  52.2458049
  60.1567325   8.2868225  51.6290982  55.9430337  15.2019551  67.3670790
  55.8427064  16.1513908  67.2982881  55.7251880  14.8737790  66.4946860
  55.1443409  12.4504476  43.9511467  56.0062573  12.7759374  44.2107284
  55.3293753  11.6635972  43.4384533  63.2976045  11.3233002  51.0946690
  62.7174714  11.9817806  50.7124742  63.0311978  10.5010347  50.6834108
  61.7479612  10.7238060  53.2968010  62.2479390  10.8354594  52.4882329
  62.3915220  10.4199113  53.9368819  55.8061608  18.6316689  66.1835851
  55.3228689  19.4317050  66.3899740  55.8922547  18.6424634  65.2303295
  62.0800923  13.4833093  50.1503038  61.1926778  13.7682743  49.9323233
  62.4954912  13.3226856  49.3030315  65.4315460  13.5079614  53.8657378
  66.2075850  13.9976066  54.1381994  64.7063594  13.9337668  54.3229247
  67.8688018  14.2207233  54.9231318  68.4632509  13.9802969  54.2124626
  67.9414602  13.5014363  55.5504854  62.0541947  18.9987628  50.3653328
  61.9977149  19.4556180  49.5260961  62.6070290  18.2378313  50.1876171
  65.8646753  14.7877360  51.1903448  65.6083687  14.3873996  52.0211656
  65.2399621  15.5021154  51.0653587  70.1759091  17.5273434  53.6974739
  69.6158649  17.5966623  54.4706301  69.5702594  17.3514418  52.9774236
  62.7876726  20.1892410  47.6605858  62.7325530  20.0236681  46.7194302
  62.1622782  20.8968443  47.8168047  47.5769241  15.4260474  61.4867280
  48.2228105  14.9159428  61.9754505  47.3686393  16.1629156  62.0610705
  60.1022634  22.4941322  66.9859420  60.9713793  22.6681974  66.6246055
  59.6229385  23.3135738  66.8635150  56.0972852   9.6900519  47.2391176
  56.0851522  10.6342359  47.3959447  56.9896274   9.5070664  46.9450637
  54.2708814  29.6138423  58.6648854  55.1736061  29.6462033  58.9815349
  54.0446184  28.6838874  58.6795190  59.9124971   6.2843295  51.4937113
  59.1457367   5.7301782  51.6393795  60.3235676   6.3565164  52.3551264
  51.9166732  12.5728091  65.5842294  52.7798194  12.2164896  65.7945619
  51.3432143  12.2341986  66.2717698  71.7615109  34.2029948  56.3904695
  72.3993519  34.0836695  55.6868035  71.6435952  35.1510791  56.4492647
  68.5704816  34.1557376  56.3266220  68.2323327  34.0398440  55.4386755
  69.4394584  33.7548541  56.3067226  64.4291631  36.0092852  52.3163111
  63.8656496  35.9182789  51.5479398  64.3144026  35.1892757  52.7965603
  69.0524599  35.3092227  62.2852425  69.0413239  34.9145026  61.4132929
  69.2145238  34.5758300  62.8786197  61.9756063  37.5044044  55.1547331
  62.7677355  37.1634868  54.7393630  62.2152713  37.6139019  56.0749485
  70.0091190  39.6763820  47.6277576  69.3579170  40.2617900  47.2411589
  70.8035553  40.2070015  47.6872613  63.9346817  36.7652957  48.0264710
  64.7077693  36.2181944  47.8877586  64.2872216  37.6297206  48.2379171
  65.7731860  38.0929339  61.2331609  65.4821726  38.9974970  61.1178276
  66.4088844  38.1345867  61.9475679  66.6988067  35.4706188  57.8232969
  67.2951639  35.2462210  57.1089932  66.7563038  34.7290933  58.4258417
  66.2713095  32.9245623  45.6583160  66.5238616  32.4027144  44.8966623
  65.3337654  32.7611768  45.7609844  71.3156378  31.9281401  53.4657903
  72.1019467  31.5100825  53.1148320  71.5795082  32.8327494  53.6339552
  71.4866455  37.3654252  48.1646560  70.8512288  37.4388878  48.8767465
  71.1563862  37.9547851  47.4865639  76.7164805  31.8656635  54.3690882
  77.4489977  31.2955851  54.6028711  75.9604161  31.4778235  54.8097387
  65.9909384  34.8273729  47.8607535  65.8745642  34.1518632  48.5288619
  66.1011644  34.3406103  47.0439688  68.3340925  34.2883876  51.5654224
  67.9699132  33.7614497  52.2767146  69.1908041  33.8982345  51.3920710
  74.2390225  25.5778209  58.8285490  73.9073550  26.4473620  58.6046705
  73.6435839  25.2614493  59.5079521  67.9746412  29.3173776  46.5615573
  68.1420814  30.1854012  46.9286044  67.7843581  29.4801057  45.6376862
  70.7321745  37.7790755  58.2281403  70.4322468  38.6815793  58.1197210
  70.3872804  37.5122938  59.0802556  64.1834226  34.2304552  54.2618107
  63.2584723  34.0980766  54.4695799  64.4318640  35.0098771  54.7588050
  74.1318889  30.2973295  55.9078840  73.2235766  30.2288703  55.6137601
  74.0806484  30.7745240  56.7360666  67.9535633  31.7731433  47.5462239
  67.8335258  32.2188484  48.3847720  67.2588221  32.1216751  46.9875778
  61.5443037  33.8737825  55.0961896  61.6735419  34.1272304  56.0101308
  60.8640489  34.4665533  54.7766552  65.7142525  44.5435075  51.1952371
  65.6366554  45.4942900  51.2740851  65.1104168  44.1980948  51.8527297
  68.2059754  31.7162940  63.8513738  67.4293088  32.2756861  63.8416602
  68.8450317  32.2019723  64.3728608  75.9980535  28.4989733  57.6856714
  75.3554915  28.7922266  57.0396509  75.4935464  28.3842654  58.4909911
  73.6520699  32.2452906  48.3742573  74.5638555  32.4780293  48.1990271
  73.1430346  32.8289951  47.8117652  66.4606127  34.5248394  63.4131705
  67.2020811  35.0633438  63.1366528  65.7543112  35.1514683  63.5703256
  71.9361466  36.6677534  62.0103866  72.3444822  36.2259945  61.2658498
  71.2138728  36.0930162  62.2638059  68.2892536  31.6050141  59.3837423
  69.1353732  32.0289555  59.5272072  68.2291174  30.9483765  60.0775986
  72.2590281  37.2278725  55.7656155  71.6299143  37.3924439  55.0632223
  71.8715943  37.6420334  56.5367119  76.1379513  38.1633163  53.1200519
  75.4530551  38.5432064  52.5697552  76.2223362  38.7728489  53.8532466
  71.4391982  29.2654509  61.0418597  71.1952914  30.0196570  60.5052872
  71.7151912  29.6439857  61.8765844  73.3930444  35.8093122  59.7195862
  73.6047340  36.4524882  59.0430243  73.3460193  34.9755438  59.2517792
  70.9956673  28.4210942  56.6232434  70.1341152  28.7192196  56.9149172
  71.0219108  28.6381341  55.6913467  67.8118243  36.9653133  53.0306240
  68.2756588  37.2440836  52.2410863  67.5475041  36.0636578  52.8479331
  64.7042324  36.5124615  55.9686003  65.2743681  36.9411883  55.3303488
  65.2950436  36.2307199  56.6670189  66.7487129  33.0876285  49.8395805
  67.4511172  33.5397329  50.3069732  66.4167757  32.4460104  50.4675698
  65.1967490  31.6788042  64.2147015  64.5666151  32.3604323  64.4482411
  65.0903578  31.5671124  63.2700153  60.4912463  31.3459838  55.1412939
  59.7011517  31.6017367  54.6653049  60.9823710  32.1608176  55.2464979
  74.5076272  38.6865077  57.8918220  75.3293716  38.2845264  57.6100901
  74.5038675  38.5833311  58.8434335  62.4427208  31.7104417  52.0996415
  61.6458372  31.8223112  52.6179911  62.2152800  32.0491069  51.2337306
  68.2732876  38.2349121  60.0478930  68.3377308  38.6969528  60.8837102
  67.5643800  37.6046485  60.1761240  58.7750166  31.5990328  57.5727930
  59.0258204  32.4837338  57.8385505  59.3109714  31.4194930  56.8003021
  82.5982265  35.0303826  54.2403191  81.8445974  34.4611224  54.0847195
  82.7329807  34.9966490  55.1873826  67.9880894  39.9017228  49.9157910
  67.8526568  40.7468764  50.3442758  68.5290706  40.1036506  49.1523844
  64.4748233  25.9808808  66.5772266  64.0815179  25.4275006  67.2519910
  65.2914373  26.2919386  66.9678783  61.4410291  37.4192666  50.4885835
  61.9534811  38.2135916  50.6391400  62.0933004  36.7218956  50.4219437
  63.2505176  40.5358422  52.5708589  63.4271804  41.4576387  52.3829573
  64.0462009  40.2216842  53.0002968  67.3916194  27.3966687  64.1692522
  68.1325908  27.9973840  64.0896985  67.6234117  26.6544325  63.6110565
  62.5357532  32.5823054  62.4470752  62.4211047  31.6808311  62.7477851
  61.6802050  32.8286751  62.0955568  69.6149370  40.5240795  64.0458252
  69.1713224  39.7377173  63.7279157  70.2766583  40.7119945  63.3802143
  64.3736491  42.0536596  58.5718931  64.9243916  41.9253659  57.7995925
  63.5347967  42.3531485  58.2213824  71.7130608  40.8043594  62.0739654
  71.6949083  41.6252475  61.5819923  72.6350528  40.6797670  62.2989795
  68.1703662  38.3187724  62.9163162  68.7031999  37.5576012  62.6862470
  67.6417743  38.0261376  63.6587317  71.3373357  23.4247790  58.4456804
  70.9937627  24.3149432  58.3695914  71.7052320  23.2349448  57.5826389
  59.4059208  35.7481320  51.2645406  60.2434430  36.1578329  51.0479114
  59.5837475  34.8080762  51.2345600  71.3023640  33.4156401  46.9529239
  70.7870263  34.1861006  47.1917626  71.0300948  32.7421537  47.5762300
  68.8870751  28.2606102  52.0114477  68.0312347  27.8712952  51.8320116
  69.2997703  28.3398063  51.1514263  70.4169897  25.7952445  56.4106037
  69.9134693  25.7582580  55.5973842  70.7100504  26.7045188  56.4702694
  66.6612783  25.8791175  55.4172219  67.5265780  25.6833983  55.0578108
  66.7290292  25.6501527  56.3441576  76.2757914  36.1688756  48.8882412
  75.4987357  35.8299915  48.4437575  76.9549395  36.1741379  48.2137378
  71.0909943  31.2883493  48.7789020  70.7860079  31.6029642  49.6299163
  72.0440385  31.3664913  48.8216353  69.5356375  37.4473716  50.4281974
  69.0077736  36.7126476  50.1155212  69.0343878  38.2248393  50.1821942
  74.5149221  35.6422737  55.5449020  73.8572895  36.3321998  55.6329149
  75.3189620  36.0319169  55.8883007  64.2675102  28.1093383  52.7888586
  64.8418854  27.8868564  52.0561779  64.8546085  28.1782077  53.5417187
  73.3254680  33.9967110  53.5952962  73.8386561  34.6297101  54.0974672
  73.9755904  33.3968305  53.2296322  64.5944690  30.1397844  46.8084471
  63.7582002  30.4772530  47.1293746  64.4549459  30.0046823  45.8711608
  66.5697770  24.9834632  51.5163655  65.9162183  24.6683649  50.8920270
  66.5278244  24.3610372  52.2423478  67.6808975  35.2653927  43.4316947
  66.7736037  35.0343180  43.6308096  68.1780007  34.4691546  43.6190929
  70.5877054  43.9751434  46.3513633  69.9138753  44.2783131  46.9598591
  70.9742876  44.7780514  46.0019090  69.8035511  31.4716565  55.8411303
  68.8858072  31.6931512  55.6832991  70.2195654  31.5462876  54.9823010
  70.5870558  32.8707981  50.9713983  71.3342377  33.3829378  50.6621105
  70.8562148  32.5492034  51.8318377  68.8597208  35.3666522  47.9540937
  67.9508428  35.0825554  48.0513407  68.8892292  35.7865600  47.0944244
  74.0916476  38.9773111  51.7232105  73.6378803  38.1364021  51.7797295
  73.4610443  39.6134509  52.0606885  73.0349395  29.9065097  52.9532772
  72.2972152  29.3942483  53.2843015  73.2876169  29.4665479  52.1416049
  72.5349415  40.8149608  52.6581923  72.8272389  41.3754665  51.9394289
  73.0448036  41.1078169  53.4135082  73.1361023  22.6841349  53.5474542
  73.4419900  21.8238712  53.2600457  73.8613628  23.2758969  53.3473535
  59.4285379  33.0872036  51.9356139  59.2309779  32.4941396  51.2107206
  58.8732043  32.7824246  52.6532078  67.4082103  32.9795142  54.0550733
  67.4630712  32.0268979  53.9793209  66.5973305  33.1354581  54.5392031
  68.5573296  36.9075265  45.2929016  68.1192726  36.1911124  44.8334653
  69.2983737  37.1351380  44.7314107  65.3474462  31.5972202  51.8141111
  64.5342328  31.8966372  52.2206304  65.8433457  31.2027891  52.5315594
  67.4983040  41.5929959  53.7475376  67.4559219  41.8190805  52.8183908
  68.4145739  41.3593333  53.8961177  70.9448674  32.0614026  60.6456005
  71.2998062  32.2885499  61.5050471  71.5920805  32.3932403  60.0233261
  76.6746411  35.1832462  51.3505334  76.5364310  35.3734058  50.4226524
  76.3182630  35.9451845  51.8073386  64.8388537  29.1690557  57.4302346
  65.4787917  29.0279316  56.7325310  64.0066068  28.8825071  57.0540948
  76.7015791  37.2508989  56.3616606  77.1352297  37.1584278  57.2099660
  77.4147371  37.2266490  55.7236622  65.6148841  38.4692988  53.5437339
  66.4089440  37.9743308  53.3419914  64.9040533  37.9410851  53.1805044
  70.4343686  40.8511083  57.8949707  70.4880708  41.4202020  58.6627422
  69.5658467  41.0212968  57.5303744  61.9231605  32.6136070  49.6197092
  60.9929193  32.5520525  49.8367054  62.0189077  32.0912022  48.8233733
  61.8417154  29.1390882  52.2075333  62.1023971  30.0536216  52.0984494
  62.6634326  28.6715325  52.3571946  63.3142079  30.5528640  59.3774158
  63.9865132  30.3446002  58.7286807  62.4871865  30.3550726  58.9379390
  77.5631340  37.2932690  58.8949491  77.7567230  38.1978500  59.1408766
  77.4631958  36.8340109  59.7288076  69.2167651  27.1790580  61.3939819
  68.5695566  27.8780530  61.3004295  69.9868666  27.6126724  61.7616067
  72.6246449  37.4439433  64.4690372  72.4731955  37.2149984  63.5520456
  72.6151128  38.4010034  64.4821717  69.3931785  35.0171345  59.4536638
  70.3223845  35.1682505  59.2805606  68.9722815  35.1055366  58.5985285
  68.1920117  39.0422010  57.2235176  68.0531203  38.6740794  58.0961114
  67.4034713  39.5569649  57.0519134  68.7868269  44.1431106  48.5660713
  68.9620025  43.6719149  49.3806335  68.1001057  44.7696872  48.7941973
  69.7425332  38.4203612  54.6124014  69.4075165  38.3804382  55.5081664
  69.2429278  37.7548328  54.1394424  63.7169576  33.8271243  60.1376595
  63.5789374  33.0951481  60.7388134  64.6274500  33.7380143  59.8560783
  72.6784524  35.7659647  44.8861073  72.0613695  35.0406475  44.7894126
  72.2101012  36.5269007  44.5428148  66.3451877  33.5391202  59.6260275
  67.0551495  32.8984394  59.5846893  66.3021185  33.7904097  60.5486455
  74.3338656  40.4758555  62.5466854  74.2751202  39.7917775  61.8797437
  74.7358174  41.2177545  62.0947480  65.0580811  30.5256420  61.4455914
  64.5218168  30.0747158  62.0977510  64.4697519  30.6602329  60.7026378
  63.3529354  47.2920469  55.3400573  63.5925953  47.9238993  56.0179591
  62.5098551  46.9408509  55.6265932  74.3356063  38.4398139  60.7780833
  73.4482842  38.1024061  60.9007232  74.9054614  37.7081170  61.0149599
  55.9885210  34.7722231  54.1023885  56.6756250  34.4583961  53.5144900
  55.8333339  35.6763596  53.8291136  60.7919932  29.6612427  58.5308909
  60.7078121  29.0538097  57.7959318  59.9702638  30.1521446  58.5318405
  67.8657216  43.0999591  57.7442077  67.7927388  43.9054563  58.2561381
  67.4234609  43.2991557  56.9190098  67.6546996  42.3371362  51.2544898
  66.8714518  42.8793042  51.3483123  68.3539741  42.8545341  51.6539139
  70.9643646  28.1465991  53.8979104  71.4612345  27.3935953  53.5780174
  70.1930627  28.1830308  53.3322313  78.8173403  33.8506356  55.5397395
  78.8063280  34.7331072  55.1691328  77.9490783  33.4977907  55.3451932
  70.3255900  42.9986426  59.9000235  71.0383872  43.6333890  59.8276137
  69.8345928  43.0950291  59.0840237  72.0473427  36.9037678  51.4717527
  71.1129705  37.0239141  51.3022231  72.2250095  36.0010145  51.2077537
  67.5478615  30.2883374  53.6250788  67.1776402  29.7354414  54.3131694
  68.0437707  29.6841507  53.0725788  75.4345978  32.7454997  52.0067561
  75.9006430  33.5782989  51.9327864  75.8853478  32.2799979  52.7112820
  65.3767813  40.7480869  60.7205806  66.0777273  41.3817352  60.8735200
  64.9062928  41.0895601  59.9601445  73.5022209  39.0898819  49.0053713
  73.7782053  38.9755413  49.9147587  72.6326708  38.6916304  48.9665886
  73.4062641  25.1135584  56.0458462  72.4925721  25.3439811  56.2140669
  73.8355742  25.1974029  56.8972495  73.1769099  33.3025476  58.5458357
  72.5240549  33.5501384  57.8910809  73.5549479  32.4889615  58.2120834
  70.1376273  43.3385170  52.6486527  70.3198668  42.5206826  53.1114279
  70.9609259  43.5552862  52.2111417  70.4718439  42.2653355  49.9101575
  71.0006205  41.7545809  49.2971737  70.7346658  41.9495885  50.7747108
  69.2256672  34.0445287  65.0324394  68.5497309  33.9439417  65.7026769
  70.0484306  33.8884501  65.4960391  60.9735531  40.2817224  57.6536909
  61.5588968  39.5360912  57.7864813  60.7760370  40.5921181  58.5373573
  63.8274187  43.3168471  52.6699351  63.1584562  43.8014599  52.1863391
  63.6887056  43.5637692  53.5842730  55.5653186  32.8522824  56.3741352
  55.6037286  32.3186415  57.1678470  55.0593479  32.3258030  55.7552329
  67.9679455  45.3512215  59.2682010  68.5197763  45.5143836  60.0331095
  68.3085649  45.9416653  58.5962034  62.4196221  29.7710497  63.5176929
  63.0468260  29.3887575  64.1314453  61.5624140  29.5524699  63.8832621
  72.8190329  40.1773472  65.1230664  73.3630233  40.7903431  64.6285619
  72.2377174  40.7353051  65.6397677  71.1047842  43.2994190  56.2545692
  70.9798982  42.4983930  55.7456637  71.7626934  43.7940384  55.7659662
  62.7256011  29.6542923  55.4322832  62.0042596  30.2678891  55.2930305
  63.5149266  30.1900688  55.3539478  73.1682751  41.1003211  57.8825242
  72.2213086  40.9808562  57.8103569  73.5165524  40.2125709  57.9651503
  65.5282324  26.9897349  61.7063484  66.0516726  27.2359646  62.4689793
  65.3094657  27.8217384  61.2866621  60.9249605  29.2601024  49.5734609
  60.5962311  28.3798403  49.3909714  61.2788976  29.2048693  50.4610998
  70.1729184  40.8955927  54.0829594  70.0254147  39.9672634  54.2637164
  70.9982678  40.9176017  53.5986669  64.0391428  29.5473994  49.9410086
  64.3787501  30.0759915  49.2188695  64.4863549  29.8854400  50.7168653
  73.7763306  41.7184485  55.1694467  74.7009853  41.5127347  55.0318918
  73.6078609  41.4700887  56.0783808  66.7334869  27.9311045  59.3913154
  66.3931690  27.1318858  59.7933834  66.0273875  28.2312755  58.8189987
  67.3851341  25.0160357  57.8440477  68.2077410  24.5420835  57.7219368
  67.6289405  25.7950841  58.3439164  66.0259576  28.0448615  48.1403379
  66.7467938  28.4229868  47.6367096  65.4024880  28.7637492  48.2438357
  70.1690698  28.7493764  49.0761711  70.3854313  29.6318402  48.7750539
  69.6884766  28.3579978  48.3467353  64.9089920  31.7079478  55.6532456
  64.7634501  32.0219781  56.5456737  64.4315123  32.3264378  55.1003355
  66.7686303  28.6982026  55.7013345  66.7547871  27.8023119  55.3645643
  67.4858731  28.7052689  56.3351631  68.6212433  29.1319366  57.7466473
  68.3630211  30.0536436  57.7450803  68.0897474  28.7349800  58.4366937
  73.5658622  42.2370153  50.5256558  73.7395500  41.6716575  49.7730411
  74.0587513  43.0371048  50.3436048  59.3835582  34.2484822  58.5920117
  58.8389050  35.0244630  58.7240391  60.2614932  34.5955626  58.4339239
  66.1723199  27.5796406  50.9700916  66.2939110  26.6513052  51.1691803
  65.8825241  27.5935092  50.0579231  69.0414389  25.2651316  54.1067635
  69.0636086  25.3290649  53.1519615  69.4582448  24.4255825  54.3008142
  79.4198013  35.0006576  52.1446858  79.8629159  34.2513901  51.7465981
  78.5424524  34.9916712  51.7620590  74.5533795  41.5536917  47.6253457
  75.2484699  42.1743610  47.8440771  74.8956945  40.7032269  47.9005834
  60.1701604  33.3754718  61.4850274  59.4283340  33.5237354  62.0714904
  59.8494348  33.6362984  60.6217023  76.4525218  39.0036623  49.1540787
  76.9776542  39.3423896  48.4290107  76.3647570  38.0683638  48.9703922
  68.1145266  42.9170697  61.2830664  68.4232393  42.6719843  62.1553364
  68.9120748  43.1217335  60.7949534  68.1365878  45.0708606  53.5136040
  67.6970869  44.5784985  54.2068897  68.8873995  44.5281574  53.2728116
  60.6158217  41.2620147  53.5160669  61.4416237  40.9623919  53.1359312
  60.2652269  40.4927769  53.9650457  65.5839751  40.6146615  55.5858342
  64.9619760  39.9517320  55.2860570  66.2544618  40.6407747  54.9031990
  58.8166823  39.1806473  54.4749602  57.9798731  38.7528648  54.2933603
  58.7890468  39.3738917  55.4120393  65.6564278  29.0928403  65.1790848
  65.7052434  29.9690526  64.7968618  66.1986792  28.5505796  64.6062491
  76.1419124  39.6369527  64.4591985  75.3514668  39.6193665  63.9196485
  75.9052478  40.1757820  65.2141022  76.2616999  36.4861993  61.7724714
  76.3115004  36.3212000  62.7140237  76.1530922  35.6189252  61.3822595
  65.1453258  39.1650539  49.0616803  65.2941378  39.8486003  48.4083475
  65.9519701  39.1455629  49.5766258  73.5520761  32.4692921  63.0884021
  74.4530624  32.3299386  62.7968018  73.6268736  32.6347376  64.0282198
  67.8863567  29.8459776  61.9337207  67.0166876  30.1393342  61.6619795
  68.1223047  30.4300221  62.6544470  77.7635196  38.9058934  62.0166735
  77.4720004  39.2688915  62.8530196  77.1507327  38.1925943  61.8380067
  78.9630878  36.4711814  54.5369306  79.7977769  36.9101618  54.7006866
  79.0990007  35.9950467  53.7177551  76.0122384  34.0291549  60.4846793
  76.4876506  34.2219195  59.6765645  75.0887949  34.0850735  60.2390177
  62.9005891  35.1915716  50.0677872  62.6551932  34.2878046  50.2658082
  63.0701805  35.1932867  49.1257350  70.5902600  26.0639393  59.4502627
  71.1084544  26.8000420  59.1249116  70.2357733  26.3703386  60.2849386
  62.1701538  30.9244074  47.5664033  61.4770783  30.9988429  46.9104069
  61.9253290  30.1604417  48.0885550  70.8415195  22.4839675  54.9703524
  71.1216948  21.8162864  55.5963950  71.6265802  22.6768771  54.4578188
  68.6448663  41.6598669  46.5328550  68.0722630  42.2788856  46.0799022
  69.2181457  42.2098031  47.0668472  74.7124053  30.9057309  58.7175099
  75.6641476  31.0055407  58.7387323  74.5427503  30.1135578  59.2273183
  72.7338432  27.9912892  58.9034500  72.1388365  28.2717905  58.2080988
  72.4488129  28.4806793  59.6751241  71.8645923  41.9435819  47.6637132
  72.7976596  41.8781381  47.8670008  71.7769136  42.7792086  47.2051665
  74.4933940  41.2601690  44.6241080  74.4147571  40.9261553  45.5176838
  75.3143606  41.7523457  44.6232552  77.1912131  34.1263429  57.8317399
  77.1588451  33.1879430  58.0177082  77.8012754  34.2047466  57.0983223
  69.0295462  32.9959482  43.8744603  69.9754566  32.8665690  43.9433021
  68.6509707  32.2574144  44.3514031  77.3406619  30.9174472  57.8775682
  76.8245668  30.1332929  57.6905611  78.2246568  30.5893189  58.0422201
  75.0017346  24.6615488  53.8371494  74.8042167  24.3530576  54.7214826
  75.6117052  25.3877127  53.9669424  81.0903978  33.3287298  57.5697887
  80.3637141  33.1943263  56.9614378  80.6751265  33.6364127  58.3754605
  68.9134154  37.0477228  65.3345260  69.8337164  37.2255827  65.5285306
  68.8783737  36.1033273  65.1824959  67.2138379  30.9209458  43.8099488
  66.3069834  30.6242571  43.8862201  67.4914360  30.6239276  42.9433774
  58.1316319  32.2415822  54.2598534  57.8119103  31.3881130  53.9672908
  57.5849747  32.4564400  55.0156502  61.9096227  34.9578263  57.9768041
  62.1282236  35.8895370  57.9956075  62.3222000  34.5986237  58.7622845
  68.8300444  25.4646348  49.9643729  68.0201173  25.1193433  50.3398975
  69.5184861  25.1553892  50.5531341  70.7590993  24.5424395  51.5868026
  71.3122031  24.9619848  52.2458049  70.9961079  23.6160143  51.6290982
  66.7824092  30.5311468  67.3670790  66.6820819  31.4805825  67.2982881
  66.5645634  30.2029707  66.4946860  58.0004579  35.8618733  56.2291656
  57.3068051  35.4472686  55.7161610  58.7477570  35.9039270  55.6325075
  74.1369800  26.6524920  51.0946690  73.5568469  27.3109724  50.7124742
  73.8705733  25.8302264  50.6834108  72.5873366  26.0529978  53.2968010
  73.0873145  26.1646512  52.4882329  73.2308974  25.7491030  53.9368819
  66.6455362  33.9608607  66.1835851  66.1622444  34.7608967  66.3899740
  66.7316301  33.9716552  65.2303295  59.9141322  35.7936987  54.1057671
  59.8912010  35.8924674  53.1539554  60.2241958  36.6402138  54.4274837
  62.5728700  37.8513142  58.2204285  63.5271953  37.8197084  58.1534217
  62.3741223  37.3903766  59.0354511  63.1628082  36.4214258  60.7875083
  63.9820971  36.9158337  60.8109920  63.4364889  35.5046226  60.7592650
  72.9194678  28.8125010  50.1503038  72.0320533  29.0974661  49.9323233
  73.3348667  28.6518774  49.3030315  76.2709214  28.8371531  53.8657378
  77.0469604  29.3267984  54.1381994  75.5457348  29.2629585  54.3229247
  78.7081773  29.5499150  54.9231318  79.3026263  29.3094886  54.2124626
  78.7808356  28.8306281  55.5504854  60.9278928  43.3932761  55.2374483
  60.7933396  42.6333162  54.6712481  60.5110991  44.1173661  54.7703272
  72.0637891  38.5769685  44.2451058  72.7673741  38.7819687  44.8608714
  71.3400540  39.1446447  44.5100142  72.8935702  34.3279546  50.3653328
  72.8370903  34.7848098  49.5260961  73.4464044  33.5670231  50.1876171
  76.7040508  30.1169278  51.1903448  76.4477442  29.7165914  52.0211656
  76.0793376  30.8313072  51.0653587  81.0152845  32.8565351  53.6974739
  80.4552403  32.9258541  54.4706301  80.4096349  32.6806336  52.9774236
  64.0848054  44.2902078  55.4492926  63.9680438  45.2347511  55.3471616
  63.2640500  43.9875640  55.8378725  73.9724589  39.0152214  46.2949518
  74.8070193  38.5833413  46.1126993  73.8108932  38.8434228  47.2226413
  73.6270481  35.5184327  47.6605858  73.5719285  35.3528599  46.7194302
  73.0016536  36.2260360  47.8168047  58.4162996  30.7552392  61.4867280
  59.0621859  30.2451346  61.9754505  58.2080147  31.4921073  62.0610705
  70.9416388  37.8233239  66.9859420  71.8107548  37.9973892  66.6246055
  70.4623140  38.6427656  66.8635150  66.9366606  25.0192436  47.2391176
  66.9245276  25.9634276  47.3959447  67.8290028  24.8362582  46.9450637
  65.1102568  44.9430340  58.6648854  66.0129815  44.9753951  58.9815349
  64.8839938  44.0130791  58.6795190  66.8656170  43.6961327  55.3258933
  65.9151801  43.6963188  55.2123305  67.1688656  42.9494061  54.8094967
  70.7518726  21.6135213  51.4937113  69.9851122  21.0593700  51.6393795
  71.1629431  21.6857082  52.3551264  62.7560487  27.9020009  65.5842294
  63.6191948  27.5456814  65.7945619  62.1825898  27.5633904  66.2717698
  79.4098570  49.4849293  56.3266220  79.0717082  49.3690358  55.4386755
  80.2788338  49.0840458  56.3067226  75.2685386  51.3384770  52.3163111
  74.7050251  51.2474707  51.5479398  75.1537781  50.5184674  52.7965603
  79.8918353  50.6384145  62.2852425  79.8806994  50.2436943  61.4132929
  80.0538993  49.9050218  62.8786197  72.8149818  52.8335961  55.1547331
  73.6071110  52.4926786  54.7393630  73.0546468  52.9430936  56.0749485
  80.8484945  55.0055737  47.6277576  80.1972924  55.5909818  47.2411589
  81.6429307  55.5361932  47.6872613  74.7740572  52.0944875  48.0264710
  75.5471448  51.5473862  47.8877586  75.1265971  52.9589124  48.2379171
  76.6125614  53.4221257  61.2331609  76.3215480  54.3266888  61.1178276
  77.2482599  53.4637784  61.9475679  77.5381821  50.7998105  57.8232969
  78.1345393  50.5754128  57.1089932  77.5956793  50.0582851  58.4258417
  77.1106849  48.2537541  45.6583160  77.3632370  47.7319062  44.8966623
  76.1731409  48.0903686  45.7609844  82.1550132  47.2573319  53.4657903
  82.9413222  46.8392742  53.1148320  82.4188837  48.1619411  53.6339552
  82.3260210  52.6946169  48.1646560  81.6906043  52.7680796  48.8767465
  81.9957616  53.2839768  47.4865639  76.8303138  50.1565647  47.8607535
  76.7139396  49.4810550  48.5288619  76.9405398  49.6698021  47.0439688
  79.1734679  49.6175794  51.5654224  78.8092886  49.0906415  52.2767146
  80.0301795  49.2274263  51.3920710  78.8140166  44.6465693  46.5615573
  78.9814568  45.5145930  46.9286044  78.6237335  44.8092975  45.6376862
  81.5715499  53.1082672  58.2281403  81.2716222  54.0107711  58.1197210
  81.2266559  52.8414856  59.0802556  75.0227981  49.5596469  54.2618107
  74.0978477  49.4272683  54.4695799  75.2712394  50.3390688  54.7588050
  78.7929387  47.1023351  47.5462239  78.6729012  47.5480402  48.3847720
  78.0981975  47.4508669  46.9875778  72.3836792  49.2029743  55.0961896
  72.5129173  49.4564222  56.0101308  71.7034243  49.7957451  54.7766552
  76.5536279  59.8726993  51.1952371  76.4760309  60.8234818  51.2740851
  75.9497923  59.5272865  51.8527297  79.0453509  47.0454858  63.8513738
  78.2686843  47.6048778  63.8416602  79.6844072  47.5311641  64.3728608
  77.2999881  49.8540312  63.4131705  78.0414566  50.3925355  63.1366528
  76.5936867  50.4806600  63.5703256  82.7755221  51.9969452  62.0103866
  83.1838577  51.5551862  61.2658498  82.0532482  51.4222079  62.2638059
  79.1286291  46.9342059  59.3837423  79.9747486  47.3581472  59.5272072
  79.0684929  46.2775683  60.0775986  83.0984035  52.5570643  55.7656155
  82.4692898  52.7216357  55.0632223  82.7109698  52.9712252  56.5367119
  82.2785736  44.5946427  61.0418597  82.0346668  45.3488488  60.5052872
  82.5545667  44.9731775  61.8765844  81.8350428  43.7502860  56.6232434
  80.9734907  44.0484114  56.9149172  81.8612863  43.9673259  55.6913467
  78.6511997  52.2945051  53.0306240  79.1150343  52.5732754  52.2410863
  78.3868795  51.3928495  52.8479331  75.5436078  51.8416532  55.9686003
  76.1137435  52.2703801  55.3303488  76.1344190  51.5599117  56.6670189
  77.5880883  48.4168203  49.8395805  78.2904927  48.8689247  50.3069732
  77.2561512  47.7752022  50.4675698  76.0361245  47.0079960  64.2147015
  75.4059906  47.6896241  64.4482411  75.9297333  46.8963041  63.2700153
  71.3306217  46.6751756  55.1412939  70.5405271  46.9309284  54.6653049
  71.8217465  47.4900094  55.2464979  73.2820963  47.0396335  52.0996415
  72.4852126  47.1515029  52.6179911  73.0546555  47.3782987  51.2337306
  79.1126630  53.5641038  60.0478930  79.1771063  54.0261445  60.8837102
  78.4037554  52.9338403  60.1761240  69.6143920  46.9282246  57.5727930
  69.8651959  47.8129256  57.8385505  70.1503469  46.7486848  56.8003021
  78.8274648  55.2309146  49.9157910  78.6920323  56.0760681  50.3442758
  79.3684461  55.4328423  49.1523844  75.3141988  41.3100726  66.5772266
  74.9208933  40.7566924  67.2519910  76.1308128  41.6211304  66.9678783
  72.2804045  52.7484584  50.4885835  72.7928566  53.5427834  50.6391400
  72.9326758  52.0510874  50.4219437  74.0898930  55.8650340  52.5708589
  74.2665558  56.7868305  52.3829573  74.8855764  55.5508759  53.0002968
  78.2309949  42.7258605  64.1692522  78.9719662  43.3265758  64.0896985
  78.4627871  41.9836242  63.6110565  73.3751287  47.9114972  62.4470752
  73.2604802  47.0100229  62.7477851  72.5195804  48.1578669  62.0955568
  80.4543124  55.8532712  64.0458252  80.0106979  55.0669091  63.7279157
  81.1160338  56.0411863  63.3802143  75.2130246  57.3828514  58.5718931
  75.7637671  57.2545577  57.7995925  74.3741721  57.6823403  58.2213824
  79.0097417  53.6479642  62.9163162  79.5425753  52.8867930  62.6862470
  78.4811498  53.3553293  63.6587317  82.1767112  38.7539708  58.4456804
  81.8331381  39.6441349  58.3695914  82.5446074  38.5641365  57.5826389
  70.2452962  51.0773238  51.2645406  71.0828184  51.4870246  51.0479114
  70.4231230  50.1372680  51.2345600  82.1417394  48.7448319  46.9529239
  81.6264018  49.5152923  47.1917626  81.8694703  48.0713455  47.5762300
  79.7264505  43.5898019  52.0114477  78.8706102  43.2004870  51.8320116
  80.1391457  43.6689980  51.1514263  81.2563652  41.1244363  56.4106037
  80.7528448  41.0874498  55.5973842  81.5494259  42.0337105  56.4702694
  77.5006538  41.2083092  55.4172219  78.3659535  41.0125901  55.0578108
  77.5684047  40.9793444  56.3441576  81.9303697  46.6175411  48.7789020
  81.6253833  46.9321560  49.6299163  82.8834140  46.6956831  48.8216353
  80.3750129  52.7765634  50.4281974  79.8471491  52.0418394  50.1155212
  79.8737632  53.5540310  50.1821942  75.1068857  43.4385300  52.7888586
  75.6812609  43.2160482  52.0561779  75.6939839  43.5073995  53.5417187
  75.4338444  45.4689761  46.8084471  74.5975756  45.8064448  47.1293746
  75.2943214  45.3338741  45.8711608  77.4091525  40.3126549  51.5163655
  76.7555937  39.9975566  50.8920270  77.3671999  39.6902290  52.2423478
  78.5202730  50.5945844  43.4316947  77.6129791  50.3635098  43.6308096
  79.0173761  49.7983464  43.6190929  81.4270808  59.3043352  46.3513633
  80.7532507  59.6075048  46.9598591  81.8136630  60.1072432  46.0019090
  80.6429265  46.8008483  55.8411303  79.7251826  47.0223430  55.6832991
  81.0589409  46.8754793  54.9823010  81.4264313  48.1999898  50.9713983
  82.1736132  48.7121296  50.6621105  81.6955902  47.8783951  51.8318377
  79.6990963  50.6958439  47.9540937  78.7902182  50.4117472  48.0513407
  79.7286047  51.1157518  47.0944244  70.2679133  48.4163953  51.9356139
  70.0703533  47.8233314  51.2107206  69.7125797  48.1116164  52.6532078
  78.2475857  48.3087060  54.0550733  78.3024467  47.3560896  53.9793209
  77.4367059  48.4646499  54.5392031  79.3967051  52.2367183  45.2929016
  78.9586481  51.5203042  44.8334653  80.1377492  52.4643298  44.7314107
  76.1868217  46.9264120  51.8141111  75.3736082  47.2258290  52.2206304
  76.6827211  46.5319808  52.5315594  78.3376795  56.9221876  53.7475376
  78.2952974  57.1482723  52.8183908  79.2539494  56.6885251  53.8961177
  81.7842429  47.3905944  60.6456005  82.1391816  47.6177417  61.5050471
  82.4314560  47.7224321  60.0233261  75.6782292  44.4982475  57.4302346
  76.3181671  44.3571234  56.7325310  74.8459822  44.2116988  57.0540948
  76.4542596  53.7984905  53.5437339  77.2483194  53.3035226  53.3419914
  75.7434288  53.2702769  53.1805044  81.2737440  56.1803001  57.8949707
  81.3274462  56.7493937  58.6627422  80.4052221  56.3504886  57.5303744
  72.7625359  47.9427987  49.6197092  71.8322947  47.8812443  49.8367054
  72.8582831  47.4203940  48.8233733  72.6810908  44.4682800  52.2075333
  72.9417725  45.3828133  52.0984494  73.5028080  44.0007243  52.3571946
  74.1535833  45.8820557  59.3774158  74.8258887  45.6737919  58.7286807
  73.3265620  45.6842643  58.9379390  80.0561405  42.5082498  61.3939819
  79.4089320  43.2072448  61.3004295  80.8262421  42.9418642  61.7616067
  80.2325540  50.3463263  59.4536638  81.1617600  50.4974423  59.2805606
  79.8116570  50.4347284  58.5985285  79.0313872  54.3713927  57.2235176
  78.8924957  54.0032712  58.0961114  78.2428468  54.8861567  57.0519134
  79.6262024  59.4723024  48.5660713  79.8013779  59.0011067  49.3806335
  78.9394812  60.0988790  48.7941973  80.5819087  53.7495530  54.6124014
  80.2468919  53.7096300  55.5081664  80.0823032  53.0840246  54.1394424
  74.5563331  49.1563160  60.1376595  74.4183129  48.4243399  60.7388134
  75.4668254  49.0672060  59.8560783  77.1845631  48.8683120  59.6260275
  77.8945250  48.2276312  59.5846893  77.1414940  49.1196014  60.5486455
  75.8974565  45.8548337  61.4455914  75.3611922  45.4039076  62.0977510
  75.3091274  45.9894246  60.7026378  74.1923109  62.6212387  55.3400573
  74.4319707  63.2530911  56.0179591  73.3492305  62.2700427  55.6265932
  75.3076824  45.3136989  44.0082378  74.4306291  45.1925790  43.6444624
  75.7834577  44.5223067  43.7561266  66.8278964  50.1014149  54.1023885
  67.5150004  49.7875879  53.5144900  66.6727093  51.0055513  53.8291136
  71.6313687  44.9904345  58.5308909  71.5471875  44.3830015  57.7959318
  70.8096393  45.4813363  58.5318405  78.7050971  58.4291509  57.7442077
  78.6321142  59.2346481  58.2561381  78.2628364  58.6283475  56.9190098
  78.4940750  57.6663279  51.2544898  77.7108272  58.2084959  51.3483123
  79.1933495  58.1837259  51.6539139  81.8037400  43.4757909  53.8979104
  82.3006100  42.7227871  53.5780174  81.0324382  43.5122225  53.3322313
  81.1649654  58.3278343  59.9000235  81.8777626  58.9625808  59.8276137
  80.6739683  58.4242209  59.0840237  82.8867181  52.2329596  51.4717527
  81.9523460  52.3531058  51.3022231  83.0643850  51.3302063  51.2077537
  78.3872369  45.6175292  53.6250788  78.0170157  45.0646332  54.3131694
  78.8831462  45.0133425  53.0725788  76.2161568  56.0772787  60.7205806
  76.9171027  56.7109270  60.8735200  75.7456683  56.4187518  59.9601445
  80.9770028  58.6677087  52.6486527  81.1592422  57.8498743  53.1114279
  81.8003014  58.8844780  52.2111417  81.3112193  57.5945272  49.9101575
  81.8399960  57.0837727  49.2971737  81.5740413  57.2787803  50.7747108
  80.0650427  49.3737205  65.0324394  79.3891064  49.2731334  65.7026769
  80.8878061  49.2176419  65.4960391  71.8129286  55.6109142  57.6536909
  72.3982723  54.8652830  57.7864813  71.6154124  55.9213098  58.5373573
  74.6667941  58.6460389  52.6699351  73.9978316  59.1306517  52.1863391
  74.5280811  58.8929610  53.5842730  66.4046941  48.1814742  56.3741352
  66.4431040  47.6478333  57.1678470  65.8987233  47.6549947  55.7552329
  78.8073210  60.6804133  59.2682010  79.3591518  60.8435754  60.0331095
  79.1479403  61.2708570  58.5962034  73.7837703  43.0279282  59.8703894
  73.8479029  43.8894113  59.4581292  73.7204823  42.4153284  59.1376253
  73.2589975  45.1002415  63.5176929  73.8862014  44.7179492  64.1314453
  72.4017894  44.8816617  63.8832621  70.0355518  46.9078844  49.4495283
  70.3308959  45.9989522  49.3962337  69.1343554  46.8866584  49.1276286
  81.9441597  58.6286108  56.2545692  81.8192736  57.8275848  55.7456637
  82.6020688  59.1232302  55.7659662  73.5649765  44.9834841  55.4322832
  72.8436351  45.5970808  55.2930305  74.3543021  45.5192605  55.3539478
  76.3676079  42.3189267  61.7063484  76.8910480  42.5651564  62.4689793
  76.1488412  43.1509302  61.2866621  71.7643360  44.5892942  49.5734609
  71.4356066  43.7090321  49.3909714  72.1182730  44.5340610  50.4610998
  81.0122939  56.2247844  54.0829594  80.8647901  55.2964552  54.2637164
  81.8376432  56.2467935  53.5986669  74.8785183  44.8765912  49.9410086
  75.2181255  45.4051833  49.2188695  75.3257303  45.2146318  50.7168653
  77.5728624  43.2602962  59.3913154  77.2325444  42.4610775  59.7933834
  76.8667630  43.5604673  58.8189987  78.2245096  40.3452275  57.8440477
  79.0471165  39.8712753  57.7219368  78.4683159  41.1242758  58.3439164
  76.8653330  43.3740533  48.1403379  77.5861693  43.7521786  47.6367096
  76.2418634  44.0929410  48.2438357  81.0084453  44.0785682  49.0761711
  81.2248067  44.9610320  48.7750539  80.5278520  43.6871895  48.3467353
  75.7483674  47.0371395  55.6532456  75.6028255  47.3511698  56.5456737
  75.2708878  47.6556296  55.1003355  77.6080057  44.0273943  55.7013345
  77.5941626  43.1315037  55.3645643  78.3252485  44.0344607  56.3351631
  79.4606188  44.4611283  57.7466473  79.2023966  45.3828354  57.7450803
  78.9291228  44.0641718  58.4366937  70.2229336  49.5776740  58.5920117
  69.6782805  50.3536548  58.7240391  71.1008686  49.9247544  58.4339239
  77.0116953  42.9088324  50.9700916  77.1332864  41.9804970  51.1691803
  76.7218995  42.9227010  50.0579231  79.8808143  40.5943234  54.1067635
  79.9029840  40.6582567  53.1519615  80.2976202  39.7547743  54.3008142
  71.0095358  48.7046636  61.4850274  70.2677094  48.8529271  62.0714904
  70.6888103  48.9654902  60.6217023  78.9539021  58.2462614  61.2830664
  79.2626147  58.0011761  62.1553364  79.7514503  58.4509253  60.7949534
  78.9759633  60.4000524  53.5136040  78.5364623  59.9076903  54.2068897
  79.7267750  59.8573491  53.2728116  71.4551972  56.5912065  53.5160669
  72.2809992  56.2915837  53.1359312  71.1046024  55.8219687  53.9650457
  76.4233505  55.9438533  55.5858342  75.8013514  55.2809238  55.2860570
  77.0938372  55.9699665  54.9031990  69.6560577  54.5098391  54.4749602
  68.8192485  54.0820566  54.2933603  69.6284222  54.7030834  55.4120393
  76.4958033  44.4220321  65.1790848  76.5446188  45.2982444  64.7968618
  77.0380547  43.8797714  64.6062491  75.9847012  54.4942456  49.0616803
  76.1335132  55.1777921  48.4083475  76.7913456  54.4747546  49.5766258
  78.7257321  45.1751693  61.9337207  77.8560630  45.4685259  61.6619795
  78.9616801  45.7592138  62.6544470  73.7399645  50.5207634  50.0677872
  73.4945687  49.6169964  50.2658082  73.9095560  50.5224784  49.1257350
  81.4296355  41.3931310  59.4502627  81.9478299  42.1292337  59.1249116
  81.0751488  41.6995304  60.2849386  73.0095293  46.2535991  47.5664033
  72.3164538  46.3280346  46.9104069  72.7647044  45.4896335  48.0885550
  81.6808949  37.8131593  54.9703524  81.9610703  37.1454782  55.5963950
  82.4659556  38.0060688  54.4578188  79.4842418  56.9890587  46.5328550
  78.9116385  57.6080774  46.0799022  80.0575211  57.5389948  47.0668472
  79.8689216  48.3251399  43.8744603  80.8148321  48.1957608  43.9433021
  79.4903461  47.5866061  44.3514031  79.7527909  52.3769146  65.3345260
  80.6730918  52.5547745  65.5285306  79.7177492  51.4325191  65.1824959
  78.0532133  46.2501376  43.8099488  77.1463589  45.9534489  43.8862201
  78.3308114  45.9531194  42.9433774  68.9710074  47.5707739  54.2598534
  68.6512858  46.7173047  53.9672908  68.4243502  47.7856317  55.0156502
  72.7489981  50.2870180  57.9768041  72.9675991  51.2187288  57.9956075
  73.1615755  49.9278155  58.7622845  79.6694199  40.7938266  49.9643729
  78.8594927  40.4485351  50.3398975  80.3578616  40.4845809  50.5531341
  81.5984747  39.8716312  51.5868026  82.1515786  40.2911766  52.2458049
  81.8354834  38.9452060  51.6290982  77.6217846  45.8603386  67.3670790
  77.5214573  46.8097743  67.2982881  77.4039389  45.5321625  66.4946860
  76.8230918  43.1088311  43.9511467  77.6850082  43.4343209  44.2107284
  77.0081262  42.3219807  43.4384533  68.8398334  51.1910651  56.2291656
  68.1461805  50.7764604  55.7161610  69.5871325  51.2331187  55.6325075
  77.4849117  49.2900525  66.1835851  77.0016198  50.0900885  66.3899740
  77.5710056  49.3008470  65.2303295  70.7535076  51.1228905  54.1057671
  70.7305764  51.2216592  53.1539554  71.0635713  51.9694055  54.4274837
  73.4122454  53.1805060  58.2204285  74.3665708  53.1489002  58.1534217
  73.2134978  52.7195683  59.0354511  74.0021836  51.7506176  60.7875083
  74.8214725  52.2450254  60.8109920  74.2758644  50.8338144  60.7592650
  71.7672683  58.7224679  55.2374483  71.6327151  57.9625080  54.6712481
  71.3504745  59.4465579  54.7703272  74.9241809  59.6193996  55.4492926
  74.8074193  60.5639429  55.3471616  74.1034255  59.3167558  55.8378725
  69.2556750  46.0844309  61.4867280  69.9015614  45.5743263  61.9754505
  69.0473902  46.8212991  62.0610705  81.7810143  53.1525157  66.9859420
  82.6501302  53.3265809  66.6246055  81.3016894  53.9719574  66.8635150
  77.7760361  40.3484354  47.2391176  77.7639031  41.2926194  47.3959447
  78.6683783  40.1654500  46.9450637  75.9496323  60.2722258  58.6648854
  76.8523570  60.3045868  58.9815349  75.7233693  59.3422709  58.6795190
  77.7049925  59.0253245  55.3258933  76.7545556  59.0255106  55.2123305
  78.0082411  58.2785979  54.8094967  81.5912480  36.9427131  51.4937113
  80.8244876  36.3885617  51.6393795  82.0023185  37.0148999  52.3551264
  73.5954241  43.2311927  65.5842294  74.4585703  42.8748731  65.7945619
  73.0219652  42.8925821  66.2717698  82.1699972  62.0043673  55.1412939
  81.3799026  62.2601202  54.6653049  82.6611219  62.8192011  55.2464979
  80.4537675  62.2574164  57.5727930  80.7045713  63.1421174  57.8385505
  80.9897223  62.0778765  56.8003021  81.0846717  66.4065156  51.2645406
  81.9221939  66.8162164  51.0479114  81.2624984  65.4664598  51.2345600
  81.1072888  63.7455871  51.9356139  80.9097288  63.1525232  51.2107206
  80.5519552  63.4408081  52.6532078  77.6672719  65.4306066  54.1023885
  78.3543759  65.1167796  53.5144900  77.5120848  66.3347431  53.8291136
  82.4707441  60.3196263  58.5308909  82.3865630  59.7121932  57.7959318
  81.6490147  60.8105281  58.5318405  77.2440695  63.5106660  56.3741352
  77.2824795  62.9770250  57.1678470  76.7380988  62.9841865  55.7552329
  80.8749273  62.2370762  49.4495283  81.1702714  61.3281440  49.3962337
  79.9737308  62.2158501  49.1276286  82.6037114  59.9184859  49.5734609
  82.2749820  59.0382238  49.3909714  82.9576485  59.8632528  50.4610998
  81.0623091  64.9068657  58.5920117  80.5176559  65.6828465  58.7240391
  81.9402441  65.2539462  58.4339239  81.8489113  64.0338554  61.4850274
  81.1070849  64.1821189  62.0714904  81.5281857  64.2946819  60.6217023
  80.4954332  69.8390309  54.4749602  79.6586240  69.4112483  54.2933603
  80.4677977  70.0322752  55.4120393  79.8103828  62.8999657  54.2598534
  79.4906612  62.0464965  53.9672908  79.2637256  63.1148235  55.0156502
  79.6792088  66.5202568  56.2291656  78.9855560  66.1056521  55.7161610
  80.4265079  66.5623105  55.6325075  81.5928831  66.4520822  54.1057671
  81.5699519  66.5508509  53.1539554  81.9029467  67.2985973  54.4274837
  80.0950505  61.4136227  61.4867280  80.7409368  60.9035181  61.9754505
  79.8867656  62.1504909  62.0610705  54.8748771   6.2205280  37.9197677
  54.7972801   7.1713105  37.9986158  54.2710415   5.8751152  38.5772604
  53.5342738   3.7306801  45.2964238  54.0850163   3.6023864  44.5241232
  52.6954214   4.0301690  44.9459130  59.7483301   5.6521639  33.0758940
  59.0744999   5.9553336  33.6843898  60.1349123   6.4550719  32.7264397
  57.9474516   5.8201311  35.2906019  58.1226272   5.3489354  36.1051642
  57.2607304   6.4467077  35.5187280  52.5135601   8.9690674  42.0645879
  52.7532199   9.6009198  42.7424898  51.6704798   8.6178714  42.3511239
  57.0263463   4.7769796  44.4687383  56.9533634   5.5824768  44.9806688
  56.5840856   4.9761762  43.6435405  56.8153243   4.0141566  37.9790205
  56.0320764   4.5563247  38.0728429  57.5145988   4.5315546  38.3784446
  59.4862146   4.6756630  46.6245542  60.1990119   5.3104095  46.5521443
  58.9952175   4.7720496  45.8085544  50.1341778   1.9587429  44.3782215
  50.7195215   1.2131117  44.5110120  49.9366617   2.2691386  45.2618879
  52.9880433   4.9938676  39.3944658  52.3190809   5.4784804  38.9108698
  52.8493303   5.2407897  40.3088036  57.1285702   7.0282420  45.9927316
  57.6804010   7.1914041  46.7576401  57.4691895   7.6186858  45.3207341
  57.2751513   4.5940901  48.0075971  57.5838640   4.3490048  48.8798670
  58.0726995   4.7987540  47.5194841  57.2972125   6.7478811  40.2381347
  56.8577116   6.2555190  40.9314204  58.0480242   6.2051779  39.9973422
  49.7764464   2.9390352  40.2405975  50.6022484   2.6394124  39.8604619
  49.4258516   2.1697974  40.6895764  47.9773069   0.8576678  41.1994909
  47.1404978   0.4298853  41.0178910  47.9496715   1.0509122  42.1365700
  50.0885175   5.0702966  41.9619790  49.9539643   4.3103367  41.3957788
  49.6717237   5.7943866  41.4948579  53.2454301   5.9672283  42.1738232
  53.1286685   6.9117716  42.0716923  52.4246747   5.6645845  42.5624031
  54.2708815   6.6200545  45.3894161  55.1736062   6.6524155  45.7060656
  54.0446185   5.6900996  45.4040497  56.0262417   5.3731532  42.0504239
  55.0758048   5.3733393  41.9368612  56.3294903   4.6264266  41.5340274
  71.7615111  11.2092070  43.1150002  72.3993521  11.0898817  42.4113342
  71.6435953  12.1572914  43.1737954  68.5704817  11.1619498  43.0511526
  68.2323328  11.0460563  42.1632061  69.4394585  10.7610663  43.0312533
  64.4291633  13.0154975  39.0408417  63.8656498  12.9244912  38.2724705
  64.3144028  12.1954879  39.5210910  69.0524600  12.3154350  49.0097732
  69.0413241  11.9207148  48.1378236  69.2145239  11.5820423  49.6031503
  61.9756064  14.5106166  41.8792638  62.7677356  14.1696991  41.4638937
  62.2152715  14.6201141  42.7994791  70.0091191  16.6825942  34.3522882
  69.3579171  17.2680023  33.9656896  70.8035554  17.2132137  34.4117920
  63.9346818  13.7715080  34.7510017  64.7077694  13.2244067  34.6122892
  64.2872217  14.6359329  34.9624478  65.7731861  15.0991462  47.9576916
  65.4821727  16.0037093  47.8423582  66.4088845  15.1407989  48.6720985
  66.6988068  12.4768310  44.5478276  67.2951640  12.2524333  43.8335239
  66.7563039  11.7353056  45.1503723  66.2713096   9.9307746  32.3828467
  66.5238617   9.4089267  31.6211930  65.3337655   9.7673891  32.4855150
  71.4866456  14.3716374  34.8891867  70.8512289  14.4451001  35.6012771
  71.1563863  14.9609973  34.2110946  65.9909385  11.8335852  34.5852842
  65.8745643  11.1580755  35.2533926  66.1011645  11.3468226  33.7684995
  68.3340926  11.2945999  38.2899531  67.9699133  10.7676620  39.0012452
  69.1908042  10.9044468  38.1166016  70.7321746  14.7852877  44.9526710
  70.4322469  15.6877916  44.8442517  70.3872806  14.5185060  45.8047863
  64.1834228  11.2366674  40.9863414  63.2584724  11.1042888  41.1941106
  64.4318641  12.0160893  41.4833356  67.9535634   8.7793556  34.2707546
  67.8335259   9.2250607  35.1093026  67.2588222   9.1278874  33.7121084
  61.5443039  10.8799948  41.8207203  61.6735420  11.1334427  42.7346615
  60.8640490  11.4727656  41.5011858  65.7142526  21.5497198  37.9197677
  65.6366556  22.5005023  37.9986158  65.1104169  21.2043070  38.5772604
  68.2059756   8.7225063  50.5759044  67.4293090   9.2818983  50.5661909
  68.8450319   9.2081846  51.0973914  66.4606128  11.5310516  50.1377011
  67.2020812  12.0695560  49.8611835  65.7543113  12.1576805  50.2948563
  71.9361468  13.6739657  48.7349173  72.3444824  13.2322067  47.9903805
  71.2138729  13.0992284  48.9883366  68.2892538   8.6112264  46.1082730
  69.1353733   9.0351677  46.2517379  68.2291175   7.9545888  46.8021293
  72.2590282  14.2340848  42.4901462  71.6299145  14.3986562  41.7877529
  71.8715944  14.6482457  43.2612426  76.1379514  15.1695285  39.8445825
  75.4530552  15.5494187  39.2942859  76.2223363  15.7790612  40.5777773
  73.3930446  12.8155244  46.4441169  73.6047341  13.4587004  45.7675550
  73.3460194  11.9817561  45.9763099  67.8118244  13.9715256  39.7551547
  68.2756590  14.2502959  38.9656169  67.5475042  13.0698700  39.5724637
  64.7042325  13.5186737  42.6931310  65.2743682  13.9474006  42.0548794
  65.2950437  13.2369322  43.3915496  66.7487130  10.0938408  36.5641112
  67.4511174  10.5459452  37.0315038  66.4167759   9.4522227  37.1921005
  65.1967492   8.6850165  50.9392321  64.5666152   9.3666445  51.1727718
  65.0903580   8.5733246  49.9945459  60.4912464   8.3521961  41.8658245
  59.7011518   8.6079489  41.3898356  60.9823712   9.1670298  41.9710286
  74.5076274  15.6927200  44.6163526  75.3293717  15.2907387  44.3346208
  74.5038677  15.5895434  45.5679642  62.4427210   8.7166540  38.8241722
  61.6458373   8.8285234  39.3425218  62.2152802   9.0553192  37.9582613
  68.2732877  15.2411243  46.7724237  68.3377310  15.7031650  47.6082409
  67.5643801  14.6108608  46.9006547  58.7750167   8.6052451  44.2973236
  59.0258206   9.4899461  44.5630812  59.3109716   8.4257053  43.5248328
  67.9880895  16.9079351  36.6403217  67.8526570  17.7530886  37.0688065
  68.5290707  17.1098628  35.8769151  61.4410292  14.4254789  37.2131142
  61.9534813  15.2198039  37.3636707  62.0933005  13.7281079  37.1464744
  63.2505177  17.5420545  39.2953895  63.4271805  18.4638510  39.1074879
  64.0462010  17.2278964  39.7248275  62.5357533   9.5885177  49.1716059
  62.4211049   8.6870434  49.4723157  61.6802051   9.8348874  48.8200875
  69.6149371  17.5302917  50.7703559  69.1713225  16.7439296  50.4524464
  70.2766585  17.7182068  50.1047450  64.3736492  19.0598719  45.2964238
  64.9243917  18.9315782  44.5241232  63.5347968  19.3593608  44.9459130
  71.7130609  17.8105717  48.7984960  71.6949085  18.6314598  48.3065230
  72.6350529  17.6859792  49.0235102  68.1703663  15.3249847  49.6408469
  68.7032000  14.5638135  49.4107777  67.6417744  15.0323498  50.3832623
  59.4059209  12.7543443  37.9890713  60.2434431  13.1640451  37.7724420
  59.5837477  11.8142885  37.9590907  71.3023641  10.4218524  33.6774546
  70.7870265  11.1923128  33.9162933  71.0300950   9.7483660  34.3007607
  76.2757915  13.1750878  35.6127719  75.4987358  12.8362038  35.1682881
  76.9549396  13.1803501  34.9382684  69.5356376  14.4535839  37.1527281
  69.0077738  13.7188599  36.8400518  69.0343879  15.2310515  36.9067249
  74.5149222  12.6484859  42.2694327  73.8572897  13.3384121  42.3574456
  75.3189621  13.0381291  42.6128313  73.3254681  11.0029232  40.3198269
  73.8386563  11.6359224  40.8219979  73.9755905  10.4030428  39.9541629
  64.5944691   7.1459966  33.5329778  63.7582003   7.4834653  33.8539052
  64.4549460   7.0108946  32.5956915  67.6808976  12.2716049  30.1562254
  66.7736038  12.0405303  30.3553403  68.1780008  11.4753669  30.3436235
  70.5877055  20.9813556  33.0758940  69.9138754  21.2845253  33.6843898
  70.9742877  21.7842637  32.7264397  69.8035512   8.4778688  42.5656609
  68.8858073   8.6993635  42.4078297  70.2195655   8.5524998  41.7068317
  70.5870560   9.8770103  37.6959290  71.3342378  10.3891501  37.3866412
  70.8562149   9.5554156  38.5563683  68.8597210  12.3728644  34.6786244
  67.9508429  12.0887677  34.7758714  68.8892294  12.7927723  33.8189551
  74.0916477  15.9835234  38.4477411  73.6378804  15.1426144  38.5042602
  73.4610444  16.6196632  38.7852192  72.5349416  17.8211730  39.3827230
  72.8272391  18.3816787  38.6639595  73.0448037  18.1140291  40.1380389
  59.4285380  10.0934158  38.6601446  59.2309780   9.5003519  37.9352513
  58.8732044   9.7886368  39.3777385  67.4082104   9.9857265  40.7796039
  67.4630714   9.0331101  40.7038516  66.5973306  10.1416704  41.2637338
  68.5573298  13.9137388  32.0174322  68.1192727  13.1973247  31.5579960
  69.2983738  14.1413503  31.4559414  65.3474464   8.6034324  38.5386418
  64.5342329   8.9028495  38.9451610  65.8433458   8.2090013  39.2560900
  67.4983042  18.5992081  40.4720683  67.4559220  18.8252928  39.5429215
  68.4145740  18.3655456  40.6206484  70.9448675   9.0676149  47.3701312
  71.2998063   9.2947622  48.2295778  71.5920807   9.3994526  46.7478567
  76.6746412  12.1894585  38.0750641  76.5364311  12.3796181  37.1471830
  76.3182631  12.9513968  38.5318692  76.7015792  14.2571112  43.0861913
  77.1352299  14.1646401  43.9344967  77.4147373  14.2328612  42.4481929
  65.6148842  15.4755110  40.2682646  66.4089441  14.9805431  40.0665220
  64.9040535  14.9472974  39.9050351  70.4343687  17.8573206  44.6195013
  70.4880709  18.4264142  45.3872729  69.5658468  18.0275091  44.2549050
  61.9231606   9.6198192  36.3442398  60.9929194   9.5582648  36.5612360
  62.0189078   9.0974145  35.5479039  61.8417155   6.1453005  38.9320640
  62.1023972   7.0598338  38.8229800  62.6634327   5.6777448  39.0817253
  63.3142080   7.5590762  46.1019464  63.9865134   7.3508124  45.4532113
  62.4871867   7.3612848  45.6624697  77.5631341  14.2994812  45.6194798
  77.7567232  15.2040623  45.8654073  77.4631960  13.8402232  46.4533383
  72.6246450  14.4501555  51.1935679  72.4731957  14.2212107  50.2765762
  72.6151130  15.4072157  51.2067024  69.3931787  12.0233468  46.1781945
  70.3223847  12.1744628  46.0050912  68.9722817  12.1117489  45.3230592
  68.1920118  16.0484132  43.9480483  68.0531204  15.6802917  44.8206421
  67.4034715  16.5631772  43.7764440  68.7868270  21.1493229  35.2906019
  68.9620026  20.6781272  36.1051642  68.1001058  21.7758995  35.5187280
  69.7425333  15.4265735  41.3369320  69.4075166  15.3866505  42.2326970
  69.2429279  14.7610451  40.8639731  63.7169577  10.8333365  46.8621902
  63.5789375  10.1013604  47.4633441  64.6274501  10.7442265  46.5806089
  72.6784525  12.7721769  31.6106380  72.0613696  12.0468598  31.5139433
  72.2101014  13.5331130  31.2673454  66.3451878  10.5453324  46.3505581
  67.0551497   9.9046517  46.3092200  66.3021186  10.7966219  47.2731762
  74.3338657  17.4820678  49.2712160  74.2751203  16.7979898  48.6042743
  74.7358175  18.2239668  48.8192786  65.0580812   7.5318542  48.1701221
  64.5218169   7.0809281  48.8222817  64.4697521   7.6664451  47.4271685
  74.3356064  15.4460262  47.5026140  73.4482843  15.1086184  47.6252539
  74.9054615  14.7143293  47.7394905  55.9885211  11.7784353  40.8269191
  56.6756251  11.4646083  40.2390207  55.8333340  12.6825718  40.5536443
  60.7919933   6.6674550  45.2554215  60.7078122   6.0600220  44.5204625
  59.9702640   7.1583568  45.2563712  67.8657217  20.1061714  44.4687383
  67.7927389  20.9116686  44.9806688  67.4234611  20.3053680  43.6435405
  67.6546997  19.3433484  37.9790205  66.8714519  19.8855164  38.0728429
  68.3539742  19.8607464  38.3784446  70.3255901  20.0048548  46.6245542
  71.0383873  20.6396013  46.5521443  69.8345930  20.1012414  45.8085544
  72.0473428  13.9099801  38.1962834  71.1129707  14.0301263  38.0267538
  72.2250096  13.0072268  37.9322843  65.3767815  17.7542992  47.4451113
  66.0777274  18.3879475  47.5980507  64.9062930  18.0957723  46.6846752
  73.5022210  16.0960941  35.7299020  73.7782054  15.9817536  36.6392894
  72.6326709  15.6978426  35.6911193  73.1769100  10.3087599  45.2703663
  72.5240551  10.5563506  44.6156116  73.5549480   9.4951737  44.9366140
  70.1376274  20.3447292  39.3731833  70.3198669  19.5268948  39.8359586
  70.9609260  20.5614984  38.9356723  70.4718440  19.2715477  36.6346882
  71.0006206  18.7607932  36.0217044  70.7346659  18.9558008  37.4992415
  69.2256674  11.0507410  51.7569700  68.5497311  10.9501539  52.4272075
  70.0484307  10.8946624  52.2205697  60.9735533  17.2879347  44.3782215
  61.5588969  16.5423035  44.5110120  60.7760371  17.5983303  45.2618879
  63.8274188  20.3230594  39.3944658  63.1584563  20.8076722  38.9108698
  63.6887057  20.5699814  40.3088036  55.5653187   9.8584947  43.0986659
  55.6037287   9.3248538  43.8923777  55.0593480   9.3320152  42.4797636
  67.9679456  22.3574338  45.9927316  68.5197764  22.5205959  46.7576401
  68.3085650  22.9478775  45.3207341  62.4196222   6.7772620  50.2422235
  63.0468261   6.3949697  50.8559759  61.5624141   6.5586822  50.6077928
  72.8190331  17.1835595  51.8475971  73.3630235  17.7965553  51.3530925
  72.2377176  17.7415173  52.3642984  59.1961765   8.5849049  36.1740590
  59.4915206   7.6759727  36.1207644  58.2949801   8.5636788  35.8521592
  71.1047844  20.3056313  42.9790998  70.9798983  19.5046053  42.4701944
  71.7626935  20.8002506  42.4904968  62.7256012   6.6605046  42.1568139
  62.0042598   7.2741013  42.0175612  63.5149268   7.1962810  42.0784785
  73.1682752  18.1065333  44.6070548  72.2213088  17.9870684  44.5348875
  73.5165525  17.2187831  44.6896810  60.9249606   6.2663147  36.2979915
  60.5962313   5.3860526  36.1155021  61.2788977   6.2110815  37.1856304
  64.0391430   6.5536116  36.6655393  64.3787502   7.0822038  35.9434001
  64.4863550   6.8916523  37.4413959  73.7763307  18.7246608  41.8939773
  74.7009855  18.5189469  41.7564225  73.6078611  18.4763009  42.8029115
  64.9089921   8.7141600  42.3777763  64.7634502   9.0281903  43.2702044
  64.4315125   9.3326501  41.8248661  73.5658623  19.2432276  37.2501865
  73.7395501  18.6778698  36.4975717  74.0587515  20.0433170  37.0681355
  59.3835583  11.2546945  45.3165424  58.8389051  12.0306753  45.4485698
  60.2614933  11.6017749  45.1584545  74.5533796  18.5599040  34.3498763
  75.2484701  19.1805733  34.5686078  74.8956946  17.7094391  34.6251141
  60.1701605  10.3816841  48.2095581  59.4283341  10.5299476  48.7960211
  59.8494349  10.6425107  47.3462330  76.4525219  16.0098745  35.8786094
  76.9776543  16.3486018  35.1535414  76.3647572  15.0745761  35.6949229
  68.1145268  19.9232819  48.0075971  68.4232394  19.6781966  48.8798670
  68.9120750  20.1279458  47.5194841  68.1365880  22.0770729  40.2381347
  67.6970870  21.5847107  40.9314204  68.8873997  21.5343696  39.9973422
  60.6158219  18.2682270  40.2405975  61.4416239  17.9686041  39.8604619
  60.2652271  17.4989892  40.6895764  65.5839752  17.6208738  42.3103649
  64.9619761  16.9579443  42.0105877  66.2544619  17.6469870  41.6277297
  58.8166824  16.1868596  41.1994909  57.9798732  15.7590770  41.0178910
  58.7890469  16.3801039  42.1365700  76.1419125  16.6431649  51.1837292
  75.3514669  16.6255788  50.6441791  75.9052480  17.1819943  51.9386328
  76.2617000  13.4924115  48.4970020  76.3115005  13.3274123  49.4385543
  76.1530923  12.6251375  48.1067901  65.1453259  16.1712661  35.7862109
  65.2941379  16.8548126  35.1328782  65.9519702  16.1517751  36.3011565
  77.7635197  15.9121057  48.7412042  77.4720005  16.2751038  49.5775503
  77.1507328  15.1988065  48.5625374  78.9630879  13.4773937  41.2614612
  79.7977771  13.9163741  41.4252173  79.0990008  13.0012590  40.4422858
  76.0122385  11.0353672  47.2092100  76.4876507  11.2281318  46.4010951
  75.0887951  11.0912857  46.9635484  62.9005892  12.1977839  36.7923178
  62.6551934  11.2940169  36.9903388  63.0701806  12.1994989  35.8502656
  62.1701539   7.9306196  34.2909340  61.4770784   8.0050551  33.6349376
  61.9253291   7.1666540  34.8130857  68.6448664  18.6660792  33.2573857
  68.0722631  19.2850979  32.8044329  69.2181458  19.2160153  33.7913779
  71.8645924  18.9497942  34.3882439  72.7976597  18.8843503  34.5915315
  71.7769137  19.7854209  33.9296972  74.4933941  18.2663812  31.3486387
  74.4147572  17.9323676  32.2422145  75.3143608  18.7585580  31.3477859
  69.0295463  10.0021604  30.5989909  69.9754568   9.8727812  30.6678327
  68.6509708   9.2636266  31.0759337  68.9134155  14.0539351  52.0590566
  69.8337165  14.2317950  52.2530613  68.8783738  13.1095396  51.9070266
  67.2138380   7.9271581  30.5344794  66.3069835   7.6304693  30.6107508
  67.4914361   7.6301399  29.6679081  58.1316320   9.2477944  40.9843841
  57.8119105   8.3943252  40.6918215  57.5849749   9.4626522  41.7401808
  61.9096228  11.9640385  44.7013347  62.1282238  12.8957493  44.7201381
  62.3222002  11.6048360  45.4868151  66.7824093   7.5373591  54.0916096
  66.6820820   8.4867948  54.0228187  66.5645635   7.2091830  53.2192166
  58.0004580  12.8680856  42.9536962  57.3068052  12.4534808  42.4406917
  58.7477571  12.9101392  42.3570381  66.6455363  10.9670730  52.9081158
  66.1622445  11.7671090  53.1145047  66.7316302  10.9778675  51.9548602
  59.9141323  12.7999109  40.8302977  59.8912011  12.8986797  39.8784860
  60.2241959  13.6464260  41.1520143  62.5728701  14.8575264  44.9449592
  63.5271954  14.8259207  44.8779523  62.3741224  14.3965888  45.7599818
  63.1628083  13.4276381  47.5120389  63.9820972  13.9220459  47.5355227
  63.4364891  12.5108349  47.4837957  72.0637893  15.5831807  30.9696365
  72.7673743  15.7881810  31.5854021  71.3400541  16.1508569  31.2345448
  72.8935703  11.3341669  37.0898635  72.8370904  11.7910220  36.2506268
  73.4464045  10.5732353  36.9121478  64.0848055  21.2964201  42.1738232
  63.9680440  22.2409633  42.0716923  63.2640502  20.9937763  42.5624031
  73.9724590  16.0214337  33.0194825  74.8070194  15.5895535  32.8372300
  73.8108933  15.8496350  33.9471719  73.6270482  12.5246450  34.3851164
  73.5719286  12.3590721  33.4439608  73.0016537  13.2322483  34.5413354
  58.4162997   7.7614514  48.2112586  59.0621861   7.2513468  48.6999812
  58.2080148   8.4983196  48.7856012  70.9416389  14.8295362  53.7104727
  71.8107549  15.0036014  53.3491362  70.4623141  15.6489779  53.5880456
  65.1102570  21.9492463  45.3894161  66.0129816  21.9816073  45.7060656
  64.8839940  21.0192914  45.4040497  66.8656172  20.7023449  42.0504239
  65.9151803  20.7025311  41.9368612  67.1688658  19.9556184  41.5340274
  79.4098571  26.4911416  43.0511526  79.0717083  26.3752481  42.1632061
  80.2788340  26.0902581  43.0312533  75.2685387  28.3446892  39.0408417
  74.7050252  28.2536829  38.2724705  75.1537782  27.5246797  39.5210910
  79.8918354  27.6446268  49.0097732  79.8806995  27.2499066  48.1378236
  80.0538994  26.9112340  49.6031503  72.8149819  29.8398084  41.8792638
  73.6071111  29.4988909  41.4638937  73.0546469  29.9493059  42.7994791
  80.8484946  32.0117860  34.3522882  80.1972926  32.5971940  33.9656896
  81.6429309  32.5424055  34.4117920  74.7740573  29.1006997  34.7510017
  75.5471449  28.5535984  34.6122892  75.1265972  29.9651247  34.9624478
  76.6125615  30.4283379  47.9576916  76.3215481  31.3329010  47.8423582
  77.2482600  30.4699907  48.6720985  77.5381822  27.8060228  44.5478276
  78.1345395  27.5816250  43.8335239  77.5956794  27.0644973  45.1503723
  77.1106851  25.2599663  32.3828467  77.3632371  24.7381185  31.6211930
  76.1731410  25.0965809  32.4855150  82.1550134  24.2635442  40.1903210
  82.9413223  23.8454865  39.8393627  82.4188838  25.1681534  40.3584858
  82.3260211  29.7008292  34.8891867  81.6906044  29.7742918  35.6012771
  81.9957617  30.2901891  34.2110946  76.8303139  27.1627769  34.5852842
  76.7139398  26.4872673  35.2533926  76.9405399  26.6760143  33.7684995
  79.1734680  26.6237916  38.2899531  78.8092888  26.0968537  39.0012452
  80.0301796  26.2336385  38.1166016  78.8140167  21.6527816  33.2860879
  78.9814570  22.5208052  33.6531350  78.6237336  21.8155098  32.3622169
  81.5715501  30.1144795  44.9526710  81.2716224  31.0169834  44.8442517
  81.2266560  29.8476978  45.8047863  75.0227982  26.5658592  40.9863414
  74.0978479  26.4334806  41.1941106  75.2712395  27.3452811  41.4833356
  78.7929388  24.1085474  34.2707546  78.6729013  24.5542524  35.1093026
  78.0981977  24.4570791  33.7121084  72.3836793  26.2091865  41.8207203
  72.5129174  26.4626344  42.7346615  71.7034244  26.8019573  41.5011858
  76.5536280  36.8789115  37.9197677  76.4760310  37.8296940  37.9986158
  75.9497924  36.5334988  38.5772604  79.0453510  24.0516981  50.5759044
  78.2686844  24.6110901  50.5661909  79.6844073  24.5373764  51.0973914
  77.2999882  26.8602434  50.1377011  78.0414567  27.3987478  49.8611835
  76.5936868  27.4868723  50.2948563  82.7755222  29.0031575  48.7349173
  83.1838578  28.5613985  47.9903805  82.0532484  28.4284202  48.9883366
  79.1286292  23.9404181  46.1082730  79.9747487  24.3643595  46.2517379
  79.0684930  23.2837806  46.8021293  83.0984037  29.5632765  42.4901462
  82.4692899  29.7278479  41.7877529  82.7109699  29.9774375  43.2612426
  82.2785737  21.6008550  47.7663903  82.0346669  22.3550610  47.2298179
  82.5545668  21.9793897  48.6011150  81.8350429  20.7564983  43.3477741
  80.9734908  21.0546236  43.6394479  81.8612864  20.9735382  42.4158774
  78.6511999  29.3007173  39.7551547  79.1150344  29.5794876  38.9656169
  78.3868797  28.3990618  39.5724637  75.5436080  28.8478655  42.6931310
  76.1137437  29.2765923  42.0548794  76.1344192  28.5661240  43.3915496
  77.5880885  25.4230326  36.5641112  78.2904928  25.8751369  37.0315038
  77.2561513  24.7814145  37.1921005  76.0361246  24.0142082  50.9392321
  75.4059907  24.6958363  51.1727718  75.9297334  23.9025164  49.9945459
  71.3306219  23.6813878  41.8658245  70.5405273  23.9371407  41.3898356
  71.8217466  24.4962216  41.9710286  73.2820964  24.0458458  38.8241722
  72.4852127  24.1577152  39.3425218  73.0546556  24.3845110  37.9582613
  79.1126632  30.5703161  46.7724237  79.1771064  31.0323568  47.6082409
  78.4037556  29.9400526  46.9006547  69.6143922  23.9344369  44.2973236
  69.8651960  24.8191379  44.5630812  70.1503470  23.7548970  43.5248328
  78.8274649  32.2371268  36.6403217  78.6920324  33.0822804  37.0688065
  79.3684462  32.4390546  35.8769151  75.3141989  18.3162848  53.3017572
  74.9208934  17.7629047  53.9765217  76.1308129  18.6273427  53.6924090
  72.2804047  29.7546706  37.2131142  72.7928567  30.5489957  37.3636707
  72.9326760  29.0572997  37.1464744  74.0898931  32.8712463  39.2953895
  74.2665560  33.7930427  39.1074879  74.8855765  32.5570882  39.7248275
  78.2309950  19.7320727  50.8937829  78.9719663  20.3327880  50.8142291
  78.4627873  18.9898365  50.3355871  73.3751288  24.9177094  49.1716059
  73.2604803  24.0162352  49.4723157  72.5195806  25.1640791  48.8200875
  80.4543126  32.8594835  50.7703559  80.0106980  32.0731213  50.4524464
  81.1160339  33.0473985  50.1047450  75.2130247  34.3890636  45.2964238
  75.7637672  34.2607700  44.5241232  74.3741723  34.6885525  44.9459130
  79.0097418  30.6541764  49.6408469  79.5425755  29.8930052  49.4107777
  78.4811499  30.3615416  50.3832623  82.1767113  15.7601830  45.1702111
  81.8331382  16.6503472  45.0941221  82.5446075  15.5703488  44.3071696
  70.2452963  28.0835361  37.9890713  71.0828185  28.4932369  37.7724420
  70.4231231  27.1434803  37.9590907  82.1417396  25.7510441  33.6774546
  81.6264019  26.5215046  33.9162933  81.8694704  25.0775577  34.3007607
  79.7264507  20.5960142  38.7359784  78.8706103  20.2066992  38.5565423
  80.1391458  20.6752103  37.8759570  81.2563653  18.1306485  43.1351344
  80.7528449  18.0936620  42.3219149  81.5494260  19.0399228  43.1948000
  77.5006539  18.2145215  42.1417525  78.3659536  18.0188024  41.7823415
  77.5684048  17.9855567  43.0686882  81.9303699  23.6237533  35.5034327
  81.6253834  23.9383683  36.3544470  82.8834141  23.7018953  35.5461660
  80.3750131  29.7827757  37.1527281  79.8471492  29.0480516  36.8400518
  79.8737633  30.5602433  36.9067249  75.1068858  20.4447423  39.5133892
  75.6812610  20.2222604  38.7807085  75.6939841  20.5136117  40.2662494
  75.4338445  22.4751884  33.5329778  74.5975758  22.8126571  33.8539052
  75.2943215  22.3400864  32.5956915  77.4091526  17.3188672  38.2408962
  76.7555938  17.0037689  37.6165577  77.3672000  16.6964412  38.9668785
  78.5202731  27.6007967  30.1562254  77.6129793  27.3697220  30.3553403
  79.0173763  26.8045586  30.3436235  81.4270810  36.3105474  33.0758940
  80.7532508  36.6137171  33.6843898  81.8136632  37.1134554  32.7264397
  80.6429266  23.8070605  42.5656609  79.7251828  24.0285552  42.4078297
  81.0589410  23.8816916  41.7068317  81.4264314  25.2062021  37.6959290
  82.1736133  25.7183418  37.3866412  81.6955904  24.8846074  38.5563683
  79.6990964  27.7020562  34.6786244  78.7902183  27.4179595  34.7758714
  79.7286048  28.1219640  33.8189551  70.2679135  25.4226076  38.6601446
  70.0703534  24.8295437  37.9352513  69.7125799  25.1178286  39.3777385
  78.2475858  25.3149182  40.7796039  78.3024468  24.3623019  40.7038516
  77.4367060  25.4708621  41.2637338  79.3967052  29.2429305  32.0174322
  78.9586482  28.5265164  31.5579960  80.1377493  29.4705420  31.4559414
  76.1868218  23.9326242  38.5386418  75.3736084  24.2320413  38.9451610
  76.6827212  23.5381931  39.2560900  78.3376796  33.9283999  40.4720683
  78.2952975  34.1544845  39.5429215  79.2539495  33.6947374  40.6206484
  81.7842430  24.3968067  47.3701312  82.1391818  24.6239540  48.2295778
  82.4314561  24.7286443  46.7478567  75.6782293  21.5044598  44.1547653
  76.3181672  21.3633357  43.4570616  74.8459823  21.2179111  43.7786255
  76.4542597  30.8047028  40.2682646  77.2483195  30.3097348  40.0665220
  75.7434289  30.2764891  39.9050351  81.2737441  33.1865124  44.6195013
  81.3274464  33.7556060  45.3872729  80.4052223  33.3567009  44.2549050
  72.7625360  24.9490110  36.3442398  71.8322948  24.8874565  36.5612360
  72.8582832  24.4266063  35.5479039  72.6810909  21.4744923  38.9320640
  72.9417727  22.3890256  38.8229800  73.5028082  21.0069365  39.0817253
  74.1535835  22.8882680  46.1019464  74.8258888  22.6800042  45.4532113
  73.3265621  22.6904766  45.6624697  80.0561407  19.5144621  48.1185125
  79.4089322  20.2134570  48.0249602  80.8262422  19.9480765  48.4861373
  80.2325541  27.3525386  46.1781945  81.1617601  27.5036545  46.0050912
  79.8116571  27.4409406  45.3230592  79.0313873  31.3776050  43.9480483
  78.8924959  31.0094834  44.8206421  78.2428469  31.8923690  43.7764440
  79.6262025  36.4785147  35.2906019  79.8013780  36.0073190  36.1051642
  78.9394813  37.1050913  35.5187280  80.5819088  30.7557653  41.3369320
  80.2468921  30.7158423  42.2326970  80.0823034  30.0902369  40.8639731
  74.5563332  26.1625283  46.8621902  74.4183130  25.4305522  47.4633441
  75.4668255  26.0734183  46.5806089  77.1845633  25.8745242  46.3505581
  77.8945251  25.2338434  46.3092200  77.1414941  26.1258137  47.2731762
  75.8974567  22.8610460  48.1701221  75.3611924  22.4101198  48.8222817
  75.3091275  22.9956369  47.4271685  74.1923110  39.6274509  42.0645879
  74.4319708  40.2593033  42.7424898  73.3492307  39.2762549  42.3511239
  75.3076826  22.3199111  30.7327684  74.4306292  22.1987912  30.3689931
  75.7834579  21.5285190  30.4806573  71.6313688  21.9966468  45.2554215
  71.5471877  21.3892137  44.5204625  70.8096394  22.4875486  45.2563712
  78.7050972  35.4353632  44.4687383  78.6321143  36.2408603  44.9806688
  78.2628365  35.6345598  43.6435405  78.4940752  34.6725402  37.9790205
  77.7108273  35.2147082  38.0728429  79.1933497  35.1899381  38.3784446
  81.8037402  20.4820031  40.6224410  82.3006101  19.7289994  40.3025480
  81.0324383  20.5184348  40.0567620  81.1649655  35.3340466  46.6245542
  81.8777628  35.9687931  46.5521443  80.6739684  35.4304332  45.8085544
  82.8867182  29.2391718  38.1962834  81.9523461  29.3593181  38.0267538
  83.0643851  28.3364185  37.9322843  78.3872370  22.6237414  40.3496095
  78.0170158  22.0708455  41.0377000  78.8831463  22.0195548  39.7971095
  76.2161569  33.0834909  47.4451113  76.9171028  33.7171392  47.5980507
  75.7456684  33.4249641  46.6846752  80.9770029  35.6739210  39.3731833
  81.1592423  34.8560866  39.8359586  81.8003015  35.8906902  38.9356723
  81.3112194  34.6007395  36.6346882  81.8399961  34.0899850  36.0217044
  81.5740414  34.2849925  37.4992415  80.0650428  26.3799328  51.7569700
  79.3891065  26.2793457  52.4272075  80.8878062  26.2238541  52.2205697
  71.8129287  32.6171264  44.3782215  72.3982724  31.8714952  44.5110120
  71.6154126  32.9275221  45.2618879  74.6667942  35.6522512  39.3944658
  73.9978318  36.1368639  38.9108698  74.5280812  35.8991732  40.3088036
  66.4046942  25.1876865  43.0986659  66.4431041  24.6540455  43.8923777
  65.8987235  24.6612070  42.4797636  78.8073211  37.6866255  45.9927316
  79.3591519  37.8497877  46.7576401  79.1479404  38.2770693  45.3207341
  73.7837704  20.0341405  46.5949201  73.8479031  20.8956236  46.1826599
  73.7204824  19.4215407  45.8621559  73.2589977  22.1064538  50.2422235
  73.8862015  21.7241615  50.8559759  72.4017895  21.8878739  50.6077928
  70.0355519  23.9140967  36.1740590  70.3308960  23.0051645  36.1207644
  69.1343555  23.8928706  35.8521592  81.9441598  35.6348231  42.9790998
  81.8192738  34.8337971  42.4701944  82.6020689  36.1294424  42.4904968
  73.5649766  21.9896963  42.1568139  72.8436352  22.6032931  42.0175612
  74.3543022  22.5254728  42.0784785  76.3676080  19.3251390  48.4308790
  76.8910482  19.5713686  49.1935100  76.1488413  20.1571425  48.0111928
  71.7643361  21.5955064  36.2979915  71.4356067  20.7152443  36.1155021
  72.1182732  21.5402733  37.1856304  81.0122940  33.2309967  40.8074901
  80.8647902  32.3026674  40.9882471  81.8376433  33.2530058  40.3231976
  74.8785184  21.8828034  36.6655393  75.2181257  22.4113955  35.9434001
  75.3257305  22.2208440  37.4413959  77.5728625  20.2665085  46.1158461
  77.2325445  19.4672898  46.5179141  76.8667631  20.5666796  45.5435294
  78.2245097  17.3514397  44.5685784  79.0471166  16.8774875  44.4464674
  78.4683160  18.1304881  45.0684470  76.8653331  20.3802656  34.8648686
  77.5861694  20.7583908  34.3612402  76.2418635  21.0991533  34.9683664
  81.0084454  21.0847805  35.8007018  81.2248069  21.9672443  35.4995846
  80.5278521  20.6934018  35.0712660  75.7483676  24.0433518  42.3777763
  75.6028256  24.3573821  43.2702044  75.2708879  24.6618418  41.8248661
  77.6080058  21.0336066  42.4258652  77.5941627  20.1377159  42.0890950
  78.3252487  21.0406730  43.0596938  79.4606189  21.4673406  44.4711780
  79.2023967  22.3890477  44.4696110  78.9291230  21.0703841  45.1612244
  70.2229338  26.5838862  45.3165424  69.6782806  27.3598670  45.4485698
  71.1008688  26.9309667  45.1584545  77.0116954  19.9150446  37.6946222
  77.1332866  18.9867092  37.8937110  76.7218997  19.9289132  36.7824538
  79.8808145  17.6005357  40.8312942  79.9029842  17.6644690  39.8764922
  80.2976204  16.7609865  41.0253448  71.0095360  25.7108759  48.2095581
  70.2677096  25.8591394  48.7960211  70.6888104  25.9717024  47.3462330
  78.9539022  35.2524737  48.0075971  79.2626149  35.0073884  48.8798670
  79.7514504  35.4571375  47.5194841  78.9759634  37.4062646  40.2381347
  78.5364625  36.9139025  40.9314204  79.7267751  36.8635614  39.9973422
  71.4551973  33.5974187  40.2405975  72.2809993  33.2977959  39.8604619
  71.1046025  32.8281810  40.6895764  76.4233506  32.9500656  42.3103649
  75.8013516  32.2871361  42.0105877  77.0938373  32.9761787  41.6277297
  69.6560578  31.5160514  41.1994909  68.8192487  31.0882688  41.0178910
  69.6284224  31.7092957  42.1365700  76.4958034  21.4282444  51.9036155
  76.5446189  22.3044566  51.5213924  77.0380548  20.8859837  51.3307798
  75.9847013  31.5004579  35.7862109  76.1335134  32.1840043  35.1328782
  76.7913457  31.4809669  36.3011565  78.7257322  22.1813816  48.6582513
  77.8560632  22.4747382  48.3865102  78.9616803  22.7654261  49.3789777
  73.7399646  27.5269756  36.7923178  73.4945688  26.6232086  36.9903388
  73.9095561  27.5286907  35.8502656  81.4296356  18.3993433  46.1747934
  81.9478300  19.1354460  45.8494422  81.0751489  18.7057426  47.0094693
  73.0095294  23.2598114  34.2909340  72.3164539  23.3342469  33.6349376
  72.7647046  22.4958458  34.8130857  81.6808950  14.8193715  41.6948830
  81.9610704  14.1516904  42.3209257  82.4659557  15.0122811  41.1823494
  79.4842419  33.9952709  33.2573857  78.9116386  34.6142896  32.8044329
  80.0575213  34.5452071  33.7913779  79.8689217  25.3313522  30.5989909
  80.8148322  25.2019730  30.6678327  79.4903462  24.5928184  31.0759337
  79.7527910  29.3831268  52.0590566  80.6730919  29.5609867  52.2530613
  79.7177493  28.4387314  51.9070266  78.0532134  23.2563498  30.5344794
  77.1463590  22.9596611  30.6107508  78.3308115  22.9593317  29.6679081
  68.9710075  24.5769862  40.9843841  68.6512859  23.7235170  40.6918215
  68.4243503  24.7918440  41.7401808  72.7489982  27.2932303  44.7013347
  72.9675992  28.2249411  44.7201381  73.1615756  26.9340277  45.4868151
  79.6694200  17.8000388  36.6889036  78.8594929  17.4547473  37.0644282
  80.3578617  17.4907932  37.2776647  81.5984748  16.8778435  38.3113332
  82.1515787  17.2973888  38.9703356  81.8354835  15.9514183  38.3536288
  77.6217848  22.8665509  54.0916096  77.5214575  23.8159866  54.0228187
  77.4039390  22.5383748  53.2192166  76.8230919  20.1150434  30.6756774
  77.6850083  20.4405332  30.9352591  77.0081263  19.3281930  30.1629839
  68.8398335  28.1972773  42.9536962  68.1461806  27.7826726  42.4406917
  69.5871326  28.2393310  42.3570381  77.4849118  26.2962647  52.9081158
  77.0016199  27.0963008  53.1145047  77.5710057  26.3070592  51.9548602
  70.7535077  28.1291027  40.8302977  70.7305766  28.2278714  39.8784860
  71.0635714  28.9756178  41.1520143  73.4122455  30.1867182  44.9449592
  74.3665709  30.1551124  44.8779523  73.2134979  29.7257806  45.7599818
  74.0021837  28.7568298  47.5120389  74.8214726  29.2512377  47.5355227
  74.2758645  27.8400266  47.4837957  71.7672684  35.7286802  41.9619790
  71.6327152  34.9687203  41.3957788  71.3504746  36.4527702  41.4948579
  74.9241810  36.6256119  42.1738232  74.8074194  37.5701551  42.0716923
  74.1034256  36.3229680  42.5624031  69.2556752  23.0906432  48.2112586
  69.9015615  22.5805386  48.6999812  69.0473903  23.8275114  48.7856012
  81.7810144  30.1587280  53.7104727  82.6501303  30.3327932  53.3491362
  81.3016895  30.9781696  53.5880456  77.7760362  17.3546477  33.9636483
  77.7639032  18.2988317  34.1204754  78.6683784  17.1716622  33.6695944
  75.9496324  37.2784381  45.3894161  76.8523571  37.3107991  45.7060656
  75.7233694  36.3484832  45.4040497  77.7049926  36.0315367  42.0504239
  76.7545557  36.0317229  41.9368612  78.0082412  35.2848102  41.5340274
  81.5912482  13.9489253  38.2182419  80.8244877  13.3947740  38.3639102
  82.0023187  14.0211122  39.0796571  73.5954243  20.2374049  52.3087601
  74.4585704  19.8810854  52.5190925  73.0219653  19.8987944  52.9963005
  82.1699973  39.0105796  41.8658245  81.3799027  39.2663325  41.3898356
  82.6611220  39.8254134  41.9710286  80.4537676  39.2636286  44.2973236
  80.7045715  40.1483296  44.5630812  80.9897224  39.0840888  43.5248328
  81.0846718  43.4127278  37.9890713  81.9221940  43.8224287  37.7724420
  81.2624986  42.4726720  37.9590907  81.1072889  40.7517994  38.6601446
  80.9097289  40.1587354  37.9352513  80.5519553  40.4470204  39.3777385
  77.6672720  42.4368189  40.8269191  78.3543760  42.1229919  40.2390207
  77.5120849  43.3409553  40.5536443  82.4707442  37.3258385  45.2554215
  82.3865631  36.7184055  44.5204625  81.6490149  37.8167404  45.2563712
  77.2440696  40.5168782  43.0986659  77.2824796  39.9832373  43.8923777
  76.7380989  39.9903988  42.4797636  80.8749274  39.2432884  36.1740590
  81.1702715  38.3343563  36.1207644  79.9737310  39.2220624  35.8521592
  82.6037115  36.9246982  36.2979915  82.2749822  36.0444361  36.1155021
  82.9576486  36.8694651  37.1856304  81.0623092  41.9130780  45.3165424
  80.5176560  42.6890588  45.4485698  81.9402442  42.2601584  45.1584545
  81.8489114  41.0400676  48.2095581  81.1070850  41.1883312  48.7960211
  81.5281858  41.3008942  47.3462330  82.2945728  48.9266105  40.2405975
  83.1203748  48.6269877  39.8604619  81.9439780  48.1573727  40.6895764
  80.4954333  46.8452431  41.1994909  79.6586241  46.4174606  41.0178910
  80.4677978  47.0384875  42.1365700  79.8103829  39.9061780  40.9843841
  79.4906614  39.0527088  40.6918215  79.2637258  40.1210358  41.7401808
  79.6792089  43.5264691  42.9536962  78.9855561  43.1118644  42.4406917
  80.4265080  43.5685228  42.3570381  81.5928832  43.4582945  40.8302977
  81.5699520  43.5570632  39.8784860  81.9029468  44.3048096  41.1520143
  82.6066439  51.0578719  41.9619790  82.4720906  50.2979120  41.3957788
  82.1898501  51.7819619  41.4948579  80.0950506  38.4198350  48.2112586
  80.7409370  37.9097304  48.6999812  79.8867657  39.1567031  48.7856012
  76.5536282  13.8851238  24.6442984  76.4760311  14.8359063  24.7231465
  75.9497925  13.5397110  25.3017910  75.2130248  11.3952759  32.0209544
  75.7637673  11.2669822  31.2486538  74.3741724  11.6947648  31.6704437
  79.6262026  13.4847269  22.0151326  79.8013782  13.0135312  22.8296948
  78.9394814  14.1113035  22.2432587  74.1923111  16.6336632  28.7891186
  74.4319710  17.2655156  29.4670205  73.3492308  16.2824672  29.0756545
  78.7050973  12.4415754  31.1932690  78.6321145  13.2470726  31.7051995
  78.2628366  12.6407720  30.3680711  78.4940753  11.6787524  24.7035511
  77.7108275  12.2209205  24.7973736  79.1933498  12.1961504  25.1029753
  81.1649657  12.3402588  33.3490849  81.8777629  12.9750053  33.2766750
  80.6739685  12.4366454  32.5330850  71.8129288   9.6233387  31.1027522
  72.3982725   8.8777075  31.2355426  71.6154127   9.9337344  31.9864186
  74.6667944  12.6584634  26.1189964  73.9978319  13.1430762  25.6354005
  74.5280813  12.9053855  27.0333343  78.8073212  14.6928378  32.7172623
  79.3591520  14.8559999  33.4821708  79.1479406  15.2832816  32.0452648
  78.9539023  12.2586859  34.7321277  79.2626150  12.0136006  35.6043977
  79.7514505  12.4633498  34.2440147  78.9759636  14.4124769  26.9626654
  78.5364626  13.9201148  27.6559510  79.7267752  13.8697737  26.7218729
  71.4551974  10.6036310  26.9651282  72.2809994  10.3040082  26.5849925
  71.1046026   9.8343932  27.4141071  69.6560580   8.5222636  27.9240215
  68.8192488   8.0944811  27.7424217  69.6284225   8.7155080  28.8611007
  71.7672685  12.7348924  28.6865096  71.6327153  11.9749325  28.1203094
  71.3504748  13.4589824  28.2193885  74.9241811  13.6318241  28.8983539
  74.8074195  14.5763674  28.7962229  74.1034257  13.3291803  29.2869338
  75.9496325  14.2846503  32.1139467  76.8523572  14.3170113  32.4305962
  75.7233695  13.3546954  32.1285803  77.7049927  13.0377490  28.7749546
  76.7545558  13.0379351  28.6613918  78.0082413  12.2910224  28.2585581
  82.1699974  16.0167919  28.5903552  81.3799028  16.2725447  28.1143663
  82.6611222  16.8316256  28.6955593  80.4537677  16.2698409  31.0218543
  80.7045716  17.1545419  31.2876119  80.9897226  16.0903011  30.2493635
  81.0846719  20.4189401  24.7136019  81.9221941  20.8286409  24.4969727
  81.2624987  19.4788843  24.6836213  81.1072890  17.7580116  25.3846753
  80.9097290  17.1649477  24.6597819  80.5519554  17.4532326  26.1022692
  77.6672721  19.4430311  27.5514498  78.3543761  19.1292041  26.9635513
  77.5120850  20.3471676  27.2781750  82.4707444  14.3320508  31.9799522
  82.3865632  13.7246178  31.2449932  81.6490150  14.8229526  31.9809018
  77.2440698  17.5230905  29.8231965  77.2824797  16.9894495  30.6169083
  76.7380990  16.9966110  29.2042942  80.8749275  16.2495007  22.8985897
  81.1702716  15.3405685  22.8452950  79.9737311  16.2282746  22.5766899
  81.0623093  18.9192903  32.0410730  80.5176562  19.6952711  32.1731005
  81.9402443  19.2663707  31.8829852  81.8489115  18.0462799  34.9340887
  81.1070851  18.1945434  35.5205518  81.5281860  18.3071064  34.0707637
  82.2945729  25.9328228  26.9651282  83.1203749  25.6331999  26.5849925
  81.9439781  25.1635850  27.4141071  80.4954334  23.8514554  27.9240215
  79.6586242  23.4236728  27.7424217  80.4677979  24.0446997  28.8611007
  79.8103831  16.9123902  27.7089148  79.4906615  16.0589210  27.4163522
  79.2637259  17.1272480  28.4647115  79.6792091  20.5326814  29.6782269
  78.9855562  20.1180766  29.1652224  80.4265082  20.5747350  29.0815688
  81.5928833  20.4645067  27.5548284  81.5699521  20.5632755  26.6030167
  81.9029470  21.3110218  27.8765450  82.6066440  28.0640842  28.6865096
  82.4720908  27.3041243  28.1203094  82.1898502  28.7881742  28.2193885
  80.0950507  15.4260472  34.9357893  80.7409371  14.9159426  35.4245118
  79.8867659  16.1629154  35.5101318   4.9728661  39.6763822  74.1786959
   4.3216640  40.2617902  73.7920973   5.7673023  40.2070016  74.2381997
  11.2395385  36.1688757  75.4391796  10.4624827  35.8299917  74.9946958
  11.9186865  36.1741381  74.7646761   2.6446446  35.2653928  69.9826331
   1.7373507  35.0343182  70.1817480   3.1417478  34.4691548  70.1700312
   5.5514524  43.9751436  72.9023017   4.8776223  44.2783132  73.5107975
   5.9380346  44.7780516  72.5528474   3.5210767  36.9075267  71.8438399
   3.0830197  36.1911126  71.3844037   4.2621208  37.1351382  71.2823491
   3.7505740  44.1431108  75.1170096   3.9257495  43.6719151  75.9315719
   3.0638528  44.7696874  75.3451357   7.6421994  35.7659649  71.4370457
   7.0251165  35.0406477  71.3403510   7.1738483  36.5269009  71.0937531
   8.4659680  39.0898821  75.5563097   8.7419524  38.9755415  76.4656971
   7.5964178  38.6916305  75.5175270   5.4355909  42.2653357  76.4610959
   5.9643676  41.7545811  75.8481121   5.6984129  41.9495887  77.3256492
   8.5296093  42.2370155  77.0765942   8.7032970  41.6716577  76.3239794
   9.0224984  43.0371050  76.8945432   9.5171265  41.5536919  74.1762840
  10.2122170  42.1743612  74.3950155   9.8594415  40.7032270  74.4515218
  11.4162688  39.0036625  75.7050171  11.9414012  39.3423897  74.9799491
  11.3285041  38.0683640  75.5213306   3.6086134  41.6598671  73.0837934
   3.0360101  42.2788858  72.6308406   4.1818927  42.2098033  73.6177856
   6.8283393  41.9435821  74.2146516   7.7614067  41.8781383  74.4179392
   6.7406606  42.7792088  73.7561049   9.4571410  41.2601691  71.1750464
   9.3785042  40.9261555  72.0686222  10.2781077  41.7523459  71.1741936
   3.9932932  32.9959484  70.4253986   4.9392037  32.8665692  70.4942404
   3.6147177  32.2574145  70.9023414   7.0275362  38.5769687  70.7960442
   7.7311212  38.7819689  71.4118098   6.3038011  39.1446449  71.0609525
   8.9362059  39.0152216  72.8458902   9.7707663  38.5833414  72.6636377
   8.7746402  38.8434230  73.7735796   8.5907951  35.5184329  74.2115241
   8.5356755  35.3528601  73.2703685   7.9654007  36.2260362  74.3677431
  17.5646334  49.5321867  82.9414079  18.2024744  49.4128614  82.2377419
  17.4467177  50.4802711  83.0002031  15.8122415  55.0055739  74.1786959
  15.1610395  55.5909820  73.7920973  16.6066778  55.5361934  74.2381997
   9.7378042  52.0944876  74.5774094  10.5108918  51.5473863  74.4386969
  10.0903441  52.9589126  74.7888555  12.0744320  48.2537542  72.2092544
  12.3269841  47.7319064  71.4476007  11.1368879  48.0903688  72.3119227
  17.1187603  47.2573321  80.0167287  17.9050692  46.8392744  79.6657704
  17.3826307  48.1619413  80.1848935  17.2897680  52.6946171  74.7155944
  16.6543513  52.7680798  75.4276848  16.9595087  53.2839770  74.0375023
  22.5196030  47.1948554  80.9200265  23.2521202  46.6247771  81.1538095
  21.7635386  46.8070154  81.3606771  11.7940609  50.1565648  74.4116919
  11.6776867  49.4810552  75.0798003  11.9042869  49.6698022  73.5949072
  14.1372150  49.6175796  78.1163608  13.7730357  49.0906417  78.8276529
  14.9939266  49.2274265  77.9430093  13.7777637  44.6465695  73.1124956
  13.9452039  45.5145932  73.4795427  13.5874806  44.8092977  72.1886246
  19.9350114  45.6265214  82.4588224  19.0266991  45.5580623  82.1646985
  19.8837709  46.1037159  83.2870049  13.7566858  47.1023353  74.0971623
  13.6366483  47.5480404  74.9357103  13.0619446  47.4508670  73.5385161
  21.8011760  43.8281653  84.2366098  21.1586140  44.1214186  83.5905892
  21.2966689  43.7134573  85.0419295  19.4551924  47.5744826  74.9251957
  20.3669780  47.8072213  74.7499655  18.9461571  48.1581870  74.3627036
  18.0621506  52.5570644  82.3165539  17.4330368  52.7216358  81.6141606
  17.6747168  52.9712254  83.0876503  21.9410738  53.4925082  79.6709902
  21.2561776  53.8723984  79.1206936  22.0254587  54.1020409  80.4041850
  13.6149468  52.2945052  79.5815624  14.0787813  52.5732755  78.7920246
  13.3506266  51.3928497  79.3988714  12.5518354  48.4168205  76.3905189
  13.2542397  48.8689248  76.8579115  12.2198982  47.7752024  77.0185082
  28.4013491  50.3595745  80.7912575  27.6477199  49.7903143  80.6356579
  28.5361032  50.3258410  81.7383209  13.7912119  55.2309147  76.4667294
  13.6557793  56.0760683  76.8952142  14.3321931  55.4328425  75.7033228
  17.1054865  48.7448320  73.5038623  16.5901488  49.5152925  73.7427010
  16.8332173  48.0713457  74.1271684  14.6901976  43.5898021  78.5623861
  13.8343572  43.2004872  78.3829500  15.1028928  43.6689982  77.7023647
  22.0789139  51.4980675  75.4391796  21.3018582  51.1591835  74.9946958
  22.7580620  51.5033298  74.7646761  16.8941168  46.6175413  75.3298404
  16.5891304  46.9321562  76.1808547  17.8471610  46.6956832  75.3725737
  15.3387600  52.7765636  76.9791358  14.8108961  52.0418395  76.6664595
  14.8375103  53.5540312  76.7331326  20.3180446  50.9714656  82.0958404
  19.6604120  51.6613918  82.1838533  21.1220845  51.3611088  82.4392390
  10.0706327  43.4385302  79.3397969  10.6450079  43.2160484  78.6071162
  10.6577310  43.5073997  80.0926571  19.1285905  49.3259029  80.1462346
  19.6417786  49.9589021  80.6484056  19.7787129  48.7260225  79.7805706
  10.3975915  45.4689763  73.3593855   9.5613227  45.8064450  73.6803129
  10.2580684  45.3338743  72.4220992  12.3728995  40.3126551  78.0673039
  11.7193408  39.9975568  77.4429654  12.3309469  39.6902291  78.7932862
  13.4840200  50.5945846  69.9826331  12.5767262  50.3635100  70.1817480
  13.9811232  49.7983465  70.1700312  16.3908279  59.3043353  72.9023017
  15.7169978  59.6075050  73.5107975  16.7774101  60.1072434  72.5528474
  15.6066736  46.8008485  82.3920686  14.6889297  47.0223432  82.2342374
  16.0226879  46.8754795  81.5332394  14.6628434  50.6958441  74.5050321
  13.7539653  50.4117474  74.6022791  14.6923517  51.1157520  73.6453628
  19.8947701  54.3065030  78.2741488  19.4410028  53.4655940  78.3306679
  19.2641668  54.9426429  78.6116269  18.8380620  45.2357017  79.5042156
  18.1003377  44.7234403  79.8352398  19.0907394  44.7957398  78.6925433
  18.3380640  56.1441527  79.2091307  18.6303615  56.7046584  78.4903672
  18.8479261  56.4370088  79.9644466  18.9392248  38.0133269  80.0983925
  19.2451125  37.1530632  79.8109840  19.6644853  38.6050889  79.8982919
  13.2113328  48.3087062  80.6060116  13.2661937  47.3560898  80.5302593
  12.4004530  48.4646501  81.0901415  14.3604521  52.2367185  71.8438399
  13.9223951  51.5203044  71.3844037  15.1014962  52.4643299  71.2823491
  11.1505687  46.9264121  78.3650495  10.3373553  47.2258292  78.7715687
  11.6464682  46.5319810  79.0824977  22.4777636  50.5124382  77.9014718
  22.3395535  50.7025978  76.9735907  22.1213855  51.2743765  78.3582769
  22.5047016  52.5800909  82.9125990  22.9383522  52.4876198  83.7609044
  23.2178596  52.5558409  82.2746006   7.7262830  47.9427989  76.1706475
   6.7960418  47.8812444  76.3876437   7.8220302  47.4203942  75.3743116
   7.6448379  44.4682802  78.7584717   7.9055196  45.3828135  78.6493877
   8.4665551  44.0007244  78.9081330  23.3662565  52.6224609  85.4458875
  23.5598455  53.5270420  85.6918150  23.2663183  52.1632028  86.2797460
  14.5899494  59.4723026  75.1170096  14.7651250  59.0011069  75.9315719
  13.9032282  60.0988792  75.3451357  18.4815749  51.0951566  71.4370457
  17.8644920  50.3698394  71.3403510  18.0132237  51.8560927  71.0937531
  10.2714295  45.3136991  70.5591761   9.3943761  45.1925791  70.1954008
  10.7472048  44.5223069  70.3070650  16.7674871  43.4757910  80.4488487
  17.2643571  42.7227873  80.1289557  15.9961852  43.5122227  79.8831697
  24.6204628  49.1798276  82.0906779  24.6094505  50.0622991  81.7200712
  23.7522008  48.8269827  81.8961316  17.8504652  52.2329598  78.0226911
  16.9160930  52.3531060  77.8531615  18.0281320  51.3302064  77.7586920
  13.3509840  45.6175293  80.1760172  12.9807627  45.0646334  80.8641077
  13.8468932  45.0133427  79.6235172  21.2377203  48.0746917  78.5576945
  21.7037655  48.9074909  78.4837247  21.6884704  47.6091898  79.2622203
  19.3053434  54.4190738  75.5563097  19.5813278  54.3047333  76.4656971
  18.4357933  54.0208223  75.5175270  18.9800324  48.6317396  85.0967740
  18.3271774  48.8793303  84.4420193  19.3580704  47.8181534  84.7630217
  16.2749664  57.5945274  76.4610959  16.8037430  57.0837729  75.8481121
  16.5377883  57.2787804  77.3256492   4.9992989  46.9078846  76.0004667
   5.2946430  45.9989524  75.9471721   4.0981024  46.8866585  75.6785669
   6.7280830  44.5892943  76.1243992   6.3993536  43.7090322  75.9419098
   7.0820201  44.5340612  77.0120381   9.8422653  44.8765913  76.4919470
  10.1818726  45.4051835  75.7698078  10.2894774  45.2146319  77.2678036
  19.5794531  57.0476405  81.7203850  20.5041078  56.8419266  81.5828302
  19.4109834  56.7992806  82.6293192  11.8290801  43.3740535  74.6912763
  12.5499163  43.7521788  74.1876479  11.2056105  44.0929412  74.7947741
  15.9721923  44.0785684  75.6271095  16.1885538  44.9610322  75.3259923
  15.4915991  43.6871897  74.8976737  19.3689847  57.5662072  77.0765942
  19.5426725  57.0008495  76.3239794  19.8618738  58.3662967  76.8945432
  11.9754424  42.9088325  77.5210299  12.0970335  41.9804972  77.7201187
  11.6856466  42.9227011  76.6088615  25.2229238  50.3298495  78.6956242
  25.6660384  49.5805821  78.2975365  24.3455749  50.3208632  78.3129974
  20.3565020  56.8828837  74.1762840  21.0515924  57.5035529  74.3950155
  20.6988170  56.0324188  74.4515218  22.2556443  54.3328542  75.7050171
  22.7807767  54.6715815  74.9799491  22.1678795  53.3975558  75.5213306
  10.9484483  54.4942458  75.6126186  11.0972603  55.1777922  74.9592859
  11.7550926  54.4747548  76.1275642  24.7662103  51.8003734  81.0878689
  25.6008994  52.2393538  81.2516250  24.9021232  51.3242387  80.2686935
  21.8153609  49.3583468  87.0356177  22.2907731  49.5511115  86.2275028
  20.8919174  49.4142654  86.7899561   8.7037116  50.5207636  76.6187255
   8.4583158  49.6169966  76.8167465   8.8733030  50.5224786  75.6766733
   7.9732763  46.2535993  74.1173417   7.2802008  46.3280348  73.4613453
   7.7284515  45.4896337  74.6394934  14.4479888  56.9890588  73.0837934
  13.8753855  57.6080776  72.6308406  15.0212682  57.5389950  73.6177856
  20.5155278  46.2349229  85.2684483  21.4672701  46.3347326  85.2896707
  20.3458728  45.4427497  85.7782567  17.6677148  57.2727739  74.2146516
  18.6007821  57.2073300  74.4179392  17.5800361  58.1084005  73.7561049
  20.2965165  56.5893609  71.1750464  20.2178796  56.2553473  72.0686222
  21.1174831  57.0815377  71.1741936  22.9943356  49.4555348  84.3826782
  22.9619676  48.5171349  84.5686466  23.6043979  49.5339385  83.6492607
  14.8326687  48.3251401  70.4253986  15.7785791  48.1957609  70.4942404
  14.4540932  47.5866063  70.9023414  23.1437844  46.2466392  84.4285065
  22.6276893  45.4624848  84.2414994  24.0277793  45.9185108  84.5931585
  20.8048571  39.9907407  80.3880878  20.6073392  39.6822495  81.2724210
  21.4148277  40.7169046  80.5178808  28.8119906  50.5171355  83.5232819
  29.5423294  50.2556643  84.0840522  28.2026851  49.7800077  83.5634887
  26.8935203  48.6579218  84.1207270  26.1668366  48.5235183  83.5123762
  26.4782490  48.9656046  84.9263988  13.0169604  46.2501378  70.3608872
  12.1101059  45.9534490  70.4371585  13.2945585  45.9531196  69.4943158
  14.6331669  40.7938267  76.5153113  13.8232398  40.4485352  76.8908359
  15.3216086  40.4845811  77.1040724  16.5622218  39.8716314  78.1377409
  17.1153256  40.2911768  78.7967433  16.7992304  38.9452062  78.1800365
  11.7868388  43.1088313  70.5020851  12.6487552  43.4343211  70.7616668
  11.9718733  42.3219809  69.9893916  19.9401025  41.9816839  77.6456074
  19.3599694  42.6401643  77.2634126  19.6736958  41.1594184  77.2343491
  18.3904591  41.3821897  79.8477394  18.8904370  41.4938432  79.0391713
  19.0340199  41.0782950  80.4878202  18.7225903  44.1416930  76.7012422
  17.8351758  44.4266580  76.4832617  19.1379892  43.9810693  75.8539699
  22.0740439  44.1663451  80.4166761  22.8500829  44.6559903  80.6891378
  21.3488573  44.5921505  80.8738631  24.5112998  44.8791070  81.4740702
  25.1057488  44.6386806  80.7634010  24.5839581  44.1598200  82.1014238
  17.8669116  53.9061604  70.7960442  18.5704966  54.1111607  71.4118098
  17.1431765  54.4738366  71.0609525  18.6966927  49.6571466  76.9162712
  18.6402128  50.1140017  76.0770345  19.2495269  48.8962150  76.7385555
  22.5071733  45.4461197  77.7412832  22.2508667  45.0457833  78.5721039
  21.8824601  46.1604991  77.6162971  26.8184070  48.1857271  80.2484123
  26.2583628  48.2550460  81.0215685  26.2127574  48.0098255  79.5283619
  19.7755814  54.3444134  72.8458902  20.6101418  53.9125332  72.6636377
  19.6140157  54.1726147  73.7735796  19.4301706  50.8476247  74.2115241
  19.3750510  50.6820518  73.2703685  18.8047761  51.5552280  74.3677431
  12.7397831  40.3484356  73.7900560  12.7276501  41.2926196  73.9468831
  13.6321253  40.1654501  73.4960021  16.5549951  36.9427133  78.0446496
  15.7882347  36.3885619  78.1903179  16.9660656  37.0149001  78.9060648
  28.4040089  64.8613785  82.9414079  29.0418499  64.7420532  82.2377419
  28.2860932  65.8094629  83.0002031  26.6516170  70.3347657  74.1786959
  26.0004149  70.9201737  73.7920973  27.4460532  70.8653852  74.2381997
  20.5771797  67.4236794  74.5774094  21.3502673  66.8765781  74.4386969
  20.9297196  68.2881043  74.7888555  22.9138075  63.5829460  72.2092544
  23.1663595  63.0610981  71.4476007  21.9762634  63.4195606  72.3119227
  27.9581357  62.5865239  80.0167287  28.7444447  62.1684662  79.6657704
  28.2220062  63.4911331  80.1848935  28.1291435  68.0238089  74.7155944
  27.4937268  68.0972715  75.4276848  27.7988841  68.6131688  74.0375023
  33.3589784  62.5240472  80.9200265  34.0914956  61.9539689  81.1538095
  32.6029140  62.1362072  81.3606771  22.6334363  65.4857566  74.4116919
  22.5170621  64.8102469  75.0798003  22.7436623  64.9989940  73.5949072
  24.9765904  64.9467713  78.1163608  24.6124111  64.4198334  78.8276529
  25.8333020  64.5566182  77.9430093  30.8815205  56.2362046  85.3794874
  30.5498530  57.1057457  85.1556089  30.2860818  55.9198330  86.0588904
  24.6171391  59.9757613  73.1124956  24.7845794  60.8437849  73.4795427
  24.4268560  60.1384895  72.1886246  30.7743868  60.9557132  82.4588224
  29.8660745  60.8872540  82.1646985  30.7231464  61.4329077  83.2870049
  24.5960612  62.4315270  74.0971623  24.4760237  62.8772321  74.9357103
  23.9013200  62.7800588  73.5385161  32.6405515  59.1573570  84.2366098
  31.9979895  59.4506104  83.5905892  32.1360443  59.0426491  85.0419295
  30.2945678  62.9036744  74.9251957  31.2063534  63.1364130  74.7499655
  29.7855325  63.4873788  74.3627036  27.6381653  59.0794780  83.1741818
  26.7766132  59.3776033  83.4658556  27.6644088  59.2965178  82.2422851
  24.4543222  67.6236970  79.5815624  24.9181568  67.9024673  78.7920246
  24.1900020  66.7220415  79.3988714  23.3912108  63.7460123  76.3905189
  24.0936152  64.1981166  76.8579115  23.0592737  63.1043941  77.0185082
  24.6305873  70.5601065  76.4667294  24.4951548  71.4052601  76.8952142
  25.1715686  70.7620343  75.7033228  27.9798337  54.0831627  84.9966188
  27.6362606  54.9733269  84.9205298  28.3477299  53.8933285  84.1335773
  27.9448619  64.0740238  73.5038623  27.4295243  64.8444843  73.7427010
  27.6725928  63.4005374  74.1271684  25.5295730  58.9189939  78.5623861
  24.6737327  58.5296789  78.3829500  25.9422682  58.9981900  77.7023647
  27.0594877  56.4536282  82.9615421  26.5559673  56.4166417  82.1483226
  27.3525484  57.3629025  83.0212077  23.3037763  56.5375012  81.9681603
  24.1690760  56.3417821  81.6087492  23.3715272  56.3085364  82.8950959
  32.9182893  66.8272593  75.4391796  32.1412336  66.4883752  74.9946958
  33.5974374  66.8325216  74.7646761  27.7334923  61.9467330  75.3298404
  27.4285058  62.2613479  76.1808547  28.6865365  62.0248750  75.3725737
  26.1781354  68.1057554  76.9791358  25.6502716  67.3710313  76.6664595
  25.6768857  68.8832230  76.7331326  20.9100082  58.7677220  79.3397969
  21.4843834  58.5452401  78.6071162  21.4971064  58.8365914  80.0926571
  29.9679659  64.6550947  80.1462346  30.4811541  65.2880939  80.6484056
  30.6180883  64.0552142  79.7805706  21.2369669  60.7981681  73.3593855
  20.4006981  61.1356367  73.6803129  21.0974439  60.6630661  72.4220992
  23.2122750  55.6418469  78.0673039  22.5587162  55.3267486  77.4429654
  23.1703224  55.0194209  78.7932862  24.3233955  65.9237764  69.9826331
  23.4161016  65.6927017  70.1817480  24.8204987  65.1275383  70.1700312
  27.2302033  74.6335271  72.9023017  26.5563732  74.9366968  73.5107975
  27.6167855  75.4364351  72.5528474  26.4460490  62.1300402  82.3920686
  25.5283051  62.3515349  82.2342374  26.8620634  62.2046713  81.5332394
  27.2295538  63.5291818  77.5223367  27.9767357  64.0413215  77.2130489
  27.4987127  63.2075871  78.3827760  25.5022188  66.0250359  74.5050321
  24.5933407  65.7409391  74.6022791  25.5317272  66.4449437  73.6453628
  30.7341455  69.6356948  78.2741488  30.2803783  68.7947858  78.3306679
  30.1035422  70.2718347  78.6116269  29.6774375  60.5648934  79.5042156
  28.9397132  60.0526320  79.8352398  29.9301149  60.1249316  78.6925433
  29.1774395  71.4733445  79.2091307  29.4697369  72.0338502  78.4903672
  29.6873015  71.7662006  79.9644466  29.7786002  53.3425186  80.0983925
  30.0844879  52.4822550  79.8109840  30.5038607  53.9342806  79.8982919
  24.0507082  63.6378979  80.6060116  24.1055692  62.6852816  80.5302593
  23.2398284  63.7938418  81.0901415  25.1998276  67.5659102  71.8438399
  24.7617706  66.8494961  71.3844037  25.9408717  67.7935217  71.2823491
  21.9899442  62.2556039  78.3650495  21.1767307  62.5550210  78.7715687
  22.4858436  61.8611728  79.0824977  33.3171391  65.8416299  77.9014718
  33.1789289  66.0317895  76.9735907  32.9607609  66.6035682  78.3582769
  18.5656584  63.2719907  76.1706475  17.6354172  63.2104362  76.3876437
  18.6614056  62.7495859  75.3743116  18.4842133  59.7974720  78.7584717
  18.7448950  60.7120053  78.6493877  19.3059305  59.3299162  78.9081330
  25.4293249  74.8014943  75.1170096  25.6045004  74.3302987  75.9315719
  24.7426037  75.4280710  75.3451357  29.3209503  66.4243484  71.4370457
  28.7038674  65.6990312  71.3403510  28.8525992  67.1852844  71.0937531
  21.1108049  60.6428908  70.5591761  20.2337516  60.5217709  70.1954008
  21.5865802  59.8514987  70.3070650  27.6068625  58.8049828  80.4488487
  28.1037325  58.0519790  80.1289557  26.8355607  58.8414145  79.8831697
  28.6898406  67.5621515  78.0226911  27.7554685  67.6822978  77.8531615
  28.8675075  66.6593982  77.7586920  24.1903594  60.9467211  80.1760172
  23.8201382  60.3938251  80.8641077  24.6862687  60.3425345  79.6235172
  32.0770958  63.4038835  78.5576945  32.5431410  64.2366826  78.4837247
  32.5278458  62.9383816  79.2622203  30.1447189  69.7482656  75.5563097
  30.4207033  69.6339250  76.4656971  29.2751687  69.3500141  75.5175270
  30.0487620  55.7719422  82.5967846  29.1350700  56.0023648  82.7650053
  30.4780722  55.8557866  83.4481878  27.1143418  72.9237192  76.4610959
  27.6431185  72.4129646  75.8481121  27.3771638  72.6079722  77.3256492
  15.8386743  62.2370764  76.0004667  16.1340184  61.3281442  75.9471721
  14.9374779  62.2158503  75.6785669  17.5674585  59.9184861  76.1243992
  17.2387291  59.0382240  75.9419098  17.9213955  59.8632530  77.0120381
  20.6816408  60.2057831  76.4919470  21.0212480  60.7343752  75.7698078
  21.1288528  60.5438237  77.2678036  24.0276321  55.6744194  84.3949861
  24.8502390  55.2004672  84.2728751  24.2714384  56.4534678  84.8948547
  22.6684555  58.7032453  74.6912763  23.3892918  59.0813705  74.1876479
  22.0449859  59.4221329  74.7947741  26.8115678  59.4077602  75.6271095
  27.0279292  60.2902239  75.3259923  26.3309745  59.0163815  74.8976737
  23.4111282  59.3565863  82.2522729  23.3972851  58.4606956  81.9155027
  24.1283710  59.3636526  82.8861015  25.2637413  59.7903203  84.2975857
  25.0055191  60.7120274  84.2960187  24.7322453  59.3933637  84.9876321
  30.2083602  72.8953990  77.0765942  30.3820479  72.3300413  76.3239794
  30.7012493  73.6954885  76.8945432  22.8148178  58.2380243  77.5210299
  22.9364089  57.3096889  77.7201187  22.5250220  58.2518929  76.6088615
  25.6839369  55.9235153  80.6577019  25.7061065  55.9874487  79.7028999
  26.1007428  55.0839662  80.8517525  36.0622993  65.6590413  78.6956242
  36.5054139  64.9097738  78.2975365  35.1849503  65.6500549  78.3129974
  31.1958774  72.2120754  74.1762840  31.8909679  72.8327447  74.3950155
  31.5381924  71.3616106  74.4515218  33.0950197  69.6620460  75.7050171
  33.6201521  70.0007733  74.9799491  33.0072550  68.7267475  75.5213306
  21.7878237  69.8234376  75.6126186  21.9366357  70.5069840  74.9592859
  22.5944681  69.8039466  76.1275642  19.5430870  65.8499553  76.6187255
  19.2976912  64.9461883  76.8167465  19.7126785  65.8516704  75.6766733
  27.2327580  56.7223230  86.0012011  27.7509524  57.4584257  85.6758499
  26.8782713  57.0287223  86.8358770  18.8126518  61.5827911  74.1173417
  18.1195763  61.6572266  73.4613453  18.5678269  60.8188255  74.6394934
  27.4840174  53.1423512  81.5212907  27.7641928  52.4746701  82.1473334
  28.2690781  53.3352608  81.0087571  25.2873643  72.3182506  73.0837934
  24.7147610  72.9372693  72.6308406  25.8606436  72.8681868  73.6177856
  29.3763412  58.6496729  85.4543884  28.7813344  58.9301742  84.7590372
  29.0913109  59.1390630  86.2260625  28.5070902  72.6019656  74.2146516
  29.4401576  72.5365218  74.4179392  28.4194115  73.4375923  73.7561049
  31.1358919  71.9185527  71.1750464  31.0572551  71.5845390  72.0686222
  31.9568586  72.4107295  71.1741936  25.6720441  63.6543319  70.4253986
  26.6179546  63.5249527  70.4942404  25.2934686  62.9157981  70.9023414
  31.6442326  55.3199325  80.3880878  31.4467147  55.0114413  81.2724210
  32.2542031  56.0460964  80.5178808  23.8563358  61.5793295  70.3608872
  22.9494814  61.2826408  70.4371585  24.1339339  61.2823113  69.4943158
  25.4725424  56.1230185  76.5153113  24.6626152  55.7777270  76.8908359
  26.1609841  55.8137729  77.1040724  27.4015972  55.2008232  78.1377409
  27.9547011  55.6203685  78.7967433  27.6386059  54.2743980  78.1800365
  22.6262143  58.4380231  70.5020851  23.4881307  58.7635129  70.7616668
  22.8112487  57.6511726  69.9893916  30.7794779  57.3108757  77.6456074
  30.1993448  57.9693561  77.2634126  30.5130712  56.4886102  77.2343491
  29.2298346  56.7113815  79.8477394  29.7298124  56.8230349  79.0391713
  29.8733954  56.4074868  80.4878202  29.5619657  59.4708847  76.7012422
  28.6745512  59.7558498  76.4832617  29.9773646  59.3102611  75.8539699
  32.9134194  59.4955368  80.4166761  33.6894584  59.9851821  80.6891378
  32.1882328  59.9213423  80.8738631  35.3506752  60.2082988  81.4740702
  35.9451243  59.9678724  80.7634010  35.4233336  59.4890118  82.1014238
  28.7062871  69.2353522  70.7960442  29.4098721  69.4403525  71.4118098
  27.9825520  69.8030284  71.0609525  29.5360681  64.9863383  76.9162712
  29.4795883  65.4431935  76.0770345  30.0889024  64.2254068  76.7385555
  33.3465487  60.7753115  77.7412832  33.0902421  60.3749751  78.5721039
  32.7218355  61.4896909  77.6162971  37.6577825  63.5149188  80.2484123
  37.0977383  63.5842378  81.0215685  37.0521328  63.3390173  79.5283619
  30.6149568  69.6736051  72.8458902  31.4495172  69.2417250  72.6636377
  30.4533911  69.5018065  73.7735796  30.2695460  66.1768165  74.2115241
  30.2144264  66.0112436  73.2703685  29.6441516  66.8844197  74.3677431
  23.5791586  55.6776274  73.7900560  23.5670256  56.6218113  73.9468831
  24.4715008  55.4946419  73.4960021  27.3943705  52.2719050  78.0446496
  26.6276101  51.7177537  78.1903179  27.8054410  52.3440919  78.9060648
  33.7531829  78.9121378  72.2092544  34.0057350  78.3902899  71.4476007
  32.8156388  78.7487523  72.3119227  35.4565146  75.3049531  73.1124956
  35.6239548  76.1729767  73.4795427  35.2662315  75.4676812  72.1886246
  32.0763424  76.1273599  73.3593855  31.2400736  76.4648285  73.6803129
  31.9368193  75.9922578  72.4220992  34.0516504  70.9710386  78.0673039
  33.3980917  70.6559404  77.4429654  34.0096978  70.3486127  78.7932862
  35.1627709  81.2529681  69.9826331  34.2554771  81.0218935  70.1817480
  35.6598741  80.4567301  70.1700312  29.4050339  78.6011824  76.1706475
  28.4747927  78.5396280  76.3876437  29.5007811  78.0787777  75.3743116
  31.9501804  75.9720826  70.5591761  31.0731270  75.8509627  70.1954008
  32.4259557  75.1806904  70.3070650  26.6780498  77.5662681  76.0004667
  26.9733939  76.6573360  75.9471721  25.7768533  77.5450421  75.6785669
  28.4068339  75.2476779  76.1243992  28.0781045  74.3674158  75.9419098
  28.7607710  75.1924448  77.0120381  33.5078310  74.0324370  74.6912763
  34.2286672  74.4105623  74.1876479  32.8843614  74.7513247  74.7947741
  33.6541933  73.5672161  77.5210299  33.7757844  72.6388807  77.7201187
  33.3643975  73.5810847  76.6088615  29.6520272  76.9119829  74.1173417
  28.9589517  76.9864184  73.4613453  29.4072024  76.1480172  74.6394934
  36.5114196  78.9835237  70.4253986  37.4573300  78.8541445  70.4942404
  36.1328441  78.2449898  70.9023414  34.6957113  76.9085213  70.3608872
  33.7888568  76.6118326  70.4371585  34.9733094  76.6115031  69.4943158
  36.3119178  71.4522103  76.5153113  35.5019907  71.1069188  76.8908359
  37.0003595  71.1429646  77.1040724  33.4655897  73.7672148  70.5020851
  34.3275061  74.0927047  70.7616668  33.6506242  72.9803644  69.9893916
  34.4185340  71.0068191  73.7900560  34.4064010  71.9510031  73.9468831
  35.3108762  70.8238337  73.4960021  38.2337460  67.6010968  78.0446496
  37.4669856  67.0469455  78.1903179  38.6448165  67.6732837  78.9060648
   4.9728662  16.6825944  60.9032266   4.3216642  17.2680025  60.5166280
   5.7673025  17.2132139  60.9627303  11.2395386  13.1750880  62.1637103
  10.4624829  12.8362039  61.7192265  11.9186867  13.1803503  61.4892068
   2.6446447  12.2716051  56.7071637   1.7373509  12.0405304  56.9062786
   3.1417479  11.4753670  56.8945619   5.5514526  20.9813558  59.6268324
   4.8776224  21.2845255  60.2353281   5.9380348  21.7842639  59.2773781
   3.5210768  13.9137390  58.5683706   3.0830198  13.1973248  58.1089343
   4.2621209  14.1413504  58.0068798   3.7505741  21.1493231  61.8415403
   3.9257497  20.6781274  62.6561025   3.0638529  21.7758997  62.0696664
   7.6421996  12.7721771  58.1615764   7.0251166  12.0468599  58.0648816
   7.1738484  13.5331131  57.8182838   8.4659681  16.0960943  62.2808403
   8.7419525  15.9817538  63.1902278   7.5964180  15.6978428  62.2420577
   5.4355910  19.2715479  63.1856266   5.9643677  18.7607934  62.5726428
   5.6984130  18.9558009  64.0501799   8.5296094  19.2432277  63.8011249
   8.7032971  18.6778700  63.0485101   9.0224985  20.0433172  63.6190738
   9.5171266  18.5599042  60.9008147  10.2122171  19.1805734  61.1195461
   9.8594417  17.7094393  61.1760525  11.4162690  16.0098747  62.4295478
  11.9414014  16.3486020  61.7044798  11.3285042  15.0745763  62.2458612
   3.6086135  18.6660793  59.8083240   3.0360102  19.2850981  59.3553712
   4.1818929  19.2160155  60.3423162   6.8283395  18.9497944  60.9391823
   7.7614068  18.8843505  61.1424698   6.7406608  19.7854210  60.4806355
   9.4571411  18.2663814  57.8995770   9.3785043  17.9323677  58.7931528
  10.2781078  18.7585582  57.8987243   7.0275363  15.5831809  57.5205749
   7.7311213  15.7881812  58.1363404   6.3038012  16.1508571  57.7854832
   8.9362061  16.0214338  59.5704209   9.7707664  15.5895537  59.3881683
   8.7746403  15.8496352  60.4981103   8.5907953  12.5246452  60.9360548
   8.5356757  12.3590723  59.9948992   7.9654008  13.2322485  61.0922738
  17.5646336  26.5383990  69.6659385  18.2024746  26.4190737  68.9622725
  17.4467179  27.4864834  69.7247338  14.3736042  26.4911418  69.6020910
  14.0354553  26.3752482  68.7141445  15.2425810  26.0902583  69.5821916
  10.2322858  28.3446894  65.5917801   9.6687723  28.2536831  64.8234089
  10.1175253  27.5246799  66.0720294   7.7787290  29.8398086  68.4302021
   8.5708581  29.4988910  68.0148321   8.0183940  29.9493061  69.3504175
  15.8122416  32.0117862  60.9032266  15.1610396  32.5971942  60.5166280
  16.6066779  32.5424057  60.9627303   9.7378043  29.1006999  61.3019400
  10.5108919  28.5535986  61.1632276  10.0903442  29.9651248  61.5133862
  12.5019293  27.8060230  71.0987659  13.0982865  27.5816252  70.3844622
  12.5594264  27.0644975  71.7013107  12.0744321  25.2599665  58.9337850
  12.3269842  24.7381186  58.1721313  11.1368880  25.0965811  59.0364534
  17.1187604  24.2635443  66.7412593  17.9050693  23.8454867  66.3903010
  17.3826308  25.1681536  66.9094242  17.2897681  29.7008294  61.4401250
  16.6543514  29.7742920  62.1522155  16.9595088  30.2901893  60.7620329
  22.5196031  24.2010677  67.6445572  23.2521203  23.6309893  67.8783401
  21.7635387  23.8132277  68.0852078  11.7940610  27.1627771  61.1362225
  11.6776868  26.4872674  61.8043309  11.9042870  26.6760145  60.3194378
  14.1372151  26.6237918  64.8408914  13.7730358  26.0968539  65.5521836
  14.9939267  26.2336387  64.6675400  13.7777638  21.6527818  59.8370263
  13.9452040  22.5208054  60.2040734  13.5874807  21.8155100  58.9131552
  16.5352971  30.1144797  71.5036093  16.2353694  31.0169836  71.3951900
  16.1904031  29.8476980  72.3557246   9.9865453  26.5658594  67.5372798
   9.0615949  26.4334808  67.7450489  10.2349866  27.3452813  68.0342740
  19.9350115  22.6327337  69.1833531  19.0266992  22.5642745  68.8892292
  19.8837711  23.1099282  70.0115356  13.7566859  24.1085475  60.8216930
  13.6366484  24.5542526  61.6602410  13.0619447  24.4570793  60.2630468
   7.3474264  26.2091867  68.3716587   7.4766645  26.4626346  69.2855998
   6.6671715  26.8019575  68.0521242  11.5173751  36.8789117  64.4707061
  11.4397781  37.8296942  64.5495542  10.9135395  36.5334990  65.1281987
  21.8011761  20.8343775  70.9611405  21.1586142  21.1276308  70.3151199
  21.2966690  20.7196696  71.7664601  19.4551925  24.5806949  61.6497264
  20.3669781  24.8134335  61.4744961  18.9461572  25.1643993  61.0872342
  18.0621507  29.5632767  69.0410845  17.4330370  29.7278481  68.3386913
  17.6747169  29.9774377  69.8121809  21.9410739  30.4987205  66.3955209
  21.2561777  30.8786106  65.8452242  22.0254588  31.1082531  67.1287157
  19.1961671  28.1447164  72.9950553  19.4078566  28.7878924  72.3184934
  19.1491419  27.3109480  72.5272483  13.6149469  29.3007175  66.3060930
  14.0787815  29.5794878  65.5165553  13.3506267  28.3990620  66.1234021
  10.5073550  28.8478657  69.2440694  11.0774907  29.2765925  68.6058178
  11.0981662  28.5661241  69.9424879  12.5518355  25.4230327  63.1150495
  13.2542399  25.8751371  63.5824422  12.2198984  24.7814146  63.7430389
  20.3107499  31.0219119  71.1672910  21.1324942  30.6199307  70.8855591
  20.3069902  30.9187353  72.1189026   8.2458435  24.0458459  65.3751106
   7.4489598  24.1577154  65.8934601   8.0184027  24.3845112  64.5091996
  14.0764102  30.5703163  73.3233620  14.1408535  31.0323570  74.1591792
  13.3675026  29.9400527  73.4515930  28.4013492  27.3657868  67.5157881
  27.6477200  26.7965266  67.3601886  28.5361033  27.3320532  68.4628516
  13.7912120  32.2371270  63.1912601  13.6557795  33.0822806  63.6197448
  14.3321932  32.4390548  62.4278534   7.2441517  29.7546708  63.7640526
   7.7566038  30.5489958  63.9146090   7.8964230  29.0572999  63.6974127
   9.0536402  32.8712464  65.8463279   9.2303030  33.7930429  65.6584263
   9.8493235  32.5570884  66.2757659  10.1767717  34.3890638  71.8473621
  10.7275143  34.2607702  71.0750615   9.3379193  34.6885527  71.4968514
  17.5161834  33.1397636  75.3494344  17.4980310  33.9606518  74.8574613
  18.4381754  33.0151712  75.5744485   5.2090434  28.0835362  64.5400096
   6.0465656  28.4932371  64.3233804   5.3868702  27.1434805  64.5100290
  17.1054866  25.7510443  60.2283929  16.5901490  26.5215048  60.4672317
  16.8332175  25.0775579  60.8516991  14.6901977  20.5960144  65.2869168
  13.8343573  20.2066994  65.1074806  15.1028929  20.6752105  64.4268953
  22.0789140  28.5042798  62.1637103  21.3018583  28.1653957  61.7192265
  22.7580621  28.5095421  61.4892068  16.8941169  23.6237535  62.0543710
  16.5891305  23.9383684  62.9053854  17.8471611  23.7018955  62.0971043
  15.3387601  29.7827758  63.7036664  14.8108963  29.0480518  63.3909902
  14.8375104  30.5602435  63.4576633  20.3180447  27.9776779  68.8203711
  19.6604122  28.6676040  68.9083839  21.1220846  28.3673211  69.1637697
  10.0706329  20.4447425  66.0643276  10.6450081  20.2222606  65.3316469
  10.6577311  20.5136119  66.8171877  19.1285906  26.3321152  66.8707652
  19.6417788  26.9651143  67.3729362  19.7787130  25.7322347  66.5051012
  10.3975916  22.4751886  60.0839161   9.5613228  22.8126572  60.4048436
  10.2580686  22.3400866  59.1466298  12.3728996  17.3188674  64.7918345
  11.7193409  17.0037691  64.1674960  12.3309471  16.6964414  65.5178168
  13.4840201  27.6007969  56.7071637  12.5767263  27.3697222  56.9062786
  13.9811233  26.8045588  56.8945619  16.3908280  36.3105476  59.6268324
  15.7169979  36.6137173  60.2353281  16.7774102  37.1134556  59.2773781
  15.6066737  23.8070607  69.1165993  14.6889298  24.0285554  68.9587681
  16.0226880  23.8816918  68.2577700  16.3901785  25.2062023  64.2468673
  17.1373604  25.7183420  63.9375795  16.6593374  24.8846076  65.1073067
  14.6628435  27.7020564  61.2295628  13.7539654  27.4179596  61.3268097
  14.6923519  28.1219642  60.3698934  19.8947702  31.3127153  64.9986795
  19.4410029  30.4718063  65.0551986  19.2641669  31.9488551  65.3361575
  18.8380622  22.2419139  66.2287463  18.1003379  21.7296525  66.5597705
  19.0907395  21.8019521  65.4170739  18.3380641  33.1503650  65.9336613
  18.6303616  33.7108707  65.2148979  18.8479262  33.4432211  66.6889772
  18.9392249  15.0195391  66.8229232  19.2451126  14.1592755  66.5355147
  19.6644854  15.6113011  66.6228226   5.2316605  25.4226078  65.2110830
   5.0341005  24.8295438  64.4861896   4.6763269  25.1178288  65.9286769
  13.2113329  25.3149184  67.3305423  13.2661939  24.3623021  67.2547899
  12.4004531  25.4708623  67.8146721  14.3604523  29.2429307  58.5683706
  13.9223952  28.5265166  58.1089343  15.1014963  29.4705422  58.0068798
  11.1505689  23.9326244  65.0895802  10.3373554  24.2320414  65.4960994
  11.6464683  23.5381933  65.8070284  13.3014267  33.9284001  67.0230066
  13.2590445  34.1544847  66.0938598  14.2176965  33.6947375  67.1715868
  22.4777637  27.5186504  64.6260025  22.3395536  27.7088100  63.6981214
  22.1213856  28.2805887  65.0828076  22.5047017  29.5863031  69.6371296
  22.9383524  29.4938320  70.4854350  23.2178598  29.5620532  68.9991312
  11.4180067  30.8047030  66.8192029  12.2120666  30.3097350  66.6174604
  10.7071760  30.2764893  66.4559735  16.2374912  33.1865125  71.1704397
  16.2911934  33.7556062  71.9382113  15.3689693  33.3567010  70.8058434
   7.7262831  24.9490112  62.8951782   6.7960419  24.8874567  63.1121744
   7.8220303  24.4266064  62.0988423   7.6448380  21.4744924  65.4830024
   7.9055197  22.3890258  65.3739184   8.4665552  21.0069367  65.6326636
  23.3662567  29.6286732  72.1704182  23.5598457  30.5332542  72.4163457
  23.2663185  29.1694151  73.0042767  15.1963012  27.3525387  72.7291329
  16.1255072  27.5036547  72.5560296  14.7754042  27.4409408  71.8739975
  13.9951343  31.3776052  70.4989866  13.8562429  31.0094836  71.3715804
  13.2065940  31.8923691  70.3273824  14.5899495  36.4785148  61.8415403
  14.7651251  36.0073192  62.6561025  13.9032283  37.1050915  62.0696664
  15.5456559  30.7557655  67.8878704  15.2106391  30.7158425  68.7836354
  15.0460504  30.0902370  67.4149114  18.4815750  28.1013689  58.1615764
  17.8644921  27.3760517  58.0648816  18.0132239  28.8623049  57.8182838
  20.1369882  32.8112597  75.8221544  20.0782428  32.1271817  75.1552127
  20.5389400  33.5531587  75.3702170   9.1560581  39.6274511  68.6155263
   9.3957179  40.2593035  69.2934282   8.3129777  39.2762551  68.9020622
  10.2714296  22.3199113  57.2837068   9.3943762  22.1987914  56.9199315
  10.7472049  21.5285191  57.0315957  20.1387289  30.7752181  74.0535524
  19.2514068  30.4378103  74.1761923  20.7085840  30.0435212  74.2904289
   1.7916436  27.1076273  67.3778575   2.4787476  26.7938003  66.7899590
   1.6364565  28.0117638  67.1045827  13.6688443  35.4353634  71.0196767
  13.5958614  36.2408605  71.5316072  13.2265836  35.6345599  70.1944788
  13.4578222  34.6725404  64.5299588  12.6745744  35.2147084  64.6237813
  14.1570967  35.1899383  64.9293830  16.7674872  20.4820033  67.1733794
  17.2643572  19.7289995  66.8534864  15.9961854  20.5184350  66.6077003
  24.6204630  26.1860399  68.8152085  24.6094506  27.0685114  68.4446018
  23.7522009  25.8331949  68.6206622  16.1287126  35.3340468  73.1754926
  16.8415098  35.9687932  73.1030827  15.6377155  35.4304334  72.3594927
  17.8504653  29.2391720  64.7472217  16.9160932  29.3593183  64.5776922
  18.0281321  28.3364187  64.4832227  13.3509841  22.6237416  66.9005478
  12.9807629  22.0708456  67.5886384  13.8468933  22.0195549  66.3480479
  21.2377204  25.0809040  65.2822251  21.7037656  25.9137031  65.2082554
  21.6884705  24.6154021  65.9867510  11.1799040  33.0834911  73.9960496
  11.8808499  33.7171394  74.1489891  10.7094155  33.4249643  73.2356136
  19.3053435  31.4252861  62.2808403  19.5813279  31.3109455  63.1902278
  18.4357934  31.0270346  62.2420577  18.9800326  25.6379518  71.8213047
  18.3271776  25.8855426  71.1665500  19.3580705  24.8243657  71.4875524
  15.9407499  35.6739212  65.9241217  16.1229894  34.8560868  66.3868969
  16.7640485  35.8906904  65.4866107  16.2749665  34.6007397  63.1856266
  16.8037431  34.0899851  62.5726428  16.5377884  34.2849927  64.0501799
   6.7766758  32.6171266  70.9291599   7.3620194  31.8714954  71.0619503
   6.5791596  32.9275223  71.8128263   9.6305413  35.6522513  65.9454041
   8.9615788  36.1368641  65.4618082   9.4918283  35.8991734  66.8597420
  13.7710681  37.6866257  72.5436700  14.3228989  37.8497878  73.3085785
  14.1116875  38.2770695  71.8716725   4.9992990  23.9140968  62.7249974
   5.2946431  23.0051647  62.6717027   4.0981026  23.8928708  62.4030976
  16.9079069  35.6348233  69.5300382  16.7830208  34.8337972  69.0211328
  17.5658160  36.1294426  69.0414352  18.9713977  33.4357253  71.1579932
  18.0244313  33.3162604  71.0858259  19.3196750  32.5479751  71.2406194
   6.7280832  21.5955066  62.8489299   6.3993538  20.7152445  62.6664405
   7.0820202  21.5402735  63.7365688  15.9760410  33.2309969  67.3584284
  15.8285373  32.3026676  67.5391854  16.8013904  33.2530060  66.8741360
   9.8422655  21.8828036  63.2164776  10.1818727  22.4113957  62.4943385
  10.2894775  22.2208442  63.9923343  19.5794532  34.0538528  68.4449157
  20.5041080  33.8481389  68.3073608  19.4109836  33.8054929  69.3538499
  11.8290802  20.3802657  61.4158069  12.5499164  20.7583910  60.9121786
  11.2056106  21.0991534  61.5193047  15.9721925  21.0847806  62.3516402
  16.1885539  21.9672444  62.0505230  15.4915992  20.6934020  61.6222044
  19.3689848  34.5724195  63.8011249  19.5426726  34.0070617  63.0485101
  19.8618740  35.3725090  63.6190738  11.9754425  19.9150448  64.2455606
  12.0970336  18.9867094  64.4446493  11.6856467  19.9289134  63.3333921
  25.2229240  27.3360618  65.4201548  25.6660386  26.5867943  65.0220672
  24.3455750  27.3270754  65.0375280  20.3565021  33.8890959  60.9008147
  21.0515926  34.5097652  61.1195461  20.6988171  33.0386311  61.1760525
  22.2556444  31.3390665  62.4295478  22.7807768  31.6777938  61.7044798
  22.1678797  30.4037680  62.2458612  13.9176493  35.2524739  74.5585354
  14.2263619  35.0073885  75.4308054  14.7151975  35.4571377  74.0704224
  13.9397105  37.4062648  66.7890731  13.5002095  36.9139027  67.4823587
  14.6905222  36.8635616  66.5482806   6.4189444  33.5974189  66.7915359
   7.2447464  33.2977961  66.4114002   6.0683496  32.8281812  67.2405148
  11.3870977  32.9500657  68.8613032  10.7650986  32.2871362  68.5615260
  12.0575844  32.9761789  68.1786680   4.6198049  31.5160516  67.7504292
   3.7829957  31.0882690  67.5688294   4.5921694  31.7092959  68.6875084
  21.9450350  31.9723569  77.7346676  21.1545894  31.9547707  77.1951175
  21.7083705  32.5111862  78.4895712  22.0648225  28.8216035  75.0479404
  22.1146230  28.6566042  75.9894927  21.9562149  27.9543294  74.6577285
  10.9484484  31.5004581  62.3371493  11.0972604  32.1840045  61.6838166
  11.7550927  31.4809671  62.8520949  23.5666422  31.2412976  75.2921426
  23.2751230  31.6042957  76.1284887  22.9538553  30.5279985  75.1134758
  24.7662104  28.8065856  67.8123996  25.6008996  29.2455660  67.9761556
  24.9021233  28.3304509  66.9932242  21.8153610  26.3645591  73.7601484
  22.2907732  26.5573237  72.9520335  20.8919176  26.4204777  73.5144867
   8.7037117  27.5269758  63.3432562   8.4583159  26.6232088  63.5412772
   8.8733031  27.5286909  62.4012040   7.9732764  23.2598116  60.8418723
   7.2802009  23.3342471  60.1858759   7.7284516  22.4958459  61.3640240
  14.4479889  33.9952711  59.8083240  13.8753856  34.6142898  59.3553712
  15.0212683  34.5452073  60.3423162  20.5155279  23.2411351  71.9929789
  21.4672702  23.3409449  72.0142013  20.3458730  22.4489620  72.5027874
  17.6677149  34.2789861  60.9391823  18.6007822  34.2135423  61.1424698
  17.5800362  35.1146128  60.4806355  20.2965166  33.5955732  57.8995770
  20.2178797  33.2615595  58.7931528  21.1174833  34.0877499  57.8987243
  22.9943357  26.4617471  71.1072089  22.9619677  25.5233472  71.2931773
  23.6043981  26.5401508  70.3737914  14.8326688  25.3313524  57.1499293
  15.7785793  25.2019732  57.2187711  14.4540933  24.5928186  57.6268721
  23.1437846  23.2528514  71.1530372  22.6276894  22.4686971  70.9660301
  24.0277794  22.9247231  71.3176892  20.8048572  16.9969530  67.1126185
  20.6073394  16.6884618  67.9969517  21.4148278  17.7231169  67.2424115
  28.8119907  27.5233478  70.2478126  29.5423295  27.2618766  70.8085829
  28.2026852  26.7862200  70.2880194  26.8935204  25.6641340  70.8452577
  26.1668368  25.5297305  70.2369068  26.4782491  25.9718169  71.6509295
  13.0169605  23.2563500  57.0854178  12.1101060  22.9596613  57.1616892
  13.2945586  22.9593318  56.2188464  14.6331671  17.8000390  63.2398419
  13.8232399  17.4547475  63.6153666  15.3216088  17.4907934  63.8286031
  16.5622219  16.8778437  64.8622716  17.1153258  17.2973890  65.5212739
  16.7992305  15.9514185  64.9045672  11.7868390  20.1150435  57.2266157
  12.6487554  20.4405334  57.4861975  11.9718734  19.3281931  56.7139223
  19.9401026  18.9878962  64.3701380  19.3599695  19.6463766  63.9879433
  19.6736959  18.1656306  63.9588798  18.3904593  18.3884020  66.5722701
  18.8904371  18.5000554  65.7637020  19.0340200  18.0845072  67.2123509
   5.7172548  28.1291029  67.3812361   5.6943236  28.2278716  66.4294244
   6.0273184  28.9756180  67.7029527  18.7225904  21.1479052  63.4257729
  17.8351759  21.4328703  63.2077923  19.1379893  20.9872816  62.5785005
  22.0740440  21.1725573  67.1412068  22.8500830  21.6622026  67.4136685
  21.3488574  21.5983627  67.5983937  24.5112999  21.8853192  68.1986008
  25.1057490  21.6448928  67.4879317  24.5839583  21.1660323  68.8259545
   6.7310155  35.7286803  68.5129173   6.5964623  34.9687204  67.9467171
   6.3142217  36.4527703  68.0457962  17.8669118  30.9123727  57.5205749
  18.5704968  31.1173729  58.1363404  17.1431766  31.4800489  57.7854832
  18.6966928  26.6633588  63.6408019  18.6402129  27.1202140  62.8015651
  19.2495270  25.9024273  63.4630862  22.5071734  22.4523320  64.4658138
  22.2508668  22.0519956  65.2966346  21.8824602  23.1667114  64.3408277
  26.8184072  25.1919393  66.9729430  26.2583630  25.2612583  67.7460992
  26.2127575  25.0160378  66.2528926   9.8879280  36.6256120  68.7247616
   9.7711665  37.5701553  68.6226306   9.0671727  36.3229682  69.1133415
  19.7755815  31.3506256  59.5704209  20.6101419  30.9187455  59.3881683
  19.6140158  31.1788270  60.4981103  19.4301707  27.8538369  60.9360548
  19.3750511  27.6882641  59.9948992  18.8047762  28.5614402  61.0922738
  12.7397833  17.3546478  60.5145866  12.7276502  18.2988318  60.6714137
  13.6321255  17.1716624  60.2205328  10.9133795  37.2784382  71.9403544
  11.8161041  37.3107993  72.2570039  10.6871165  36.3484833  71.9549880
  12.6687397  36.0315369  68.6013623  11.7183028  36.0317230  68.4877995
  12.9719883  35.2848103  68.0849658  16.5549952  13.9489255  64.7691803
  15.7882348  13.3947742  64.9148485  16.9660657  14.0211124  65.6305955
  28.4040090  41.8675907  69.6659385  29.0418500  41.7482655  68.9622725
  28.2860933  42.8156751  69.7247338  25.2129796  41.8203335  69.6020910
  24.8748308  41.7044400  68.7141445  26.0819565  41.4194500  69.5821916
  21.0716612  43.6738812  65.5917801  20.5081477  43.5828749  64.8234089
  20.9569007  42.8538716  66.0720294  25.6949579  42.9738187  75.5607116
  25.6838220  42.5790985  74.6887619  25.8570219  42.2404260  76.1540887
  18.6181044  45.1690003  68.4302021  19.4102336  44.8280828  68.0148321
  18.8577694  45.2784978  69.3504175  26.6516171  47.3409779  60.9032266
  26.0004151  47.9263860  60.5166280  27.4460534  47.8715974  60.9627303
  20.5771798  44.4298917  61.3019400  21.3502674  43.8827904  61.1632276
  20.9297197  45.2943166  61.5133862  22.4156841  45.7575299  74.5086300
  22.1246707  46.6620930  74.3932966  23.0513825  45.7991827  75.2230369
  23.3413047  43.1352147  71.0987659  23.9376620  42.9108170  70.3844622
  23.3988019  42.3936893  71.7013107  22.9138076  40.5891583  58.9337850
  23.1663596  40.0673104  58.1721313  21.9762635  40.4257728  59.0364534
  27.9581359  39.5927361  66.7412593  28.7444448  39.1746784  66.3903010
  28.2220063  40.4973453  66.9094242  28.1291436  45.0300211  61.4401250
  27.4937269  45.1034838  62.1522155  27.7988842  45.6193810  60.7620329
  33.3589786  39.5302594  67.6445572  34.0914958  38.9601811  67.8783401
  32.6029141  39.1424195  68.0852078  22.6334365  42.4919689  61.1362225
  22.5170623  41.8164592  61.8043309  22.7436624  42.0052063  60.3194378
  24.9765905  41.9529836  64.8408914  24.6124113  41.4260457  65.5521836
  25.8333021  41.5628305  64.6675400  30.8815206  33.2424168  72.1040181
  30.5498531  34.1119579  71.8801396  30.2860819  32.9260452  72.7834211
  27.3746726  45.4436714  71.5036093  27.0747449  46.3461753  71.3951900
  27.0297785  45.1768898  72.3557246  20.8259207  41.8950511  67.5372798
  19.9009704  41.7626725  67.7450489  21.0743620  42.6744730  68.0342740
  30.7743869  37.9619255  69.1833531  29.8660747  37.8934663  68.8892292
  30.7231465  38.4391200  70.0115356  24.5960613  39.4377393  60.8216930
  24.4760239  39.8834444  61.6602410  23.9013202  39.7862711  60.2630468
  18.1868018  41.5383785  68.3716587  18.3160399  41.7918264  69.2855998
  17.5065469  42.1311493  68.0521242  22.3567505  52.2081035  64.4707061
  22.2791535  53.1588860  64.5495542  21.7529149  51.8626907  65.1281987
  24.8484735  39.3808900  77.1268428  24.0718069  39.9402820  77.1171292
  25.4875298  39.8665683  77.6483298  32.6405516  36.1635693  70.9611405
  31.9979896  36.4568226  70.3151199  32.1360444  36.0488613  71.7664601
  23.1031107  42.1894354  76.6886395  23.8445792  42.7279398  76.4121218
  22.3968093  42.8160642  76.8457947  28.5786447  44.3323494  75.2858556
  28.9869803  43.8905905  74.5413189  27.8563709  43.7576122  75.5392749
  24.9317517  39.2696101  72.6592113  25.7778712  39.6935514  72.8026762
  24.8716155  38.6129725  73.3530676  28.9015262  44.8924685  69.0410845
  28.2724124  45.0570399  68.3386913  28.5140924  45.3066294  69.8121809
  32.7804494  45.8279122  66.3955209  32.0955532  46.2078024  65.8452242
  32.8648343  46.4374449  67.1287157  28.0816963  36.9300469  74.3173287
  27.8377894  37.6842530  73.7807563  28.3576893  37.3085817  75.1520534
  30.0355425  43.4739082  72.9950553  30.2472321  44.1170841  72.3184934
  29.9885174  42.6401398  72.5272483  27.6381654  36.0856902  69.8987125
  26.7766133  36.3838156  70.1903862  27.6644089  36.3027301  68.9668157
  24.4543224  44.6299093  66.3060930  24.9181569  44.9086796  65.5165553
  24.1900022  43.7282537  66.1234021  21.3467305  44.1770574  69.2440694
  21.9168662  44.6057843  68.6058178  21.9375417  43.8953159  69.9424879
  23.3912110  40.7522245  63.1150495  24.0936153  41.2043289  63.5824422
  23.0592738  40.1106064  63.7430389  21.8392471  39.3434002  77.4901705
  21.2091132  40.0250283  77.7237102  21.7328559  39.2317083  76.5454843
  17.1337444  39.0105798  68.4167629  16.3436498  39.2663326  67.9407740
  17.6248691  39.8254136  68.5219670  31.1501253  46.3511037  71.1672910
  31.9718697  45.9491224  70.8855591  31.1463656  46.2479271  72.1189026
  19.0852189  39.3750377  65.3751106  18.2883352  39.4869071  65.8934601
  18.8577781  39.7137029  64.5091996  24.9157857  45.8995080  73.3233620
  24.9802289  46.3615487  74.1591792  24.2068781  45.2692445  73.4515930
  15.4175147  39.2636288  70.8482620  15.6683185  40.1483298  71.1140196
  15.9534695  39.0840890  70.0757712  39.2407246  42.6949785  67.5157881
  38.4870955  42.1257183  67.3601886  39.3754787  42.6612450  68.4628516
  24.6305874  47.5663188  63.1912601  24.4951549  48.4114723  63.6197448
  25.1715687  47.7682465  62.4278534  18.0835272  45.0838626  63.7640526
  18.5959792  45.8781876  63.9146090  18.7357985  44.3864916  63.6974127
  19.8930156  48.2004382  65.8463279  20.0696785  49.1222347  65.6584263
  20.6886990  47.8862801  66.2757659  24.0341175  35.0612647  77.4447212
  24.7750888  35.6619800  77.3651675  24.2659098  34.3190284  76.8865255
  19.1782513  40.2469014  75.7225442  19.0636028  39.3454271  76.0232541
  18.3227031  40.4932711  75.3710259  26.2574351  48.1886754  77.3212943
  25.8138205  47.4023133  77.0033847  26.9191564  48.3765905  76.6556834
  21.0161472  49.7182556  71.8473621  21.5668897  49.5899619  71.0750615
  20.1772948  50.0177445  71.4968514  28.3555589  48.4689554  75.3494344
  28.3374064  49.2898435  74.8574613  29.2775509  48.3443629  75.5744485
  24.8128643  45.9833684  76.1917852  25.3456980  45.2221972  75.9617160
  24.2842724  45.6907335  76.9342007  27.9798338  31.0893750  71.7211494
  27.6362607  31.9795391  71.6450605  28.3477300  30.8995407  70.8581079
  16.0484188  43.4127280  64.5400096  16.8859411  43.8224288  64.3233804
  16.2262456  42.4726722  64.5100290  27.0594878  33.4598405  69.6860727
  26.5559674  33.4228540  68.8728533  27.3525485  34.3691147  69.7457384
  23.3037764  33.5437134  68.6926909  24.1690761  33.3479943  68.3332799
  23.3715273  33.3147486  69.6196266  32.9182895  43.8334715  62.1637103
  32.1412338  43.4945875  61.7192265  33.5974376  43.8387339  61.4892068
  26.1781356  45.1119676  63.7036664  25.6502717  44.3772436  63.3909902
  25.6768858  45.8894352  63.4576633  31.1574202  43.3068697  68.8203711
  30.4997876  43.9967958  68.9083839  31.9614601  43.6965129  69.1637697
  20.9100083  35.7739342  66.0643276  21.4843835  35.5514524  65.3316469
  21.4971066  35.8428037  66.8171877  29.9679660  41.6613069  66.8707652
  30.4811542  42.2943061  67.3729362  30.6180884  41.0614265  66.5051012
  21.2369670  37.8043803  60.0839161  20.4006983  38.1418490  60.4048436
  21.0974440  37.6692783  59.1466298  23.2122751  32.6480591  64.7918345
  22.5587163  32.3329608  64.1674960  23.1703225  32.0256332  65.5178168
  24.3233956  42.9299886  56.7071637  23.4161018  42.6989140  56.9062786
  24.8204988  42.1337506  56.8945619  27.2302035  51.6397394  59.6268324
  26.5563733  51.9429090  60.2353281  27.6167857  52.4426474  59.2773781
  26.4460491  39.1362525  69.1165993  25.5283053  39.3577472  68.9587681
  26.8620635  39.2108835  68.2577700  27.2295539  40.5353941  64.2468673
  27.9767358  41.0475338  63.9375795  27.4987129  40.2137993  65.1073067
  25.5022189  43.0312481  61.2295628  24.5933409  42.7471514  61.3268097
  25.5317273  43.4511560  60.3698934  30.7341457  46.6419071  64.9986795
  30.2803784  45.8009981  65.0551986  30.1035423  47.2780469  65.3361575
  29.6774376  37.5711057  66.2287463  28.9397133  37.0588443  66.5597705
  29.9301150  37.1311438  65.4170739  29.1774396  48.4795567  65.9336613
  29.4697370  49.0400625  65.2148979  29.6873016  48.7724128  66.6889772
  16.0710360  40.7517995  65.2110830  15.8734759  40.1587356  64.4861896
  15.5157024  40.4470206  65.9286769  24.0507083  40.6441102  67.3305423
  24.1055693  39.6914938  67.2547899  23.2398285  40.8000541  67.8146721
  25.1998277  44.5721225  58.5683706  24.7617707  43.8557084  58.1089343
  25.9408718  44.7997340  58.0068798  21.9899443  39.2618162  65.0895802
  21.1767309  39.5612332  65.4960994  22.4858437  38.8673850  65.8070284
  24.1408021  49.2575919  67.0230066  24.0984200  49.4836765  66.0938598
  25.0570720  49.0239293  67.1715868  27.5873655  39.7259986  73.9210696
  27.9423043  39.9531459  74.7805161  28.2345786  40.0578363  73.2987951
  33.3171392  42.8478422  64.6260025  33.1789290  43.0380018  63.6981214
  32.9607611  43.6097805  65.0828076  21.4813518  36.8336517  70.7057037
  22.1212897  36.6925276  70.0080000  20.6491049  36.5471031  70.3295639
  33.3440771  44.9154949  69.6371296  33.7777278  44.8230238  70.4854350
  34.0572352  44.8912449  68.9991312  22.2573822  46.1338948  66.8192029
  23.0514420  45.6389268  66.6174604  21.5465514  45.6056811  66.4559735
  27.0768666  48.5157043  71.1704397  27.1305689  49.0847979  71.9382113
  26.2083448  48.6858928  70.8058434  18.5656585  40.2782029  62.8951782
  17.6354173  40.2166485  63.1121744  18.6614057  39.7557982  62.0988423
  18.4842134  36.8036842  65.4830024  18.7448952  37.7182175  65.3739184
  19.3059307  36.3361285  65.6326636  19.9567060  38.2174599  72.6528848
  20.6290113  38.0091961  72.0041497  19.1296846  38.0196685  72.2134080
  34.2056321  44.9578650  72.1704182  34.3992211  45.8624460  72.4163457
  34.1056939  44.4986069  73.0042767  25.8592632  34.8436540  74.6694509
  25.2120547  35.5426490  74.5758985  26.6293647  35.2772684  75.0370757
  29.2671430  45.1085392  77.7445062  29.1156936  44.8795944  76.8275146
  29.2576109  46.0655994  77.7576407  26.0356766  42.6817305  72.7291329
  26.9648826  42.8328465  72.5560296  25.6147796  42.7701326  71.8739975
  24.8345098  46.7067970  70.4989866  24.6956184  46.3386754  71.3715804
  24.0459694  47.2215609  70.3273824  25.4293250  51.8077066  61.8415403
  25.6045006  51.3365109  62.6561025  24.7426038  52.4342832  62.0696664
  26.3850313  46.0849572  67.8878704  26.0500146  46.0450342  68.7836354
  25.8854259  45.4194288  67.4149114  20.3594557  41.4917202  73.4131285
  20.2214355  40.7597441  74.0142824  21.2699480  41.4026102  73.1315473
  22.9876858  41.2037162  72.9014965  23.6976476  40.5630354  72.8601583
  22.9446166  41.4550056  73.8241146  30.9763636  48.1404515  75.8221544
  30.9176182  47.4563735  75.1552127  31.3783155  48.8823505  75.3702170
  21.7005792  38.1902379  74.7210604  21.1643149  37.7393118  75.3732201
  21.1122500  38.3248288  73.9781069  19.9954335  54.9566429  68.6155263
  20.2350933  55.5884953  69.2934282  19.1523532  54.6054469  68.9020622
  30.9781044  46.1044099  74.0535524  30.0907822  45.7670021  74.1761923
  31.5479595  45.3727130  74.2904289  12.6310191  42.4368191  67.3778575
  13.3181231  42.1229921  66.7899590  12.4758319  43.3409555  67.1045827
  17.4344913  37.3258387  71.8063599  17.3503102  36.7184057  71.0714009
  16.6127619  37.8167405  71.8073095  24.5082197  50.7645551  71.0196767
  24.4352368  51.5700523  71.5316072  24.0659590  50.9637517  70.1944788
  24.2971977  50.0017321  64.5299588  23.5139499  50.5439001  64.6237813
  24.9964722  50.5191301  64.9293830  27.6068627  35.8111951  67.1733794
  28.1037326  35.0581913  66.8534864  26.8355608  35.8476267  66.6077003
  35.4598384  41.5152316  68.8152085  35.4488260  42.3977032  68.4446018
  34.5915764  41.1623867  68.6206622  26.9680881  50.6632385  73.1754926
  27.6808853  51.2979850  73.1030827  26.4770909  50.7596251  72.3594927
  28.6898407  44.5683638  64.7472217  27.7554686  44.6885100  64.5776922
  28.8675076  43.6656105  64.4832227  24.1903595  37.9529334  66.9005478
  23.8201383  37.4000374  67.5886384  24.6862688  37.3487467  66.3480479
  32.0770959  40.4100957  65.2822251  32.5431411  41.2428949  65.2082554
  32.5278459  39.9445939  65.9867510  22.0192794  48.4126829  73.9960496
  22.7202254  49.0463312  74.1489891  21.5487909  48.7541560  73.2356136
  30.1447190  46.7544778  62.2808403  30.4207034  46.6401373  63.1902278
  29.2751689  46.3562263  62.2420577  30.0487622  32.7781544  69.3213153
  29.1350701  33.0085771  69.4895360  30.4780723  32.8619988  70.1727185
  29.8194080  40.9671436  71.8213047  29.1665530  41.2147344  71.1665500
  30.1974460  40.1535574  71.4875524  26.7801254  51.0031129  65.9241217
  26.9623648  50.1852785  66.3868969  27.6034240  51.2198822  65.4866107
  27.1143419  49.9299314  63.1856266  27.6431186  49.4191769  62.5726428
  27.3771639  49.6141845  64.0501799  25.8681653  41.7091247  78.3079084
  25.1922290  41.6085377  78.9781459  26.6909287  41.5530461  78.7715081
  17.6160512  47.9463184  70.9291599  18.2013949  47.2006872  71.0619503
  17.4185351  48.2567140  71.8128263  20.4699167  50.9814431  65.9454041
  19.8009543  51.4660559  65.4618082  20.3312037  51.2283652  66.8597420
  12.2078167  40.5168784  69.6496042  12.2462266  39.9832375  70.4433160
  11.7018460  39.9903989  69.0307019  24.6104436  53.0158175  72.5436700
  25.1622744  53.1789796  73.3085785  24.9510629  53.6062612  71.8716725
  19.5868929  35.3633324  73.1458585  19.6510256  36.2248155  72.7335982
  19.5236049  34.7507326  72.4130943  19.0621202  37.4356457  76.7931619
  19.6893240  37.0533534  77.4069143  18.2049121  37.2170659  77.1587311
  29.4615310  47.8419432  78.3985354  30.0055214  48.4549390  77.9040309
  28.8802155  48.3999011  78.9152367  15.8386744  39.2432886  62.7249974
  16.1340186  38.3343565  62.6717027  14.9374780  39.2220626  62.4030976
  27.7472823  50.9640150  69.5300382  27.6223963  50.1629890  69.0211328
  28.4051914  51.4586344  69.0414352  19.3680991  37.3188883  68.7077522
  18.6467577  37.9324850  68.5684996  20.1574247  37.8546648  68.6294168
  29.8107732  48.7649170  71.1579932  28.8638067  48.6454521  71.0858259
  30.1590505  47.8771668  71.2406194  22.1707305  34.6543309  74.9818174
  22.6941707  34.9005606  75.7444483  21.9519638  35.4863344  74.5621311
  17.5674586  36.9246984  62.8489299  17.2387292  36.0444363  62.6664405
  17.9213957  36.8694652  63.7365688  26.8154165  48.5601886  67.3584284
  26.6679127  47.6318594  67.5391854  27.6407658  48.5821977  66.8741360
  20.6816409  37.2119954  63.2164776  21.0212482  37.7405875  62.4943385
  21.1288530  37.5500360  63.9923343  30.4188287  49.3830445  68.4449157
  31.3434834  49.1773307  68.3073608  30.2503590  49.1346846  69.3538499
  23.3759850  35.5957004  72.6667845  23.0356670  34.7964817  73.0688524
  22.6698856  35.8958715  72.0944678  24.0276322  32.6806317  71.1195168
  24.8502391  32.2066795  70.9974058  24.2714385  33.4596800  71.6193854
  22.6684556  35.7094575  61.4158069  23.3892919  36.0875828  60.9121786
  22.0449860  36.4283452  61.5193047  26.8115679  36.4139724  62.3516402
  27.0279294  37.2964362  62.0505230  26.3309746  36.0225938  61.6222044
  21.5514901  39.3725437  68.9287146  21.4059481  39.6865740  69.8211428
  21.0740104  39.9910338  68.3758045  23.4111283  36.3627985  68.9768036
  23.3972852  35.4669079  68.6400334  24.1283712  36.3698649  69.6106322
  25.2637414  36.7965326  71.0221163  25.0055192  37.7182396  71.0205494
  24.7322455  36.3995760  71.7121627  30.2083603  49.9016113  63.8011249
  30.3820480  49.3362535  63.0485101  30.7012494  50.7017008  63.6190738
  16.0260563  41.9130782  71.8674807  15.4814031  42.6890590  71.9995082
  16.9039913  42.2601586  71.7093929  22.8148179  35.2442366  64.2455606
  22.9364091  34.3159012  64.4446493  22.5250222  35.2581052  63.3333921
  25.6839370  32.9297276  67.3822326  25.7061067  32.9936609  66.4274305
  26.1007429  32.0901785  67.5762832  36.0622994  42.6652536  65.4201548
  36.5054140  41.9159861  65.0220672  35.1849504  42.6562672  65.0375280
  31.1958775  49.2182877  60.9008147  31.8909680  49.8389570  61.1195461
  31.5381926  48.3678228  61.1760525  16.8126585  41.0400678  74.7604964
  16.0708321  41.1883313  75.3469595  16.4919329  41.3008944  73.8971714
  33.0950199  46.6682583  62.4295478  33.6201523  47.0069855  61.7044798
  33.0072551  45.7329598  62.2458612  24.7570247  50.5816656  74.5585354
  25.0657374  50.3365803  75.4308054  25.5545729  50.7863295  74.0704224
  24.7790859  52.7354566  66.7890731  24.3395850  52.2430945  67.4823587
  25.5298976  52.1927534  66.5482806  17.2583198  48.9266107  66.7915359
  18.0841218  48.6269879  66.4114002  16.9077250  48.1573729  67.2405148
  22.2264731  48.2792575  68.8613032  21.6044741  47.6163280  68.5615260
  22.8969598  48.3053707  68.1786680  15.4591803  46.8452433  67.7504292
  14.6223712  46.4174608  67.5688294  15.4315449  47.0384877  68.6875084
  22.2989259  36.7574363  78.4545538  22.3477414  37.6336486  78.0723308
  22.8411773  36.2151756  77.8817182  32.7844105  47.3015486  77.7346676
  31.9939648  47.2839625  77.1951175  32.5477459  47.8403780  78.4895712
  32.9041980  44.1507953  75.0479404  32.9539985  43.9857960  75.9894927
  32.7955903  43.2835212  74.6577285  21.7878238  46.8296498  62.3371493
  21.9366359  47.5131963  61.6838166  22.5944682  46.8101588  62.8520949
  30.1945742  40.1338881  76.3638711  31.0955605  39.9945345  76.0722709
  30.2693717  40.2993335  77.3036888  24.5288547  37.5105735  75.2091897
  23.6591857  37.8039301  74.9374486  24.7648028  38.0946180  75.9299161
  34.4060176  46.5704894  75.2921426  34.1144985  46.9334875  76.1284887
  33.7932308  45.8571902  75.1134758  35.6055859  44.1357774  67.8123996
  36.4402750  44.5747578  67.9761556  35.7414988  43.6596427  66.9932242
  32.6547365  41.6937509  73.7601484  33.1301486  41.8865155  72.9520335
  31.7312930  41.7496695  73.5144867  19.5430871  42.8561676  63.3432562
  19.2976913  41.9524006  63.5412772  19.7126786  42.8578826  62.4012040
  27.2327581  33.7285352  72.7257318  27.7509525  34.4646379  72.4003806
  26.8782714  34.0349346  73.5604077  18.8126519  38.5890034  60.8418723
  18.1195764  38.6634389  60.1858759  18.5678271  37.8250377  61.3640240
  27.4840175  30.1485635  68.2458214  27.7641929  29.4808824  68.8718641
  28.2690782  30.3414730  67.7332878  25.2873644  49.3244629  59.8083240
  24.7147611  49.9434816  59.3553712  25.8606438  49.8743990  60.3423162
  31.3549034  38.5703269  71.9929789  32.3066457  38.6701367  72.0142013
  31.1852484  37.7781537  72.5027874  29.3763413  35.6558852  72.1789190
  28.7813345  35.9363865  71.4835679  29.0913110  36.1452753  72.9505931
  28.5070904  49.6081779  60.9391823  29.4401577  49.5427341  61.1424698
  28.4194116  50.4438046  60.4806355  31.1358920  48.9247649  57.8995770
  31.0572552  48.5907513  58.7931528  31.9568587  49.4169417  57.8987243
  33.8337112  41.7909389  71.1072089  33.8013432  40.8525389  71.2931773
  34.4437735  41.8693425  70.3737914  33.9831600  38.5820432  71.1530372
  33.4670649  37.7978889  70.9660301  34.8671549  38.2539149  71.3176892
  39.6513661  42.8525395  70.2478126  40.3817050  42.5910684  70.8085829
  39.0420607  42.1154117  70.2880194  37.7328958  40.9933258  70.8452577
  37.0062122  40.8589223  70.2369068  37.3176245  41.3010087  71.6509295
  25.5559135  44.7123188  78.6099950  26.4762144  44.8901787  78.8039996
  25.5208718  43.7679233  78.4579649  14.7741300  39.9061781  67.5353225
  14.4544084  39.0527090  67.2427599  14.2274728  40.1210359  68.2911192
  18.5521207  42.6224222  71.2522731  18.7707217  43.5541330  71.2710765
  18.9646981  42.2632197  72.0377535  23.4249073  38.1957428  80.6425480
  23.3245800  39.1451785  80.5737571  23.2070615  37.8675667  79.7701550
  14.6429560  43.5264693  69.5046346  13.9493031  43.1118646  68.9916301
  15.3902551  43.5685229  68.9079765  23.2880343  41.6254567  79.4590542
  22.8047425  42.4254927  79.6654431  23.3741282  41.6362512  78.5057986
  16.5566302  43.4582947  67.3812361  16.5336991  43.5570634  66.4294244
  16.8666939  44.3048097  67.7029527  19.2153680  45.5159102  71.4958975
  20.1696934  45.4843044  71.4288907  19.0166204  45.0549725  72.3109201
  19.8053062  44.0860218  74.0629773  20.6245951  44.5804296  74.0864610
  20.0789870  43.1692186  74.0347341  32.9134195  36.5017491  67.1412068
  33.6894585  36.9913943  67.4136685  32.1882329  36.9275545  67.5983937
  35.3506753  37.2145110  68.1986008  35.9451244  36.9740846  67.4879317
  35.4233337  36.4952241  68.8259545  17.5703909  51.0578721  68.5129173
  17.4358377  50.2979122  67.9467171  17.1535971  51.7819621  68.0457962
  28.7062872  46.2415645  57.5205749  29.4098722  46.4465647  58.1363404
  27.9825521  46.8092407  57.7854832  29.5360682  41.9925506  63.6408019
  29.4795884  42.4494057  62.8015651  30.0889025  41.2316190  63.4630862
  33.3465488  37.7815238  64.4658138  33.0902423  37.3811873  65.2966346
  32.7218356  38.4959032  64.3408277  37.6577826  40.5211311  66.9729430
  37.0977384  40.5904500  67.7460992  37.0521330  40.3452296  66.2528926
  20.7273035  51.9548038  68.7247616  20.6105419  52.8993471  68.6226306
  19.9065481  51.6521600  69.1133415  30.6149570  46.6798174  59.5704209
  31.4495173  46.2479372  59.3881683  30.4533912  46.5080188  60.4981103
  30.2695462  43.1830287  60.9360548  30.2144265  43.0174559  59.9948992
  29.6441517  43.8906320  61.0922738  15.0587977  38.4198352  74.7621970
  15.7046840  37.9097305  75.2509195  14.8505128  39.1567033  75.3365395
  27.5841369  45.4879199  80.2614111  28.4532529  45.6619851  79.9000746
  27.1048120  46.3073616  80.1389840  21.7527549  52.6076300  71.9403544
  22.6554796  52.6399910  72.2570039  21.5264919  51.6776751  71.9549880
  23.5081151  51.3607287  68.6013623  22.5576782  51.3609148  68.4877995
  23.8113637  50.6140021  68.0849658  39.2433845  57.1967825  69.6659385
  39.8812255  57.0774572  68.9622725  39.1254687  58.1448669  69.7247338
  36.0523551  57.1495253  69.6020910  35.7142062  57.0336318  68.7141445
  36.9213319  56.7486418  69.5821916  31.9110367  59.0030729  65.5917801
  31.3475232  58.9120666  64.8234089  31.7962762  58.1830634  66.0720294
  36.5343334  58.3030105  75.5607116  36.5231975  57.9082903  74.6887619
  36.6963973  57.5696177  76.1540887  29.4574799  60.4981921  68.4302021
  30.2496090  60.1572746  68.0148321  29.6971449  60.6076896  69.3504175
  37.4909925  62.6701697  60.9032266  36.8397905  63.2555778  60.5166280
  38.2854288  63.2007892  60.9627303  31.4165552  59.7590834  61.3019400
  32.1896428  59.2119821  61.1632276  31.7690951  60.6235084  61.5133862
  33.2550595  61.0867217  74.5086300  32.9640461  61.9912847  74.3932966
  33.8907579  61.1283744  75.2230369  34.1806802  58.4644065  71.0987659
  34.7770374  58.2400088  70.3844622  34.2381773  57.7228811  71.7013107
  33.7531830  55.9183500  58.9337850  34.0057351  55.3965022  58.1721313
  32.8156389  55.7549646  59.0364534  38.7975113  54.9219279  66.7412593
  39.5838202  54.5038702  66.3903010  39.0613817  55.8265371  66.9094242
  38.9685190  60.3592129  61.4401250  38.3331023  60.4326756  62.1522155
  38.6382597  60.9485728  60.7620329  44.1983540  54.8594512  67.6445572
  44.9308712  54.2893729  67.8783401  43.4422896  54.4716112  68.0852078
  33.4728119  57.8211606  61.1362225  33.3564377  57.1456510  61.8043309
  33.5830379  57.3343980  60.3194378  35.8159660  57.2821753  64.8408914
  35.4517867  56.7552374  65.5521836  36.6726776  56.8920223  64.6675400
  41.7208961  48.5716086  72.1040181  41.3892285  49.4411497  71.8801396
  41.1254574  48.2552370  72.7834211  35.4565147  52.3111653  59.8370263
  35.6239549  53.1791890  60.2040734  35.2662316  52.4738935  58.9131552
  38.2140480  60.7728632  71.5036093  37.9141203  61.6753671  71.3951900
  37.8691540  60.5060815  72.3557246  31.6652962  57.2242429  67.5372798
  30.7403458  57.0918643  67.7450489  31.9137375  58.0036648  68.0342740
  41.6137624  53.2911172  69.1833531  40.7054501  53.2226581  68.8892292
  41.5625220  53.7683117  70.0115356  35.4354368  54.7669311  60.8216930
  35.3153993  55.2126361  61.6602410  34.7406956  55.1154628  60.2630468
  29.0261773  56.8675702  68.3716587  29.1554154  57.1210181  69.2855998
  28.3459224  57.4603410  68.0521242  33.1961260  67.5372952  64.4707061
  33.1185290  68.4880778  64.5495542  32.5922903  67.1918825  65.1281987
  35.6878490  54.7100818  77.1268428  34.9111824  55.2694738  77.1171292
  36.3269053  55.1957601  77.6483298  43.4799270  51.4927611  70.9611405
  42.8373651  51.7860144  70.3151199  42.9754199  51.3780531  71.7664601
  41.1339434  55.2390784  61.6497264  42.0457290  55.4718171  61.4744961
  40.6249081  55.8227828  61.0872342  33.9424862  57.5186271  76.6886395
  34.6839546  58.0571315  76.4121218  33.2361847  58.1452560  76.8457947
  39.4180202  59.6615412  75.2858556  39.8263558  59.2197822  74.5413189
  38.6957463  59.0868039  75.5392749  35.7711272  54.5988018  72.6592113
  36.6172467  55.0227432  72.8026762  35.7109909  53.9421643  73.3530676
  39.7409016  60.2216602  69.0410845  39.1117879  60.3862316  68.3386913
  39.3534678  60.6358212  69.8121809  43.6198248  61.1571040  66.3955209
  42.9349286  61.5369942  65.8452242  43.7042097  61.7666367  67.1287157
  38.9210717  52.2592387  74.3173287  38.6771649  53.0134447  73.7807563
  39.1970648  52.6377734  75.1520534  40.8749180  58.8030999  72.9950553
  41.0866075  59.4462759  72.3184934  40.8278928  57.9693316  72.5272483
  38.4775409  51.4148820  69.8987125  37.6159888  51.7130073  70.1903862
  38.5037843  51.6319219  68.9668157  35.2936978  59.9591010  66.3060930
  35.7575324  60.2378713  65.5165553  35.0293776  59.0574455  66.1234021
  32.1861059  59.5062492  69.2440694  32.7562416  59.9349760  68.6058178
  32.7769171  59.2245077  69.9424879  34.2305864  56.0814163  63.1150495
  34.9329908  56.5335206  63.5824422  33.8986493  55.4397982  63.7430389
  32.6786226  54.6725919  77.4901705  32.0484886  55.3542200  77.7237102
  32.5722314  54.5609001  76.5454843  27.9731198  54.3397715  68.4167629
  27.1830252  54.5955244  67.9407740  28.4642446  55.1546053  68.5219670
  41.9895008  61.6802955  71.1672910  42.8112451  61.2783142  70.8855591
  41.9857411  61.5771189  72.1189026  29.9245944  54.7042295  65.3751106
  29.1277107  54.8160989  65.8934601  29.6971536  55.0428947  64.5091996
  35.7551611  61.2286998  73.3233620  35.8196044  61.6907405  74.1591792
  35.0462535  60.5984363  73.4515930  26.2568901  54.5928206  70.8482620
  26.5076940  55.4775216  71.1140196  26.7928450  54.4132807  70.0757712
  50.0801001  58.0241703  67.5157881  49.3264709  57.4549101  67.3601886
  50.2148542  57.9904368  68.4628516  35.4699629  62.8955105  63.1912601
  35.3345304  63.7406641  63.6197448  36.0109441  63.0974383  62.4278534
  31.9566968  48.9746685  79.8526956  31.5633914  48.4212884  80.5274600
  32.7733109  49.2857264  80.2433473  28.9229026  60.4130543  63.7640526
  29.4353547  61.2073794  63.9146090  29.5751739  59.7156834  63.6974127
  30.7323911  63.5296300  65.8463279  30.9090539  64.4514264  65.6584263
  31.5280744  63.2154719  66.2757659  34.8734929  50.3904564  77.4447212
  35.6144643  50.9911717  77.3651675  35.1052852  49.6482202  76.8865255
  30.0176267  55.5760932  75.7225442  29.9029783  54.6746189  76.0232541
  29.1620785  55.8224628  75.3710259  37.0968105  63.5178672  77.3212943
  36.6531959  62.7315050  77.0033847  37.7585319  63.7057822  76.6556834
  31.8555226  65.0474473  71.8473621  32.4062651  64.9191537  71.0750615
  31.0166702  65.3469363  71.4968514  39.1949343  63.7981472  75.3494344
  39.1767819  64.6190353  74.8574613  40.1169263  63.6735547  75.5744485
  35.6522397  61.3125601  76.1917852  36.1850734  60.5513890  75.9617160
  35.1236479  61.0199253  76.9342007  38.8192092  46.4185667  71.7211494
  38.4756362  47.3087309  71.6450605  39.1871055  46.2287325  70.8581079
  26.8877943  58.7419198  64.5400096  27.7253165  59.1516206  64.3233804
  27.0656211  57.8018640  64.5100290  38.7842375  56.4094278  60.2283929
  38.2688999  57.1798883  60.4672317  38.5119684  55.7359415  60.8516991
  36.3689486  51.2543979  65.2869168  35.5131082  50.8650830  65.1074806
  36.7816438  51.3335940  64.4268953  37.8988633  48.7890322  69.6860727
  37.3953428  48.7520458  68.8728533  38.1919240  49.6983065  69.7457384
  34.1431519  48.8729052  68.6926909  35.0084515  48.6771861  68.3332799
  34.2109028  48.6439404  69.6196266  43.7576649  59.1626633  62.1637103
  42.9806092  58.8237793  61.7192265  44.4368130  59.1679256  61.4892068
  38.5728678  54.2821370  62.0543710  38.2678814  54.5967520  62.9053854
  39.5259120  54.3602790  62.0971043  37.0175110  60.4411594  63.7036664
  36.4896472  59.7064353  63.3909902  36.5162613  61.2186270  63.4576633
  41.9967956  58.6360614  68.8203711  41.3391631  59.3259876  68.9083839
  42.8008355  59.0257046  69.1637697  31.7493838  51.1031260  66.0643276
  32.3237590  50.8806442  65.3316469  32.3364820  51.1719955  66.8171877
  40.8073415  56.9904987  66.8707652  41.3205297  57.6234979  67.3729362
  41.4574639  56.3906182  66.5051012  32.0763425  53.1335721  60.0839161
  31.2400737  53.4710408  60.4048436  31.9368194  52.9984701  59.1466298
  34.0516505  47.9772509  64.7918345  33.3980918  47.6621526  64.1674960
  34.0096980  47.3548249  65.5178168  35.1627710  58.2591804  56.7071637
  34.2554772  58.0281058  56.9062786  35.6598742  57.4629423  56.8945619
  38.0695789  66.9689311  59.6268324  37.3957488  67.2721008  60.2353281
  38.4561611  67.7718392  59.2773781  37.2854246  54.4654443  69.1165993
  36.3676807  54.6869390  68.9587681  37.7014389  54.5400753  68.2577700
  38.0689294  55.8645858  64.2468673  38.8161113  56.3767255  63.9375795
  38.3380883  55.5429911  65.1073067  36.3415944  58.3604399  61.2295628
  35.4327163  58.0763432  61.3268097  36.3711028  58.7803477  60.3698934
  41.5735211  61.9710988  64.9986795  41.1197538  61.1301898  65.0551986
  40.9429178  62.6072387  65.3361575  40.5168131  52.9002974  66.2287463
  39.7790888  52.3880361  66.5597705  40.7694904  52.4603356  65.4170739
  40.0168150  63.8087485  65.9336613  40.3091125  64.3692542  65.2148979
  40.5266771  64.1016046  66.6889772  40.6179758  45.6779226  66.8229232
  40.9238635  44.8176590  66.5355147  41.3432363  46.2696847  66.6228226
  26.9104114  56.0809913  65.2110830  26.7128514  55.4879274  64.4861896
  26.3550778  55.7762123  65.9286769  34.8900838  55.9733020  67.3305423
  34.9449448  55.0206856  67.2547899  34.0792040  56.1292459  67.8146721
  36.0392032  59.9013143  58.5683706  35.6011461  59.1849002  58.1089343
  36.7802472  60.1289257  58.0068798  32.8293198  54.5910079  65.0895802
  32.0161063  54.8904250  65.4960994  33.3252192  54.1965768  65.8070284
  34.9801776  64.5867836  67.0230066  34.9377954  64.8128683  66.0938598
  35.8964474  64.3531211  67.1715868  38.4267409  55.0551904  73.9210696
  38.7816797  55.2823377  74.7805161  39.0739541  55.3870281  73.2987951
  44.1565146  58.1770340  64.6260025  44.0183045  58.3671936  63.6981214
  43.8001365  58.9389722  65.0828076  32.3207272  52.1628435  70.7057037
  32.9606652  52.0217194  70.0080000  31.4884803  51.8762948  70.3295639
  44.1834526  60.2446867  69.6371296  44.6171033  60.1522156  70.4854350
  44.8966107  60.2204367  68.9991312  33.0967576  61.4630865  66.8192029
  33.8908175  60.9681185  66.6174604  32.3859269  60.9348728  66.4559735
  37.9162421  63.8448961  71.1704397  37.9699443  64.4139897  71.9382113
  37.0477202  64.0150846  70.8058434  29.4050340  55.6073947  62.8951782
  28.4747928  55.5458402  63.1121744  29.5007812  55.0849900  62.0988423
  29.3235889  52.1328760  65.4830024  29.5842706  53.0474093  65.3739184
  30.1453061  51.6653202  65.6326636  30.7960814  53.5466517  72.6528848
  31.4683868  53.3383879  72.0041497  29.9690601  53.3488603  72.2134080
  45.0450076  60.2870567  72.1704182  45.2385966  61.1916378  72.4163457
  44.9450694  59.8277986  73.0042767  36.6986386  50.1728458  74.6694509
  36.0514301  50.8718408  74.5758985  37.4687402  50.6064602  75.0370757
  40.1065184  60.4377310  77.7445062  39.9550691  60.2087862  76.8275146
  40.0969864  61.3947911  77.7576407  36.8750521  58.0109223  72.7291329
  37.8042581  58.1620382  72.5560296  36.4541551  58.0993244  71.8739975
  35.6738852  62.0359887  70.4989866  35.5349938  61.6678672  71.3715804
  34.8853449  62.5507527  70.3273824  36.2687004  67.1368984  61.8415403
  36.4438760  66.6657027  62.6561025  35.5819792  67.7634750  62.0696664
  37.2244068  61.4141490  67.8878704  36.8893900  61.3742260  68.7836354
  36.7248013  60.7486206  67.4149114  31.1988311  56.8209120  73.4131285
  31.0608109  56.0889359  74.0142824  32.1093235  56.7318020  73.1315473
  40.1603259  58.7597524  58.1615764  39.5432430  58.0344352  58.0648816
  39.6919748  59.5206885  57.8182838  33.8270612  56.5329079  72.9014965
  34.5370231  55.8922271  72.8601583  33.7839920  56.7841974  73.8241146
  41.8157391  63.4696433  75.8221544  41.7569937  62.7855653  75.1552127
  42.2176909  64.2115423  75.3702170  32.5399546  53.5194297  74.7210604
  32.0036903  53.0685036  75.3732201  31.9516255  53.6540206  73.9781069
  30.8348090  70.2858346  68.6155263  31.0744688  70.9176871  69.2934282
  29.9917286  69.9346386  68.9020622  31.9501805  52.9782949  57.2837068
  31.0731271  52.8571749  56.9199315  32.4259558  52.1869027  57.0315957
  41.8174798  61.4336017  74.0535524  40.9301577  61.0961938  74.1761923
  42.3873349  60.7019048  74.2904289  23.4703945  57.7660108  67.3778575
  24.1574985  57.4521838  66.7899590  23.3152074  58.6701473  67.1045827
  28.2738667  52.6550305  71.8063599  28.1896856  52.0475974  71.0714009
  27.4521374  53.1459323  71.8073095  35.3475951  66.0937469  71.0196767
  35.2746123  66.8992440  71.5316072  34.9053345  66.2929435  70.1944788
  35.1365731  65.3309239  64.5299588  34.3533253  65.8730919  64.6237813
  35.8358476  65.8483219  64.9293830  38.4462381  51.1403868  67.1733794
  38.9431081  50.3873831  66.8534864  37.6749363  51.1768185  66.6077003
  46.2992139  56.8444234  68.8152085  46.2882015  57.7268949  68.4446018
  45.4309518  56.4915785  68.6206622  37.8074635  65.9924303  73.1754926
  38.5202607  66.6271768  73.1030827  37.3164664  66.0888169  72.3594927
  39.5292162  59.8975556  64.7472217  38.5948441  60.0177018  64.5776922
  39.7068830  58.9948022  64.4832227  35.0297350  53.2821251  66.9005478
  34.6595137  52.7292292  67.5886384  35.5256442  52.6779385  66.3480479
  42.9164713  55.7392875  65.2822251  43.3825165  56.5720866  65.2082554
  43.3672214  55.2737856  65.9867510  32.8586549  63.7418746  73.9960496
  33.5596008  64.3755229  74.1489891  32.3881664  64.0833478  73.2356136
  40.9840944  62.0836696  62.2808403  41.2600788  61.9693291  63.1902278
  40.1145443  61.6854181  62.2420577  40.8881376  48.1073462  69.3213153
  39.9744456  48.3377689  69.4895360  41.3174477  48.1911906  70.1727185
  40.6587835  56.2963354  71.8213047  40.0059285  56.5439261  71.1665500
  41.0368214  55.4827492  71.4875524  37.6195008  66.3323047  65.9241217
  37.8017403  65.5144703  66.3868969  38.4427994  66.5490739  65.4866107
  37.9537174  65.2591232  63.1856266  38.4824940  64.7483687  62.5726428
  38.2165393  64.9433762  64.0501799  36.7075408  57.0383165  78.3079084
  36.0316045  56.9377294  78.9781459  37.5303041  56.8822379  78.7715081
  28.4554267  63.2755101  70.9291599  29.0407703  62.5298789  71.0619503
  28.2579105  63.5859058  71.8128263  31.3092922  66.3106349  65.9454041
  30.6403297  66.7952476  65.4618082  31.1705792  66.5575569  66.8597420
  23.0471921  55.8460702  69.6496042  23.0856021  55.3124292  70.4433160
  22.5412214  55.3195907  69.0307019  35.4498190  68.3450092  72.5436700
  36.0016498  68.5081714  73.3085785  35.7904384  68.9354530  71.8716725
  30.4262684  50.6925242  73.1458585  30.4904010  51.5540073  72.7335982
  30.3629804  50.0799244  72.4130943  29.9014956  52.7648375  76.7931619
  30.5286995  52.3825452  77.4069143  29.0442875  52.5462577  77.1587311
  40.3009065  63.1711350  78.3985354  40.8448969  63.7841308  77.9040309
  39.7195910  63.7290928  78.9152367  26.6780499  54.5724804  62.7249974
  26.9733940  53.6635482  62.6717027  25.7768535  54.5512543  62.4030976
  38.5866578  66.2932068  69.5300382  38.4617717  65.4921808  69.0211328
  39.2445669  66.7878261  69.0414352  30.2074746  52.6480800  68.7077522
  29.4861332  53.2616768  68.5684996  30.9968002  53.1838565  68.6294168
  40.6501486  64.0941088  71.1579932  39.7031822  63.9746439  71.0858259
  40.9984259  63.2063586  71.2406194  33.0101059  49.9835227  74.9818174
  33.5335461  50.2297523  75.7444483  32.7913393  50.8155262  74.5621311
  28.4068341  52.2538901  62.8489299  28.0781047  51.3736280  62.6664405
  28.7607711  52.1986570  63.7365688  37.6547919  63.8893804  67.3584284
  37.5072882  62.9610512  67.5391854  38.4801413  63.9113895  66.8741360
  31.5210164  52.5411871  63.2164776  31.8606236  53.0697792  62.4943385
  31.9682284  52.8792277  63.9923343  41.2582041  64.7122363  68.4449157
  42.1828589  64.5065224  68.3073608  41.0897345  64.4638764  69.3538499
  34.2153604  50.9248922  72.6667845  33.8750425  50.1256735  73.0688524
  33.5092611  51.2250633  72.0944678  34.8670076  48.0098234  71.1195168
  35.6896146  47.5358713  70.9974058  35.1108140  48.7888718  71.6193854
  33.5078311  51.0386493  61.4158069  34.2286673  51.4167746  60.9121786
  32.8843615  51.7575370  61.5193047  37.6509434  51.7431642  62.3516402
  37.8673048  52.6256280  62.0505230  37.1703501  51.3517855  61.6222044
  32.3908655  54.7017355  68.9287146  32.2453236  55.0157658  69.8211428
  31.9133859  55.3202255  68.3758045  34.2505038  51.6919903  68.9768036
  34.2366607  50.7960996  68.6400334  34.9677466  51.6990567  69.6106322
  36.1031169  52.1257243  71.0221163  35.8448946  53.0474314  71.0205494
  35.5716209  51.7287678  71.7121627  41.0477357  65.2308030  63.8011249
  41.2214235  64.6654453  63.0485101  41.5406249  66.0308925  63.6190738
  26.8654317  57.2422699  71.8674807  26.3207785  58.0182507  71.9995082
  27.7433667  57.5893504  71.7093929  33.6541934  50.5734283  64.2455606
  33.7757845  49.6450929  64.4446493  33.3643976  50.5872969  63.3333921
  36.5233124  48.2589194  67.3822326  36.5454821  48.3228527  66.4274305
  36.9401183  47.4193702  67.5762832  46.9016749  57.9944453  65.4201548
  47.3447895  57.2451778  65.0220672  46.0243259  57.9854590  65.0375280
  42.0352530  64.5474795  60.9008147  42.7303435  65.1681487  61.1195461
  42.3775680  63.6970146  61.1760525  27.6520339  56.3692596  74.7604964
  26.9102075  56.5175231  75.3469595  27.3313083  56.6300861  73.8971714
  43.9343953  61.9974500  62.4295478  44.4595277  62.3361773  61.7044798
  43.8466306  61.0621516  62.2458612  35.5964002  65.9108574  74.5585354
  35.9051128  65.6657721  75.4308054  36.3939484  66.1155212  74.0704224
  35.6184614  68.0646484  66.7890731  35.1789604  67.5722862  67.4823587
  36.3692731  67.5219451  66.5482806  28.0976953  64.2558024  66.7915359
  28.9234973  63.9561796  66.4114002  27.7471005  63.4865647  67.2405148
  33.0658486  63.6084493  68.8613032  32.4438495  62.9455198  68.5615260
  33.7363353  63.6345625  68.1786680  26.2985558  62.1744351  67.7504292
  25.4617466  61.7466525  67.5688294  26.2709203  62.3676794  68.6875084
  33.1383013  52.0866281  78.4545538  33.1871169  52.9628403  78.0723308
  33.6805528  51.5443674  77.8817182  43.6237859  62.6307404  77.7346676
  42.8333403  62.6131543  77.1951175  43.3871214  63.1695698  78.4895712
  43.7435734  59.4799870  75.0479404  43.7933739  59.3149878  75.9894927
  43.6349657  58.6127129  74.6577285  32.6271993  62.1588416  62.3371493
  32.7760113  62.8423880  61.6838166  33.4338436  62.1393506  62.8520949
  41.0339497  55.4630798  76.3638711  41.9349359  55.3237263  76.0722709
  41.1087471  55.6285253  77.3036888  35.3682302  52.8397653  75.2091897
  34.4985611  53.1331219  74.9374486  35.6041782  53.4238098  75.9299161
  45.2453931  61.8996812  75.2921426  44.9538739  62.2626792  76.1284887
  44.6326062  61.1863820  75.1134758  46.4449613  59.4649692  67.8123996
  47.2796505  59.9039496  67.9761556  46.5808742  58.9888345  66.9932242
  43.4941119  57.0229426  73.7601484  43.9695241  57.2157073  72.9520335
  42.5706685  57.0788612  73.5144867  30.3824626  58.1853594  63.3432562
  30.1370668  57.2815924  63.5412772  30.5520540  58.1870744  62.4012040
  38.0721336  49.0577270  72.7257318  38.5903280  49.7938297  72.4003806
  37.7176468  49.3641263  73.5604077  29.6520273  53.9181951  60.8418723
  28.9589518  53.9926306  60.1858759  29.4072025  53.1542295  61.3640240
  38.3233930  45.4777553  68.2458214  38.6035684  44.8100742  68.8718641
  39.1084537  45.6706648  67.7332878  36.1267398  64.6536546  59.8083240
  35.5541365  65.2726734  59.3553712  36.7000192  65.2035908  60.3423162
  42.1942788  53.8995187  71.9929789  43.1460211  53.9993284  72.0142013
  42.0246239  53.1073455  72.5027874  40.2157168  50.9850770  72.1789190
  39.6207100  51.2655782  71.4835679  39.9306864  51.4744671  72.9505931
  39.3464658  64.9373697  60.9391823  40.2795331  64.8719258  61.1424698
  39.2587871  65.7729963  60.4806355  41.9752675  64.2539567  57.8995770
  41.8966306  63.9199431  58.7931528  42.7962342  64.7461335  57.8987243
  44.6730866  57.1201306  71.1072089  44.6407186  56.1817307  71.2931773
  45.2831490  57.1985343  70.3737914  36.5114197  55.9897359  57.1499293
  37.4573302  55.8603567  57.2187711  36.1328442  55.2512021  57.6268721
  44.8225354  53.9112350  71.1530372  44.3064403  53.1270806  70.9660301
  45.7065303  53.5831066  71.3176892  42.4836081  47.6553365  67.1126185
  42.2860903  47.3468453  67.9969517  43.0935787  48.3815004  67.2424115
  50.4907416  58.1817313  70.2478126  51.2210804  57.9202601  70.8085829
  49.8814361  57.4446035  70.2880194  48.5722713  56.3225176  70.8452577
  47.8455877  56.1881141  70.2369068  48.1570000  56.6302004  71.6509295
  36.3952889  60.0415105  78.6099950  37.3155899  60.2193704  78.8039996
  36.3602472  59.0971151  78.4579649  34.6957114  53.9147336  57.0854178
  33.7888569  53.6180448  57.1616892  34.9733095  53.6177154  56.2188464
  25.6135054  55.2353699  67.5353225  25.2937839  54.3819007  67.2427599
  25.0668483  55.4502277  68.2911192  29.3914962  57.9516140  71.2522731
  29.6100972  58.8833248  71.2710765  29.8040736  57.5924114  72.0377535
  36.3119180  48.4584225  63.2398419  35.5019908  48.1131310  63.6153666
  37.0003597  48.1491769  63.8286031  38.2409728  47.5362272  64.8622716
  38.7940767  47.9557726  65.5212739  38.4779814  46.6098020  64.9045672
  34.2642827  53.5249346  80.6425480  34.1639554  54.4743703  80.5737571
  34.0464369  53.1967585  79.7701550  33.4655899  50.7734271  57.2266157
  34.3275063  51.0989169  57.4861975  33.6506243  49.9865767  56.7139223
  25.4823314  58.8556610  69.5046346  24.7886786  58.4410563  68.9916301
  26.2296305  58.8977147  68.9079765  41.6188535  49.6462797  64.3701380
  41.0387204  50.3047601  63.9879433  41.3524468  48.8240142  63.9588798
  40.0692101  49.0467855  66.5722701  40.5691880  49.1584389  65.7637020
  40.7127709  48.7428908  67.2123509  34.1274097  56.9546485  79.4590542
  33.6441179  57.7546845  79.6654431  34.2135036  56.9654429  78.5057986
  27.3960057  58.7874864  67.3812361  27.3730745  58.8862552  66.4294244
  27.7060693  59.6340015  67.7029527  30.0547435  60.8451019  71.4958975
  31.0090688  60.8134962  71.4288907  29.8559958  60.3841643  72.3109201
  30.6446817  59.4152135  74.0629773  31.4639706  59.9096214  74.0864610
  30.9183625  58.4984103  74.0347341  40.4013413  51.8062888  63.4257729
  39.5139268  52.0912538  63.2077923  40.8167402  51.6456651  62.5785005
  43.7527949  51.8309409  67.1412068  44.5288339  52.3205861  67.4136685
  43.0276083  52.2567463  67.5983937  46.1900508  52.5437028  68.1986008
  46.7844999  52.3032764  67.4879317  46.2627092  51.8244158  68.8259545
  28.4097664  66.3870639  68.5129173  28.2752132  65.6271040  67.9467171
  27.9929726  67.1111539  68.0457962  39.5456627  61.5707562  57.5205749
  40.2492477  61.7757565  58.1363404  38.8219275  62.1384324  57.7854832
  40.3754437  57.3217424  63.6408019  40.3189638  57.7785975  62.8015651
  40.9282779  56.5608108  63.4630862  44.1859243  53.1107155  64.4658138
  43.9296177  52.7103791  65.2966346  43.5612111  53.8250949  64.3408277
  48.4971581  55.8503229  66.9729430  47.9371139  55.9196418  67.7460992
  47.8915084  55.6744213  66.2528926  31.5666789  67.2839956  68.7247616
  31.4499174  68.2285388  68.6226306  30.7459236  66.9813517  69.1133415
  41.4543324  62.0090092  59.5704209  42.2888928  61.5771290  59.3881683
  41.2927667  61.8372105  60.4981103  41.1089216  58.5122205  60.9360548
  41.0538020  58.3466476  59.9948992  40.4835271  59.2198238  61.0922738
  25.8981731  53.7490269  74.7621970  26.5440595  53.2389223  75.2509195
  25.6898882  54.4858951  75.3365395  38.4235123  60.8171117  80.2614111
  39.2926283  60.9911769  79.9000746  37.9441875  61.6365534  80.1389840
  34.4185342  48.0130314  60.5145866  34.4064011  48.9572154  60.6714137
  35.3108764  47.8300459  60.2205328  32.5921304  67.9368218  71.9403544
  33.4948550  67.9691828  72.2570039  32.3658674  67.0068669  71.9549880
  34.3474906  66.6899204  68.6013623  33.3970537  66.6901066  68.4877995
  34.6507392  65.9431939  68.0849658  38.2337461  44.6073090  64.7691803
  37.4669857  44.0531577  64.9148485  38.6448166  44.6794959  65.6305955
  30.2379222  50.8957886  78.8596984  31.1010684  50.5394691  79.0700309
  29.6644633  50.5571781  79.5472389  50.0827599  72.5259743  69.6659385
  50.7206009  72.4066490  68.9622725  49.9648442  73.4740587  69.7247338
  46.8917305  72.4787171  69.6020910  46.5535817  72.3628235  68.7141445
  47.7607074  72.0778336  69.5821916  42.7504121  74.3322647  65.5917801
  42.1868986  74.2412584  64.8234089  42.6356516  73.5122552  66.0720294
  40.2968553  75.8273839  68.4302021  41.0889845  75.4864663  68.0148321
  40.5365203  75.9368814  69.3504175  48.3303680  77.9993615  60.9032266
  47.6791660  78.5847695  60.5166280  49.1248043  78.5299810  60.9627303
  42.2559307  75.0882752  61.3019400  43.0290183  74.5411739  61.1632276
  42.6084706  75.9527001  61.5133862  45.0200556  73.7935983  71.0987659
  45.6164129  73.5692005  70.3844622  45.0775528  73.0520728  71.7013107
  44.5925585  71.2475418  58.9337850  44.8451105  70.7256939  58.1721313
  43.6550144  71.0841564  59.0364534  49.6368868  70.2511196  66.7412593
  50.4231957  69.8330620  66.3903010  49.9007572  71.1557289  66.9094242
  49.8078945  75.6884047  61.4401250  49.1724778  75.7618673  62.1522155
  49.4776351  76.2777646  60.7620329  55.0377295  70.1886430  67.6445572
  55.7702467  69.6185646  67.8783401  54.2816650  69.8008030  68.0852078
  44.3121874  73.1503524  61.1362225  44.1958132  72.4748427  61.8043309
  44.4224133  72.6635898  60.3194378  46.6553414  72.6113671  64.8408914
  46.2911622  72.0844292  65.5521836  47.5120530  72.2212140  64.6675400
  52.5602715  63.9008004  72.1040181  52.2286040  64.7703415  71.8801396
  51.9648328  63.5844288  72.7834211  46.2958901  67.6403571  59.8370263
  46.4633304  68.5083807  60.2040734  46.1056070  67.8030853  58.9131552
  42.5046716  72.5534347  67.5372798  41.5797213  72.4210561  67.7450489
  42.7531129  73.3328566  68.0342740  52.4531378  68.6203090  69.1833531
  51.5448256  68.5518498  68.8892292  52.4018974  69.0975035  70.0115356
  46.2748122  70.0961228  60.8216930  46.1547747  70.5418279  61.6602410
  45.5800711  70.4446546  60.2630468  39.8655527  72.1967620  68.3716587
  39.9947908  72.4502099  69.2855998  39.1852978  72.7895328  68.0521242
  44.0355014  82.8664870  64.4707061  43.9579044  83.8172695  64.5495542
  43.4316658  82.5210743  65.1281987  54.3193025  66.8219528  70.9611405
  53.6767405  67.1152062  70.3151199  53.8147953  66.7072449  71.7664601
  51.9733188  70.5682702  61.6497264  52.8851045  70.8010088  61.4744961
  51.4642836  71.1519746  61.0872342  46.6105026  69.9279936  72.6592113
  47.4566221  70.3519350  72.8026762  46.5503664  69.2713560  73.3530676
  49.3169163  66.7440738  69.8987125  48.4553642  67.0421991  70.1903862
  49.3431598  66.9611136  68.9668157  46.1330733  75.2882928  66.3060930
  46.5969078  75.5670631  65.5165553  45.8687531  74.3866373  66.1234021
  43.0254814  74.8354410  69.2440694  43.5956171  75.2641678  68.6058178
  43.6162926  74.5536994  69.9424879  45.0699619  71.4106080  63.1150495
  45.7723662  71.8627124  63.5824422  44.7380247  70.7689899  63.7430389
  38.8124953  69.6689633  68.4167629  38.0224007  69.9247162  67.9407740
  39.3036200  70.4837971  68.5219670  40.7639698  70.0334212  65.3751106
  39.9670861  70.1452907  65.8934601  40.5365290  70.3720865  64.5091996
  37.0962656  69.9220124  70.8482620  37.3470694  70.8067133  71.1140196
  37.6322204  69.7424725  70.0757712  46.3093383  78.2247023  63.1912601
  46.1739058  79.0698559  63.6197448  46.8503196  78.4266301  62.4278534
  39.7622781  75.7422461  63.7640526  40.2747301  76.5365711  63.9146090
  40.4145494  75.0448752  63.6974127  41.5717665  78.8588217  65.8463279
  41.7484294  79.7806182  65.6584263  42.3674499  78.5446637  66.2757659
  40.8570022  70.9052849  75.7225442  40.7423537  70.0038107  76.0232541
  40.0014540  71.1516546  75.3710259  49.6585847  61.7477585  71.7211494
  49.3150116  62.6379227  71.6450605  50.0264809  61.5579243  70.8581079
  37.7271697  74.0711115  64.5400096  38.5646919  74.4808124  64.3233804
  37.9049965  73.1310558  64.5100290  49.6236130  71.7386196  60.2283929
  49.1082753  72.5090801  60.4672317  49.3513438  71.0651332  60.8516991
  47.2083241  66.5835897  65.2869168  46.3524837  66.1942747  65.1074806
  47.6210192  66.6627858  64.4268953  48.7382387  64.1182240  69.6860727
  48.2347183  64.0812375  68.8728533  49.0312994  65.0274983  69.7457384
  44.9825273  64.2020970  68.6926909  45.8478270  64.0063779  68.3332799
  45.0502782  63.9731322  69.6196266  54.5970404  74.4918551  62.1637103
  53.8199846  74.1529710  61.7192265  55.2761885  74.4971174  61.4892068
  49.4122433  69.6113288  62.0543710  49.1072568  69.9259437  62.9053854
  50.3652875  69.6894708  62.0971043  47.8568865  75.7703511  63.7036664
  47.3290226  75.0356271  63.3909902  47.3556367  76.5478188  63.4576633
  42.5887592  66.4323178  66.0643276  43.1631344  66.2098359  65.3316469
  43.1758575  66.5011872  66.8171877  51.6467169  72.3196905  66.8707652
  52.1599051  72.9526896  67.3729362  52.2968393  71.7198100  66.5051012
  42.9157179  68.4627639  60.0839161  42.0794492  68.8002325  60.4048436
  42.7761949  68.3276619  59.1466298  44.8910260  63.3064427  64.7918345
  44.2374672  62.9913444  64.1674960  44.8490734  62.6840167  65.5178168
  46.0021465  73.5883722  56.7071637  45.0948527  73.3572975  56.9062786
  46.4992497  72.7921341  56.8945619  48.9089544  82.2981229  59.6268324
  48.2351242  82.6012926  60.2353281  49.2955366  83.1010309  59.2773781
  48.1248000  69.7946360  69.1165993  47.2070562  70.0161307  68.9587681
  48.5408144  69.8692671  68.2577700  48.9083048  71.1937776  64.2468673
  49.6554867  71.7059173  63.9375795  49.1774638  70.8721829  65.1073067
  47.1809698  73.6896317  61.2295628  46.2720917  73.4055349  61.3268097
  47.2104782  74.1095395  60.3698934  52.4128966  77.3002906  64.9986795
  51.9591293  76.4593816  65.0551986  51.7822932  77.9364304  65.3361575
  51.3561885  68.2294892  66.2287463  50.6184642  67.7172278  66.5597705
  51.6088659  67.7895274  65.4170739  50.8561905  79.1379403  65.9336613
  51.1484879  79.6984460  65.2148979  51.3660525  79.4307964  66.6889772
  51.4573513  61.0071144  66.8229232  51.7632389  60.1468508  66.5355147
  52.1826117  61.5988764  66.6228226  37.7497869  71.4101831  65.2110830
  37.5522268  70.8171191  64.4861896  37.1944533  71.1054041  65.9286769
  45.7294592  71.3024937  67.3305423  45.7843202  70.3498774  67.2547899
  44.9185794  71.4584376  67.8146721  46.8785786  75.2305060  58.5683706
  46.4405216  74.5140919  58.1089343  47.6196227  75.4581175  58.0068798
  43.6686952  69.9201997  65.0895802  42.8554818  70.2196168  65.4960994
  44.1645946  69.5257686  65.8070284  45.8195530  79.9159754  67.0230066
  45.7771709  80.1420600  66.0938598  46.7358229  79.6823128  67.1715868
  54.9958901  73.5062257  64.6260025  54.8576799  73.6963853  63.6981214
  54.6395120  74.2681640  65.0828076  43.1601027  67.4920352  70.7057037
  43.8000406  67.3509112  70.0080000  42.3278557  67.2054866  70.3295639
  43.9361331  76.7922783  66.8192029  44.7301929  76.2973103  66.6174604
  43.2253023  76.2640646  66.4559735  40.2444094  70.9365865  62.8951782
  39.3141682  70.8750320  63.1121744  40.3401566  70.4141817  62.0988423
  40.1629643  67.4620677  65.4830024  40.4236461  68.3766011  65.3739184
  40.9846816  66.9945120  65.6326636  41.6354569  68.8758435  72.6528848
  42.3077622  68.6675797  72.0041497  40.8084355  68.6780521  72.2134080
  47.5380141  65.5020376  74.6694509  46.8908056  66.2010325  74.5758985
  48.3081156  65.9356519  75.0370757  47.1080759  82.4660901  61.8415403
  47.2832515  81.9948945  62.6561025  46.4213547  83.0926668  62.0696664
  48.0637822  76.7433408  67.8878704  47.7287655  76.7034178  68.7836354
  47.5641768  76.0778123  67.4149114  42.0382066  72.1501038  73.4131285
  41.9001864  71.4181276  74.0142824  42.9486989  72.0609938  73.1315473
  50.9997014  74.0889442  58.1615764  50.3826184  73.3636270  58.0648816
  50.5313502  74.8498802  57.8182838  44.6664367  71.8620997  72.9014965
  45.3763985  71.2214189  72.8601583  44.6233675  72.1133892  73.8241146
  43.3793301  68.8486215  74.7210604  42.8430658  68.3976953  75.3732201
  42.7910009  68.9832124  73.9781069  42.7895560  68.3074866  57.2837068
  41.9125026  68.1863667  56.9199315  43.2653313  67.5160945  57.0315957
  34.3097700  73.0952026  67.3778575  34.9968740  72.7813756  66.7899590
  34.1545828  73.9993391  67.1045827  39.1132422  67.9842223  71.8063599
  39.0290611  67.3767892  71.0714009  38.2915128  68.4751241  71.8073095
  45.9759486  80.6601157  64.5299588  45.1927007  81.2022837  64.6237813
  46.6752231  81.1775136  64.9293830  49.2856136  66.4695786  67.1733794
  49.7824835  65.7165748  66.8534864  48.5143117  66.5060103  66.6077003
  50.3685916  75.2267473  64.7472217  49.4342195  75.3468936  64.5776922
  50.5462585  74.3239940  64.4832227  45.8691104  68.6113169  66.9005478
  45.4988892  68.0584209  67.5886384  46.3650197  68.0071303  66.3480479
  53.7558468  71.0684793  65.2822251  54.2218920  71.9012784  65.2082554
  54.2065968  70.6029774  65.9867510  51.8234699  77.4128614  62.2808403
  52.0994543  77.2985208  63.1902278  50.9539198  77.0146099  62.2420577
  51.7275130  63.4365380  69.3213153  50.8138210  63.6669606  69.4895360
  52.1568232  63.5203824  70.1727185  48.4588763  81.6614965  65.9241217
  48.6411157  80.8436621  66.3868969  49.2821749  81.8782657  65.4866107
  48.7930928  80.5883150  63.1856266  49.3218695  80.0775604  62.5726428
  49.0559148  80.2725680  64.0501799  39.2948021  78.6047019  70.9291599
  39.8801458  77.8590707  71.0619503  39.0972860  78.9150976  71.8128263
  42.1486676  81.6398266  65.9454041  41.4797052  82.1244394  65.4618082
  42.0099546  81.8867487  66.8597420  33.8865676  71.1752619  69.6496042
  33.9249775  70.6416210  70.4433160  33.3805969  70.6487825  69.0307019
  41.2656438  66.0217160  73.1458585  41.3297765  66.8831991  72.7335982
  41.2023558  65.4091161  72.4130943  40.7408711  68.0940292  76.7931619
  41.3680749  67.7117370  77.4069143  39.8836630  67.8754494  77.1587311
  37.5174253  69.9016721  62.7249974  37.8127694  68.9927400  62.6717027
  36.6162289  69.8804461  62.4030976  41.0468500  67.9772718  68.7077522
  40.3255086  68.5908686  68.5684996  41.8361756  68.5130483  68.6294168
  43.8494814  65.3127145  74.9818174  44.3729216  65.5589441  75.7444483
  43.6307147  66.1447179  74.5621311  39.2462095  67.5830819  62.8489299
  38.9174801  66.7028198  62.6664405  39.6001466  67.5278488  63.7365688
  48.4941674  79.2185722  67.3584284  48.3466636  78.2902429  67.5391854
  49.3195167  79.2405813  66.8741360  42.3603918  67.8703789  63.2164776
  42.6999991  68.3989710  62.4943385  42.8076039  68.2084195  63.9923343
  45.0547359  66.2540840  72.6667845  44.7144179  65.4548653  73.0688524
  44.3486365  66.5542550  72.0944678  45.7063831  63.3390152  71.1195168
  46.5289900  62.8650630  70.9974058  45.9501894  64.1180636  71.6193854
  44.3472065  66.3678411  61.4158069  45.0680428  66.7459663  60.9121786
  43.7237369  67.0867287  61.5193047  48.4903188  67.0723559  62.3516402
  48.7066803  67.9548197  62.0505230  48.0097255  66.6809773  61.6222044
  43.2302410  70.0309273  68.9287146  43.0846990  70.3449576  69.8211428
  42.7527613  70.6494173  68.3758045  45.0898792  67.0211821  68.9768036
  45.0760361  66.1252914  68.6400334  45.8071221  67.0282484  69.6106322
  46.9424923  67.4549161  71.0221163  46.6842701  68.3766232  71.0205494
  46.4109964  67.0579595  71.7121627  51.8871112  80.5599948  63.8011249
  52.0607989  79.9946371  63.0485101  52.3800003  81.3600843  63.6190738
  37.7048072  72.5714617  71.8674807  37.1601540  73.3474425  71.9995082
  38.5827422  72.9185422  71.7093929  44.4935688  65.9026201  64.2455606
  44.6151600  64.9742847  64.4446493  44.2037731  65.9164887  63.3333921
  47.3626879  63.5881111  67.3822326  47.3848576  63.6520445  66.4274305
  47.7794938  62.7485620  67.5762832  57.7410503  73.3236371  65.4201548
  58.1841649  72.5743696  65.0220672  56.8637013  73.3146507  65.0375280
  52.8746284  79.8766712  60.9008147  53.5697189  80.4973405  61.1195461
  53.2169435  79.0262064  61.1760525  38.4914094  71.6984513  74.7604964
  37.7495830  71.8467149  75.3469595  38.1706838  71.9592779  73.8971714
  54.7737708  77.3266418  62.4295478  55.2989032  77.6653691  61.7044798
  54.6860060  76.3913433  62.2458612  38.9370707  79.5849942  66.7915359
  39.7628727  79.2853714  66.4114002  38.5864759  78.8157565  67.2405148
  43.9052240  78.9376410  68.8613032  43.2832250  78.2747115  68.5615260
  44.5757107  78.9637542  68.1786680  37.1379312  77.5036269  67.7504292
  36.3011221  77.0758443  67.5688294  37.1102958  77.6968712  68.6875084
  43.4665747  77.4880334  62.3371493  43.6153868  78.1715798  61.6838166
  44.2732191  77.4685424  62.8520949  41.2218380  73.5145511  63.3432562
  40.9764422  72.6107841  63.5412772  41.3914295  73.5162662  62.4012040
  48.9115090  64.3869188  72.7257318  49.4297034  65.1230215  72.4003806
  48.5570223  64.6933181  73.5604077  40.4914028  69.2473869  60.8418723
  39.7983273  69.3218224  60.1858759  40.2465780  68.4834213  61.3640240
  49.1627684  60.8069470  68.2458214  49.4429438  60.1392659  68.8718641
  49.9478291  60.9998566  67.7332878  46.9661153  79.9828464  59.8083240
  46.3935120  80.6018651  59.3553712  47.5393947  80.5327826  60.3423162
  51.0550922  66.3142687  72.1789190  50.4600854  66.5947700  71.4835679
  50.7700619  66.8036588  72.9505931  50.1858413  80.2665614  60.9391823
  51.1189086  80.2011176  61.1424698  50.0981625  81.1021881  60.4806355
  52.8146429  79.5831485  57.8995770  52.7360061  79.2491348  58.7931528
  53.6356096  80.0753252  57.8987243  47.3507951  71.3189277  57.1499293
  48.2967056  71.1895485  57.2187711  46.9722196  70.5803939  57.6268721
  53.3229836  62.9845283  67.1126185  53.1254657  62.6760371  67.9969517
  53.9329541  63.7106922  67.2424115  45.5350869  69.2439253  57.0854178
  44.6282324  68.9472366  57.1616892  45.8126850  68.9469071  56.2188464
  36.4528809  70.5645617  67.5353225  36.1331593  69.7110925  67.2427599
  35.9062237  70.7794195  68.2911192  40.2308716  73.2808058  71.2522731
  40.4494726  74.2125165  71.2710765  40.6434490  72.9216032  72.0377535
  47.1512934  63.7876143  63.2398419  46.3413663  63.4423228  63.6153666
  47.8397351  63.4783687  63.8286031  49.0803483  62.8654190  64.8622716
  49.6334521  63.2849643  65.5212739  49.3173569  61.9389938  64.9045672
  44.3049653  66.1026188  57.2266157  45.1668817  66.4281087  57.4861975
  44.4899997  65.3157684  56.7139223  36.3217069  74.1848528  69.5046346
  35.6280540  73.7702481  68.9916301  37.0690060  74.2269065  68.9079765
  52.4582290  64.9754715  64.3701380  51.8780959  65.6339519  63.9879433
  52.1918222  64.1532060  63.9588798  50.9085856  64.3759773  66.5722701
  51.4085634  64.4876307  65.7637020  51.5521464  64.0720825  67.2123509
  38.2353811  74.1166782  67.3812361  38.2124500  74.2154469  66.4294244
  38.5454448  74.9631933  67.7029527  40.8941189  76.1742937  71.4958975
  41.8484443  76.1426879  71.4288907  40.6953713  75.7133561  72.3109201
  51.2407168  67.1354805  63.4257729  50.3533023  67.4204456  63.2077923
  51.6561157  66.9748569  62.5785005  54.5921704  67.1601326  67.1412068
  55.3682094  67.6497779  67.4136685  53.8669838  67.5859380  67.5983937
  57.0294262  67.8728946  68.1986008  57.6238753  67.6324681  67.4879317
  57.1020846  67.1536076  68.8259545  39.2491418  81.7162556  68.5129173
  39.1145886  80.9562957  67.9467171  38.8323480  82.4403456  68.0457962
  50.3850381  76.8999480  57.5205749  51.0886231  77.1049482  58.1363404
  49.6613030  77.4676242  57.7854832  51.2148191  72.6509341  63.6408019
  51.1583393  73.1077893  62.8015651  51.7676534  71.8900026  63.4630862
  55.0252997  68.4399073  64.4658138  54.7689932  68.0395709  65.2966346
  54.4005865  69.1542867  64.3408277  59.3365335  71.1795146  66.9729430
  58.7764893  71.2488336  67.7460992  58.7308838  71.0036131  66.2528926
  52.2937078  77.3382009  59.5704209  53.1282682  76.9063208  59.3881683
  52.1321421  77.1664023  60.4981103  51.9482971  73.8414122  60.9360548
  51.8931774  73.6758394  59.9948992  51.3229026  74.5490155  61.0922738
  36.7375486  69.0782187  74.7621970  37.3834349  68.5681141  75.2509195
  36.5292637  69.8150869  75.3365395  45.2579096  63.3422231  60.5145866
  45.2457766  64.2864071  60.6714137  46.1502518  63.1592377  60.2205328
  49.0731216  59.9365008  64.7691803  48.3063611  59.3823495  64.9148485
  49.4841921  60.0086877  65.6305955  55.4319339  86.5767336  58.9337850
  55.6844860  86.0548857  58.1721313  54.4943898  86.4133481  59.0364534
  57.1352656  82.9695489  59.8370263  57.3027058  83.8375725  60.2040734
  56.9449825  83.1322770  58.9131552  53.7550934  83.7919556  60.0839161
  52.9188246  84.1294243  60.4048436  53.6155703  83.6568536  59.1466298
  55.7304014  78.6356344  64.7918345  55.0768427  78.3205362  64.1674960
  55.6884489  78.0132085  65.5178168  56.8415219  88.9175639  56.7071637
  55.9342281  88.6864893  56.9062786  57.3386251  88.1213259  56.8945619
  51.0837849  86.2657782  62.8951782  50.1535437  86.2042238  63.1121744
  51.1795321  85.7433735  62.0988423  53.6289314  83.6366784  57.2837068
  52.7518780  83.5155585  56.9199315  54.1047067  82.8452862  57.0315957
  48.3568008  85.2308639  62.7249974  48.6521449  84.3219318  62.6717027
  47.4556044  85.2096379  62.4030976  50.0855849  82.9122737  62.8489299
  49.7568556  82.0320116  62.6664405  50.4395220  82.8570405  63.7365688
  55.1865820  81.6970328  61.4158069  55.9074182  82.0751581  60.9121786
  54.5631124  82.4159205  61.5193047  55.3329443  81.2318119  64.2455606
  55.4545354  80.3034765  64.4446493  55.0431485  81.2456805  63.3333921
  51.3307782  84.5765787  60.8418723  50.6377027  84.6510142  60.1858759
  51.0859534  83.8126130  61.3640240  58.1901706  86.6481195  57.1499293
  59.1360811  86.5187403  57.2187711  57.8115951  85.9095856  57.6268721
  56.3744623  84.5731171  57.0854178  55.4676078  84.2764284  57.1616892
  56.6520604  84.2760989  56.2188464  57.9906689  79.1168061  63.2398419
  57.1807417  78.7715146  63.6153666  58.6791106  78.8075604  63.8286031
  55.1443408  81.4318106  57.2266157  56.0062572  81.7573004  57.4861975
  55.3293752  80.6449602  56.7139223  56.0972851  78.6714149  60.5145866
  56.0851520  79.6155989  60.6714137  56.9896272  78.4884295  60.2205328
  59.9124970  75.2656926  64.7691803  59.1457366  74.7115413  64.9148485
  60.3235675  75.3378795  65.6305955  17.5646337   3.5446112  56.3904692
  18.2024747   3.4252860  55.6868032  17.4467180   4.4926956  56.4492644
  14.3736043   3.4973540  56.3266217  14.0354555   3.3814605  55.4386752
  15.2425811   3.0964705  56.3067223  15.8122418   9.0179984  47.6277573
  15.1610397   9.6034065  47.2411586  16.6066780   9.5486179  47.6872610
   9.7378045   6.1069122  48.0264707  10.5108921   5.5598109  47.8877583
  10.0903444   6.9713371  48.2379168  12.5019294   4.8122352  57.8232966
  13.0982866   4.5878375  57.1089929  12.5594266   4.0707098  58.4258414
  17.1187605   1.2697566  53.4657900  17.9050695   0.8516989  53.1148317
  17.3826310   2.1743658  53.6339548  17.2897683   6.7070416  48.1646557
  16.6543516   6.7805043  48.8767462  16.9595089   7.2964015  47.4865636
  22.5196033   1.2072799  54.3690879  23.2521204   0.6372016  54.6028708
  21.7635388   0.8194400  54.8097384  14.1372152   3.6300041  51.5654221
  13.7730359   3.1030662  52.2767142  14.9939268   3.2398510  51.3920706
  16.5352972   7.1206919  58.2281400  16.2353695   8.0231958  58.1197207
  16.1904032   6.8539103  59.0802553  19.9350116  -0.3610540  55.9078837
  19.0266994  -0.4295132  55.6137598  19.8837712   0.1161404  56.7360663
  11.5173752  13.8851240  51.1952368  11.4397782  14.8359065  51.2740848
  10.9135396  13.5397112  51.8527294  19.4551926   1.5869071  48.3742570
  20.3669782   1.8196458  48.1990268  18.9461573   2.1706115  47.8117649
  18.0621509   6.5694890  55.7656152  17.4330371   6.7340604  55.0632220
  17.6747171   6.9836499  56.5367116  21.9410740   7.5049327  53.1200516
  21.2561779   7.8848229  52.5697549  22.0254590   8.1144654  53.8532463
  19.1961672   5.1509286  59.7195859  19.4078567   5.7941046  59.0430240
  19.1491420   4.3171603  59.2517789  13.6149470   6.3069298  53.0306237
  14.0787816   6.5857001  52.2410859  13.3506269   5.4052742  52.8479328
  10.5073551   5.8540779  55.9686000  11.0774909   6.2828048  55.3303485
  11.0981663   5.5723364  56.6670186  20.3107500   8.0281242  57.8918217
  21.1324944   7.6261429  57.6100898  20.3069903   7.9249476  58.8434332
  14.0764103   7.5765285  60.0478927  14.1408536   8.0385692  60.8837099
  13.3675027   6.9462650  60.1761237  28.4013493   4.3719990  54.2403188
  27.6477201   3.8027388  54.0847192  28.5361034   4.3382655  55.1873823
  13.7912121   9.2433393  49.9157907  13.6557796  10.0884928  50.3442755
  14.3321934   9.4452670  49.1523841   9.0536403   9.8774587  52.5708586
   9.2303032  10.7992552  52.3829569   9.8493237   9.5633006  53.0002965
  10.1767719  11.3952761  58.5718928  10.7275144  11.2669824  57.7995922
   9.3379195  11.6947650  58.2213821  17.5161836  10.1459759  62.0739651
  17.4980311  10.9668640  61.5819920  18.4381756  10.0213834  62.2989792
  17.1054867   2.7572566  46.9529236  16.5901491   3.5277170  47.1917623
  16.8332176   2.0837702  47.5762297  22.0789142   5.5104920  48.8882409
  21.3018584   5.1716080  48.4437571  22.7580622   5.5157543  48.2137374
  15.3387602   6.7889881  50.4281971  14.8108964   6.0542641  50.1155209
  14.8375105   7.5664557  50.1821939  20.3180448   4.9838902  55.5449017
  19.6604123   5.6738163  55.6329146  21.1220848   5.3735333  55.8883004
  19.1285907   3.3383274  53.5952959  19.6417789   3.9713266  54.0974669
  19.7787131   2.7384470  53.2296319  13.4840203   4.6070091  43.4316944
  12.5767264   4.3759345  43.6308093  13.9811235   3.8107711  43.6190926
  16.3908281  13.3167598  46.3513630  15.7169980  13.6199295  46.9598588
  16.7774103  14.1196679  46.0019087  16.3901786   2.2124145  50.9713980
  17.1373605   2.7245543  50.6621102  16.6593375   1.8908198  51.8318373
  14.6628436   4.7082686  47.9540934  13.7539655   4.4241719  48.0513404
  14.6923520   5.1281765  47.0944241  19.8947703   8.3189276  51.7232102
  19.4410031   7.4780186  51.7797292  19.2641670   8.9550674  52.0606882
  18.3380643  10.1565772  52.6581920  18.6303617  10.7170829  51.9394286
  18.8479263  10.4494333  53.4135079  14.3604524   6.2491430  45.2929013
  13.9223954   5.5327289  44.8334650  15.1014965   6.4767545  44.7314104
  13.3014268  10.9346123  53.7475373  13.2590447  11.1606970  52.8183905
  14.2176967  10.7009498  53.8961174  22.4777639   4.5248627  51.3505331
  22.3395537   4.7150223  50.4226521  22.1213857   5.2868010  51.8073382
  22.5047018   6.5925154  56.3616603  22.9383525   6.5000443  57.2099657
  23.2178599   6.5682654  55.7236619  11.4180069   7.8109152  53.5437336
  12.2120667   7.3159473  53.3419911  10.7071761   7.2827016  53.1805041
  16.2374913  10.1927248  57.8949703  16.2911935  10.7618184  58.6627419
  15.3689694  10.3629133  57.5303741  23.3662568   6.6348855  58.8949488
  23.5598458   7.5394665  59.1408763  23.2663186   6.1756274  59.7288073
  15.1963013   4.3587510  59.4536635  16.1255073   4.5098670  59.2805603
  14.7754043   4.4471531  58.5985282  13.9951345   8.3838174  57.2235173
  13.8562430   8.0156959  58.0961111  13.2065941   8.8985814  57.0519131
  14.5899497  13.4847271  48.5660709  14.7651252  13.0135314  49.3806332
  13.9032285  14.1113037  48.7941970  15.5456560   7.7619777  54.6124011
  15.2106392   7.7220547  55.5081661  15.0460505   7.0964493  54.1394421
  18.4815751   5.1075811  44.8861070  17.8644922   4.3822640  44.7894123
  18.0132240   5.8685172  44.5428145  20.1369883   9.8174720  62.5466851
  20.0782429   9.1333940  61.8797434  20.5389401  10.5593710  62.0947477
   9.1560582  16.6336634  55.3400570   9.3957180  17.2655158  56.0179588
   8.3129778  16.2824674  55.6265929  20.1387290   7.7814304  60.7780830
  19.2514069   7.4440226  60.9007229  20.7085841   7.0497335  61.0149596
  13.6688444  12.4415756  57.7442074  13.5958615  13.2470728  58.2561378
  13.2265837  12.6407722  56.9190095  13.4578223  11.6787526  51.2544895
  12.6745745  12.2209206  51.3483120  14.1570969  12.1961506  51.6539136
  24.6204631   3.1922521  55.5397392  24.6094507   4.0747237  55.1691325
  23.7522010   2.8394072  55.3451929  16.1287127  12.3402590  59.9000232
  16.8415099  12.9750055  59.8276134  15.6377156  12.4366456  59.0840234
  17.8504654   6.2453843  51.4717524  16.9160933   6.3655305  51.3022228
  18.0281323   5.3426310  51.2077534  21.2377206   2.0871162  52.0067558
  21.7037658   2.9199154  51.9327861  21.6884706   1.6216144  52.7112817
  11.1799041  10.0897034  60.7205803  11.8808500  10.7233517  60.8735197
  10.7094156  10.4311765  59.9601442  19.3053437   8.4314983  49.0053710
  19.5813281   8.3171578  49.9147584  18.4357935   8.0332468  48.9665883
  18.9800327   2.6441641  58.5458353  18.3271777   2.8917549  57.8910806
  19.3580707   1.8305779  58.2120831  15.9407501  12.6801334  52.6486524
  16.1229895  11.8622990  53.1114276  16.7640487  12.8969026  52.2111414
  16.2749666  11.6069519  49.9101572  16.8037433  11.0961974  49.2971734
  16.5377886  11.2912050  50.7747105   6.7766759   9.6233389  57.6536906
   7.3620196   8.8777077  57.7864810   6.5791597   9.9337345  58.5373570
   9.6305414  12.6584636  52.6699348   8.9615789  13.1430764  52.1863388
   9.4918284  12.9053857  53.5842727  13.7710683  14.6928380  59.2682007
  14.3228991  14.8560001  60.0331092  14.1116876  15.2832817  58.5962031
  16.9079070  12.6410355  56.2545689  16.7830209  11.8400095  55.7456634
  17.5658161  13.1356548  55.7659659  18.9713978  10.4419375  57.8825239
  18.0244314  10.3224726  57.8103565  19.3196751   9.5541873  57.9651500
  15.9760412  10.2372091  54.0829591  15.8285374   9.3088799  54.2637161
  16.8013905  10.2592182  53.5986666  19.5794533  11.0600650  55.1694464
  20.5041081  10.8543511  55.0318915  19.4109837  10.8117051  56.0783805
  19.3689850  11.5786318  50.5256555  19.5426727  11.0132740  49.7730408
  19.8618741  12.3787212  50.3436045  25.2229241   4.3422741  52.1446855
  25.6660387   3.5930066  51.7465978  24.3455751   4.3332877  51.7620587
  20.3565022  10.8953082  47.6253453  21.0515927  11.5159775  47.8440768
  20.6988172  10.0448433  47.9005831  22.2556445   8.3452788  49.1540784
  22.7807769   8.6840060  48.4290104  22.1678798   7.4099803  48.9703919
  13.9176494  12.2586861  61.2830661  14.2263620  12.0136008  62.1553360
  14.7151976  12.4633500  60.7949531  13.9397106  14.4124771  53.5136037
  13.5002096  13.9201149  54.2068894  14.6905223  13.8697738  53.2728113
   6.4189445  10.6036312  53.5160665   7.2447465  10.3040084  53.1359309
   6.0683497   9.8343934  53.9650454  11.3870978   9.9562780  55.5858339
  10.7650987   9.2933485  55.2860567  12.0575845   9.9823912  54.9031987
  21.9450351   8.9785691  64.4591982  21.1545895   8.9609830  63.9196482
  21.7083706   9.5173985  65.2141019  22.0648226   5.8278158  61.7724711
  22.1146231   5.6628165  62.7140234  21.9562150   4.9605417  61.3822592
  10.9484485   8.5066703  49.0616800  11.0972605   9.1902168  48.4083472
  11.7550929   8.4871793  49.5766255  23.5666423   8.2475099  62.0166732
  23.2751232   8.6105080  62.8530193  22.9538555   7.5342107  61.8380064
  24.7662106   5.8127979  54.5369302  25.6008997   6.2517783  54.7006863
  24.9021234   5.3366632  53.7177548  21.8153611   3.3707714  60.4846790
  22.2907733   3.5635360  59.6765642  20.8919177   3.4266900  60.2390174
  14.4479891  11.0014834  46.5328547  13.8753858  11.6205021  46.0799019
  15.0212684  11.5514195  47.0668469  20.5155280   0.2473474  58.7175096
  21.4672703   0.3471571  58.7387320  20.3458731  -0.5448258  59.2273180
  17.6677150  11.2851984  47.6637129  18.6007824  11.2197545  47.8670005
  17.5800363  12.1208251  47.2051662  20.2965167  10.6017854  44.6241077
  20.2178799  10.2677718  45.5176835  21.1174834  11.0939622  44.6232549
  22.9943358   3.4679593  57.8317395  22.9619678   2.5295594  58.0177079
  23.6043982   3.5463630  57.0983220  23.1437847   0.2590637  57.8775679
  22.6276895  -0.5250906  57.6905608  24.0277795  -0.0690646  58.0422198
  28.8119908   4.5295600  56.9723432  29.5423297   4.2680888  57.5331136
  28.2026854   3.7924322  57.0125500  26.8935205   2.6703463  57.5697883
  26.1668369   2.5359428  56.9614375  26.4782492   2.9780291  58.3754602
  22.0740442  -1.8212304  53.8657374  22.8500832  -1.3315852  54.1381991
  21.3488576  -1.3954250  54.3229244  24.5113000  -1.1084685  54.9231315
  25.1057491  -1.3488949  54.2124623  24.5839584  -1.8277554  55.5504851
   6.7310156  12.7348926  55.2374480   6.5964624  11.9749327  54.6712478
   6.3142218  13.4589826  54.7703269  17.8669119   7.9185850  44.2451055
  18.5704969   8.1235852  44.8608711  17.1431768   8.4862611  44.5100139
  18.6966929   3.6695711  50.3653325  18.6402131   4.1264262  49.5260958
  19.2495272   2.9086395  50.1876168  22.5071735  -0.5414557  51.1903445
  22.2508669  -0.9417922  52.0211653  21.8824603   0.1729237  51.0653584
  26.8184073   2.1981516  53.6974736  26.2583631   2.2674705  54.4706298
  26.2127576   2.0222501  52.9774233   9.8879282  13.6318243  55.4492923
   9.7711666  14.5763676  55.3471613   9.0671728  13.3291805  55.8378722
  19.7755816   8.3568379  46.2949515  20.6101420   7.9249577  46.1126990
  19.6140159   8.1850392  47.2226410  19.4301708   4.8600492  47.6605855
  19.3750512   4.6944763  46.7194299  18.8047764   5.5676525  47.8168044
  10.9133796  14.2846505  58.6648851  11.8161043  14.3170115  58.9815346
  10.6871166  13.3546956  58.6795187  12.6687398  13.0377491  55.3258930
  11.7183029  13.0379353  55.2123302  12.9719884  12.2910226  54.8094964
  25.6949581  19.9800310  62.2852422  25.6838221  19.5853108  61.4132926
  25.8570220  19.2466382  62.8786194  18.6181045  22.1752126  55.1547328
  19.4102337  21.8342951  54.7393627  18.8577695  22.2847101  56.0749481
  22.4156842  22.7637421  61.2331606  22.1246708  23.6683052  61.1178273
  23.0513826  22.8053949  61.9475676  23.3413049  20.1414270  57.8232966
  23.9376621  19.9170292  57.1089929  23.3988020  19.3999015  58.4258414
  27.9581360  16.5989484  53.4657900  28.7444449  16.1808907  53.1148317
  28.2220064  17.5035576  53.6339548  33.3589787  16.5364717  54.3690879
  34.0914959  15.9663934  54.6028708  32.6029143  16.1486317  54.8097384
  30.8815207  10.2486291  58.8285487  30.5498532  11.1181702  58.6046702
  30.2860821   9.9322575  59.5079518  24.6171394  13.9881858  46.5615570
  24.7845796  14.8562095  46.9286041  24.4268563  14.1509140  45.6376859
  20.8259208  18.9012634  54.2618104  19.9009705  18.7688848  54.4695796
  21.0743622  19.6806853  54.7588047  30.7743871  14.9681377  55.9078837
  29.8660748  14.8996786  55.6137598  30.7231466  15.4453322  56.7360663
  18.1868019  18.5445907  55.0961893  18.3160401  18.7980386  56.0101305
  17.5065471  19.1373615  54.7766548  24.8484736  16.3871023  63.8513735
  24.0718071  16.9464943  63.8416599  25.4875299  16.8727806  64.3728605
  32.6405517  13.1697816  57.6856711  31.9979897  13.4630349  57.0396506
  32.1360446  13.0550736  58.4909908  30.2945681  16.9160989  48.3742570
  31.2063537  17.1488376  48.1990268  29.7855328  17.4998033  47.8117649
  23.1031109  19.1956476  63.4131702  23.8445793  19.7341520  63.1366525
  22.3968094  19.8222765  63.5703253  24.9317518  16.2758223  59.3837420
  25.7778714  16.6997637  59.5272069  24.8716156  15.6191848  60.0775983
  28.0816964  13.9362592  61.0418594  27.8377896  14.6904652  60.5052869
  28.3576894  14.3147939  61.8765841  27.6381655  13.0919025  56.6232431
  26.7766135  13.3900278  56.9149169  27.6644090  13.3089424  55.6913464
  21.3467306  21.1832697  55.9686000  21.9168663  21.6119965  55.3303485
  21.9375418  20.9015282  56.6670186  21.8392472  16.3496124  64.2147011
  21.2091133  17.0312405  64.4482408  21.7328560  16.2379206  63.2700150
  17.1337445  16.0167920  55.1412936  16.3436499  16.2725449  54.6653046
  17.6248692  16.8316258  55.2464976  19.0852190  16.3812500  52.0996412
  18.2883354  16.4931194  52.6179908  18.8577783  16.7199152  51.2337303
  24.9157858  22.9057203  60.0478927  24.9802290  23.3677610  60.8837099
  24.2068782  22.2754568  60.1761237  15.4175148  16.2698411  57.5727926
  15.6683186  17.1545421  57.8385502  15.9534696  16.0903012  56.8003018
  24.0341176  12.0674769  64.1692519  24.7750890  12.6681922  64.0896982
  24.2659099  11.3252407  63.6110562  19.1782514  17.2531137  62.4470749
  19.0636029  16.3516394  62.7477848  18.3227032  17.4994833  62.0955565
  26.2574352  25.1948877  64.0458249  25.8138206  24.4085255  63.7279154
  26.9191566  25.3828027  63.3802140  21.0161473  26.7244678  58.5718928
  21.5668898  26.5961742  57.7995922  20.1772949  27.0239567  58.2213821
  24.8128644  22.9895806  62.9163159  25.3456981  22.2284094  62.6862467
  24.2842725  22.6969458  63.6587314  27.9798339   8.0955872  58.4456801
  27.6362609   8.9857514  58.3695911  28.3477302   7.9057530  57.5826386
  16.0484190  20.4189403  51.2645403  16.8859412  20.8286411  51.0479111
  16.2262457  19.4788845  51.2345597  25.5295733  12.9314184  52.0114474
  24.6737329  12.5421034  51.8320113  25.9422685  13.0106145  51.1514260
  27.0594880  10.4660527  56.4106034  26.5559675  10.4290663  55.5973839
  27.3525486  11.3753270  56.4702691  23.3037765  10.5499257  55.4172216
  24.1690762  10.3542066  55.0578105  23.3715274  10.3209609  56.3441573
  32.9182896  20.8396838  48.8882409  32.1412339  20.5007997  48.4437571
  33.5974377  20.8449461  48.2137374  20.9100084  12.7801465  52.7888583
  21.4843836  12.5576646  52.0561776  21.4971067  12.8490160  53.5417184
  21.2369672  14.8105926  46.8084468  20.4006984  15.1480613  47.1293743
  21.0974441  14.6754906  45.8711605  23.2122752   9.6542714  51.5163652
  22.5587165   9.3391731  50.8920267  23.1703226   9.0318454  52.2423475
  26.4460493  16.1424647  55.8411300  25.5283054  16.3639594  55.6832988
  26.8620636  16.2170958  54.9823007  27.2295540  17.5416063  50.9713980
  27.9767359  18.0537460  50.6621102  27.4987130  17.2200116  51.8318373
  29.6774377  14.5773179  52.9532769  28.9397134  14.0650566  53.2843012
  29.9301151  14.1373561  52.1416046  29.7786005   7.3549431  53.5474538
  30.0844882   6.4946795  53.2600454  30.5038610   7.9467052  53.3473532
  16.0710361  17.7580118  51.9356136  15.8734761  17.1649479  51.2107203
  15.5157025  17.4532328  52.6532075  24.0507085  17.6503224  54.0550730
  24.1055694  16.6977061  53.9793206  23.2398287  17.8062664  54.5392028
  21.9899444  16.2680284  51.8141108  21.1767310  16.5674455  52.2206301
  22.4858439  15.8735973  52.5315591  33.3171393  19.8540545  51.3505331
  33.1789292  20.0442141  50.4226521  32.9607612  20.6159927  51.8073382
  21.4813519  13.8398640  57.4302343  22.1212899  13.6987399  56.7325307
  20.6491050  13.5533153  57.0540945  22.2573823  23.1401070  53.5437336
  23.0514422  22.6451390  53.3419911  21.5465516  22.6118933  53.1805041
  18.5656587  17.2844152  49.6197089  17.6354175  17.2228607  49.8367051
  18.6614059  16.7620105  48.8233730  18.4842136  13.8098965  52.2075330
  18.7448953  14.7244298  52.0984491  19.3059308  13.3423407  52.3571943
  19.9567061  15.2236722  59.3774155  20.6290114  15.0154084  58.7286804
  19.1296848  15.0258808  58.9379387  25.8592633  11.8498663  61.3939816
  25.2120548  12.5488612  61.3004292  26.6293648  12.2834807  61.7616064
  29.2671431  22.1147515  64.4690369  29.1156937  21.8858067  63.5520453
  29.2576110  23.0718116  64.4821714  20.3594558  18.4979325  60.1376592
  20.2214356  17.7659564  60.7388131  21.2699482  18.4088225  59.8560780
  22.9876859  18.2099284  59.6260272  23.6976477  17.5692476  59.5846890
  22.9446167  18.4612179  60.5486452  21.7005793  15.1964502  61.4455911
  21.1643150  14.7455241  62.0977507  21.1122501  15.3310411  60.7026375
  19.9954336  31.9628551  55.3400570  20.2350935  32.5947076  56.0179588
  19.1523533  31.6116591  55.6265929  21.1108052  14.6553153  44.0082375
  20.2337518  14.5341954  43.6444621  21.5865805  13.8639232  43.7561263
  12.6310192  19.4430313  54.1023882  13.3181232  19.1292043  53.5144897
  12.4758321  20.3471678  53.8291133  17.4344914  14.3320510  58.5308905
  17.3503103  13.7246179  57.7959315  16.6127621  14.8229528  58.5318402
  27.6068628  12.8174073  53.8979101  28.1037328  12.0644036  53.5780171
  26.8355609  12.8538390  53.3322310  24.1903597  14.9591456  53.6250785
  23.8201384  14.4062497  54.3131691  24.6862689  14.3549590  53.0725785
  32.0770960  17.4163080  52.0067558  32.5431412  18.2491071  51.9327861
  32.5278461  16.9508061  52.7112817  22.0192795  25.4188951  60.7205803
  22.7202255  26.0525434  60.8735197  21.5487910  25.7603683  59.9601442
  30.0487623   9.7843667  56.0458459  29.1350703  10.0147894  56.2140666
  30.4780724   9.8682111  56.8972492  25.8681654  18.7153370  65.0324391
  25.1922291  18.6147499  65.7026766  26.6909288  18.5592584  65.4960388
  17.6160513  24.9525306  57.6536906  18.2013950  24.2068994  57.7864810
  17.4185352  25.2629263  58.5373570  12.2078168  17.5230907  56.3741349
  12.2462268  16.9894497  57.1678467  11.7018461  16.9966112  55.7552326
  19.5868930  12.3695447  59.8703891  19.6510257  13.2310278  59.4581289
  19.5236051  11.7569449  59.1376250  19.0621203  14.4418580  63.5176925
  19.6893242  14.0595657  64.1314450  18.2049122  14.2232782  63.8832618
  15.8386746  16.2495009  49.4495280  16.1340187  15.3405687  49.3962334
  14.9374781  16.2282748  49.1276283  19.3680993  14.3251005  55.4322829
  18.6467578  14.9386973  55.2930302  20.1574248  14.8608770  55.3539475
  22.1707306  11.6605432  61.7063481  22.6941708  11.9067728  62.4689790
  21.9519639  12.4925467  61.2866618  17.5674587  13.9309106  49.5734605
  17.2387293  13.0506485  49.3909711  17.9213958  13.8756775  50.4610995
  20.6816410  14.2182076  49.9410083  21.0212483  14.7467997  49.2188691
  21.1288531  14.5562482  50.7168650  23.3759851  12.6019127  59.3913151
  23.0356672  11.8026940  59.7933831  22.6698858  12.9020838  58.8189984
  24.0276323   9.6868439  57.8440474  24.8502392   9.2128918  57.7219365
  24.2714387  10.4658923  58.3439160  22.6684558  12.7156698  48.1403376
  23.3892920  13.0937951  47.6367093  22.0449862  13.4345575  48.2438354
  26.8115680  13.4201847  49.0761708  27.0279295  14.3026485  48.7750536
  26.3309748  13.0288060  48.3467350  21.5514902  16.3787560  55.6532453
  21.4059483  16.6927863  56.5456734  21.0740105  16.9972460  55.1003351
  23.4111285  13.3690108  55.7013342  23.3972853  12.4731201  55.3645640
  24.1283713  13.3760772  56.3351628  25.2637415  13.8027448  57.7466470
  25.0055193  14.7244519  57.7450800  24.7322456  13.4057883  58.4366934
  16.0260564  18.9192904  58.5920114  15.4814032  19.6952712  58.7240388
  16.9039914  19.2663709  58.4339235  22.8148181  12.2504488  50.9700913
  22.9364092  11.3221134  51.1691800  22.5250223  12.2643174  50.0579228
  25.6839371   9.9359399  54.1067632  25.7061068   9.9998732  53.1519612
  26.1007430   9.0963907  54.3008139  16.8126586  18.0462801  61.4850271
  16.0708322  18.1945436  62.0714901  16.4919330  18.3071066  60.6217020
  24.7570248  27.5878779  61.2830661  25.0657375  27.3427926  62.1553360
  25.5545731  27.7925417  60.7949531  17.2583200  25.9328229  53.5160665
  18.0841219  25.6332001  53.1359309  16.9077252  25.1635852  53.9650454
  22.2264733  25.2854698  55.5858339  21.6044742  24.6225403  55.2860567
  22.8969600  25.3115829  54.9031987  15.4591805  23.8514556  54.4749599
  14.6223713  23.4236730  54.2933600  15.4315450  24.0446999  55.4120390
  22.2989260  13.7636486  65.1790845  22.3477416  14.6398608  64.7968615
  22.8411774  13.2213879  64.6062488  32.9041981  21.1570075  61.7724711
  32.9539986  20.9920083  62.7140234  32.7955904  20.2897334  61.3822592
  30.1945743  17.1401003  63.0884017  31.0955606  17.0007468  62.7968015
  30.2693718  17.3055458  64.0282195  24.5288549  14.5167858  61.9337204
  23.6591858  14.8101424  61.6619792  24.7648029  15.1008303  62.6544467
  27.2327582  10.7347475  59.4502624  27.7509526  11.4708502  59.1249113
  26.8782715  11.0411468  60.2849383  18.8126520  15.5952156  47.5664030
  18.1195765  15.6696511  46.9104066  18.5678272  14.8312500  48.0885547
  27.4840177   7.1547757  54.9703521  27.7641930   6.4870947  55.5963947
  28.2690784   7.3476853  54.4578185  29.3763414  12.6620975  58.9034497
  28.7813347  12.9425987  58.2080985  29.0913111  13.1514876  59.6751238
  33.9831601  15.5882555  57.8775679  33.4670650  14.8041011  57.6905608
  34.8671550  15.2601271  58.0422198  31.6442328   9.3323570  53.8371491
  31.4467149   9.0238658  54.7214823  32.2542034  10.0585209  53.9669421
  25.5559136  21.7185310  65.3345257  26.4762146  21.8963909  65.5285303
  25.5208719  20.7741356  65.1824956  14.7741301  16.9123904  54.2598531
  14.4544086  16.0589212  53.9672905  14.2274729  17.1272482  55.0156498
  18.5521209  19.6286345  57.9768038  18.7707218  20.5603453  57.9956071
  18.9646983  19.2694319  58.7622842  25.4725427  10.1354430  49.9643726
  24.6626155   9.7901515  50.3398972  26.1609843   9.8261974  50.5531338
  27.4015975   9.2132477  51.5868023  27.9547013   9.6327930  52.2458046
  27.6386061   8.2868225  51.6290979  23.4249074  15.2019551  67.3670787
  23.3245801  16.1513908  67.2982878  23.2070616  14.8737790  66.4946857
  22.6262145  12.4504476  43.9511464  23.4881309  12.7759374  44.2107281
  22.8112490  11.6635972  43.4384530  14.6429561  20.5326815  56.2291653
  13.9493033  20.1180768  55.7161607  15.3902552  20.5747352  55.6325072
  30.7794782  11.3233002  51.0946687  30.1993451  11.9817806  50.7124739
  30.5130715  10.5010347  50.6834104  29.2298348  10.7238060  53.2968007
  29.7298127  10.8354594  52.4882326  29.8733956  10.4199113  53.9368816
  23.2880344  18.6316689  66.1835848  22.8047426  19.4317050  66.3899737
  23.3741283  18.6424634  65.2303292  16.5566304  20.4645069  54.1057668
  16.5336992  20.5632756  53.1539551  16.8666940  21.3110220  54.4274834
  19.2153682  22.5221224  58.2204282  20.1696935  22.4905167  58.1534214
  19.0166205  22.0611848  59.0354508  19.8053064  21.0922340  60.7875080
  20.6245953  21.5866419  60.8109917  20.0789871  20.1754308  60.7592647
  29.5619660  13.4833093  50.1503035  28.6745515  13.7682743  49.9323230
  29.9773649  13.3226856  49.3030312  32.9134196  13.5079614  53.8657374
  33.6894586  13.9976066  54.1381991  32.1882330  13.9337668  54.3229244
  35.3506755  14.2207233  54.9231315  35.9451245  13.9802969  54.2124623
  35.4233338  13.5014363  55.5504851  17.5703910  28.0640844  55.2374480
  17.4358378  27.3041245  54.6712478  17.1535973  28.7881744  54.7703269
  33.3465490  14.7877360  51.1903445  33.0902424  14.3873996  52.0211653
  32.7218358  15.5021154  51.0653584  20.7273036  28.9610161  55.4492923
  20.6105420  29.9055593  55.3471613  19.9065482  28.6583722  55.8378722
  15.0587978  15.4260474  61.4867277  15.7046842  14.9159428  61.9754502
  14.8505129  16.1629156  62.0610702  27.5841370  22.4941322  66.9859417
  28.4532530  22.6681974  66.6246052  27.1048122  23.3135738  66.8635147
  23.5791588   9.6900519  47.2391173  23.5670258  10.6342359  47.3959444
  24.4715010   9.5070664  46.9450634  21.7527550  29.6138423  58.6648851
  22.6554797  29.6462033  58.9815346  21.5264920  28.6838874  58.6795187
  27.3943708   6.2843295  51.4937110  26.6276104   5.7301782  51.6393792
  27.8054413   6.3565164  52.3551261  33.1961261  44.5435075  51.1952368
  33.1185291  45.4942900  51.2740848  32.5922905  44.1980948  51.8527294
  39.4180203  36.6677534  62.0103863  39.8263559  36.2259945  61.2658495
  38.6957464  36.0930162  62.2638056  38.9210718  29.2654509  61.0418594
  38.6771650  30.0196570  60.5052869  39.1970649  29.6439857  61.8765841
  35.7551612  38.2349121  60.0478927  35.8196045  38.6969528  60.8837099
  35.0462536  37.6046485  60.1761237  50.0801002  35.0303826  54.2403188
  49.3264710  34.4611224  54.0847192  50.2148543  34.9966490  55.1873823
  31.9566970  25.9808808  66.5772263  31.5633915  25.4275006  67.2519907
  32.7733110  26.2919386  66.9678780  37.0968106  40.5240795  64.0458249
  36.6531961  39.7377173  63.7279154  37.7585320  40.7119945  63.3802140
  39.1949345  40.8043594  62.0739651  39.1767820  41.6252475  61.5819920
  40.1169265  40.6797670  62.2989792  35.6522399  38.3187724  62.9163159
  36.1850735  37.5576012  62.6862467  35.1236480  38.0261376  63.6587314
  37.9162422  40.8511083  57.8949703  37.9699444  41.4202020  58.6627419
  37.0477203  41.0212968  57.5303741  40.1065185  37.4439433  64.4690369
  39.9550692  37.2149984  63.5520453  40.0969865  38.4010034  64.4821714
  41.8157392  40.4758555  62.5466851  41.7569938  39.7917775  61.8797434
  42.2176910  41.2177545  62.0947477  30.8348091  47.2920469  55.3400570
  31.0744689  47.9238993  56.0179588  29.9917287  46.9408509  55.6265929
  41.8174799  38.4398139  60.7780830  40.9301578  38.1024061  60.9007229
  42.3873350  37.7081170  61.0149596  35.3475953  43.0999591  57.7442074
  35.2746124  43.9054563  58.2561378  34.9053346  43.2991557  56.9190095
  37.8074636  42.9986426  59.9000232  38.5202608  43.6333890  59.8276134
  37.3164665  43.0950291  59.0840234  37.6195010  43.3385170  52.6486524
  37.8017404  42.5206826  53.1114276  38.4427996  43.5552862  52.2111414
  36.7075409  34.0445287  65.0324391  36.0316046  33.9439417  65.7026766
  37.5303043  33.8884501  65.4960388  31.3092923  43.3168471  52.6699348
  30.6403298  43.8014599  52.1863388  31.1705793  43.5637692  53.5842727
  35.4498192  45.3512215  59.2682007  36.0016500  45.5143836  60.0331092
  35.7904385  45.9416653  58.5962031  40.3009066  40.1773472  65.1230661
  40.8448970  40.7903431  64.6285616  39.7195911  40.7353051  65.6397674
  38.5866579  43.2994190  56.2545689  38.4617718  42.4983930  55.7456634
  39.2445670  43.7940384  55.7659659  40.6501487  41.1003211  57.8825239
  39.7031823  40.9808562  57.8103565  40.9984260  40.2125709  57.9651500
  41.2582042  41.7184485  55.1694464  42.1828590  41.5127347  55.0318915
  41.0897346  41.4700887  56.0783805  35.5964003  42.9170697  61.2830661
  35.9051129  42.6719843  62.1553360  36.3939485  43.1217335  60.7949531
  35.6184615  45.0708606  53.5136037  35.1789605  44.5784985  54.2068894
  36.3692732  44.5281574  53.2728113  43.6237860  39.6369527  64.4591982
  42.8333404  39.6193665  63.9196482  43.3871215  40.1757820  65.2141019
  43.7435735  36.4861993  61.7724711  43.7933740  36.3212000  62.7140234
  43.6349659  35.6189252  61.3822592  41.0339498  32.4692921  63.0884017
  41.9349361  32.3299386  62.7968015  41.1087472  32.6347376  64.0282195
  45.2453932  38.9058934  62.0166732  44.9538741  39.2688915  62.8530193
  44.6326064  38.1925943  61.8380064  50.4907417  35.1879436  56.9723432
  51.2210806  34.9264724  57.5331136  49.8814363  34.4508158  57.0125500
  36.3952891  37.0477228  65.3345257  37.3155900  37.2255827  65.5285303
  36.3602474  36.1033273  65.1824956  28.4097665  43.3932761  55.2374480
  28.2752133  42.6333162  54.6712478  27.9929727  44.1173661  54.7703269
  38.4235125  37.8233239  66.9859417  39.2926284  37.9973892  66.6246052
  37.9441876  38.6427656  66.8635147  32.5921305  44.9430340  58.6648851
  33.4948552  44.9753951  58.9815346  32.3658675  44.0130791  58.6795187
  47.3737090  50.6384145  62.2852422  47.3625730  50.2436943  61.4132926
  47.5357729  49.9050218  62.8786194  44.0944351  53.4221257  61.2331606
  43.8034217  54.3266888  61.1178273  44.7301335  53.4637784  61.9475676
  49.0534236  53.1082672  58.2281400  48.7534959  54.0107711  58.1197207
  48.7085295  52.8414856  59.0802553  39.8655528  49.2029743  55.0961893
  39.9947910  49.4564222  56.0101305  39.1852980  49.7957451  54.7766548
  46.5272245  47.0454858  63.8513735  45.7505579  47.6048778  63.8416599
  47.1662808  47.5311641  64.3728605  44.7818618  49.8540312  63.4131702
  45.5233302  50.3925355  63.1366525  44.0755603  50.4806600  63.5703253
  50.2573957  51.9969452  62.0103863  50.6657313  51.5551862  61.2658495
  49.5351219  51.4222079  62.2638056  46.6105027  46.9342059  59.3837420
  47.4566223  47.3581472  59.5272069  46.5503665  46.2775683  60.0775983
  49.7604473  44.5946427  61.0418594  49.5165405  45.3488488  60.5052869
  50.0364403  44.9731775  61.8765841  43.5179981  47.0079960  64.2147011
  42.8878642  47.6896241  64.4482408  43.4116069  46.8963041  63.2700150
  38.8124954  46.6751756  55.1412936  38.0224008  46.9309284  54.6653046
  39.3036201  47.4900094  55.2464976  40.7639699  47.0396335  52.0996412
  39.9670863  47.1515029  52.6179908  40.5365291  47.3782987  51.2337303
  46.5945367  53.5641038  60.0478927  46.6589799  54.0261445  60.8837099
  45.8856291  52.9338403  60.1761237  37.0962657  46.9282246  57.5727926
  37.3470695  47.8129256  57.8385502  37.6322205  46.7486848  56.8003018
  42.7960724  41.3100726  66.5772263  42.4027670  40.7566924  67.2519907
  43.6126865  41.6211304  66.9678780  45.7128685  42.7258605  64.1692519
  46.4538399  43.3265758  64.0896982  45.9446608  41.9836242  63.6110562
  40.8570023  47.9114972  62.4470749  40.7423538  47.0100229  62.7477848
  40.0014541  48.1578669  62.0955565  47.9361861  55.8532712  64.0458249
  47.4925715  55.0669091  63.7279154  48.5979075  56.0411863  63.3802140
  42.6948982  57.3828514  58.5718928  43.2456407  57.2545577  57.7995922
  41.8560458  57.6823403  58.2213821  50.0343099  56.1335512  62.0739651
  50.0161574  56.9544393  61.5819920  50.9563019  56.0089587  62.2989792
  46.4916153  53.6479642  62.9163159  47.0244490  52.8867930  62.6862467
  45.9630234  53.3553293  63.6587314  37.7271699  51.0773238  51.2645403
  38.5646921  51.4870246  51.0479111  37.9049966  50.1372680  51.2345597
  42.5887593  43.4385300  52.7888583  43.1631345  43.2160482  52.0561776
  43.1758576  43.5073995  53.5417184  51.4573514  38.0133267  53.5474538
  51.7632391  37.1530630  53.2600454  52.1826119  38.6050887  53.3473532
  37.7497870  48.4163953  51.9356136  37.5522270  47.8233314  51.2107203
  37.1944534  48.1116164  52.6532075  49.2661165  47.3905944  60.6456002
  49.6210553  47.6177417  61.5050468  49.9133296  47.7224321  60.0233258
  43.1601028  44.4982475  57.4302343  43.8000408  44.3571234  56.7325307
  42.3278559  44.2116988  57.0540945  48.7556177  56.1803001  57.8949703
  48.8093199  56.7493937  58.6627419  47.8870958  56.3504886  57.5303741
  40.2444096  47.9427987  49.6197089  39.3141684  47.8812443  49.8367051
  40.3401568  47.4203940  48.8233730  40.1629645  44.4682800  52.2075330
  40.4236462  45.3828133  52.0984491  40.9846817  44.0007243  52.3571943
  41.6354570  45.8820557  59.3774155  42.3077623  45.6737919  58.7286804
  40.8084356  45.6842643  58.9379387  50.9458940  52.7731350  64.4690369
  50.7944446  52.5441902  63.5520453  50.9363619  53.7301952  64.4821714
  47.7144276  50.3463263  59.4536635  48.6436336  50.4974423  59.2805603
  47.2935306  50.4347284  58.5985282  46.5132608  54.3713927  57.2235173
  46.3743694  54.0032712  58.0961111  45.7247204  54.8861567  57.0519131
  48.0637823  53.7495530  54.6124011  47.7287656  53.7096300  55.5081661
  47.5641769  53.0840246  54.1394421  42.0382067  49.1563160  60.1376592
  41.9001865  48.4243399  60.7388131  42.9486991  49.0672060  59.8560780
  44.6664368  48.8683120  59.6260272  45.3763986  48.2276312  59.5846890
  44.6233676  49.1196014  60.5486452  52.6551147  55.8050473  62.5466851
  52.5963693  55.1209693  61.8797434  53.0570665  56.5469463  62.0947477
  43.3793302  45.8548337  61.4455911  42.8430659  45.4039076  62.0977507
  42.7910010  45.9894246  60.7026375  41.6741845  62.6212387  55.3400570
  41.9138444  63.2530911  56.0179588  40.8311042  62.2700427  55.6265929
  52.6568554  53.7690057  60.7780830  51.7695333  53.4315979  60.9007229
  53.2267105  53.0373088  61.0149596  34.3097701  50.1014149  54.1023882
  34.9968741  49.7875879  53.5144897  34.1545830  51.0055513  53.8291133
  39.1132423  44.9904345  58.5308905  39.0290612  44.3830015  57.7959315
  38.2915129  45.4813363  58.5318402  46.1869707  58.4291509  57.7442074
  46.1139879  59.2346481  58.2561378  45.7447100  58.6283475  56.9190095
  49.2856137  43.4757909  53.8979101  49.7824837  42.7227871  53.5780171
  48.5143118  43.5122225  53.3322310  48.6468391  58.3278343  59.9000232
  49.3596363  58.9625808  59.8276134  48.1558419  58.4242209  59.0840234
  43.6980304  56.0772787  60.7205803  44.3989764  56.7109270  60.8735197
  43.2275419  56.4187518  59.9601442  47.5469163  49.3737205  65.0324391
  46.8709800  49.2731334  65.7026766  48.3696797  49.2176419  65.4960388
  39.2948022  55.6109142  57.6536906  39.8801459  54.8652830  57.7864810
  39.0972861  55.9213098  58.5373570  33.8865677  48.1814742  56.3741349
  33.9249777  47.6478333  57.1678467  33.3805970  47.6549947  55.7552326
  46.2891946  60.6804133  59.2682007  46.8410254  60.8435754  60.0331092
  46.6298140  61.2708570  58.5962031  41.2656439  43.0279282  59.8703891
  41.3297766  43.8894113  59.4581289  41.2023560  42.4153284  59.1376250
  40.7408712  45.1002415  63.5176925  41.3680751  44.7179492  64.1314450
  39.8836631  44.8816617  63.8832618  51.1402820  55.5065390  65.1230661
  51.6842724  56.1195348  64.6285616  50.5589665  56.0644969  65.6397674
  37.5174255  46.9078844  49.4495280  37.8127696  45.9989522  49.3962334
  36.6162290  46.8866584  49.1276283  41.0468502  44.9834841  55.4322829
  40.3255087  45.5970808  55.2930302  41.8361757  45.5192605  55.3539475
  43.8494815  42.3189267  61.7063481  44.3729217  42.5651564  62.4689790
  43.6307148  43.1509302  61.2866618  42.3603919  44.8765912  49.9410083
  42.6999992  45.4051833  49.2188691  42.8076040  45.2146318  50.7168650
  45.0547360  43.2602962  59.3913151  44.7144181  42.4610775  59.7933831
  44.3486366  43.5604673  58.8189984  43.2302411  47.0371395  55.6532453
  43.0846992  47.3511698  56.5456734  42.7527614  47.6556296  55.1003351
  45.0898794  44.0273943  55.7013342  45.0760362  43.1315037  55.3645640
  45.8071222  44.0344607  56.3351628  46.9424924  44.4611283  57.7466470
  46.6842702  45.3828354  57.7450800  46.4109965  44.0641718  58.4366934
  37.7048073  49.5776740  58.5920114  37.1601541  50.3536548  58.7240388
  38.5827423  49.9247544  58.4339235  38.4914095  48.7046636  61.4850271
  37.7495831  48.8529271  62.0714901  38.1706839  48.9654902  60.6217020
  46.4357757  58.2462614  61.2830661  46.7444884  58.0011761  62.1553360
  47.2333239  58.4509253  60.7949531  38.9370708  56.5912065  53.5160665
  39.7628728  56.2915837  53.1359309  38.5864760  55.8219687  53.9650454
  43.9052242  55.9438533  55.5858339  43.2832251  55.2809238  55.2860567
  44.5757109  55.9699665  54.9031987  37.1379314  54.5098391  54.4749599
  36.3011222  54.0820566  54.2933600  37.1102959  54.7030834  55.4120390
  43.9776769  44.4220321  65.1790845  44.0264925  45.2982444  64.7968615
  44.5199283  43.8797714  64.6062488  54.4631615  54.9661444  64.4591982
  53.6727159  54.9485583  63.9196482  54.2264969  55.5049738  65.2141019
  46.2076058  45.1751693  61.9337204  45.3379367  45.4685259  61.6619792
  46.4435538  45.7592138  62.6544467  40.4914029  46.2535991  47.5664030
  39.7983274  46.3280346  46.9104066  40.2465781  45.4896335  48.0885547
  61.3301172  50.5171353  56.9723432  62.0604560  50.2556641  57.5331136
  60.7208117  49.7800075  57.0125500  59.4116469  48.6579216  57.5697883
  58.6849632  48.5235181  56.9614375  58.9963756  48.9656045  58.3754602
  47.2346645  52.3769146  65.3345257  48.1549655  52.5547745  65.5285303
  47.1996228  51.4325191  65.1824956  36.4528810  47.5707739  54.2598531
  36.1331594  46.7173047  53.9672905  35.9062238  47.7856317  55.0156498
  40.2308718  50.2870180  57.9768038  40.4494727  51.2187288  57.9956071
  40.6434492  49.9278155  58.7622842  45.1036583  45.8603386  67.3670787
  45.0033310  46.8097743  67.2982878  44.8858125  45.5321625  66.4946857
  36.3217070  51.1910651  56.2291653  35.6280542  50.7764604  55.7161607
  37.0690061  51.2331187  55.6325072  44.9667853  49.2900525  66.1835848
  44.4834935  50.0900885  66.3899737  45.0528792  49.3008470  65.2303292
  38.2353813  51.1228905  54.1057668  38.2124501  51.2216592  53.1539551
  38.5454449  51.9694055  54.4274834  40.8941191  53.1805060  58.2204282
  41.8484444  53.1489002  58.1534214  40.6953714  52.7195683  59.0354508
  41.4840573  51.7506176  60.7875080  42.3033462  52.2450254  60.8109917
  41.7577380  50.8338144  60.7592647  39.2491419  58.7224679  55.2374480
  39.1145887  57.9625080  54.6712478  38.8323482  59.4465579  54.7703269
  36.7375487  46.0844309  61.4867277  37.3834351  45.5743263  61.9754502
  36.5292638  46.8212991  62.0610702  49.2628879  53.1525157  66.9859417
  50.1320039  53.3265809  66.6246052  48.7835631  53.9719574  66.8635147
  43.4315059  60.2722258  58.6648851  44.3342306  60.3045868  58.9815346
  43.2052429  59.3422709  58.6795187  41.0772978  43.2311927  65.5842291
  41.9404439  42.8748731  65.7945616  40.5038389  42.8925821  66.2717695
  60.9221355  64.8613783  56.3904692  61.5599765  64.7420530  55.6868032
  60.8042198  65.8094627  56.4492644  57.7311061  64.8141211  56.3266217
  57.3929573  64.6982276  55.4386752  58.6000829  64.4132376  56.3067223
  53.5897877  66.6676687  52.3163108  53.0262742  66.5766624  51.5479395
  53.4750272  65.8476592  52.7965600  58.2130844  65.9676063  62.2852422
  58.2019485  65.5728861  61.4132926  58.3751484  65.2342135  62.8786194
  51.1362309  68.1627879  55.1547328  51.9283601  67.8218704  54.7393627
  51.3758959  68.2722854  56.0749481  59.1697436  70.3347655  47.6277573
  58.5185415  70.9201736  47.2411586  59.9641798  70.8653850  47.6872610
  54.9338105  68.7513175  61.2331606  54.6427971  69.6558805  61.1178273
  55.5695090  68.7929702  61.9475676  55.8594312  66.1290023  57.8232966
  56.4557884  65.9046045  57.1089929  55.9169284  65.3874769  58.4258414
  60.6472701  68.0238087  48.1646557  60.0118534  68.0972714  48.8767462
  60.3170107  68.6131686  47.4865636  63.3996471  56.2362044  58.8285487
  63.0679796  57.1057455  58.6046702  62.8042084  55.9198328  59.5079518
  59.8927990  68.4374590  58.2281400  59.5928713  69.3399629  58.1197207
  59.5479050  68.1706773  59.0802553  50.7049283  64.5321660  55.0961893
  50.8341664  64.7856139  56.0101305  50.0246734  65.1249368  54.7766548
  54.8748770  75.2018910  51.1952368  54.7972800  76.1526735  51.2740848
  54.2710414  74.8564783  51.8527294  57.3666000  62.3746776  63.8513735
  56.5899334  62.9340696  63.8416599  58.0056563  62.8603559  64.3728605
  65.1586781  59.1573569  57.6856711  64.5161161  59.4506102  57.0396506
  64.6541709  59.0426489  58.4909908  62.8126944  62.9036742  48.3742570
  63.7244800  63.1364129  48.1990268  62.3036591  63.4873786  47.8117649
  55.6212372  65.1832229  63.4131702  56.3627057  65.7217273  63.1366525
  54.9149358  65.8098518  63.5703253  61.0967712  67.3261370  62.0103863
  61.5051068  66.8843780  61.2658495  60.3744973  66.7513997  62.2638056
  57.4498782  62.2633976  59.3837420  58.2959977  62.6873390  59.5272069
  57.3897420  61.6067601  60.0775983  61.4196527  67.8862560  55.7656152
  60.7905389  68.0508274  55.0632220  61.0322189  68.3004170  56.5367116
  65.2985758  68.8216998  53.1200516  64.6136797  69.2015899  52.5697549
  65.3829608  69.4312325  53.8532463  60.5998227  59.9238345  61.0418594
  60.3559159  60.6780405  60.5052869  60.8758158  60.3023692  61.8765841
  62.5536690  66.4676957  59.7195859  62.7653585  67.1108717  59.0430240
  62.5066438  65.6339274  59.2517789  56.9724488  67.6236968  53.0306237
  57.4362834  67.9024671  52.2410859  56.7081286  66.7220413  52.8479328
  53.8648569  67.1708450  55.9686000  54.4349927  67.5995718  55.3303485
  54.4556681  66.8891035  56.6670186  54.3573736  62.3371877  64.2147011
  53.7272397  63.0188158  64.4482408  54.2509824  62.2254959  63.2700150
  63.6682518  69.3448913  57.8918217  64.4899962  68.9429100  57.6100898
  63.6644921  69.2417147  58.8434332  57.4339121  68.8932956  60.0478927
  57.4983554  69.3553363  60.8837099  56.7250045  68.2630321  60.1761237
  47.9356411  62.2574164  57.5727926  48.1864450  63.1421174  57.8385502
  48.4715960  62.0778765  56.8003018  71.7588511  65.6887661  54.2403188
  71.0052219  65.1195059  54.0847192  71.8936052  65.6550326  55.1873823
  57.1487139  70.5601063  49.9157907  57.0132814  71.4052599  50.3442755
  57.6896952  70.7620341  49.1523841  53.6354479  56.6392643  66.5772263
  53.2421424  56.0858842  67.2519907  54.4520619  56.9503222  66.9678780
  52.4111421  71.1942258  52.5708586  52.5878049  72.1160222  52.3829569
  53.2068255  70.8800677  53.0002965  56.5522440  58.0550522  64.1692519
  57.2932153  58.6557675  64.0896982  56.7840363  57.3128160  63.6110562
  51.6963778  63.2406890  62.4470749  51.5817293  62.3392147  62.7477848
  50.8408295  63.4870586  62.0955565  58.7755615  71.1824630  64.0458249
  58.3319470  70.3961008  63.7279154  59.4372829  71.3703780  63.3802140
  53.5342737  72.7120431  58.5718928  54.0850162  72.5837495  57.7995922
  52.6954213  73.0115320  58.2213821  60.8736853  71.4627430  62.0739651
  60.8555329  72.2836311  61.5819920  61.7956774  71.3381505  62.2989792
  57.3309908  68.9771559  62.9163159  57.8638244  68.2159847  62.6862467
  56.8023989  68.6845211  63.6587314  60.4629885  64.0740236  46.9529236
  59.9476509  64.8444841  47.1917623  60.1907194  63.4005372  47.5762297
  65.4364159  66.8272591  48.8882409  64.6593602  66.4883750  48.4437571
  66.1155640  66.8325214  48.2137374  58.6962620  68.1057552  50.4281971
  58.1683982  67.3710311  50.1155209  58.1950123  68.8832228  50.1821939
  63.6755466  66.3006572  55.5449017  63.0179141  66.9905834  55.6329146
  64.4795866  66.6903004  55.8883004  62.4860925  64.6550945  53.5952959
  62.9992807  65.2880937  54.0974669  63.1362149  64.0552140  53.2296319
  59.7483299  74.6335269  46.3513630  59.0744998  74.9366966  46.9598588
  60.1349121  75.4364350  46.0019087  58.9641756  62.1300400  55.8411300
  58.0464317  62.3515347  55.6832988  59.3801900  62.2046711  54.9823007
  59.7476804  63.5291816  50.9713980  60.4948623  64.0413213  50.6621102
  60.0168393  63.2075869  51.8318373  63.2522721  69.6356946  51.7232102
  62.7985048  68.7947856  51.7797292  62.6216688  70.2718345  52.0606882
  61.6955661  71.4733443  52.6581920  61.9878635  72.0338500  51.9394286
  62.2054281  71.7662004  53.4135079  57.7179542  67.5659101  45.2929013
  57.2798972  66.8494959  44.8334650  58.4589983  67.7935215  44.7314104
  56.6589286  72.2513794  53.7475373  56.6165465  72.4774640  52.8183905
  57.5751985  72.0177169  53.8961174  60.1054920  62.7197862  60.6456002
  60.4604307  62.9469335  61.5050468  60.7527051  63.0516238  60.0233258
  65.8352657  65.8416298  51.3505331  65.6970555  66.0317894  50.4226521
  65.4788875  66.6035680  51.8073382  53.9994783  59.8274393  57.4302343
  54.6394162  59.6863152  56.7325307  53.1672313  59.5408906  57.0540945
  65.8622036  67.9092825  56.3616603  66.2958543  67.8168114  57.2099657
  66.5753617  67.8850325  55.7236619  54.7755087  69.1276823  53.5437336
  55.5695685  68.6327143  53.3419911  54.0646779  68.5994686  53.1805041
  59.5949931  71.5094919  57.8949703  59.6486953  72.0785855  58.6627419
  58.7264712  71.6796804  57.5303741  52.4748324  61.2112475  59.3774155
  53.1471378  61.0029837  58.7286804  51.6478111  61.0134561  58.9379387
  66.7237586  67.9516525  58.8949488  66.9173476  68.8562336  59.1408763
  66.6238204  67.4923944  59.7288073  61.7852694  68.1023268  64.4690369
  61.6338201  67.8733820  63.5520453  61.7757374  69.0593869  64.4821714
  58.5538031  65.6755181  59.4536635  59.4830091  65.8266340  59.2805603
  58.1329061  65.7639202  58.5985282  57.3526363  69.7005845  57.2235173
  57.2137448  69.3324630  58.0961111  56.5640959  70.2153485  57.0519131
  57.9474515  74.8014942  48.5660709  58.1226270  74.3302985  49.3806332
  57.2607303  75.4280708  48.7941970  58.9031578  69.0787448  54.6124011
  58.5681410  69.0388218  55.5081661  58.4035523  68.4132164  54.1394421
  52.8775822  64.4855078  60.1376592  52.7395620  63.7535317  60.7388131
  53.7880745  64.3963978  59.8560780  61.8390769  66.4243482  44.8861070
  61.2219940  65.6990310  44.7894123  61.3707258  67.1852842  44.5428145
  55.5058122  64.1975037  59.6260272  56.2157741  63.5568229  59.5846890
  55.4627431  64.4487932  60.5486452  63.4944901  71.1342391  62.5466851
  63.4357447  70.4501611  61.8797434  63.8964419  71.8761381  62.0947477
  54.2187056  61.1840255  61.4455911  53.6824413  60.7330994  62.0977507
  53.6303765  61.3186164  60.7026375  52.5135600  77.9504304  55.3400570
  52.7532198  78.5822829  56.0179588  51.6704796  77.5992344  55.6265929
  63.4962308  69.0981974  60.7780830  62.6089087  68.7607896  60.9007229
  64.0660859  68.3665006  61.0149596  49.9526178  60.3196263  58.5308905
  49.8684366  59.7121932  57.7959315  49.1308884  60.8105281  58.5318402
  57.0263462  73.7583427  57.7442074  56.9533633  74.5638398  58.2561378
  56.5840855  73.9575393  56.9190095  56.8153241  72.9955197  51.2544895
  56.0320763  73.5376877  51.3483120  57.5145987  73.5129176  51.6539136
  67.9779649  64.5090192  55.5397392  67.9669525  65.3914907  55.1691325
  67.1097028  64.1561743  55.3451929  59.4862145  73.6570261  59.9000232
  60.1990117  74.2917726  59.8276134  58.9952174  73.7534127  59.0840234
  61.2079672  67.5621514  51.4717524  60.2735951  67.6822976  51.3022228
  61.3856341  66.6593980  51.2077534  64.5952223  63.4038833  52.0067558
  65.0612676  64.2366824  51.9327861  65.0459724  62.9383814  52.7112817
  54.5374059  71.4064704  60.7205803  55.2383518  72.0401187  60.8735197
  54.0669174  71.7479436  59.9601442  62.6628455  69.7482654  49.0053710
  62.9388299  69.6339249  49.9147584  61.7932953  69.3500139  48.9665883
  62.3375345  63.9609312  58.5458353  61.6846795  64.2085219  57.8910806
  62.7155725  63.1473450  58.2120831  59.2982519  73.9969005  52.6486524
  59.4804913  73.1790661  53.1114276  60.1215505  74.2136697  52.2111414
  59.6324684  72.9237190  49.9101572  60.1612451  72.4129645  49.2971734
  59.8952904  72.6079720  50.7747105  58.3862918  64.7029123  65.0324391
  57.7103555  64.6023252  65.7026766  59.2090552  64.5468337  65.4960388
  50.1341777  70.9401059  57.6536906  50.7195214  70.1944747  57.7864810
  49.9366615  71.2505016  58.5373570  52.9880432  73.9752307  52.6699348
  52.3190807  74.4598434  52.1863388  52.8493302  74.2221527  53.5842727
  57.1285701  76.0096050  59.2682007  57.6804009  76.1727672  60.0331092
  57.4691894  76.6000488  58.5962031  52.1050194  58.3571200  59.8703891
  52.1691520  59.2186031  59.4581289  52.0417314  57.7445202  59.1376250
  51.5802466  60.4294333  63.5176925  52.2074505  60.0471410  64.1314450
  50.7230385  60.2108535  63.8832618  61.9796575  70.8357308  65.1230661
  62.5236479  71.4487266  64.6285616  61.3983420  71.3936886  65.6397674
  60.2654088  73.9578026  56.2545689  60.1405227  73.1567766  55.7456634
  60.9233179  74.4524219  55.7659659  62.3288996  71.7587046  57.8825239
  61.3819332  71.6392397  57.8103565  62.6771769  70.8709544  57.9651500
  54.6888570  57.6481185  61.7063481  55.2122971  57.8943481  62.4689790
  54.4700903  58.4801220  61.2866618  59.3335430  71.5539762  54.0829591
  59.1860392  70.6256470  54.2637161  60.1588923  71.5759853  53.5986666
  62.9369551  72.3768321  55.1694464  63.8616099  72.1711182  55.0318915
  62.7684855  72.1284722  56.0783805  55.8941115  58.5894880  59.3913151
  55.5537935  57.7902693  59.7933831  55.1880121  58.8896591  58.8189984
  57.7818679  59.7903201  57.7466470  57.5236457  60.7120272  57.7450800
  57.2503719  59.3933636  58.4366934  62.7264868  72.8953988  50.5256555
  62.9001745  72.3300411  49.7730408  63.2193759  73.6954883  50.3436045
  48.5441827  64.9068657  58.5920114  47.9995296  65.6828465  58.7240388
  49.4221177  65.2539462  58.4339235  68.5804259  65.6590411  52.1446855
  69.0235405  64.9097736  51.7465978  67.7030769  65.6500548  51.7620587
  63.7140040  72.2120753  47.6253453  64.4090945  72.8327445  47.8440768
  64.0563190  71.3616104  47.9005831  49.3307849  64.0338554  61.4850271
  48.5889585  64.1821189  62.0714901  49.0100594  64.2946819  60.6217020
  65.6131463  69.6620458  49.1540784  66.1382787  70.0007731  48.4290104
  65.5253816  68.7267474  48.9703919  57.2751512  73.5754532  61.2830661
  57.5838638  73.3303679  62.1553360  58.0726994  73.7801170  60.7949531
  57.2972124  75.7292442  53.5136037  56.8577114  75.2368820  54.2068894
  58.0480241  75.1865409  53.2728113  49.7764463  71.9203982  53.5160665
  50.6022483  71.6207754  53.1359309  49.4258515  71.1511605  53.9650454
  54.7445996  71.2730451  55.5858339  54.1226005  70.6101156  55.2860567
  55.4150863  71.2991582  54.9031987  47.9773068  69.8390309  54.4749599
  47.1404976  69.4112483  54.2933600  47.9496713  70.0322752  55.4120390
  54.8170524  59.7512239  65.1790845  54.8658679  60.6274361  64.7968615
  55.3593038  59.2089632  64.6062488  65.3025369  70.2953362  64.4591982
  64.5120913  70.2777501  63.9196482  65.0658724  70.8341656  65.2141019
  65.4223244  67.1445828  61.7724711  65.4721249  66.9795836  62.7140234
  65.3137168  66.2773087  61.3822592  54.3059503  69.8234374  49.0616800
  54.4547623  70.5069838  48.4083472  55.1125947  69.8039464  49.5766255
  62.7127007  63.1276756  63.0884017  63.6136870  62.9883221  62.7968015
  62.7874981  63.2931211  64.0282195  57.0469812  60.5043611  61.9337204
  56.1773121  60.7977177  61.6619792  57.2829292  61.0884056  62.6544467
  66.9241441  69.5642770  62.0166732  66.6326250  69.9272750  62.8530193
  66.3113572  68.8509778  61.8380064  68.1237124  67.1295650  54.5369302
  68.9584015  67.5685454  54.7006863  68.2596252  66.6534303  53.7177548
  65.1728629  64.6875384  60.4846790  65.6482751  64.8803031  59.6765642
  64.2494195  64.7434570  60.2390174  57.8054909  72.3182504  46.5328547
  57.2328876  72.9372692  46.0799019  58.3787702  72.8681866  47.0668469
  63.8730298  61.5641144  58.7175096  64.8247721  61.6639242  58.7387320
  63.7033749  60.7719413  59.2273180  61.8944678  58.6496728  58.9034497
  61.2994610  58.9301740  58.2080985  61.6094375  59.1390629  59.6751238
  61.0252168  72.6019655  47.6637129  61.9582842  72.5365216  47.8670005
  60.9375381  73.4375921  47.2051662  63.6540185  71.9185525  44.6241077
  63.5753817  71.5845388  45.5176835  64.4749852  72.4107293  44.6232549
  66.3518376  64.7847264  57.8317395  66.3194696  63.8463265  58.0177079
  66.9619000  64.8631301  57.0983220  66.5012865  61.5758308  57.8775679
  65.9851913  60.7916764  57.6905608  67.3852813  61.2477024  58.0422198
  72.1694926  65.8463271  56.9723432  72.8998315  65.5848559  57.5331136
  71.5601872  65.1091993  57.0125500  70.2510223  63.9871134  57.5697883
  69.5243387  63.8527099  56.9614375  69.8357510  64.2947962  58.3754602
  58.0740400  67.7061063  65.3345257  58.9943409  67.8839662  65.5285303
  58.0389983  66.7617109  65.1824956  51.0702472  65.6162098  57.9768038
  51.2888482  66.5479206  57.9956071  51.4828246  65.2570072  58.7622842
  55.9430337  61.1895304  67.3670787  55.8427064  62.1389661  67.2982878
  55.7251880  60.8613543  66.4946857  47.1610825  66.5202568  56.2291653
  46.4674296  66.1056521  55.7161607  47.9083816  66.5623105  55.6325072
  55.8061608  64.6192443  66.1835848  55.3228689  65.4192803  66.3899737
  55.8922547  64.6300387  65.2303292  49.0747567  66.4520822  54.1057668
  49.0518255  66.5508509  53.1539551  49.3848204  67.2985973  54.4274834
  51.7334945  68.5096977  58.2204282  52.6878199  68.4780920  58.1534214
  51.5347469  68.0487601  59.0354508  52.3234327  67.0798093  60.7875080
  53.1427216  67.5742172  60.8109917  52.5971135  66.1630061  60.7592647
  50.0885174  74.0516597  55.2374480  49.9539642  73.2916998  54.6712478
  49.6717236  74.7757497  54.7703269  61.2244137  69.2353520  44.2451055
  61.9279987  69.4403523  44.8608711  60.5006786  69.8030282  44.5100139
  62.0541947  64.9863382  50.3653325  61.9977149  65.4431933  49.5260958
  62.6070290  64.2254066  50.1876168  70.1759091  63.5149187  53.6974736
  69.6158649  63.5842376  54.4706298  69.5702594  63.3390171  52.9774233
  53.2454300  74.9485914  55.4492923  53.1286684  75.8931346  55.3471613
  52.4246746  74.6459475  55.8378722  63.1330834  69.6736049  46.2949515
  63.9676438  69.2417248  46.1126990  62.9715177  69.5018063  47.2226410
  62.7876726  66.1768163  47.6605855  62.7325530  66.0112434  46.7194299
  62.1622782  66.8844196  47.8168044  47.5769241  61.4136227  61.4867277
  48.2228105  60.9035181  61.9754502  47.3686393  62.1504909  62.0610702
  60.1022634  68.4817075  66.9859417  60.9713793  68.6557727  66.6246052
  59.6229385  69.3011491  66.8635147  54.2708814  75.6014176  58.6648851
  55.1736061  75.6337786  58.9815346  54.0446184  74.6714627  58.6795187
  56.0262416  74.3545162  55.3258930  55.0758047  74.3547024  55.2123302
  56.3294902  73.6077897  54.8094964  51.9166732  58.5603844  65.5842291
  52.7798194  58.2040649  65.7945616  51.3432143  58.2217739  66.2717695
  68.5704816  80.1433129  56.3266217  68.2323327  80.0274193  55.4386752
  69.4394584  79.7424294  56.3067223  64.4291631  81.9968605  52.3163108
  63.8656496  81.9058542  51.5479395  64.3144026  81.1768510  52.7965600
  61.9756063  83.4919797  55.1547328  62.7677355  83.1510621  54.7393627
  62.2152713  83.6014772  56.0749481  63.9346817  82.7528710  48.0264707
  64.7077693  82.2057697  47.8877583  64.2872216  83.6172959  48.2379168
  66.6988067  81.4581941  57.8232966  67.2951639  81.2337963  57.1089929
  66.7563038  80.7166686  58.4258414  66.2713095  78.9121376  45.6583157
  66.5238616  78.3902897  44.8966620  65.3337654  78.7487522  45.7609840
  71.3156378  77.9157154  53.4657900  72.1019467  77.4976578  53.1148317
  71.5795082  78.8203247  53.6339548  65.9909384  80.8149482  47.8607532
  65.8745642  80.1394385  48.5288616  66.1011644  80.3281856  47.0439685
  68.3340925  80.2759629  51.5654221  67.9699132  79.7490250  52.2767142
  69.1908041  79.8858098  51.3920706  74.2390225  71.5653962  58.8285487
  73.9073550  72.4349373  58.6046702  73.6435839  71.2490246  59.5079518
  67.9746412  75.3049529  46.5615570  68.1420814  76.1729765  46.9286041
  67.7843581  75.4676811  45.6376859  64.1834226  80.2180305  54.2618104
  63.2584723  80.0856519  54.4695796  64.4318640  80.9974524  54.7588047
  74.1318889  76.2849048  55.9078837  73.2235766  76.2164456  55.6137598
  74.0806484  76.7620993  56.7360663  67.9535633  77.7607186  47.5462236
  67.8335258  78.2064237  48.3847717  67.2588221  78.1092504  46.9875775
  61.5443037  79.8613578  55.0961893  61.6735419  80.1148057  56.0101305
  60.8640489  80.4541286  54.7766548  75.9980535  74.4865486  57.6856711
  75.3554915  74.7798019  57.0396506  75.4935464  74.3718407  58.4909908
  68.2892536  77.5925894  59.3837420  69.1353732  78.0165308  59.5272069
  68.2291174  76.9359518  60.0775983  70.9956673  74.4086695  56.6232431
  70.1341152  74.7067949  56.9149169  71.0219108  74.6257094  55.6913464
  64.7042324  82.5000368  55.9686000  65.2743681  82.9287636  55.3303485
  65.2950436  82.2182952  56.6670186  66.7487129  79.0752038  49.8395802
  67.4511172  79.5273082  50.3069728  66.4167757  78.4335857  50.4675695
  60.4912463  77.3335591  55.1412936  59.7011517  77.5893120  54.6653046
  60.9823710  78.1483929  55.2464976  62.4427208  77.6980170  52.0996412
  61.6458372  77.8098865  52.6179908  62.2152800  78.0366823  51.2337303
  58.7750166  77.5866082  57.5727926  59.0258204  78.4713091  57.8385502
  59.3109714  77.4070683  56.8003018  61.4410291  83.4068419  50.4885832
  61.9534811  84.2011669  50.6391397  62.0933004  82.7094710  50.4219434
  62.5357532  78.5698807  62.4470749  62.4211047  77.6684064  62.7477848
  61.6802050  78.8162504  62.0955565  71.3373357  69.4123543  58.4456801
  70.9937627  70.3025185  58.3695911  71.7052320  69.2225201  57.5826386
  59.4059208  81.7357073  51.2645403  60.2434430  82.1454082  51.0479111
  59.5837475  80.7956516  51.2345597  68.8870751  74.2481855  52.0114474
  68.0312347  73.8588705  51.8320113  69.2997703  74.3273816  51.1514260
  70.4169897  71.7828198  56.4106034  69.9134693  71.7458333  55.5973839
  70.7100504  72.6920941  56.4702691  66.6612783  71.8666928  55.4172216
  67.5265780  71.6709736  55.0578105  66.7290292  71.6377280  56.3441573
  71.0909943  77.2759246  48.7789017  70.7860079  77.5905395  49.6299160
  72.0440385  77.3540666  48.8216350  64.2675102  74.0969136  52.7888583
  64.8418854  73.8744317  52.0561776  64.8546085  74.1657830  53.5417184
  64.5944690  76.1273597  46.8084468  63.7582002  76.4648283  47.1293743
  64.4549459  75.9922577  45.8711605  66.5697770  70.9710385  51.5163652
  65.9162183  70.6559402  50.8920267  66.5278244  70.3486125  52.2423475
  67.6808975  81.2529680  43.4316944  66.7736037  81.0218933  43.6308093
  68.1780007  80.4567299  43.6190926  69.8035511  77.4592318  55.8411300
  68.8858072  77.6807265  55.6832988  70.2195654  77.5338629  54.9823007
  70.5870558  78.8583734  50.9713980  71.3342377  79.3705131  50.6621102
  70.8562148  78.5367787  51.8318373  73.0349395  75.8940850  52.9532769
  72.2972152  75.3818236  53.2843012  73.2876169  75.4541232  52.1416046
  73.1361023  68.6717102  53.5474538  73.4419900  67.8114466  53.2600454
  73.8613628  69.2634722  53.3473532  59.4285379  79.0747789  51.9356136
  59.2309779  78.4817149  51.2107203  58.8732043  78.7699999  52.6532075
  67.4082103  78.9670895  54.0550730  67.4630712  78.0144732  53.9793206
  66.5973305  79.1230334  54.5392028  65.3474462  77.5847955  51.8141108
  64.5342328  77.8842125  52.2206301  65.8433457  77.1903644  52.5315591
  64.8388537  75.1566310  57.4302343  65.4787917  75.0155070  56.7325307
  64.0066068  74.8700824  57.0540945  61.9231605  78.6011823  49.6197089
  60.9929193  78.5396278  49.8367051  62.0189077  78.0787775  48.8233730
  61.8417154  75.1266635  52.2075330  62.1023971  76.0411969  52.0984491
  62.6634326  74.6591078  52.3571943  63.3142079  76.5404393  59.3774155
  63.9865132  76.3321755  58.7286804  62.4871865  76.3426479  58.9379387
  69.2167651  73.1666334  61.3939816  68.5695566  73.8656283  61.3004292
  69.9868666  73.6002477  61.7616064  63.7169576  79.8146996  60.1376592
  63.5789374  79.0827234  60.7388131  64.6274500  79.7255896  59.8560780
  66.3451877  79.5266955  59.6260272  67.0551495  78.8860147  59.5846890
  66.3021185  79.7779850  60.5486452  65.0580811  76.5132173  61.4455911
  64.5218168  76.0622911  62.0977507  64.4697519  76.6478082  60.7026375
  64.4683070  75.9720824  44.0082375  63.5912536  75.8509625  43.6444621
  64.9440823  75.1806902  43.7561263  55.9885210  80.7597984  54.1023882
  56.6756250  80.4459714  53.5144897  55.8333339  81.6639349  53.8291133
  60.7919932  75.6488180  58.5308905  60.7078121  75.0413850  57.7959315
  59.9702638  76.1397199  58.5318402  70.9643646  74.1341744  53.8979101
  71.4612345  73.3811706  53.5780171  70.1930627  74.1706061  53.3322310
  67.5478615  76.2759127  53.6250785  67.1776402  75.7230167  54.3131691
  68.0437707  75.6717260  53.0725785  73.4062641  71.1011337  56.0458459
  72.4925721  71.3315564  56.2140666  73.8355742  71.1849782  56.8972492
  60.9735531  86.2692977  57.6536906  61.5588968  85.5236665  57.7864810
  60.7760370  86.5796934  58.5373570  55.5653186  78.8398577  56.3741349
  55.6037286  78.3062168  57.1678467  55.0593479  78.3133783  55.7552326
  62.9443948  73.6863118  59.8703891  63.0085275  74.5477949  59.4581289
  62.8811069  73.0737119  59.1376250  62.4196221  75.7586250  63.5176925
  63.0468260  75.3763328  64.1314450  61.5624140  75.5400452  63.8832618
  59.1961764  77.5662679  49.4495280  59.4915205  76.6573358  49.3962334
  58.2949799  77.5450419  49.1276283  62.7256011  75.6418676  55.4322829
  62.0042596  76.2554644  55.2930302  63.5149266  76.1776441  55.3539475
  65.5282324  72.9773102  61.7063481  66.0516726  73.2235399  62.4689790
  65.3094657  73.8093137  61.2866618  60.9249605  75.2476777  49.5734605
  60.5962311  74.3674156  49.3909711  61.2788976  75.1924446  50.4610995
  64.0391428  75.5349747  49.9410083  64.3787501  76.0635668  49.2188691
  64.4863549  75.8730153  50.7168650  66.7334869  73.9186798  59.3913151
  66.3931690  73.1194611  59.7933831  66.0273875  74.2188508  58.8189984
  67.3851341  71.0036110  57.8440474  68.2077410  70.5296588  57.7219365
  67.6289405  71.7826594  58.3439160  66.0259576  74.0324368  48.1403376
  66.7467938  74.4105621  47.6367093  65.4024880  74.7513245  48.2438354
  70.1690698  74.7369517  49.0761708  70.3854313  75.6194155  48.7750536
  69.6884766  74.3455731  48.3467350  64.9089920  77.6955231  55.6532453
  64.7634501  78.0095534  56.5456734  64.4315123  78.3140131  55.1003351
  66.7686303  74.6857779  55.7013342  66.7547871  73.7898872  55.3645640
  67.4858731  74.6928442  56.3351628  68.6212433  75.1195119  57.7466470
  68.3630211  76.0412189  57.7450800  68.0897474  74.7225553  58.4366934
  59.3835582  80.2360575  58.5920114  58.8389050  81.0120383  58.7240388
  60.2614932  80.5831380  58.4339235  66.1723199  73.5672159  50.9700913
  66.2939110  72.6388805  51.1691800  65.8825241  73.5810845  50.0579228
  69.0414389  71.2527069  54.1067632  69.0636086  71.3166402  53.1519612
  69.4582448  70.4131578  54.3008139  60.1701604  79.3630471  61.4850271
  59.4283340  79.5113107  62.0714901  59.8494348  79.6238737  60.6217020
  58.8166823  85.1682226  54.4749599  57.9798731  84.7404401  54.2933600
  58.7890468  85.3614670  55.4120390  62.9005891  81.1791469  50.0677869
  62.6551932  80.2753799  50.2658079  63.0701805  81.1808620  49.1257347
  70.5902600  72.0515146  59.4502624  71.1084544  72.7876173  59.1249113
  70.2357733  72.3579139  60.2849383  62.1701538  76.9119827  47.5664030
  61.4770783  76.9864182  46.9104066  61.9253290  76.1480170  48.0885547
  70.8415195  68.4715428  54.9703521  71.1216948  67.8038617  55.5963947
  71.6265802  68.6644524  54.4578185  72.7338432  73.9788645  58.9034497
  72.1388365  74.2593658  58.2080985  72.4488129  74.4682546  59.6751238
  69.0295462  78.9835235  43.8744600  69.9754566  78.8541443  43.9433018
  68.6509707  78.2449897  44.3514028  75.0017346  70.6491241  53.8371491
  74.8042167  70.3406329  54.7214823  75.6117052  71.3752880  53.9669421
  67.2138379  76.9085211  43.8099485  66.3069834  76.6118324  43.8862198
  67.4914360  76.6115029  42.9433771  58.1316319  78.2291575  54.2598531
  57.8119103  77.3756883  53.9672905  57.5849747  78.4440153  55.0156498
  61.9096227  80.9454016  57.9768038  62.1282236  81.8771123  57.9956071
  62.3222000  80.5861990  58.7622842  68.8300444  71.4522101  49.9643726
  68.0201173  71.1069186  50.3398972  69.5184861  71.1429645  50.5531338
  70.7590993  70.5300148  51.5868023  71.3122031  70.9495601  52.2458046
  70.9961079  69.6035896  51.6290979  65.9837163  73.7672146  43.9511464
  66.8456327  74.0927045  44.2107281  66.1687508  72.9803642  43.4384530
  58.0004579  81.8494486  56.2291653  57.3068051  81.4348439  55.7161607
  58.7477570  81.8915023  55.6325072  74.1369800  72.6400673  51.0946687
  73.5568469  73.2985477  50.7124739  73.8705733  71.8178017  50.6834104
  72.5873366  72.0405731  53.2968007  73.0873145  72.1522265  52.4882326
  73.2308974  71.7366783  53.9368816  59.9141322  81.7812740  54.1057668
  59.8912010  81.8800427  53.1539551  60.2241958  82.6277891  54.4274834
  62.5728700  83.8388895  58.2204282  63.5271953  83.8072837  58.1534214
  62.3741223  83.3779519  59.0354508  72.9194678  74.8000763  50.1503035
  72.0320533  75.0850414  49.9323230  73.3348667  74.6394527  49.3030312
  76.2709214  74.8247284  53.8657374  77.0469604  75.3143737  54.1381991
  75.5457348  75.2505338  54.3229244  58.4162996  76.7428145  61.4867277
  59.0621859  76.2327099  61.9754502  58.2080147  77.4796826  62.0610702
  66.9366606  71.0068189  47.2391173  66.9245276  71.9510029  47.3959444
  67.8290028  70.8238335  46.9450634  70.7518726  67.6010966  51.4937110
  69.9851122  67.0469453  51.6393792  71.1629431  67.6732835  52.3551261
  28.4040093  -4.1199848  43.1149999  29.0418503  -4.2393100  42.4113339
  28.2860936  -3.1719004  43.1737951  25.2129799  -4.1672419  43.0511523
  24.8748310  -4.2831355  42.1632058  26.0819567  -4.5681254  43.0312529
  25.6949582  -3.0137568  49.0097729  25.6838223  -3.4084769  48.1378233
  25.8570221  -3.7471495  49.6031500  26.6516173   1.3534025  34.3522879
  26.0004153   1.9388105  33.9656893  27.4460536   1.8840220  34.4117917
  20.5771800  -1.5576838  34.7510014  21.3502676  -2.1047851  34.6122889
  20.9297199  -0.6932589  34.9624475  22.4156843  -0.2300456  47.9576913
  22.1246709   0.6745175  47.8423579  23.0513827  -0.1883928  48.6720982
  23.3413050  -2.8523607  44.5478273  23.9376622  -3.0767585  43.8335235
  23.3988021  -3.5938862  45.1503720  28.1291438  -0.9575543  34.8891864
  27.4937271  -0.8840917  35.6012768  27.7988845  -0.3681945  34.2110943
  24.9765908  -4.0345919  38.2899528  24.6124115  -4.5615298  39.0012449
  25.8333024  -4.4247450  38.1166013  27.3746728  -0.5439040  44.9526707
  27.0747451   0.3585998  44.8442514  27.0297788  -0.8106857  45.8047859
  22.3567508   6.2205280  37.9197674  22.2791538   7.1713105  37.9986155
  21.7529152   5.8751152  38.5772601  28.5786450  -1.6552261  48.7349170
  28.9869806  -2.0969850  47.9903802  27.8563711  -2.2299633  48.9883363
  28.9015264  -1.0951070  42.4901459  28.2724127  -0.9305356  41.7877526
  28.5140926  -0.6809461  43.2612423  32.7804496  -0.1596632  39.8445822
  32.0955534   0.2202269  39.2942856  32.8648345   0.4498694  40.5777770
  30.0355428  -2.5136673  46.4441166  30.2472323  -1.8704913  45.7675547
  29.9885176  -3.3474357  45.9763096  24.4543226  -1.3576662  39.7551544
  24.9181572  -1.0788959  38.9656166  24.1900024  -2.2593218  39.5724634
  21.3467307  -1.8105181  42.6931307  21.9168664  -1.3817912  42.0548791
  21.9375419  -2.0922596  43.3915493  31.1501256   0.3635282  44.6163523
  31.9718699  -0.0384531  44.3346205  31.1463659   0.2603516  45.5679639
  24.9157859  -0.0880675  46.7724234  24.9802292   0.3739733  47.6082405
  24.2068783  -0.7183310  46.9006543  24.6305877   1.5787433  36.6403214
  24.4951552   2.4238969  37.0688062  25.1715689   1.7806711  35.8769148
  19.8930159   2.2128627  39.2953892  20.0696787   3.1346592  39.1074876
  20.6886992   1.8987046  39.7248272  26.2574353   2.2010999  50.7703556
  25.8138207   1.4147378  50.4524461  26.9191567   2.3890150  50.1047447
  21.0161474   3.7306801  45.2964235  21.5668900   3.6023864  44.5241228
  20.1772950   4.0301690  44.9459127  28.3555591   2.4813799  48.7984957
  28.3374067   3.3022680  48.3065226  29.2775511   2.3567875  49.0235098
  24.8128645  -0.0042071  49.6408466  25.3456982  -0.7653783  49.4107774
  24.2842727  -0.2968419  50.3832620  27.9448623  -4.9073394  33.6774543
  27.4295247  -4.1368789  33.9162930  27.6725932  -5.5808258  34.3007604
  32.9182897  -2.1541039  35.6127716  32.1412340  -2.4929880  35.1682878
  33.5974378  -2.1488416  34.9382681  26.1781358  -0.8756079  37.1527278
  25.6502720  -1.6103319  36.8400515  25.6768861  -0.0981402  36.9067246
  31.1574204  -2.6807058  42.2694324  30.4997879  -1.9907797  42.3574453
  31.9614603  -2.2910626  42.6128310  29.9679663  -4.3262686  40.3198266
  30.4811545  -3.6932694  40.8219975  30.6180887  -4.9261490  39.9541626
  24.3233958  -3.0575868  30.1562251  23.4161020  -3.2886615  30.3553400
  24.8204990  -3.8538249  30.3436232  27.2302037   5.6521639  33.0758937
  26.5563736   5.9553336  33.6843895  27.6167859   6.4550719  32.7264394
  27.2295542  -5.4521814  37.6959287  27.9767361  -4.9400417  37.3866409
  27.4987131  -5.7737762  38.5563680  25.5022192  -2.9563274  34.6786241
  24.5933411  -3.2404241  34.7758711  25.5317276  -2.5364195  33.8189548
  30.7341459   0.6543316  38.4477408  30.2803786  -0.1865774  38.5042599
  30.1035426   1.2904714  38.7852189  29.1774398   2.4919813  39.3827227
  29.4697373   3.0524870  38.6639592  29.6873019   2.7848374  40.1380386
  25.1998280  -1.4154530  32.0174319  24.7617709  -2.1318671  31.5579957
  25.9408720  -1.1878415  31.4559411  24.1408024   3.2700164  40.4720680
  24.0984202   3.4961010  39.5429212  25.0570722   3.0363538  40.6206481
  27.5873657  -6.2615769  47.3701309  27.9423045  -6.0344296  48.2295775
  28.2345789  -5.9297392  46.7478564  33.3171394  -3.1397333  38.0750638
  33.1789293  -2.9495737  37.1471827  32.9607613  -2.3777950  38.5318689
  33.3440774  -1.0720806  43.0861909  33.7777281  -1.1645517  43.9344964
  34.0572355  -1.0963305  42.4481925  22.2573824   0.1463193  40.2682642
  23.0514423  -0.3486487  40.0665217  21.5465517  -0.3818944  39.9050348
  27.0768669   2.5281288  44.6195010  27.1305691   3.0972225  45.3872726
  26.2083450   2.6983173  44.2549047  34.2056324  -1.0297105  45.6194795
  34.3992214  -0.1251295  45.8654070  34.1056942  -1.4889686  46.4533380
  29.2671432  -0.8790362  51.1935675  29.1156939  -1.1079811  50.2765759
  29.2576112   0.0780239  51.2067020  26.0356769  -3.3058450  46.1781942
  26.9648829  -3.1547290  46.0050909  25.6147799  -3.2174429  45.3230588
  24.8345100   0.7192215  43.9480480  24.6956186   0.3510999  44.8206418
  24.0459697   1.2339854  43.7764437  25.4293252   5.8201311  35.2906016
  25.6045008   5.3489354  36.1051639  24.7426040   6.4467077  35.5187277
  26.3850316   0.0973817  41.3369317  26.0500148   0.0574587  42.2326967
  25.8854261  -0.5681467  40.8639728  29.3209507  -2.5570148  31.6106377
  28.7038678  -3.2823320  31.5139430  28.8525996  -1.7960788  31.2673451
  30.9763639   2.1528760  49.2712157  30.9176185   1.4687980  48.6042740
  31.3783157   2.8947750  48.8192783  19.9954338   8.9690674  42.0645876
  20.2350936   9.6009198  42.7424895  19.1523534   8.6178714  42.3511236
  30.9781046   0.1168344  47.5026137  30.0907825  -0.2205734  47.6252536
  31.5479597  -0.6148625  47.7394902  24.5082200   4.7769796  44.4687380
  24.4352371   5.5824768  44.9806685  24.0659593   4.9761762  43.6435402
  24.2971979   4.0141566  37.9790202  23.5139501   4.5563247  38.0728426
  24.9964724   4.5315546  38.3784443  26.9680883   4.6756630  46.6245539
  27.6808855   5.3104095  46.5521440  26.4770912   4.7720496  45.8085541
  28.6898410  -1.4192117  38.1962831  27.7554689  -1.2990654  38.0267535
  28.8675078  -2.3219650  37.9322840  22.0192797   2.4251074  47.4451110
  22.7202256   3.0587557  47.5980504  21.5487912   2.7665805  46.6846749
  30.1447192   0.7669024  35.7299017  30.4207036   0.6525618  36.6392891
  29.2751691   0.3686509  35.6911190  29.8194083  -5.0204319  45.2703660
  29.1665533  -4.7728411  44.6156113  30.1974462  -5.8340180  44.9366137
  26.7801256   5.0155375  39.3731830  26.9623651   4.1977030  39.8359583
  27.6034242   5.2323067  38.9356720  27.1143422   3.9423560  36.6346879
  27.6431188   3.4316014  36.0217041  27.3771641   3.6266090  37.4992412
  25.8681656  -4.2784508  51.7569697  25.1922293  -4.3790378  52.4272072
  26.6909289  -4.4345294  52.2205694  17.6160515   1.9587429  44.3782212
  18.2013951   1.2131117  44.5110117  17.4185353   2.2691386  45.2618876
  20.4699170   4.9938676  39.3944655  19.8009545   5.4784804  38.9108695
  20.3312040   5.2407897  40.3088033  24.6104438   7.0282420  45.9927313
  25.1622746   7.1914041  46.7576398  24.9510632   7.6186858  45.3207338
  29.4615313   1.8543677  51.8475968  30.0055217   2.4673636  51.3530922
  28.8802158   2.4123256  52.3642981  27.7472826   4.9764395  42.9790995
  27.6223965   4.1754135  42.4701941  28.4051917   5.4710589  42.4904965
  29.8107734   2.7773415  44.6070545  28.8638070   2.6578767  44.5348872
  30.1590507   1.8895914  44.6896807  26.8154167   2.5726132  40.8074898
  26.6679130   1.6442839  40.9882468  27.6407661   2.5946222  40.3231973
  30.4188289   3.3954690  41.8939770  31.3434837   3.1897552  41.7564222
  30.2503593   3.1471092  42.8029112  30.2083605   3.9140358  37.2501862
  30.3820483   3.3486780  36.4975714  30.7012497   4.7141253  37.0681352
  31.1958778   3.2307122  34.3498760  31.8909683   3.8513815  34.5686075
  31.5381928   2.3802473  34.6251138  33.0950201   0.6806828  35.8786091
  33.6201525   1.0194101  35.1535411  33.0072554  -0.2546157  35.6949225
  24.7570250   4.5940901  48.0075967  25.0657376   4.3490048  48.8798667
  25.5545732   4.7987540  47.5194838  24.7790862   6.7478811  40.2381344
  24.3395852   6.2555190  40.9314201  25.5298979   6.2051779  39.9973419
  17.2583201   2.9390352  40.2405972  18.0841221   2.6394124  39.8604616
  16.9077253   2.1697974  40.6895761  22.2264734   2.2916820  42.3103646
  21.6044743   1.6287525  42.0105874  22.8969601   2.3177952  41.6277293
  32.7844107   1.3139731  51.1837289  31.9939651   1.2963870  50.6441788
  32.5477462   1.8528025  51.9386325  32.9041982  -1.8367802  48.4970017
  32.9539987  -2.0017795  49.4385540  32.7955906  -2.7040543  48.1067898
  21.7878241   0.8420744  35.7862106  21.9366361   1.5256208  35.1328779
  22.5944684   0.8225834  36.3011562  34.4060179   0.5829139  48.7412039
  34.1144987   0.9459120  49.5775500  33.7932310  -0.1303852  48.5625371
  35.6055861  -1.8517981  41.2614609  36.4402753  -1.4128177  41.4252169
  35.7414990  -2.3279328  40.4422855  32.6547367  -4.2938246  47.2092097
  33.1301489  -4.1010600  46.4010948  31.7312933  -4.2379060  46.9635481
  25.2873646   3.3368874  33.2573854  24.7147613   3.9559061  32.8044326
  25.8606440   3.8868236  33.7913776  28.5070906   3.6206024  34.3882436
  29.4401579   3.5551586  34.5915311  28.4194119   4.4562291  33.9296969
  31.1358923   2.9371894  31.3486384  31.0572554   2.6031758  32.2422141
  31.9568590   3.4293662  31.3477856  25.5559137  -1.2752567  52.0590563
  26.4762147  -1.0973968  52.2530610  25.5208720  -2.2196522  51.9070262
  17.5703912   5.0702966  41.9619787  17.4358380   4.3103367  41.3957785
  17.1535974   5.7943866  41.4948575  28.7062875   0.2539890  30.9696362
  29.4098725   0.4589892  31.5854017  27.9825523   0.8216652  31.2345445
  29.5360685  -3.9950249  37.0898632  29.4795886  -3.5381697  36.2506264
  30.0889027  -4.7559564  36.9121475  20.7273037   5.9672283  42.1738229
  20.6105422   6.9117716  42.0716919  19.9065484   5.6645845  42.5624028
  30.6149572   0.6922419  33.0194822  31.4495176   0.2603618  32.8372297
  30.4533915   0.5204433  33.9471716  30.2695464  -2.8045468  34.3851161
  30.2144268  -2.9701196  33.4439605  29.6441519  -2.0969435  34.5413351
  27.5841371  -0.4996556  53.7104724  28.4532531  -0.3255904  53.3491359
  27.1048123   0.3197861  53.5880453  21.7527552   6.6200545  45.3894158
  22.6554798   6.6524155  45.7060653  21.5264922   5.6900996  45.4040493
  23.5081154   5.3731532  42.0504236  22.5576785   5.3733393  41.9368609
  23.8113640   4.6264266  41.5340271  39.2433847  11.2092070  43.1149999
  39.8812257  11.0898817  42.4113339  39.1254690  12.1572914  43.1737951
  36.0523553  11.1619498  43.0511523  35.7142065  11.0460563  42.1632058
  36.9213322  10.7610663  43.0312529  31.9110369  13.0154975  39.0408414
  31.3475234  12.9244912  38.2724702  31.7962764  12.1954879  39.5210907
  36.5343336  12.3154350  49.0097729  36.5231977  11.9207148  48.1378233
  36.6963976  11.5820423  49.6031500  31.4165555  13.7715080  34.7510014
  32.1896431  13.2244067  34.6122889  31.7690954  14.6359329  34.9624475
  33.2550598  15.0991462  47.9576913  32.9640464  16.0037093  47.8423579
  33.8907582  15.1407989  48.6720982  34.1806804  12.4768310  44.5478273
  34.7770377  12.2524333  43.8335235  34.2381776  11.7353056  45.1503720
  33.7531833   9.9307746  32.3828463  34.0057353   9.4089267  31.6211926
  32.8156392   9.7673891  32.4855147  38.7975116   8.9343524  40.1903207
  39.5838205   8.5162947  39.8393624  39.0613820   9.8389616  40.3584855
  38.9685193  14.3716374  34.8891864  38.3331026  14.4451001  35.6012768
  38.6382599  14.9609973  34.2110943  44.1983543   8.8718757  41.0936185
  44.9308715   8.3017974  41.3274015  43.4422898   8.4840358  41.5342691
  33.4728122  11.8335852  34.5852838  33.3564380  11.1580755  35.2533923
  33.5830381  11.3468226  33.7684991  35.8159662  11.2945999  38.2899528
  35.4517870  10.7676620  39.0012449  36.6726778  10.9044468  38.1166013
  41.7208963   2.5840331  45.5530794  41.3892288   3.4535742  45.3292009
  41.1254576   2.2676615  46.2324824  35.4565149   6.3235898  33.2860876
  35.6239552   7.1916135  33.6531347  35.2662319   6.4863180  32.3622165
  31.6652964  11.2366674  40.9863411  30.7403461  11.1042888  41.1941103
  31.9137377  12.0160893  41.4833353  41.6137626   7.3035417  42.6324144
  40.7054504   7.2350826  42.3382905  41.5625222   7.7807362  43.4605969
  35.4354370   8.7793556  34.2707543  35.3153996   9.2250607  35.1093023
  34.7406959   9.1278874  33.7121081  29.0261775  10.8799948  41.8207200
  29.1554156  11.1334427  42.7346612  28.3459226  11.4727656  41.5011855
  35.6878492   8.7225063  50.5759041  34.9111826   9.2818983  50.5661906
  36.3269055   9.2081846  51.0973911  43.4799273   5.5051856  44.4102018
  42.8373653   5.7984389  43.7641812  42.9754201   5.3904776  45.2155214
  41.1339436   9.2515029  35.0987877  42.0457293   9.4842416  34.9235575
  40.6249084   9.8352073  34.5362956  33.9424864  11.5310516  50.1377008
  34.6839549  12.0695560  49.8611832  33.2361850  12.1576805  50.2948560
  39.4180204  13.6739657  48.7349170  39.8263560  13.2322067  47.9903802
  38.6957466  13.0992284  48.9883363  35.7711274   8.6112264  46.1082727
  36.6172469   9.0351677  46.2517376  35.7109912   7.9545888  46.8021290
  38.9210720   6.2716632  47.7663900  38.6771651   7.0258693  47.2298176
  39.1970650   6.6501980  48.6011147  40.8749182  12.8155244  46.4441166
  41.0866078  13.4587004  45.7675547  40.8278931  11.9817561  45.9763096
  38.4775411   5.4273065  43.3477738  37.6159890   5.7254319  43.6394476
  38.5037846   5.6443464  42.4158771  35.2936981  13.9715256  39.7551544
  35.7575326  14.2502959  38.9656166  35.0293779  13.0698700  39.5724634
  32.1861062  13.5186737  42.6931307  32.7562419  13.9474006  42.0548791
  32.7769174  13.2369322  43.3915493  34.2305867  10.0938408  36.5641109
  34.9329910  10.5459452  37.0315035  33.8986495   9.4522227  37.1921002
  32.6786228   8.6850165  50.9392318  32.0484889   9.3666445  51.1727715
  32.5722316   8.5733246  49.9945456  27.9731201   8.3521961  41.8658242
  27.1830255   8.6079489  41.3898353  28.4642448   9.1670298  41.9710283
  29.9245946   8.7166540  38.8241719  29.1277109   8.8285234  39.3425215
  29.6971538   9.0553192  37.9582610  35.7551614  15.2411243  46.7724234
  35.8196046  15.7031650  47.6082405  35.0462538  14.6108608  46.9006543
  26.2568904   8.6052451  44.2973233  26.5076942   9.4899461  44.5630809
  26.7928452   8.4257053  43.5248325  50.0801003  12.0365948  40.9648495
  49.3264712  11.4673346  40.8092499  50.2148544  12.0028613  41.9119129
  31.9566971   2.9870930  53.3017569  31.5633917   2.4337129  53.9765213
  32.7733111   3.2981509  53.6924087  34.8734932   4.4028810  50.8937826
  35.6144645   5.0035963  50.8142288  35.1052855   3.6606447  50.3355868
  30.0176270   9.5885177  49.1716055  29.9029785   8.6870434  49.4723154
  29.1620788   9.8348874  48.8200872  37.0968108  17.5302917  50.7703556
  36.6531962  16.7439296  50.4524461  37.7585321  17.7182068  50.1047447
  39.1949346  17.8105717  48.7984957  39.1767821  18.6314598  48.3065226
  40.1169266  17.6859792  49.0235098  35.6522400  15.3249847  49.6408466
  36.1850737  14.5638135  49.4107774  35.1236481  15.0323498  50.3832620
  38.8192095   0.4309912  45.1702107  38.4756364   1.3211554  45.0941218
  39.1871058   0.2411570  44.3071692  26.8877946  12.7543443  37.9890710
  27.7253168  13.1640451  37.7724417  27.0656213  11.8142885  37.9590903
  38.7842378  10.4218524  33.6774543  38.2689001  11.1923128  33.9162930
  38.5119686   9.7483660  34.3007604  36.3689489   5.2668224  38.7359781
  35.5131085   4.8775075  38.5565420  36.7816440   5.3460185  37.8759566
  37.8988635   2.8014568  43.1351341  37.3953431   2.7644703  42.3219146
  38.1919242   3.7107310  43.1947997  34.1431521   2.8853297  42.1417522
  35.0084518   2.6896106  41.7823412  34.2109030   2.6563649  43.0686879
  43.7576652  13.1750878  35.6127716  42.9806095  12.8362038  35.1682878
  44.4368133  13.1803501  34.9382681  38.5728681   8.2945616  35.5034324
  38.2678816   8.6091765  36.3544467  39.5259123   8.3727036  35.5461657
  37.0175113  14.4535839  37.1527278  36.4896474  13.7188599  36.8400515
  36.5162615  15.2310515  36.9067246  41.9967959  12.6484859  42.2694324
  41.3391633  13.3384121  42.3574453  42.8008358  13.0381291  42.6128310
  31.7493840   5.1155505  39.5133889  32.3237592   4.8930687  38.7807082
  32.3364823   5.1844200  40.2662491  40.8073417  11.0029232  40.3198266
  41.3205299  11.6359224  40.8219975  41.4574641  10.4030428  39.9541626
  32.0763427   7.1459966  33.5329774  31.2400740   7.4834653  33.8539049
  31.9368197   7.0108946  32.5956911  34.0516508   1.9896754  38.2408959
  33.3980920   1.6745771  37.6165573  34.0096982   1.3672495  38.9668782
  35.1627713  12.2716049  30.1562251  34.2554775  12.0405303  30.3553400
  35.6598745  11.4753669  30.3436232  37.2854248   8.4778688  42.5656606
  36.3676810   8.6993635  42.4078294  37.7014392   8.5524998  41.7068314
  38.0689296   9.8770103  37.6959287  38.8161115  10.3891501  37.3866409
  38.3380886   9.5554156  38.5563680  36.3415946  12.3728644  34.6786241
  35.4327166  12.0887677  34.7758711  36.3711030  12.7927723  33.8189548
  40.5168133   6.9127220  39.6778076  39.7790890   6.4004606  40.0088318
  40.7694907   6.4727601  38.8661353  40.6179761  -0.3096528  40.2719845
  40.9238637  -1.1699165  39.9845760  41.3432365   0.2821092  40.0718839
  26.9104117  10.0934158  38.6601443  26.7128516   9.5003519  37.9352510
  26.3550781   9.7886368  39.3777382  34.8900840   9.9857265  40.7796036
  34.9449450   9.0331101  40.7038513  34.0792042  10.1416704  41.2637335
  36.0392034  13.9137388  32.0174319  35.6011464  13.1973247  31.5579957
  36.7802475  14.1413503  31.4559411  32.8293200   8.6034324  38.5386415
  32.0161066   8.9028495  38.9451607  33.3252194   8.2090013  39.2560897
  38.4267412   9.0676149  47.3701309  38.7816800   9.2947622  48.2295775
  39.0739543   9.3994526  46.7478564  44.1565149  12.1894585  38.0750638
  44.0183047  12.3796181  37.1471827  43.8001368  12.9513968  38.5318689
  32.3207275   6.1752680  44.1547650  32.9606654   6.0341439  43.4570613
  31.4884806   5.8887193  43.7786252  44.1834528  14.2571112  43.0861909
  44.6171035  14.1646401  43.9344964  44.8966109  14.2328612  42.4481925
  29.4050342   9.6198192  36.3442395  28.4747930   9.5582648  36.5612357
  29.5007814   9.0974145  35.5479036  29.3235891   6.1453005  38.9320637
  29.5842709   7.0598338  38.8229797  30.1453064   5.6777448  39.0817250
  30.7960817   7.5590762  46.1019461  31.4683870   7.3508124  45.4532110
  29.9690603   7.3612848  45.6624694  36.6986389   4.1852703  48.1185122
  36.0514304   4.8842653  48.0249599  37.4687404   4.6188847  48.4861370
  40.1065187  14.4501555  51.1935675  39.9550693  14.2212107  50.2765759
  40.0969866  15.4072157  51.2067020  36.8750523  12.0233468  46.1781942
  37.8042583  12.1744628  46.0050909  36.4541553  12.1117489  45.3230588
  31.1988314  10.8333365  46.8621898  31.0608112  10.1013604  47.4633438
  32.1093237  10.7442265  46.5806086  40.1603262  12.7721769  31.6106377
  39.5432432  12.0468598  31.5139430  39.6919750  13.5331130  31.2673451
  33.8270615  10.5453324  46.3505578  34.5370233   9.9046517  46.3092197
  33.7839923  10.7966219  47.2731759  41.8157393  17.4820678  49.2712157
  41.7569939  16.7979898  48.6042740  42.2176912  18.2239668  48.8192783
  32.5399549   7.5318542  48.1701218  32.0036906   7.0809281  48.8222814
  31.9516257   7.6664451  47.4271682  31.9501808   6.9907194  30.7327681
  31.0731274   6.8695995  30.3689928  32.4259561   6.1993272  30.4806570
  23.4703948  11.7784353  40.8269188  24.1574988  11.4646083  40.2390204
  23.3152076  12.6825718  40.5536440  28.2738670   6.6674550  45.2554212
  28.1896859   6.0600220  44.5204622  27.4521376   7.1583568  45.2563708
  38.4462384   5.1528114  40.6224407  38.9431083   4.3998076  40.3025477
  37.6749365   5.1892430  40.0567616  46.2992141  10.8568479  42.2642699
  46.2882017  11.7393195  41.8936632  45.4309521  10.5040030  42.0697236
  39.5292164  13.9099801  38.1962831  38.5948443  14.0301263  38.0267535
  39.7068833  13.0072268  37.9322840  35.0297352   7.2945497  40.3496092
  34.6595140   6.7416537  41.0376997  35.5256445   6.6903630  39.7971092
  42.9164716   9.7517120  38.7312865  43.3825168  10.5845112  38.6573167
  43.3672216   9.2862102  39.4358123  40.8881379   2.1197707  42.7703766
  39.9744458   2.3501934  42.9385973  41.3174480   2.2036151  43.6217798
  40.6587837  10.3087599  45.2703660  40.0059287  10.5563506  44.6156113
  41.0368217   9.4951737  44.9366137  36.7075410  11.0507410  51.7569697
  36.0316047  10.9501539  52.4272072  37.5303044  10.8946624  52.2205694
  23.0471924   9.8584947  43.0986656  23.0856023   9.3248538  43.8923774
  22.5412217   9.3320152  42.4797633  30.4262686   4.7049487  46.5949198
  30.4904013   5.5664318  46.1826596  30.3629806   4.0923489  45.8621556
  29.9014959   6.7772620  50.2422232  30.5286997   6.3949697  50.8559756
  29.0442878   6.5586822  50.6077925  26.6780501   8.5849049  36.1740587
  26.9733943   7.6759727  36.1207641  25.7768537   8.5636788  35.8521589
  30.2074748   6.6605046  42.1568136  29.4861334   7.2741013  42.0175609
  30.9968004   7.1962810  42.0784781  33.0101062   3.9959472  48.4308787
  33.5335464   4.2421769  49.1935097  32.7913395   4.8279507  48.0111925
  28.4068343   6.2663147  36.2979912  28.0781049   5.3860526  36.1155018
  28.7607714   6.2110815  37.1856301  31.5210166   6.5536116  36.6655390
  31.8606239   7.0822038  35.9433998  31.9682287   6.8916523  37.4413956
  34.2153607   4.9373167  46.1158458  33.8750427   4.1380980  46.5179138
  33.5092613   5.2374878  45.5435291  34.8670079   2.0222480  44.5685781
  35.6896148   1.5482958  44.4464671  35.1108142   2.8012963  45.0684467
  33.5078313   5.0510738  34.8648683  34.2286676   5.4291991  34.3612399
  32.8843617   5.7699615  34.9683660  37.6509436   5.7555887  35.8007015
  37.8673051   6.6380525  35.4995843  37.1703503   5.3642100  35.0712657
  32.3908658   8.7141600  42.3777759  32.2453238   9.0281903  43.2702041
  31.9133861   9.3326501  41.8248658  34.2505040   5.7044148  42.4258649
  34.2366609   4.8085242  42.0890947  34.9677469   5.7114812  43.0596935
  36.1031171   6.1381488  44.4711776  35.8448949   7.0598559  44.4696107
  35.5716212   5.7411923  45.1612241  26.8654320  11.2546945  45.3165421
  26.3207788  12.0306753  45.4485695  27.7433670  11.6017749  45.1584542
  33.6541936   4.5858528  37.6946219  33.7757848   3.6575175  37.8937107
  33.3643979   4.5997214  36.7824535  36.5233127   2.2713439  40.8312939
  36.5454824   2.3352772  39.8764919  36.9401186   1.4317948  41.0253445
  46.9016751  12.0068698  38.8692162  47.3447897  11.2576024  38.4711285
  46.0243261  11.9978835  38.4865894  27.6520342  10.3816841  48.2095577
  26.9102078  10.5299476  48.7960208  27.3313086  10.6425107  47.3462327
  43.9343956  16.0098745  35.8786091  44.4595280  16.3486018  35.1535411
  43.8466308  15.0745761  35.6949225  33.1383016   6.0990526  51.9036152
  33.1871171   6.9752649  51.5213921  33.6805530   5.5567919  51.3307795
  43.6237862  16.6431649  51.1837289  42.8333405  16.6255788  50.6441788
  43.3871216  17.1819943  51.9386325  43.7435737  13.4924115  48.4970017
  43.7933742  13.3274123  49.4385540  43.6349660  12.6251375  48.1067898
  41.0339499   9.4755044  49.8129324  41.9349362   9.3361508  49.5213322
  41.1087474   9.6409498  50.7527502  35.3682304   6.8521898  48.6582510
  34.4985614   7.1455464  48.3865099  35.6041785   7.4362343  49.3789774
  46.4449616  13.4773937  41.2614609  47.2796507  13.9163741  41.4252169
  46.5808745  13.0012590  40.4422855  43.4941122  11.0353672  47.2092097
  43.9695243  11.2281318  46.4010948  42.5706687  11.0912857  46.9635481
  30.3824628  12.1977839  36.7923175  30.1370670  11.2940169  36.9903385
  30.5520543  12.1994989  35.8502653  38.0721338   3.0701515  46.1747931
  38.5903282   3.8062542  45.8494419  37.7176471   3.3765508  47.0094690
  29.6520276   7.9306196  34.2909337  28.9589521   8.0050551  33.6349373
  29.4072028   7.1666540  34.8130854  38.3233932  -0.5098202  41.6948827
  38.6035686  -1.1775013  42.3209254  39.1084539  -0.3169107  41.1823491
  42.1942791   7.9119432  45.4420402  43.1460214   8.0117529  45.4632627
  42.0246241   7.1197700  45.9518487  40.2157170   4.9975015  45.6279803
  39.6207102   5.2780028  44.9326292  39.9306867   5.4868916  46.3996545
  44.6730869  11.1325551  44.5562702  44.6407189  10.1941552  44.7422386
  45.2831492  11.2109588  43.8228527  36.5114199  10.0021604  30.5989906
  37.4573304   9.8727812  30.6678324  36.1328444   9.2636266  31.0759334
  44.8225357   7.9236595  44.6020985  44.3064406   7.1395051  44.4150914
  45.7065306   7.5955311  44.7667505  42.4836084   1.6677610  40.5616798
  42.2860905   1.3592699  41.4460130  43.0935789   2.3939249  40.6914728
  50.4907418  12.1941558  43.6968739  51.2210807  11.9326846  44.2576442
  49.8814364  11.4570280  43.7370807  48.5722715  10.3349421  44.2943190
  47.8455879  10.2005386  43.6859682  48.1570002  10.6426249  45.0999908
  36.3952892  14.0539351  52.0590563  37.3155901  14.2317950  52.2530610
  36.3602475  13.1095396  51.9070262  34.6957117   7.9271581  30.5344791
  33.7888572   7.6304693  30.6107505  34.9733098   7.6301399  29.6679078
  25.6135057   9.2477944  40.9843838  25.2937841   8.3943252  40.6918212
  25.0668485   9.4626522  41.7401805  29.3914964  11.9640385  44.7013344
  29.6100974  12.8957493  44.7201378  29.8040738  11.6048360  45.4868148
  36.3119182   2.4708470  36.6889033  35.5019911   2.1255555  37.0644279
  37.0003599   2.1616014  37.2776644  38.2409731   1.5486517  38.3113329
  38.7940769   1.9681971  38.9703352  38.4779817   0.6222265  38.3536285
  34.2642830   7.5373591  54.0916093  34.1639557   8.4867948  54.0228184
  34.0464372   7.2091830  53.2192163  33.4655901   4.7858516  30.6756771
  34.3275065   5.1113414  30.9352588  33.6506245   3.9990012  30.1629836
  25.4823317  12.8680856  42.9536959  24.7886788  12.4534808  42.4406914
  26.2296308  12.9101392  42.3570378  41.6188538   3.6587042  37.8191994
  41.0387207   4.3171846  37.4370046  41.3524470   2.8364387  37.4079411
  40.0692104   3.0592100  40.0213314  40.5691882   3.1708635  39.2127633
  40.7127712   2.7553153  40.6614122  34.1274100  10.9670730  52.9081155
  33.6441182  11.7671090  53.1145044  34.2135039  10.9778675  51.9548599
  27.3960059  12.7999109  40.8302974  27.3730748  12.8986797  39.8784857
  27.7060696  13.6464260  41.1520140  30.6446819  13.4276381  47.5120386
  31.4639708  13.9220459  47.5355224  30.9183627  12.5108349  47.4837954
  40.4013416   5.8187133  36.8748342  39.5139271   6.1036783  36.6568537
  40.8167405   5.6580896  36.0275619  43.7527952   5.8433654  40.5902681
  44.5288342   6.3330106  40.8627298  43.0276086   6.2691708  41.0474551
  46.1900510   6.5561273  41.6476622  46.7845001   6.3157009  40.9369930
  46.2627094   5.8368404  42.2750158  39.5456629  15.5831807  30.9696362
  40.2492479  15.7881810  31.5854017  38.8219278  16.1508569  31.2345445
  40.3754439  11.3341669  37.0898632  40.3189641  11.7910220  36.2506264
  40.9282782  10.5732353  36.9121475  44.1859245   7.1231401  37.9148752
  43.9296180   6.7228036  38.7456959  43.5612113   7.8375195  37.7898891
  48.4971583   9.8627474  40.4220043  47.9371141   9.9320663  41.1951605
  47.8915087   9.6868458  39.7019539  41.1089219  12.5246450  34.3851161
  41.0538022  12.3590721  33.4439605  40.4835274  13.2322483  34.5413351
  25.8981734   7.7614514  48.2112583  26.5440597   7.2513468  48.6999809
  25.6898885   8.4983196  48.7856009  38.4235126  14.8295362  53.7104724
  39.2926286  15.0036014  53.3491359  37.9441877  15.6489779  53.5880453
  34.4185344   2.0254559  33.9636480  34.4064014   2.9696399  34.1204750
  35.3108766   1.8424704  33.6695941  38.2337464  -1.3802664  38.2182416
  37.4669859  -1.9344178  38.3639099  38.6448169  -1.3080796  39.0796568
  30.2379225   4.9082131  52.3087598  31.1010686   4.5518936  52.5190922
  29.6644635   4.5696026  52.9963002  45.7128686  19.7320727  50.8937826
  46.4538400  20.3327880  50.8142288  45.9446609  18.9898365  50.3355868
  51.4573515  15.0195389  40.2719845  51.7632392  14.1592753  39.9845760
  52.1826120  15.6113010  40.0718839  49.1627687  14.8193715  41.6948827
  49.4429441  14.1516904  42.3209254  49.9478294  15.0122811  41.1823491
  53.3229838  16.9969528  40.5616798  53.1254660  16.6884616  41.4460130
  53.9329544  17.7231167  40.6914728  52.4582292  18.9878960  37.8191994
  51.8780961  19.6463764  37.4370046  52.1918225  18.1656305  37.4079411
  45.2579099  17.3546477  33.9636480  45.2457768  18.2988317  34.1204750
  46.1502521  17.1716622  33.6695941  49.0731218  13.9489253  38.2182416
  48.3063614  13.3947740  38.3639099  49.4841923  14.0211122  39.0796568
  65.8771052  39.5302593  41.0936185  66.6096224  38.9601809  41.3274015
  65.1210407  39.1424193  41.5342691  63.3996472  33.2424167  45.5530794
  63.0679797  34.1119578  45.3292009  62.8042085  32.9260451  46.2324824
  63.2925135  37.9619253  42.6324144  62.3842013  37.8934661  42.3382905
  63.2412731  38.4391198  43.4605969  57.3666001  39.3808898  50.5759041
  56.5899335  39.9402819  50.5661906  58.0056564  39.8665681  51.0973911
  65.1586782  36.1635691  44.4102018  64.5161162  36.4568224  43.7641812
  64.6541710  36.0488612  45.2155214  62.8126945  39.9098864  35.0987877
  63.7244802  40.1426251  34.9235575  62.3036593  40.4935909  34.5362956
  65.2985760  45.8279121  39.8445822  64.6136798  46.2078022  39.2942856
  65.3829609  46.4374447  40.5777770  60.5998228  36.9300467  47.7663900
  60.3559160  37.6842528  47.2298176  60.8758159  37.3085815  48.6011147
  71.7588512  42.6949784  40.9648495  71.0052221  42.1257182  40.8092499
  71.8936053  42.6612448  41.9119129  56.5522441  35.0612645  50.8937826
  57.2932154  35.6619798  50.8142288  56.7840364  34.3190283  50.3355868
  60.4629887  41.0802359  33.6774543  59.9476510  41.8506964  33.9162930
  60.1907195  40.4067495  34.3007604  65.4364161  43.8334714  35.6127716
  64.6593604  43.4945873  35.1682878  66.1155642  43.8387337  34.9382681
  63.6755468  43.3068695  42.2694324  63.0179142  43.9967956  42.3574453
  64.4795867  43.6965127  42.6128310  62.4860926  41.6613068  40.3198266
  62.9992808  42.2943059  40.8219975  63.1362150  41.0614263  39.9541626
  60.1054921  39.7259984  47.3701309  60.4604309  39.9531457  48.2295775
  60.7527052  40.0578361  46.7478564  65.8352658  42.8478420  38.0750638
  65.6970556  43.0380016  37.1471827  65.4788877  43.6097803  38.5318689
  65.8622037  44.9154947  43.0861909  66.2958544  44.8230236  43.9344964
  66.5753618  44.8912448  42.4481925  59.5949932  48.5157041  44.6195010
  59.6486955  49.0847978  45.3872726  58.7264714  48.6858926  44.2549047
  66.7237587  44.9578648  45.6194795  66.9173477  45.8624458  45.8654070
  66.6238205  44.4986067  46.4533380  58.3773898  34.8436538  48.1185122
  57.7301813  35.5426488  48.0249599  59.1474913  35.2772682  48.4861370
  61.7852696  45.1085391  51.1935675  61.6338202  44.8795942  50.2765759
  61.7757375  46.0655992  51.2067020  61.8390771  43.4305605  31.6106377
  61.2219941  42.7052433  31.5139430  61.3707259  44.1914965  31.2673451
  67.9779650  41.5152314  42.2642699  67.9669526  42.3977030  41.8936632
  67.1097030  41.1623865  42.0697236  64.5952225  40.4100955  38.7312865
  65.0612677  41.2428947  38.6573167  65.0459725  39.9445937  39.4358123
  62.5668887  32.7781542  42.7703766  61.6531967  33.0085769  42.9385973
  62.9961989  32.8619986  43.6217798  62.3288998  48.7649168  44.6070545
  61.3819333  48.6454520  44.5348872  62.6771771  47.8771667  44.6896807
  62.9369553  49.3830443  41.8939770  63.8616100  49.1773305  41.7564222
  62.7684856  49.1346845  42.8029112  62.7264869  49.9016111  37.2501862
  62.9001746  49.3362533  36.4975714  63.2193760  50.7017006  37.0681352
  68.5804260  42.6652534  38.8692162  69.0235406  41.9159859  38.4711285
  67.7030770  42.6562670  38.4865894  63.7140041  49.2182875  34.3498760
  64.4090946  49.8389568  34.5686075  64.0563192  48.3678227  34.6251138
  65.6131465  46.6682581  35.8786091  66.1382789  47.0069854  35.1535411
  65.5253817  45.7329596  35.6949225  54.8170525  36.7574361  51.9036152
  54.8658680  37.6336484  51.5213921  55.3593039  36.2151754  51.3307795
  62.7127008  40.1338879  49.8129324  63.6136871  39.9945344  49.5213322
  62.7874983  40.2993334  50.7527502  66.9241442  46.5704892  48.7412039
  66.6326251  46.9334873  49.5775500  66.3113574  45.8571901  48.5625371
  68.1237125  44.1357772  41.2614609  68.9584016  44.5747576  41.4252169
  68.2596254  43.6596425  40.4422855  63.8730300  38.5703267  45.4420402
  64.8247723  38.6701365  45.4632627  63.7033750  37.7781536  45.9518487
  61.8944679  35.6558850  45.6279803  61.2994611  35.9363863  44.9326292
  61.6094376  36.1452751  46.3996545  63.6540186  48.9247647  31.3486384
  63.5753818  48.5907511  32.2422141  64.4749853  49.4169415  31.3477856
  66.3518377  41.7909387  44.5562702  66.3194698  40.8525387  44.7422386
  66.9619001  41.8693423  43.8228527  58.1901708  40.6605440  30.5989906
  59.1360813  40.5311648  30.6678324  57.8115953  39.9220102  31.0759334
  66.5012866  38.5820430  44.6020985  65.9851915  37.7978887  44.4150914
  67.3852814  38.2539147  44.7667505  64.1623593  32.3261446  40.5616798
  63.9648414  32.0176534  41.4460130  64.7723298  33.0523085  40.6914728
  72.1694927  42.8525394  43.6968739  72.8998316  42.5910682  44.2576442
  71.5601873  42.1154116  43.7370807  70.2510224  40.9933256  44.2943190
  69.5243388  40.8589221  43.6859682  69.8357511  41.3010085  45.0999908
  59.9197240  32.2070353  38.3113329  60.4728278  32.6265806  38.9703352
  60.1567326  31.2806101  38.3536285  55.9430339  38.1957426  54.0916093
  55.8427066  39.1451783  54.0228184  55.7251881  37.8675665  53.2192163
  63.2976047  34.3170878  37.8191994  62.7174716  34.9755682  37.4370046
  63.0311979  33.4948222  37.4079411  61.7479613  33.7175936  40.0213314
  62.2479391  33.8292470  39.2127633  62.3915221  33.4136988  40.6614122
  65.4315461  36.5017489  40.5902681  66.2075851  36.9913942  40.8627298
  64.7063595  36.9275543  41.0474551  67.8688019  37.2145108  41.6476622
  68.4632510  36.9740844  40.9369930  67.9414603  36.4952239  42.2750158
  61.2244138  46.2415643  30.9696362  61.9279988  46.4465645  31.5854017
  60.5006787  46.8092405  31.2345445  62.0541948  41.9925504  37.0898632
  61.9977150  42.4494056  36.2506264  62.6070291  41.2316189  36.9121475
  65.8646754  37.7815236  37.9148752  65.6083689  37.3811872  38.7456959
  65.2399622  38.4959030  37.7898891  70.1759092  40.5211309  40.4220043
  69.6158650  40.5904499  41.1951605  69.5702596  40.3452294  39.7019539
  63.1330835  46.6798172  33.0194822  63.9676439  46.2479371  32.8372297
  62.9715178  46.5080186  33.9471716  62.7876728  43.1830285  34.3851161
  62.7325531  43.0174557  33.4439605  62.1622783  43.8906318  34.5413351
  71.7615111  57.1967823  43.1149999  72.3993521  57.0774571  42.4113339
  71.6435953  58.1448667  43.1737951  68.5704817  57.1495251  43.0511523
  68.2323328  57.0336316  42.1632058  69.4394585  56.7486416  43.0312529
  69.0524600  58.3030103  49.0097729  69.0413241  57.9082901  48.1378233
  69.2145239  57.5696176  49.6031500  70.0091191  62.6701695  34.3522879
  69.3579171  63.2555776  33.9656893  70.8035554  63.2007890  34.4117917
  63.9346818  59.7590833  34.7510014  64.7077694  59.2119820  34.6122889
  64.2872217  60.6235082  34.9624475  65.7731861  61.0867215  47.9576913
  65.4821727  61.9912846  47.8423579  66.4088845  61.1283742  48.6720982
  66.6988068  58.4644063  44.5478273  67.2951640  58.2400086  43.8335235
  66.7563039  57.7228809  45.1503720  66.2713096  55.9183499  32.3828463
  66.5238617  55.3965020  31.6211926  65.3337655  55.7549644  32.4855147
  71.3156379  54.9219277  40.1903207  72.1019468  54.5038700  39.8393624
  71.5795083  55.8265369  40.3584855  71.4866456  60.3592127  34.8891864
  70.8512289  60.4326754  35.6012768  71.1563863  60.9485726  34.2110943
  76.7164806  54.8594510  41.0936185  77.4489978  54.2893727  41.3274015
  75.9604162  54.4716111  41.5342691  65.9909385  57.8211605  34.5852838
  65.8745643  57.1456508  35.2533923  66.1011645  57.3343979  33.7684991
  68.3340926  57.2821752  38.2899528  67.9699133  56.7552373  39.0012449
  69.1908042  56.8920221  38.1166013  74.2390227  48.5716084  45.5530794
  73.9073551  49.4411495  45.3292009  73.6435840  48.2552368  46.2324824
  67.9746413  52.3111651  33.2860876  68.1420815  53.1791888  33.6531347
  67.7843582  52.4738933  32.3622165  70.7321746  60.7728630  44.9526707
  70.4322469  61.6753669  44.8442514  70.3872806  60.5060814  45.8047859
  64.1834228  57.2242427  40.9863411  63.2584724  57.0918641  41.1941103
  64.4318641  58.0036646  41.4833353  74.1318890  53.2911171  42.6324144
  73.2235767  53.2226579  42.3382905  74.0806486  53.7683115  43.4605969
  67.9535634  54.7669309  34.2707543  67.8335259  55.2126360  35.1093023
  67.2588222  55.1154627  33.7121081  65.7142526  67.5372951  37.9197674
  65.6366556  68.4880776  37.9986155  65.1104169  67.1918823  38.5772601
  68.2059756  54.7100816  50.5759041  67.4293090  55.2694736  50.5661906
  68.8450319  55.1957599  51.0973911  75.9980536  51.4927609  44.4102018
  75.3554917  51.7860142  43.7641812  75.4935465  51.3780529  45.2155214
  73.6520700  55.2390782  35.0987877  74.5638556  55.4718169  34.9235575
  73.1430347  55.8227826  34.5362956  66.4606128  57.5186269  50.1377008
  67.2020812  58.0571313  49.8611832  65.7543113  58.1452558  50.2948560
  71.9361468  59.6615410  48.7349170  72.3444824  59.2197820  47.9903802
  71.2138729  59.0868037  48.9883363  68.2892538  54.5988017  46.1082727
  69.1353733  55.0227430  46.2517376  68.2291175  53.9421641  46.8021290
  72.2590282  60.2216601  42.4901459  71.6299145  60.3862315  41.7877526
  71.8715944  60.6358210  43.2612423  76.1379514  61.1571038  39.8445822
  75.4530552  61.5369940  39.2942856  76.2223363  61.7666365  40.5777770
  71.4391983  52.2592385  47.7663900  71.1952915  53.0134446  47.2298176
  71.7151913  52.6377733  48.6011147  73.3930446  58.8030997  46.4441166
  73.6047341  59.4462757  45.7675547  73.3460194  57.9693314  45.9763096
  70.9956675  51.4148818  43.3477738  70.1341154  51.7130072  43.6394476
  71.0219109  51.6319217  42.4158771  67.8118244  59.9591009  39.7551544
  68.2756590  60.2378712  38.9656166  67.5475042  59.0574453  39.5724634
  64.7042325  59.5062490  42.6931307  65.2743682  59.9349759  42.0548791
  65.2950437  59.2245075  43.3915493  66.7487130  56.0814161  36.5641109
  67.4511174  56.5335205  37.0315035  66.4167759  55.4397980  37.1921002
  65.1967492  54.6725918  50.9392318  64.5666152  55.3542198  51.1727715
  65.0903580  54.5608999  49.9945456  74.5076274  61.6802953  44.6163523
  75.3293717  61.2783140  44.3346205  74.5038677  61.5771187  45.5679639
  68.2732877  61.2286996  46.7724234  68.3377310  61.6907403  47.6082405
  67.5643801  60.5984361  46.9006543  82.5982267  58.0241701  40.9648495
  81.8445975  57.4549099  40.8092499  82.7329808  57.9904366  41.9119129
  67.9880895  62.8955104  36.6403214  67.8526570  63.7406639  37.0688062
  68.5290707  63.0974381  35.8769148  67.3916195  50.3904563  50.8937826
  68.1325909  50.9911716  50.8142288  67.6234118  49.6482200  50.3355868
  69.6149371  63.5178670  50.7703556  69.1713225  62.7315049  50.4524461
  70.2766585  63.7057821  50.1047447  64.3736492  65.0474472  45.2964235
  64.9243917  64.9191535  44.5241228  63.5347968  65.3469361  44.9459127
  71.7130609  63.7981470  48.7984957  71.6949085  64.6190351  48.3065226
  72.6350529  63.6735545  49.0235098  68.1703663  61.3125600  49.6408466
  68.7032000  60.5513888  49.4107774  67.6417744  61.0199251  50.3832620
  71.3373358  46.4185666  45.1702107  70.9937628  47.3087307  45.0941218
  71.7052321  46.2287323  44.3071692  71.3023641  56.4094277  33.6774543
  70.7870265  57.1798881  33.9162930  71.0300950  55.7359413  34.3007604
  68.8870752  51.2543977  38.7359781  68.0312348  50.8650828  38.5565420
  69.2997704  51.3335938  37.8759566  70.4169899  48.7890321  43.1351341
  69.9134694  48.7520456  42.3219146  70.7100506  49.6983063  43.1947997
  66.6612785  48.8729050  42.1417522  67.5265781  48.6771859  41.7823412
  66.7290294  48.6439402  43.0686879  76.2757915  59.1626631  35.6127716
  75.4987358  58.8237791  35.1682878  76.9549396  59.1679254  34.9382681
  71.0909944  54.2821369  35.5034324  70.7860080  54.5967518  36.3544467
  72.0440386  54.3602789  35.5461657  69.5356376  60.4411592  37.1527278
  69.0077738  59.7064352  36.8400515  69.0343879  61.2186268  36.9067246
  74.5149222  58.6360613  42.2694324  73.8572897  59.3259874  42.3574453
  75.3189621  59.0257044  42.6128310  64.2675104  51.1031258  39.5133889
  64.8418856  50.8806440  38.7807082  64.8546086  51.1719953  40.2662491
  73.3254681  56.9904985  40.3198266  73.8386563  57.6234977  40.8219975
  73.9755905  56.3906181  39.9541626  64.5944691  53.1335719  33.5329774
  63.7582003  53.4710406  33.8539049  64.4549460  52.9984699  32.5956911
  66.5697771  47.9772507  38.2408959  65.9162184  47.6621524  37.6165573
  66.5278246  47.3548248  38.9668782  67.6808976  58.2591802  30.1562251
  66.7736038  58.0281056  30.3553400  68.1780008  57.4629422  30.3436232
  70.5877055  66.9689309  33.0758937  69.9138754  67.2721006  33.6843895
  70.9742877  67.7718390  32.7264394  69.8035512  54.4654441  42.5656606
  68.8858073  54.6869388  42.4078294  70.2195655  54.5400751  41.7068314
  70.5870560  55.8645856  37.6959287  71.3342378  56.3767254  37.3866409
  70.8562149  55.5429909  38.5563680  68.8597210  58.3604397  34.6786241
  67.9508429  58.0763430  34.7758711  68.8892294  58.7803476  33.8189548
  74.0916477  61.9710987  38.4477408  73.6378804  61.1301897  38.5042599
  73.4610444  62.6072385  38.7852189  73.0349397  52.9002973  39.6778076
  72.2972153  52.3880359  40.0088318  73.2876170  52.4603354  38.8661353
  72.5349416  63.8087483  39.3827227  72.8272391  64.3692540  38.6639592
  73.0448037  64.1016044  40.1380386  73.1361024  45.6779225  40.2719845
  73.4419901  44.8176588  39.9845760  73.8613629  46.2696845  40.0718839
  67.4082104  55.9733018  40.7796036  67.4630714  55.0206854  40.7038513
  66.5973306  56.1292457  41.2637335  68.5573298  59.9013141  32.0174319
  68.1192727  59.1849000  31.5579957  69.2983738  60.1289256  31.4559411
  65.3474464  54.5910077  38.5386415  64.5342329  54.8904248  38.9451607
  65.8433458  54.1965766  39.2560897  67.4983042  64.5867834  40.4720680
  67.4559220  64.8128681  39.5429212  68.4145740  64.3531209  40.6206481
  70.9448675  55.0551902  47.3701309  71.2998063  55.2823375  48.2295775
  71.5920807  55.3870279  46.7478564  76.6746412  58.1770338  38.0750638
  76.5364311  58.3671934  37.1471827  76.3182631  58.9389721  38.5318689
  76.7015792  60.2446865  43.0861909  77.1352299  60.1522154  43.9344964
  77.4147373  60.2204365  42.4481925  65.6148842  61.4630863  40.2682642
  66.4089441  60.9681184  40.0665217  64.9040535  60.9348727  39.9050348
  70.4343687  63.8448959  44.6195010  70.4880709  64.4139895  45.3872726
  69.5658468  64.0150844  44.2549047  77.5631341  60.2870566  45.6194795
  77.7567232  61.1916376  45.8654070  77.4631960  59.8277985  46.4533380
  69.2167652  50.1728456  48.1185122  68.5695567  50.8718406  48.0249599
  69.9868668  50.6064600  48.4861370  72.6246450  60.4377308  51.1935675
  72.4731957  60.2087860  50.2765759  72.6151130  61.3947910  51.2067020
  69.3931787  58.0109221  46.1781942  70.3223847  58.1620381  46.0050909
  68.9722817  58.0993242  45.3230588  68.1920118  62.0359885  43.9480480
  68.0531204  61.6678670  44.8206418  67.4034715  62.5507525  43.7764437
  68.7868270  67.1368982  35.2906016  68.9620026  66.6657025  36.1051639
  68.1001058  67.7634748  35.5187277  69.7425333  61.4141488  41.3369317
  69.4075166  61.3742258  42.2326967  69.2429279  60.7486204  40.8639728
  72.6784525  58.7597522  31.6106377  72.0613696  58.0344351  31.5139430
  72.2101014  59.5206883  31.2673451  66.3451878  56.5329077  46.3505578
  67.0551497  55.8922270  46.3092197  66.3021186  56.7841972  47.2731759
  74.3338657  63.4696431  49.2712157  74.2751203  62.7855651  48.6042740
  74.7358175  64.2115421  48.8192783  63.3529356  70.2858345  42.0645876
  63.5925954  70.9176869  42.7424895  62.5098552  69.9346385  42.3511236
  64.4683071  52.9782947  30.7327681  63.5912537  52.8571748  30.3689928
  64.9440824  52.1869025  30.4806570  74.3356064  61.4336015  47.5026137
  73.4482843  61.0961937  47.6252536  74.9054615  60.7019046  47.7394902
  67.8657217  66.0937467  44.4687380  67.7927389  66.8992439  44.9806685
  67.4234611  66.2929433  43.6435402  67.6546997  65.3309237  37.9790202
  66.8714519  65.8730917  38.0728426  68.3539742  65.8483217  38.3784443
  70.9643647  51.1403867  40.6224407  71.4612347  50.3873829  40.3025477
  70.1930629  51.1768183  40.0567616  78.8173405  56.8444232  42.2642699
  78.8063281  57.7268948  41.8936632  77.9490784  56.4915783  42.0697236
  70.3255901  65.9924301  46.6245539  71.0383873  66.6271766  46.5521440
  69.8345930  66.0888167  45.8085541  72.0473428  59.8975554  38.1962831
  71.1129707  60.0177016  38.0267535  72.2250096  58.9948021  37.9322840
  67.5478616  53.2821250  40.3496092  67.1776403  52.7292290  41.0376997
  68.0437708  52.6779383  39.7971092  75.4345979  55.7392873  38.7312865
  75.9006431  56.5720865  38.6573167  75.8853480  55.2737855  39.4358123
  65.3767815  63.7418745  47.4451110  66.0777274  64.3755228  47.5980504
  64.9062930  64.0833476  46.6846749  73.5022210  62.0836694  35.7299017
  73.7782054  61.9693289  36.6392891  72.6326709  61.6854179  35.6911190
  73.4062642  48.1073460  42.7703766  72.4925722  48.3377687  42.9385973
  73.8355743  48.1911904  43.6217798  73.1769100  56.2963352  45.2703660
  72.5240551  56.5439259  44.6156113  73.5549480  55.4827490  44.9366137
  70.1376274  66.3323045  39.3731830  70.3198669  65.5144701  39.8359583
  70.9609260  66.5490737  38.9356720  70.4718440  65.2591230  36.6346879
  71.0006206  64.7483685  36.0217041  70.7346659  64.9433761  37.4992412
  69.2256674  57.0383163  51.7569697  68.5497311  56.9377292  52.4272072
  70.0484307  56.8822377  52.2205694  60.9735533  63.2755100  44.3782212
  61.5588969  62.5298788  44.5110117  60.7760371  63.5859056  45.2618876
  63.8274188  66.3106347  39.3944655  63.1584563  66.7952475  38.9108695
  63.6887057  66.5575567  40.3088033  67.9679456  68.3450091  45.9927313
  68.5197764  68.5081712  46.7576398  68.3085650  68.9354528  45.3207338
  72.8190331  63.1711348  51.8475968  73.3630235  63.7841306  51.3530922
  72.2377176  63.7290926  52.3642981  71.1047844  66.2932066  42.9790995
  70.9798983  65.4921806  42.4701941  71.7626935  66.7878259  42.4904965
  73.1682752  64.0941086  44.6070545  72.2213088  63.9746437  44.5348872
  73.5165525  63.2063584  44.6896807  60.9249606  52.2538900  36.2979912
  60.5962313  51.3736279  36.1155018  61.2788977  52.1986568  37.1856301
  70.1729185  63.8893802  40.8074898  70.0254148  62.9610510  40.9882468
  70.9982679  63.9113893  40.3231973  64.0391430  52.5411869  36.6655390
  64.3787502  53.0697791  35.9433998  64.4863550  52.8792276  37.4413956
  73.7763307  64.7122361  41.8939770  74.7009855  64.5065222  41.7564222
  73.6078611  64.4638762  42.8029112  66.7334870  50.9248920  46.1158458
  66.3931691  50.1256733  46.5179138  66.0273877  51.2250631  45.5435291
  67.3851342  48.0098233  44.5685781  68.2077412  47.5358711  44.4464671
  67.6289406  48.7888716  45.0684467  66.0259577  51.0386491  34.8648683
  66.7467939  51.4167744  34.3612399  65.4024881  51.7575368  34.9683660
  70.1690700  51.7431640  35.8007015  70.3854314  52.6256278  35.4995843
  69.6884767  51.3517853  35.0712657  64.9089921  54.7017353  42.3777759
  64.7634502  55.0157656  43.2702041  64.4315125  55.3202254  41.8248658
  66.7686304  51.6919901  42.4258649  66.7547873  50.7960995  42.0890947
  67.4858732  51.6990565  43.0596935  68.6212435  52.1257241  44.4711776
  68.3630212  53.0474312  44.4696107  68.0897475  51.7287676  45.1612241
  73.5658623  65.2308029  37.2501862  73.7395501  64.6654451  36.4975714
  74.0587515  66.0308923  37.0681352  66.1723200  50.5734282  37.6946219
  66.2939111  49.6450928  37.8937107  65.8825242  50.5872967  36.7824535
  69.0414390  48.2589192  40.8312939  69.0636087  48.3228525  39.8764919
  69.4582449  47.4193701  41.0253445  79.4198015  57.9944452  38.8692162
  79.8629161  57.2451777  38.4711285  78.5424525  57.9854588  38.4865894
  74.5533796  64.5474793  34.3498760  75.2484701  65.1681486  34.5686075
  74.8956946  63.6970144  34.6251138  76.4525219  61.9974499  35.8786091
  76.9776543  62.3361771  35.1535411  76.3647572  61.0621514  35.6949225
  68.1145268  65.9108572  48.0075967  68.4232394  65.6657719  48.8798667
  68.9120750  66.1155211  47.5194838  68.1365880  68.0646482  40.2381344
  67.6970870  67.5722860  40.9314201  68.8873997  67.5219449  39.9973419
  65.5839752  63.6084491  42.3103646  64.9619761  62.9455196  42.0105874
  66.2544619  63.6345623  41.6277293  76.1419125  62.6307402  51.1837289
  75.3514669  62.6131541  50.6441788  75.9052480  63.1695696  51.9386325
  76.2617000  59.4799869  48.4970017  76.3115005  59.3149876  49.4385540
  76.1530923  58.6127128  48.1067898  65.1453259  62.1588414  35.7862106
  65.2941379  62.8423879  35.1328779  65.9519702  62.1393504  36.3011562
  73.5520763  55.4630797  49.8129324  74.4530625  55.3237261  49.5213322
  73.6268737  55.6285251  50.7527502  67.8863568  52.8397651  48.6582510
  67.0166877  53.1331217  48.3865099  68.1223048  53.4238096  49.3789774
  77.7635197  61.8996810  48.7412039  77.4720005  62.2626791  49.5775500
  77.1507328  61.1863818  48.5625371  78.9630879  59.4649690  41.2614609
  79.7977771  59.9039494  41.4252169  79.0990008  58.9888343  40.4422855
  76.0122385  57.0229425  47.2092097  76.4876507  57.2157071  46.4010948
  75.0887951  57.0788610  46.9635481  70.5902602  49.0577268  46.1747931
  71.1084546  49.7938295  45.8494419  70.2357734  49.3641262  47.0094690
  62.1701539  53.9181949  34.2909337  61.4770784  53.9926304  33.6349373
  61.9253291  53.1542293  34.8130854  70.8415196  45.4777551  41.6948827
  71.1216950  44.8100740  42.3209254  71.6265803  45.6706646  41.1823491
  68.6448664  64.6536545  33.2573854  68.0722631  65.2726732  32.8044326
  69.2181458  65.2035906  33.7913776  74.7124054  53.8995185  45.4420402
  75.6641477  53.9993282  45.4632627  74.5427505  53.1073453  45.9518487
  72.7338434  50.9850768  45.6279803  72.1388366  51.2655781  44.9326292
  72.4488130  51.4744669  46.3996545  71.8645924  64.9373695  34.3882436
  72.7976597  64.8719256  34.5915311  71.7769137  65.7729962  33.9296969
  74.4933941  64.2539565  31.3486384  74.4147572  63.9199429  32.2422141
  75.3143608  64.7461333  31.3477856  77.1912132  57.1201304  44.5562702
  77.1588452  56.1817305  44.7422386  77.8012756  57.1985341  43.8228527
  69.0295463  55.9897357  30.5989906  69.9754568  55.8603566  30.6678324
  68.6509708  55.2512019  31.0759334  77.3406620  53.9112348  44.6020985
  76.8245669  53.1270805  44.4150914  78.2246569  53.5831064  44.7667505
  75.0017347  47.6553363  40.5616798  74.8042169  47.3468452  41.4460130
  75.6117053  48.3815002  40.6914728  81.0903979  56.3225174  44.2943190
  80.3637143  56.1881139  43.6859682  80.6751266  56.6302002  45.0999908
  68.9134155  60.0415104  52.0590563  69.8337165  60.2193703  52.2530610
  68.8783738  59.0971149  51.9070262  67.2138380  53.9147334  30.5344791
  66.3069835  53.6180447  30.6107505  67.4914361  53.6177152  29.6679078
  68.8300446  48.4584224  36.6889033  68.0201174  48.1131308  37.0644279
  69.5184863  48.1491767  37.2776644  70.7590994  47.5362270  38.3113329
  71.3122033  47.9557724  38.9703352  70.9961080  46.6098018  38.3536285
  66.7824093  53.5249344  54.0916093  66.6820820  54.4743701  54.0228184
  66.5645635  53.1967583  53.2192163  65.9837165  50.7734269  30.6756771
  66.8456329  51.0989167  30.9352588  66.1687509  49.9865765  30.1629836
  74.1369801  49.6462795  37.8191994  73.5568470  50.3047600  37.4370046
  73.8705734  48.8240140  37.4079411  72.5873367  49.0467853  40.0213314
  73.0873146  49.1584388  39.2127633  73.2308975  48.7428906  40.6614122
  66.6455363  56.9546483  52.9081155  66.1622445  57.7546843  53.1145044
  66.7316302  56.9654428  51.9548599  62.5728701  60.8451018  44.9449589
  63.5271954  60.8134960  44.8779520  62.3741224  60.3841641  45.7599815
  72.9194679  51.8062886  36.8748342  72.0320534  52.0912536  36.6568537
  73.3348668  51.6456649  36.0275619  76.2709215  51.8309407  40.5902681
  77.0469605  52.3205859  40.8627298  75.5457349  52.2567461  41.0474551
  78.7081774  52.5437026  41.6476622  79.3026265  52.3032762  40.9369930
  78.7808358  51.8244157  42.2750158  60.9278930  66.3870637  41.9619787
  60.7933398  65.6271038  41.3957785  60.5110992  67.1111537  41.4948575
  72.0637893  61.5707561  30.9696362  72.7673743  61.7757563  31.5854017
  71.3400541  62.1384322  31.2345445  72.8935703  57.3217422  37.0898632
  72.8370904  57.7785973  36.2506264  73.4464045  56.5608106  36.9121475
  76.7040509  53.1107154  37.9148752  76.4477443  52.7103789  38.7456959
  76.0793377  53.8250948  37.7898891  81.0152847  55.8503227  40.4220043
  80.4552405  55.9196416  41.1951605  80.4096350  55.6744212  39.7019539
  64.0848055  67.2839954  42.1738229  63.9680440  68.2285386  42.0716919
  63.2640502  66.9813516  42.5624028  73.9724590  62.0090090  33.0194822
  74.8070194  61.5771288  32.8372297  73.8108933  61.8372103  33.9471716
  73.6270482  58.5122203  34.3851161  73.5719286  58.3466474  33.4439605
  73.0016537  59.2198236  34.5413351  70.9416389  60.8171115  53.7104724
  71.8107549  60.9911767  53.3491359  70.4623141  61.6365532  53.5880453
  66.9366608  48.0130312  33.9636480  66.9245277  48.9572152  34.1204750
  67.8290029  47.8300457  33.6695941  65.1102570  67.9368216  45.3894158
  66.0129816  67.9691826  45.7060653  64.8839940  67.0068667  45.4040493
  66.8656172  66.6899202  42.0504236  65.9151803  66.6901064  41.9368609
  67.1688658  65.9431937  41.5340271  70.7518727  44.6073089  38.2182416
  69.9851123  44.0531575  38.3639099  71.1629432  44.6794957  39.0796568
  79.4098571  72.4787169  43.0511523  79.0717083  72.3628234  42.1632058
  80.2788340  72.0778334  43.0312529  75.2685387  74.3322645  39.0408414
  74.7050252  74.2412582  38.2724702  75.1537782  73.5122550  39.5210907
  79.8918354  73.6322021  49.0097729  79.8806995  73.2374819  48.1378233
  80.0538994  72.8988093  49.6031500  72.8149819  75.8273837  41.8792635
  73.6071111  75.4864662  41.4638934  73.0546469  75.9368812  42.7994788
  74.7740573  75.0882750  34.7510014  75.5471449  74.5411737  34.6122889
  75.1265972  75.9527000  34.9624475  77.5381822  73.7935981  44.5478273
  78.1345395  73.5692003  43.8335235  77.5956794  73.0520726  45.1503720
  77.1106851  71.2475416  32.3828463  77.3632371  70.7256938  31.6211926
  76.1731410  71.0841562  32.4855147  82.1550134  70.2511195  40.1903207
  82.9413223  69.8330618  39.8393624  82.4188838  71.1557287  40.3584855
  76.8303139  73.1503522  34.5852838  76.7139398  72.4748426  35.2533923
  76.9405399  72.6635896  33.7684991  79.1734680  72.6113669  38.2899528
  78.8092888  72.0844290  39.0012449  80.0301796  72.2212138  38.1166013
  78.8140167  67.6403569  33.2860876  78.9814570  68.5083805  33.6531347
  78.6237336  67.8030851  32.3622165  75.0227982  72.5534345  40.9863411
  74.0978479  72.4210559  41.1941103  75.2712395  73.3328564  41.4833353
  78.7929388  70.0961227  34.2707543  78.6729013  70.5418277  35.1093023
  78.0981977  70.4446544  33.7121081  72.3836793  72.1967618  41.8207200
  72.5129174  72.4502097  42.7346612  71.7034244  72.7895326  41.5011855
  79.0453510  70.0392734  50.5759041  78.2686844  70.5986654  50.5661906
  79.6844073  70.5249517  51.0973911  77.2999882  72.8478187  50.1377008
  78.0414567  73.3863231  49.8611832  76.5936868  73.4744476  50.2948560
  79.1286292  69.9279934  46.1082727  79.9747487  70.3519348  46.2517376
  79.0684930  69.2713559  46.8021290  82.2785737  67.5884303  47.7663900
  82.0346669  68.3426363  47.2298176  82.5545668  67.9669650  48.6011147
  81.8350429  66.7440736  43.3477738  80.9734908  67.0421989  43.6394476
  81.8612864  66.9611135  42.4158771  75.5436080  74.8354408  42.6931307
  76.1137437  75.2641676  42.0548791  76.1344192  74.5536993  43.3915493
  77.5880885  71.4106079  36.5641109  78.2904928  71.8627122  37.0315035
  77.2561513  70.7689898  37.1921002  76.0361246  70.0017835  50.9392318
  75.4059907  70.6834116  51.1727715  75.9297334  69.8900917  49.9945456
  71.3306219  69.6689631  41.8658242  70.5405273  69.9247160  41.3898353
  71.8217466  70.4837969  41.9710283  73.2820964  70.0334211  38.8241719
  72.4852127  70.1452905  39.3425215  73.0546556  70.3720863  37.9582610
  69.6143922  69.9220122  44.2973233  69.8651960  70.8067132  44.5630809
  70.1503470  69.7424723  43.5248325  75.3141989  64.3038601  53.3017569
  74.9208934  63.7504800  53.9765213  76.1308129  64.6149180  53.6924087
  72.2804047  75.7422459  37.2131139  72.7928567  76.5365710  37.3636704
  72.9326760  75.0448750  37.1464741  78.2309950  65.7196480  50.8937826
  78.9719663  66.3203633  50.8142288  78.4627873  64.9774118  50.3355868
  73.3751288  70.9052848  49.1716055  73.2604803  70.0038105  49.4723154
  72.5195806  71.1516544  48.8200872  82.1767113  61.7477583  45.1702107
  81.8331382  62.6379225  45.0941218  82.5446075  61.5579241  44.3071692
  70.2452963  74.0711114  37.9890710  71.0828185  74.4808122  37.7724417
  70.4231231  73.1310556  37.9590903  79.7264507  66.5835895  38.7359781
  78.8706103  66.1942745  38.5565420  80.1391458  66.6627856  37.8759566
  81.2563653  64.1182238  43.1351341  80.7528449  64.0812373  42.3219146
  81.5494260  65.0274981  43.1947997  77.5006539  64.2020968  42.1417522
  78.3659536  64.0063777  41.7823412  77.5684048  63.9731320  43.0686879
  81.9303699  69.6113286  35.5034324  81.6253834  69.9259436  36.3544467
  82.8834141  69.6894706  35.5461657  75.1068858  66.4323176  39.5133889
  75.6812610  66.2098357  38.7807082  75.6939841  66.5011870  40.2662491
  75.4338445  68.4627637  33.5329774  74.5975758  68.8002324  33.8539049
  75.2943215  68.3276617  32.5956911  77.4091526  63.3064425  38.2408959
  76.7555938  62.9913442  37.6165573  77.3672000  62.6840165  38.9668782
  78.5202731  73.5883720  30.1562251  77.6129793  73.3572973  30.3553400
  79.0173763  72.7921339  30.3436232  80.6429266  69.7946358  42.5656606
  79.7251828  70.0161305  42.4078294  81.0589410  69.8692669  41.7068314
  81.4264314  71.1937774  37.6959287  82.1736133  71.7059171  37.3866409
  81.6955904  70.8721827  38.5563680  70.2679135  71.4101829  38.6601443
  70.0703534  70.8171190  37.9352510  69.7125799  71.1054039  39.3777382
  78.2475858  71.3024935  40.7796036  78.3024468  70.3498772  40.7038513
  77.4367060  71.4584375  41.2637335  76.1868218  69.9201995  38.5386415
  75.3736084  70.2196166  38.9451607  76.6827212  69.5257684  39.2560897
  81.7842430  70.3843820  47.3701309  82.1391818  70.6115293  48.2295775
  82.4314561  70.7162196  46.7478564  75.6782293  67.4920351  44.1547650
  76.3181672  67.3509110  43.4570613  74.8459823  67.2054864  43.7786252
  72.7625360  70.9365863  36.3442395  71.8322948  70.8750318  36.5612357
  72.8582832  70.4141816  35.5479036  72.6810909  67.4620676  38.9320637
  72.9417727  68.3766009  38.8229797  73.5028082  66.9945118  39.0817250
  74.1535835  68.8758433  46.1019461  74.8258888  68.6675795  45.4532110
  73.3265621  68.6780519  45.6624694  80.0561407  65.5020374  48.1185122
  79.4089322  66.2010323  48.0249599  80.8262422  65.9356518  48.4861370
  74.5563332  72.1501036  46.8621898  74.4183130  71.4181275  47.4633438
  75.4668255  72.0609936  46.5806086  77.1845633  71.8620995  46.3505578
  77.8945251  71.2214187  46.3092197  77.1414941  72.1133890  47.2731759
  75.8974567  68.8486213  48.1701218  75.3611924  68.3976951  48.8222814
  75.3091275  68.9832122  47.4271682  75.3076826  68.3074864  30.7327681
  74.4306292  68.1863665  30.3689928  75.7834579  67.5160943  30.4806570
  66.8278966  73.0952024  40.8269188  67.5150006  72.7813754  40.2390204
  66.6727094  73.9993389  40.5536440  71.6313688  67.9842221  45.2554212
  71.5471877  67.3767890  44.5204622  70.8096394  68.4751239  45.2563708
  81.8037402  66.4695784  40.6224407  82.3006101  65.7165747  40.3025477
  81.0324383  66.5060101  40.0567616  78.3872370  68.6113167  40.3496092
  78.0170158  68.0584208  41.0376997  78.8831463  68.0071301  39.7971092
  80.0650428  72.3675081  51.7569697  79.3891065  72.2669210  52.4272072
  80.8878062  72.2114295  52.2205694  71.8129287  78.6047017  44.3782212
  72.3982724  77.8590705  44.5110117  71.6154126  78.9150974  45.2618876
  66.4046942  71.1752618  43.0986656  66.4431041  70.6416208  43.8923774
  65.8987235  70.6487823  42.4797633  73.7837704  66.0217158  46.5949198
  73.8479031  66.8831989  46.1826596  73.7204824  65.4091160  45.8621556
  73.2589977  68.0940291  50.2422232  73.8862015  67.7117368  50.8559756
  72.4017895  67.8754493  50.6077925  70.0355519  69.9016720  36.1740587
  70.3308960  68.9927398  36.1207641  69.1343555  69.8804459  35.8521589
  73.5649766  67.9772716  42.1568136  72.8436352  68.5908684  42.0175609
  74.3543022  68.5130481  42.0784781  76.3676080  65.3127143  48.4308787
  76.8910482  65.5589439  49.1935097  76.1488413  66.1447178  48.0111925
  71.7643361  67.5830817  36.2979912  71.4356067  66.7028196  36.1155018
  72.1182732  67.5278486  37.1856301  74.8785184  67.8703787  36.6655390
  75.2181257  68.3989708  35.9433998  75.3257305  68.2084193  37.4413956
  77.5728625  66.2540838  46.1158458  77.2325445  65.4548651  46.5179138
  76.8667631  66.5542549  45.5435291  78.2245097  63.3390150  44.5685781
  79.0471166  62.8650628  44.4464671  78.4683160  64.1180634  45.0684467
  76.8653331  66.3678409  34.8648683  77.5861694  66.7459662  34.3612399
  76.2418635  67.0867286  34.9683660  81.0084454  67.0723558  35.8007015
  81.2248069  67.9548196  35.4995843  80.5278521  66.6809771  35.0712657
  75.7483676  70.0309271  42.3777759  75.6028256  70.3449574  43.2702041
  75.2708879  70.6494171  41.8248658  77.6080058  67.0211819  42.4258649
  77.5941627  66.1252912  42.0890947  78.3252487  67.0282483  43.0596935
  79.4606189  67.4549159  44.4711776  79.2023967  68.3766230  44.4696107
  78.9291230  67.0579594  45.1612241  70.2229338  72.5714615  45.3165421
  69.6782806  73.3474423  45.4485695  71.1008688  72.9185420  45.1584542
  77.0116954  65.9026199  37.6946219  77.1332866  64.9742845  37.8937107
  76.7218997  65.9164885  36.7824535  79.8808145  63.5881110  40.8312939
  79.9029842  63.6520443  39.8764919  80.2976204  62.7485618  41.0253445
  71.0095360  71.6984512  48.2095577  70.2677096  71.8467147  48.7960208
  70.6888104  71.9592777  47.3462327  69.6560578  77.5036267  41.1994906
  68.8192487  77.0758441  41.0178907  69.6284224  77.6968710  42.1365697
  76.4958034  67.4158197  51.9036152  76.5446189  68.2920319  51.5213921
  77.0380548  66.8735590  51.3307795  78.7257322  68.1689569  48.6582510
  77.8560632  68.4623135  48.3865099  78.9616803  68.7530014  49.3789774
  73.7399646  73.5145510  36.7923175  73.4945688  72.6107840  36.9903385
  73.9095561  73.5162660  35.8502653  81.4296356  64.3869186  46.1747931
  81.9478300  65.1230213  45.8494419  81.0751489  64.6933179  47.0094690
  73.0095294  69.2473867  34.2909337  72.3164539  69.3218222  33.6349373
  72.7647046  68.4834211  34.8130854  81.6808950  60.8069468  41.6948827
  81.9610704  60.1392657  42.3209254  82.4659557  60.9998564  41.1823491
  79.8689217  71.3189275  30.5989906  80.8148322  71.1895483  30.6678324
  79.4903462  70.5803937  31.0759334  78.0532134  69.2439251  30.5344791
  77.1463590  68.9472364  30.6107505  78.3308115  68.9469070  29.6679078
  68.9710075  70.5645615  40.9843838  68.6512859  69.7110923  40.6918212
  68.4243503  70.7794193  41.7401805  72.7489982  73.2808056  44.7013344
  72.9675992  74.2125164  44.7201378  73.1615756  72.9216030  45.4868148
  79.6694200  63.7876141  36.6889033  78.8594929  63.4423226  37.0644279
  80.3578617  63.4783685  37.2776644  81.5984748  62.8654188  38.3113329
  82.1515787  63.2849641  38.9703352  81.8354835  61.9389936  38.3536285
  77.6217848  68.8541262  54.0916093  77.5214575  69.8035619  54.0228184
  77.4039390  68.5259501  53.2192163  76.8230919  66.1026187  30.6756771
  77.6850083  66.4281085  30.9352588  77.0081263  65.3157683  30.1629836
  68.8398335  74.1848526  42.9536959  68.1461806  73.7702479  42.4406914
  69.5871326  74.2269063  42.3570378  77.4849118  72.2838400  52.9081155
  77.0016199  73.0838761  53.1145044  77.5710057  72.2946345  51.9548599
  70.7535077  74.1166780  40.8302974  70.7305766  74.2154467  39.8784857
  71.0635714  74.9631931  41.1520140  73.4122455  76.1742935  44.9449589
  74.3665709  76.1426878  44.8779520  73.2134979  75.7133559  45.7599815
  74.0021837  74.7444051  47.5120386  74.8214726  75.2388130  47.5355224
  74.2758645  73.8276019  47.4837954  69.2556752  69.0782185  48.2112583
  69.9015615  68.5681139  48.6999809  69.0473903  69.8150867  48.7856009
  77.7760362  63.3422230  33.9636480  77.7639032  64.2864070  34.1204750
  78.6683784  63.1592375  33.6695941  81.5912482  59.9365006  38.2182416
  80.8244877  59.3823493  38.3639099  82.0023187  60.0086875  39.0796568
  73.5954243  66.2249802  52.3087598  74.4585704  65.8686607  52.5190922
  73.0219653  65.8863697  52.9963002  33.1961264  -1.4440680  24.6442981
  33.1185293  -0.4932855  24.7231461  32.5922907  -1.7894807  25.3017907
  31.8555230  -3.9339159  32.0209541  32.4062655  -4.0622095  31.2486535
  31.0166706  -3.6344270  31.6704434  38.0695793  -2.0124321  19.8004244
  37.3957492  -1.7092624  20.4089201  38.4561615  -1.2095241  19.4509701
  36.2687008  -1.8444649  22.0151323  36.4438764  -2.3156605  22.8296945
  35.5819796  -1.2178882  22.2432583  30.8348093   1.3044714  28.7891183
  31.0744692   1.9363238  29.4670201  29.9917290   0.9532754  29.0756542
  35.3475955  -2.8876163  31.1932687  35.2746127  -2.0821192  31.7051991
  34.9053348  -2.6884198  30.3680708  35.1365735  -3.6504393  24.7035508
  34.3533257  -3.1082713  24.7973733  35.8358480  -3.1330414  25.1029750
  37.8074639  -2.9889329  33.3490846  38.5202611  -2.3541864  33.2766747
  37.3164667  -2.8925463  32.5330847  28.4554270  -5.7058531  31.1027519
  29.0407707  -6.4514843  31.2355423  28.2579109  -5.3954574  31.9864183
  31.3092926  -2.6707283  26.1189961  30.6403301  -2.1861156  25.6354001
  31.1705795  -2.4238063  27.0333340  35.4498194  -0.6363540  32.7172620
  36.0016502  -0.4731918  33.4821705  35.7904388  -0.0459102  32.0452645
  35.5964005  -3.0705058  34.7321274  35.9051132  -3.3155912  35.6043974
  36.3939488  -2.8658420  34.2440144  35.6184618  -0.9167149  26.9626651
  35.1789608  -1.4090770  27.6559507  36.3692734  -1.4594181  26.7218726
  28.0976957  -4.7255608  26.9651279  28.9234976  -5.0251836  26.5849922
  27.7471009  -5.4947985  27.4141067  28.4097667  -2.5942993  28.6865093
  28.2752135  -3.3542593  28.1203091  27.9929730  -1.8702094  28.2193882
  31.5666793  -1.6973676  28.8983536  31.4499177  -0.7528244  28.7962226
  30.7459240  -2.0000115  29.2869335  32.5921307  -1.0445415  32.1139464
  33.4948554  -1.0121804  32.4305959  32.3658677  -1.9744964  32.1285800
  34.3474909  -2.2914428  28.7749543  33.3970540  -2.2912566  28.6613915
  34.6507396  -3.0381693  28.2585578  50.0827603   3.5446110  29.8395305
  50.7206013   3.4252858  29.1358645  49.9648446   4.4926954  29.8983257
  46.8917309   3.4973539  29.7756830  46.5535821   3.3814603  28.8877365
  47.7607077   3.0964704  29.7557836  42.7504125   5.3509015  25.7653721
  42.1868990   5.2598952  24.9970009  42.6356520   4.5308919  26.2456213
  47.3737092   4.6508390  35.7343036  47.3625733   4.2561189  34.8623539
  47.5357732   3.9174463  36.3276807  40.2968557   6.8460207  28.6037941
  41.0889849   6.5051031  28.1884241  40.5365207   6.9555182  29.5240095
  48.3303684   9.0179983  21.0768186  47.6791663   9.6034063  20.6902200
  49.1248046   9.5486178  21.1363223  42.2559311   6.1069120  21.4755320
  43.0290187   5.5598107  21.3368196  42.6084710   6.9713369  21.6869782
  44.0944353   7.4345502  34.6822219  43.8034219   8.3391133  34.5668886
  44.7301338   7.4762030  35.3966289  45.0200560   4.8122351  31.2723579
  45.6164132   4.5878373  30.5580542  45.0775532   4.0707096  31.8749027
  44.5925589   2.2661786  19.1073770  44.8451109   1.7443307  18.3457233
  43.6550148   2.1027931  19.2100454  49.8078949   6.7070415  21.6137170
  49.1724782   6.7805041  22.3258075  49.4776355   7.2964013  20.9356249
  44.3121877   4.1689892  21.3098145  44.1958135   3.4934795  21.9779229
  44.4224137   3.6822266  20.4930298  46.6553418   3.6300039  25.0144834
  46.2911625   3.1030660  25.7257756  47.5120534   3.2398508  24.8411320
  49.0534238   7.1206918  31.6772013  48.7534961   8.0231956  31.5687820
  48.7085298   6.8539101  32.5293166  42.5046720   3.5720714  27.7108718
  41.5797216   3.4396929  27.9186409  42.7531133   4.3514934  28.2078660
  46.2748126   1.1147596  20.9952850  46.1547751   1.5604647  21.8338330
  45.5800714   1.4632914  20.4366388  39.8655531   3.2153988  28.5452507
  39.9947912   3.4688467  29.4591918  39.1852982   3.8081696  28.2257162
  44.0355018  13.8851238  24.6442981  43.9579048  14.8359063  24.7231461
  43.4316662  13.5397110  25.3017907  46.5272248   1.0579103  37.3004348
  45.7505582   1.6173023  37.2907212  47.1662811   1.5435886  37.8219218
  44.7818620   3.8664557  36.8622315  45.5233305   4.4049601  36.5857138
  44.0755606   4.4930845  37.0193867  50.2573960   6.0093697  35.4594476
  50.6657316   5.5676108  34.7149109  49.5351221   5.4346325  35.7128669
  46.6105030   0.9466304  32.8328033  47.4566225   1.3705717  32.9762682
  46.5503668   0.2899928  33.5266596  50.5802775   6.5694888  29.2146765
  49.9511637   6.7340602  28.5122833  50.1928437   6.9836497  29.9857729
  54.4592006   7.5049326  26.5691129  53.7743045   7.8848227  26.0188162
  54.5435856   8.1144652  27.3023077  51.7142938   5.1509285  33.1686472
  51.9259833   5.7941045  32.4920854  51.6672686   4.3171601  32.7008403
  46.1330736   6.3069296  26.4796850  46.5969082   6.5856999  25.6901473
  45.8687535   5.4052740  26.2969941  43.0254817   5.8540777  29.4176613
  43.5956175   6.2828046  28.7794098  43.6162929   5.5723362  30.1160799
  45.0699622   2.4292448  23.2886415  45.7723666   2.8813492  23.7560342
  44.7380251   1.7876267  23.9166309  43.5179984   1.0204205  37.6637625
  42.8878645   1.7020486  37.8973022  43.4116072   0.9087286  36.7190763
  38.8124956   0.6876001  28.5903549  38.0224010   0.9433529  28.1143660
  39.3036204   1.5024339  28.6955589  52.8288766   8.0281240  31.3408830
  53.6506210   7.6261427  31.0591511  52.8251169   7.9249474  32.2924946
  40.7639702   1.0520580  25.5487026  39.9670865   1.1639274  26.0670521
  40.5365294   1.3907232  24.6827916  46.5945369   7.5765283  33.4969540
  46.6589802   8.0385691  34.3327712  45.8856293   6.9462648  33.6251850
  37.0962659   0.9406491  31.0218540  37.3470698   1.8253501  31.2876116
  37.6322208   0.7611093  30.2493632  46.3093387   9.2433391  23.3648521
  46.1739062  10.0884927  23.7933368  46.8503200   9.4452669  22.6014454
  39.7622784   6.7608829  23.9376446  40.2747305   7.5552079  24.0882010
  40.4145497   6.0635119  23.8710047  41.5717669   9.8774585  26.0199199
  41.7484298  10.7992550  25.8320183  42.3674503   9.5633004  26.4493579
  40.8570026   1.9239217  35.8961362  40.7423541   1.0224474  36.1968461
  40.0014543   2.1702914  35.5446179  47.9361863   9.8656957  37.4948863
  47.4925718   9.0793336  37.1769767  48.5979077  10.0536108  36.8292753
  42.6948985  11.3952759  32.0209541  43.2456410  11.2669822  31.2486535
  41.8560461  11.6947648  31.6704434  50.0343102  10.1459757  35.5230264
  50.0161577  10.9668638  35.0310533  50.9563022  10.0213833  35.7480405
  46.4916156   7.6603887  36.3653772  47.0244492   6.8992175  36.1353080
  45.9630237   7.3677539  37.1077927  37.7271701   5.0897483  24.7136016
  38.5646923   5.4994492  24.4969724  37.9049969   4.1496925  24.6836210
  49.6236133   2.7572564  20.4019849  49.1082757   3.5277168  20.6408237
  49.3513442   2.0837700  21.0252911  54.5970407   5.5104919  22.3373023
  53.8199850   5.1716078  21.8928185  55.2761888   5.5157542  21.6627988
  47.8568868   6.7889879  23.8772584  47.3290230   6.0542639  23.5645822
  47.3556371   7.5664556  23.6312553  52.8361714   4.9838900  28.9939631
  52.1785389   5.6738161  29.0819759  53.6402114   5.3735332  29.3373617
  51.6467173   3.3383272  27.0443572  52.1599055   3.9713264  27.5465282
  52.2968397   2.7384468  26.6786932  42.9157183  -0.5185993  20.2575081
  42.0794495  -0.1811307  20.5784356  42.7761953  -0.6537014  19.3202218
  46.0021469   4.6070090  16.8807557  45.0948530   4.3759343  17.0798706
  46.4992501   3.8107709  17.0681539  48.9089547  13.3167597  19.8004244
  48.2351246  13.6199293  20.4089201  49.2955369  14.1196677  19.4509701
  48.1248004   0.8132728  29.2901913  47.2070565   1.0347675  29.1323601
  48.5408148   0.8879038  28.4313620  48.9083052   2.2124144  24.4204593
  49.6554871   2.7245541  24.1111715  49.1774641   1.8908196  25.2808987
  47.1809702   4.7082684  21.4031547  46.2720921   4.4241717  21.5004017
  47.2104786   5.1281763  20.5434854  52.4128969   8.3189274  25.1722715
  51.9591297   7.4780184  25.2287905  51.7822936   8.9550672  25.5097495
  50.8561909  10.1565771  26.1072533  51.1484883  10.7170828  25.3884899
  51.3660529  10.4494332  26.8625692  37.7497872   2.4288199  25.3846750
  37.5522272   1.8357559  24.6597816  37.1944536   2.1240409  26.1022688
  45.7294596   2.3211305  27.5041343  45.7843206   1.3685141  27.4283819
  44.9185798   2.4770744  27.9882641  46.8785790   6.2491428  18.7419626
  46.4405220   5.5327287  18.2825263  47.6196231   6.4767543  18.1804717
  43.6686956   0.9388365  25.2631722  42.8554822   1.2382535  25.6696914
  44.1645950   0.5444054  25.9806204  45.8195534  10.9346122  27.1965986
  45.7771713  11.1606968  26.2674518  46.7358233  10.7009496  27.3451788
  49.2661168   1.4030189  34.0946616  49.6210555   1.6301662  34.9541081
  49.9133299   1.7348566  33.4723871  54.9958905   4.5248625  24.7995945
  54.8576803   4.7150221  23.8717134  54.6395123   5.2868008  25.2563996
  55.0228284   6.5925152  29.8107216  55.4564791   6.5000441  30.6590270
  55.7359865   6.5682653  29.1727232  43.9361335   7.8109151  26.9927949
  44.7301933   7.3159471  26.7910524  43.2253027   7.2827014  26.6295655
  48.7556179  10.1927246  31.3440317  48.8093201  10.7618183  32.1118033
  47.8870960  10.3629131  30.9794354  40.2444098   1.9552232  23.0687702
  39.3141686   1.8936688  23.2857664  40.3401570   1.4328185  22.2724343
  40.1629647  -1.5192955  25.6565943  40.4236464  -0.6047621  25.5475104
  40.9846819  -1.9868512  25.8062556  41.6354572  -0.1055198  32.8264768
  42.3077626  -0.3137835  32.1777417  40.8084359  -0.3033112  32.3870000
  55.8843834   6.6348853  32.3440102  56.0779724   7.5394663  32.5899376
  55.7844452   6.1756272  33.1778687  50.9458942   6.7855596  37.9180982
  50.7944449   6.5566147  37.0011066  50.9363622   7.7426197  37.9312327
  47.7144279   4.3587508  32.9027249  48.6436339   4.5098668  32.7296216
  47.2935309   4.4471529  32.0475895  46.5132611   8.3838173  30.6725786
  46.3743696   8.0156957  31.5451724  45.7247207   8.8985812  30.5009744
  47.1080763  13.4847269  22.0151323  47.2832518  13.0135312  22.8296945
  46.4213551  14.1113035  22.2432583  48.0637826   7.7619775  28.0614624
  47.7287658   7.7220545  28.9572274  47.5641771   7.0964491  27.5885034
  42.0382070   3.1687405  33.5867205  41.9001868   2.4367644  34.1878744
  42.9486993   3.0796306  33.3051393  50.9997017   5.1075810  18.3351684
  50.3826188   4.3822638  18.2384736  50.5313506   5.8685170  17.9918758
  44.6664370   2.8807365  33.0750885  45.3763989   2.2400557  33.0337503
  44.6233679   3.1320260  33.9977066  52.6551149   9.8174718  35.9957464
  52.5963695   9.1333938  35.3288047  53.0570667  10.5593708  35.5438090
  43.3793304  -0.1327417  34.8946524  42.8430661  -0.5836679  35.5468121
  42.7910013   0.0018491  34.1516989  41.6741848  16.6336632  28.7891183
  41.9138446  17.2655156  29.4670201  40.8311044  16.2824672  29.0756542
  52.6568556   7.7814302  34.2271444  51.7695335   7.4440224  34.3497843
  53.2267107   7.0497333  34.4640209  34.3097703   4.1138394  27.5514495
  34.9968743   3.8000124  26.9635510  34.1545832   5.0179758  27.2781746
  46.1869710  12.4415754  31.1932687  46.1139881  13.2470726  31.7051991
  45.7447103  12.6407720  30.3680708  45.9759489  11.6787524  24.7035508
  45.1927011  12.2209205  24.7973733  46.6752235  12.1961504  25.1029750
  48.6468393  12.3402588  33.3490846  49.3596365  12.9750053  33.2766747
  48.1558422  12.4366454  32.5330847  50.3685920   6.2453841  24.9208137
  49.4342199   6.3655304  24.7512842  50.5462589   5.3426308  24.6568147
  43.6980307  10.0897032  34.1696416  44.3989766  10.7233515  34.3225811
  43.2275422  10.4311763  33.4092056  51.8234703   8.4314982  22.4544323
  52.0994547   8.3171576  23.3638197  50.9539201   8.0332466  22.4156496
  51.4981593   2.6441639  31.9948967  50.8453043   2.8917547  31.3401419
  51.8761973   1.8305777  31.6611444  48.4588767  12.6801332  26.0977137
  48.6411161  11.8622988  26.5604889  49.2821753  12.8969025  25.6602027
  48.7930932  11.6069518  23.3592185  49.3218699  11.0961972  22.7462348
  49.0559152  11.2912048  24.2237719  47.5469166   3.3861450  38.4815004
  46.8709803   3.2855580  39.1517379  48.3696800   3.2300664  38.9451001
  39.2948025   9.6233387  31.1027519  39.8801462   8.8777075  31.2355423
  39.0972863   9.9337344  31.9864183  42.1486680  12.6584634  26.1189961
  41.4797055  13.1430762  25.6354001  42.0099550  12.9053855  27.0333340
  33.8865680   2.1938987  29.8231962  33.9249779   1.6602578  30.6169080
  33.3805972   1.6674193  29.2042939  46.2891949  14.6928378  32.7172620
  46.8410257  14.8559999  33.4821705  46.6298142  15.2832816  32.0452645
  40.7408714  -0.8873340  36.9667539  41.3680753  -1.2696263  37.5805063
  39.8836633  -1.1059138  37.3323231  51.1402823   9.5189635  38.5721274
  51.6842727  10.1319594  38.0776229  50.5589668  10.0769214  39.0888287
  37.5174257   0.9203089  22.8985894  37.8127698   0.0113768  22.8452947
  36.6162293   0.8990829  22.5766896  49.4260336  12.6410353  29.7036302
  49.3011475  11.8400093  29.1947247  50.0839427  13.1356547  29.2150272
  41.0468504  -1.0040914  28.8813442  40.3255090  -0.3904946  28.7420915
  41.8361760  -0.4683149  28.8030088  51.4895244  10.4419373  31.3315852
  50.5425580  10.3224725  31.2594179  51.8378017   9.5541871  31.4142113
  39.2462099  -1.3982813  23.0225219  38.9174805  -2.2785434  22.8400325
  39.6001469  -1.4535144  23.9101608  48.4941678  10.2372090  27.5320204
  48.3466640   9.3088797  27.7127774  49.3195171  10.2592180  27.0477279
  42.3603922  -1.1109843  23.3900696  42.6999994  -0.5823922  22.6679305
  42.8076042  -0.7729437  24.1659263  52.0975799  11.0600648  28.6185077
  53.0222347  10.8543510  28.4809528  51.9291103  10.8117050  29.5274418
  43.2302413   1.0495641  29.1023066  43.0846994   1.3635944  29.9947348
  42.7527617   1.6680541  28.5493965  51.8871116  11.5786316  23.9747168
  52.0607993  11.0132738  23.2221021  52.3800007  12.3787211  23.7926658
  37.7048075   3.5900985  32.0410727  37.1601544   4.3660793  32.1731002
  38.5827425   3.9371789  31.8829849  52.8746288  10.8953080  21.0744067
  53.5697193  11.5159773  21.2931381  53.2169438  10.0448431  21.3496445
  38.4914097   2.7170881  34.9340884  37.7495833   2.8653517  35.5205515
  38.1706842   2.9779147  34.0707634  54.7737711   8.3452786  22.6031398
  55.2989035   8.6840059  21.8780718  54.6860064   7.4099801  22.4194532
  46.4357760  12.2586859  34.7321274  46.7444886  12.0136006  35.6043974
  47.2333242  12.4633498  34.2440144  46.4578372  14.4124769  26.9626651
  46.0183362  13.9201148  27.6559507  47.2086489  13.8697737  26.7218726
  38.9370711  10.6036310  26.9651279  39.7628731  10.3040082  26.5849922
  38.5864763   9.8343932  27.4141067  43.9052244   9.9562778  29.0348952
  43.2832253   9.2933483  28.7351180  44.5757111   9.9823910  28.3522600
  37.1379316   8.5222636  27.9240212  36.3011224   8.0944811  27.7424214
  37.1102961   8.7155080  28.8611004  54.4631617   8.9785689  37.9082595
  53.6727161   8.9609828  37.3687095  54.2264972   9.5173983  38.6631632
  54.5829492   5.8278156  35.2215324  54.6327497   5.6628163  36.1630847
  54.4743416   4.9605415  34.8313205  43.4665751   8.5066701  22.5107413
  43.6153871   9.1902166  21.8574086  44.2732195   8.4871792  23.0256869
  56.0847689   8.2475097  35.4657346  55.7932498   8.6105078  36.3020807
  55.4719821   7.5342106  35.2870678  57.2843372   5.8127977  27.9859916
  58.1190263   6.2517781  28.1497476  57.4202500   5.3366630  27.1668162
  54.3334877   3.3707712  33.9337404  54.8088999   3.5635358  33.1256255
  53.4100443   3.4266898  33.6880787  41.2218384   4.5331879  23.5168482
  40.9764426   3.6294209  23.7148692  41.3914299   4.5349030  22.5747960
  40.4914032   0.2660237  21.0154643  39.7983277   0.3404592  20.3594679
  40.2465784  -0.4979420  21.5376160  46.9661157  11.0014832  19.9819160
  46.3935124  11.6205019  19.5289632  47.5393950  11.5514194  20.5159082
  50.1858416  11.2851982  21.1127743  51.1189090  11.2197544  21.3160618
  50.0981629  12.1208249  20.6542275  52.8146433  10.6017852  18.0731690
  52.7360065  10.2677716  18.9667448  53.6356100  11.0939620  18.0723163
  47.3507955   2.3375645  17.3235213  48.2967060   2.2081853  17.3923631
  46.9722200   1.5990307  17.8004641  47.2346648   6.3893391  38.7835870
  48.1549657   6.5671990  38.9775916  47.1996231   5.4449436  38.6315569
  45.5350872   0.2625621  17.2590098  44.6282328  -0.0341266  17.3352812
  45.8126853  -0.0344561  16.3924384  36.4528813   1.5831984  27.7089144
  36.1331597   0.7297293  27.4163518  35.9062241   1.7980563  28.4647112
  40.2308720   4.2994425  31.4258651  40.4494730   5.2311533  31.4446685
  40.6434494   3.9402400  32.2113455  45.1036586  -0.1272369  40.8161400
  45.0033312   0.8221988  40.7473491  44.8858128  -0.4554130  39.9437470
  36.3217073   5.2034896  29.6782266  35.6280544   4.7888849  29.1652220
  37.0690064   5.2455432  29.0815685  44.9667856   3.3024770  39.6326462
  44.4834937   4.1025130  39.8390351  45.0528795   3.3132715  38.6793906
  38.2353815   5.1353150  27.5548281  38.2124503   5.2340837  26.6030164
  38.5454452   5.9818301  27.8765447  40.8941193   7.1929305  31.6694895
  41.8484447   7.1613247  31.6024827  40.6953717   6.7319928  32.4845121
  41.4840575   5.7630421  34.2365693  42.3033464   6.2574499  34.2600530
  41.7577383   4.8462389  34.2083260  39.2491422  12.7348924  28.6865093
  39.1145890  11.9749325  28.1203091  38.8323484  13.4589824  28.2193882
  50.3850385   7.9185848  17.6941668  51.0886235   8.1235850  18.3099324
  49.6613034   8.4862610  17.9590752  51.2148195   3.6695709  23.8143939
  51.1583397   4.1264260  22.9751571  51.7676538   2.9086394  23.6366781
  42.4060548  13.6318241  28.8983536  42.2892932  14.5763674  28.7962226
  41.5852994  13.3291803  29.2869335  52.2937082   8.3568377  19.7440129
  53.1282686   7.9249575  19.5617603  52.1321425   8.1850391  20.6717023
  51.9482974   4.8600490  21.1096468  51.8931778   4.6944762  20.1684912
  51.3229030   5.5676523  21.2658658  36.7375489   0.0968555  34.9357890
  37.3834353  -0.4132491  35.4245115  36.5292641   0.8337236  35.5101315
  49.2628882   7.1649402  40.4350031  50.1320041   7.3390054  40.0736666
  48.7835633   7.9843819  40.3125760  43.4315062  14.2846503  32.1139464
  44.3342309  14.3170113  32.4305959  43.2052432  13.3546954  32.1285800
  45.1868664  13.0377490  28.7749543  44.2364295  13.0379351  28.6613915
  45.4901150  12.2910224  28.2585578  60.9221357  18.8738028  29.8395305
  61.5599767  18.7544775  29.1358645  60.8042200  19.8218872  29.8983257
  57.7311064  18.8265456  29.7756830  57.3929575  18.7106521  28.8877365
  58.6000832  18.4256621  29.7557836  53.5897879  20.6800933  25.7653721
  53.0262744  20.5890870  24.9970009  53.4750274  19.8600837  26.2456213
  51.1362311  22.1752124  28.6037941  51.9283603  21.8342949  28.1884241
  51.3758961  22.2847099  29.5240095  59.1697438  24.3471900  21.0768186
  58.5185418  24.9325981  20.6902200  59.9641801  24.8778095  21.1363223
  53.0953065  21.4361037  21.4755320  53.8683941  20.8890025  21.3368196
  53.4478464  22.3005287  21.6869782  54.9338108  22.7637420  34.6822219
  54.6427974  23.6683051  34.5668886  55.5695092  22.8053947  35.3966289
  55.8594315  20.1414268  31.2723579  56.4557887  19.9170291  30.5580542
  55.9169286  19.3999014  31.8749027  55.4319343  17.5953704  19.1073770
  55.6844864  17.0735225  18.3457233  54.4943902  17.4319849  19.2100454
  60.4762626  16.5989482  26.9148513  61.2625715  16.1808905  26.5638930
  60.7401330  17.5035574  27.0830162  60.6472703  22.0362332  21.6137170
  60.0118536  22.1096959  22.3258075  60.3170110  22.6255931  20.9356249
  65.8771053  16.5364715  27.8181492  66.6096225  15.9663932  28.0519321
  65.1210409  16.1486316  28.2587997  55.1515632  19.4981810  21.3098145
  55.0351890  18.8226713  21.9779229  55.2617892  19.0114183  20.4930298
  57.4947173  18.9591957  25.0144834  57.1305380  18.4322578  25.7257756
  58.3514289  18.5690426  24.8411320  63.3996473  10.2486289  32.2776100
  63.0679798  11.1181700  32.0537315  62.8042087   9.9322573  32.9570131
  57.1352660  13.9881856  20.0106183  57.3027062  14.8562093  20.3776654
  56.9449829  14.1509138  19.0867472  59.8927993  22.4498835  31.6772013
  59.5928716  23.3523874  31.5687820  59.5479052  22.1831018  32.5293166
  53.3440474  18.9012632  27.7108718  52.4190971  18.7688846  27.9186409
  53.5924888  19.6806851  28.2078660  63.2925137  14.9681375  29.3569450
  62.3842014  14.8996784  29.0628211  63.2412732  15.4453320  30.1851276
  57.1141881  16.4439514  20.9952850  56.9941506  16.8896565  21.8338330
  56.4194469  16.7924832  20.4366388  50.7049285  18.5445906  28.5452507
  50.8341667  18.7980385  29.4591918  50.0246737  19.1373614  28.2257162
  54.8748773  29.2143156  24.6442981  54.7972802  30.1650981  24.7231461
  54.2710416  28.8689028  25.3017907  57.3666002  16.3871021  37.3004348
  56.5899336  16.9464941  37.2907212  58.0056565  16.8727804  37.8219218
  65.1586783  13.1697814  31.1347324  64.5161163  13.4630347  30.4887119
  64.6541712  13.0550734  31.9400521  62.8126947  16.9160987  21.8233184
  63.7244803  17.1488374  21.6480881  62.3036594  17.4998031  21.2608262
  61.0967714  21.3385615  35.4594476  61.5051070  20.8968025  34.7149109
  60.3744976  20.7638242  35.7128669  57.4498784  16.2758222  32.8328033
  58.2959980  16.6997635  32.9762682  57.3897422  15.6191846  33.5266596
  61.4196529  21.8986805  29.2146765  60.7905391  22.0632520  28.5122833
  61.0322191  22.3128415  29.9857729  65.2985761  22.8341243  26.5691129
  64.6136799  23.2140145  26.0188162  65.3829610  23.4436570  27.3023077
  60.5998230  13.9362590  34.4909207  60.3559162  14.6904650  33.9543483
  60.8758160  14.3147938  35.3256454  62.5536693  20.4801202  33.1686472
  62.7653588  21.1232962  32.4920854  62.5066441  19.6463519  32.7008403
  60.1562921  13.0919023  30.0723045  59.2947401  13.3900277  30.3639782
  60.1825356  13.3089422  29.1404077  56.9724491  21.6361214  26.4796850
  57.4362836  21.9148917  25.6901473  56.7081289  20.7344658  26.2969941
  53.8648572  21.1832695  29.4176613  54.4349929  21.6119963  28.7794098
  54.4556684  20.9015280  30.1160799  55.9093377  17.7584366  23.2886415
  56.6117420  18.2105410  23.7560342  55.5774005  17.1168185  23.9166309
  54.3573738  16.3496123  37.6637625  53.7272399  17.0312403  37.8973022
  54.2509826  16.2379204  36.7190763  49.6518711  16.0167919  28.5903549
  48.8617765  16.2725447  28.1143660  50.1429958  16.8316256  28.6955589
  63.6682520  23.3573158  31.3408830  64.4899964  22.9553345  31.0591511
  63.6644923  23.2541392  32.2924946  51.6033456  16.3812498  25.5487026
  50.8064620  16.4931192  26.0670521  51.3759048  16.7199150  24.6827916
  57.4339124  22.9057201  33.4969540  57.4983556  23.3677608  34.3327712
  56.7250048  22.2754566  33.6251850  47.9356414  16.2698409  31.0218540
  48.1864452  17.1545419  31.2876116  48.4715962  16.0903011  30.2493632
  71.7588514  19.7011906  27.6893801  71.0052222  19.1319304  27.5337806
  71.8936055  19.6674571  28.6364436  57.1487142  24.5725309  23.3648521
  57.0132816  25.4176844  23.7933368  57.6896954  24.7744586  22.6014454
  53.6354481  10.6516888  40.0262876  53.2421427  10.0983087  40.7010520
  54.4520622  10.9627467  40.4169393  50.6016539  22.0900747  23.9376446
  51.1141060  22.8843997  24.0882010  51.2539252  21.3927037  23.8710047
  52.4111424  25.2066503  26.0199199  52.5878052  26.1284468  25.8320183
  53.2068257  24.8924922  26.4493579  56.5522442  12.0674767  37.6183132
  57.2932156  12.6681921  37.5387595  56.7840365  11.3252405  37.0601175
  51.6963780  17.2531135  35.8961362  51.5817295  16.3516392  36.1968461
  50.8408298  17.4994832  35.5446179  53.5342739  26.7244677  32.0209541
  54.0850164  26.5961740  31.2486535  52.6954215  27.0239566  31.6704434
  60.4979605   8.0955870  31.8947414  60.1543875   8.9857512  31.8186525
  60.8658568   7.9057528  31.0316999  48.5665456  20.4189401  24.7136016
  49.4040678  20.8286409  24.4969724  48.7443723  19.4788843  24.6836210
  60.4629888  18.0864482  20.4019849  59.9476511  18.8569086  20.6408237
  60.1907196  17.4129618  21.0252911  58.0476999  12.9314182  25.4605088
  57.1918595  12.5421033  25.2810726  58.4603951  13.0106143  24.6004873
  59.5776146  10.4660526  29.8596647  59.0740941  10.4290661  29.0464453
  59.8706752  11.3753268  29.9193304  55.8219031  10.5499255  28.8662829
  56.6872028  10.3542064  28.5068719  55.8896540  10.3209607  29.7932186
  65.4364162  20.8396836  22.3373023  64.6593605  20.5007996  21.8928185
  66.1155643  20.8449459  21.6627988  60.2516191  15.9591574  22.2279630
  59.9466327  16.2737723  23.0789774  61.2046633  16.0372994  22.2706963
  58.6962623  22.1181797  23.8772584  58.1683984  21.3834557  23.5645822
  58.1950126  22.8956473  23.6312553  63.6755469  20.3130817  28.9939631
  63.0179143  21.0030079  29.0819759  64.4795868  20.7027249  29.3373617
  53.4281350  12.7801463  26.2379196  54.0025102  12.5576645  25.5052389
  54.0152333  12.8490158  26.9907797  62.4860928  18.6675190  27.0443572
  62.9992809  19.3005182  27.5465282  63.1362152  18.0676386  26.6786932
  53.7550938  14.8105924  20.2575081  52.9188250  15.1480611  20.5784356
  53.6155707  14.6754904  19.3202218  55.7304018   9.6542712  24.9654265
  55.0768431   9.3391729  24.3410880  55.6884492   9.0318453  25.6914088
  56.8415223  19.9362007  16.8807557  55.9342285  19.7051261  17.0798706
  57.3386255  19.1399626  17.0681539  59.7483302  28.6459514  19.8004244
  59.0745001  28.9491211  20.4089201  60.1349124  29.4488595  19.4509701
  58.9641759  16.1424646  29.2901913  58.0464320  16.3639593  29.1323601
  59.3801902  16.2170956  28.4313620  59.7476806  17.5416061  24.4204593
  60.4948625  18.0537459  24.1111715  60.0168396  17.2200114  25.2808987
  58.0203456  20.0374602  21.4031547  57.1114676  19.7533635  21.5004017
  58.0498540  20.4573681  20.5434854  63.2522724  23.6481192  25.1722715
  62.7985051  22.8072101  25.2287905  62.6216691  24.2842590  25.5097495
  62.1955643  14.5773178  26.4023382  61.4578400  14.0650564  26.7333625
  62.4482417  14.1373559  25.5906659  61.6955663  25.4857688  26.1072533
  61.9878638  26.0462745  25.3884899  62.2054284  25.7786249  26.8625692
  62.2967271   7.3549430  26.9965152  62.6026148   6.4946793  26.7091067
  63.0219876   7.9467050  26.7964146  48.5891627  17.7580116  25.3846750
  48.3916027  17.1649477  24.6597816  48.0338291  17.4532326  26.1022688
  56.5688351  17.6503223  27.5041343  56.6236960  16.6977059  27.4283819
  55.7579553  17.8062662  27.9882641  57.7179544  21.5783346  18.7419626
  57.2798974  20.8619205  18.2825263  58.4589985  21.8059461  18.1804717
  54.5080710  16.2680282  25.2631722  53.6948576  16.5674453  25.6696914
  55.0039705  15.8735971  25.9806204  56.6589288  26.2638039  27.1965986
  56.6165467  26.4898886  26.2674518  57.5751987  26.0301414  27.3451788
  60.1054922  16.7322107  34.0946616  60.4604310  16.9593580  34.9541081
  60.7527053  17.0640484  33.4723871  65.8352659  19.8540543  24.7995945
  65.6970558  20.0442139  23.8717134  65.4788878  20.6159926  25.2563996
  53.9994785  13.8398638  30.8792957  54.6394165  13.6987397  30.1815920
  53.1672316  13.5533151  30.5031559  65.8622039  21.9217070  29.8107216
  66.2958545  21.8292359  30.6590270  66.5753619  21.8974570  29.1727232
  54.7755089  23.1401068  26.9927949  55.5695688  22.6451389  26.7910524
  54.0646782  22.6118931  26.6295655  59.5949934  25.5219164  31.3440317
  59.6486956  26.0910100  32.1118033  58.7264715  25.6921049  30.9794354
  51.0837853  17.2844150  23.0687702  50.1535441  17.2228606  23.2857664
  51.1795325  16.7620103  22.2724343  51.0023402  13.8098963  25.6565943
  51.2630219  14.7244296  25.5475104  51.8240574  13.3423405  25.8062556
  52.4748327  15.2236720  32.8264768  53.1471380  15.0154082  32.1777417
  51.6478113  15.0258806  32.3870000  66.7237588  21.9640770  32.3440102
  66.9173478  22.8686581  32.5899376  66.6238206  21.5048190  33.1778687
  58.3773899  11.8498661  34.8430429  57.7301814  12.5488611  34.7494905
  59.1474914  12.2834805  35.2106677  58.5538033  19.6879426  32.9027249
  59.4830093  19.8390586  32.7296216  58.1329063  19.7763447  32.0475895
  57.3526365  23.7130090  30.6725786  57.2137451  23.3448875  31.5451724
  56.5640961  24.2277730  30.5009744  57.9474517  28.8139187  22.0151323
  58.1226273  28.3427230  22.8296945  57.2607305  29.4404953  22.2432583
  58.9031580  23.0911693  28.0614624  58.5681413  23.0512463  28.9572274
  58.4035526  22.4256409  27.5885034  52.8775824  18.4979323  33.5867205
  52.7395622  17.7659562  34.1878744  53.7880748  18.4088223  33.3051393
  61.8390772  20.4367727  18.3351684  61.2219943  19.7114556  18.2384736
  61.3707260  21.1977088  17.9918758  55.5058125  18.2099282  33.0750885
  56.2157743  17.5692475  33.0337503  55.4627433  18.4612177  33.9977066
  54.2187059  15.1964500  34.8946524  53.6824416  14.7455239  35.5468121
  53.6303767  15.3310409  34.1516989  53.6289318  14.6553152  17.4572988
  52.7518784  14.5341952  17.0935235  54.1047071  13.8639230  17.2051877
  63.4962311  23.1106220  34.2271444  62.6089090  22.7732141  34.3497843
  64.0660862  22.3789251  34.4640209  45.1491458  19.4430311  27.5514495
  45.8362498  19.1292041  26.9635510  44.9939587  20.3471676  27.2781746
  49.9526180  14.3320508  31.9799519  49.8684369  13.7246178  31.2449929
  49.1308887  14.8229526  31.9809015  57.0263464  27.7707672  31.1932687
  56.9533636  28.5762644  31.7051991  56.5840857  27.9699638  30.3680708
  56.8153244  27.0079442  24.7035508  56.0320766  27.5501122  24.7973733
  57.5145989  27.5253422  25.1029750  60.1249894  12.8174072  27.3469714
  60.6218594  12.0644034  27.0270784  59.3536875  12.8538388  26.7812923
  67.9779651  18.5214437  28.9888005  67.9669528  19.4039152  28.6181938
  67.1097031  18.1685988  28.7942542  59.4862148  27.6694506  33.3490846
  60.1990120  28.3041971  33.2766747  58.9952176  27.7658372  32.5330847
  61.2079675  21.5745759  24.9208137  60.2735953  21.6947221  24.7512842
  61.3856343  20.6718226  24.6568147  56.7084863  14.9591455  27.0741398
  56.3382650  14.4062495  27.7622304  57.2043955  14.3549588  26.5216398
  64.5952226  17.4163078  25.4558171  65.0612678  18.2491070  25.3818474
  65.0459727  16.9508060  26.1603430  54.5374061  25.4188950  34.1696416
  55.2383521  26.0525432  34.3225811  54.0669176  25.7603681  33.4092056
  62.6628457  23.7606899  22.4544323  62.9388301  23.6463494  23.3638197
  61.7932956  23.3624384  22.4156496  62.5668889   9.7843665  29.4949073
  61.6531969  10.0147892  29.6631280  62.9961990   9.8682109  30.3463105
  62.3375347  17.9733557  31.9948967  61.6846797  18.2209464  31.3401419
  62.7155727  17.1597695  31.6611444  59.2982521  28.0093250  26.0977137
  59.4804916  27.1914906  26.5604889  60.1215507  28.2260942  25.6602027
  59.6324687  26.9361435  23.3592185  60.1612453  26.4253890  22.7462348
  59.8952906  26.6203965  24.2237719  52.9880435  27.9876552  26.1189961
  52.3190810  28.4722680  25.6354001  52.8493304  28.2345772  27.0333340
  44.7259434  17.5230905  29.8231962  44.7643534  16.9894495  30.6169080
  44.2199727  16.9966110  29.2042939  57.1285703  30.0220295  32.7172620
  57.6804011  30.1851917  33.4821705  57.4691897  30.6124733  32.0452645
  52.1050196  12.3695445  33.3194504  52.1691523  13.2310276  32.9071902
  52.0417317  11.7569447  32.5866863  51.5802469  14.4418578  36.9667539
  52.2074508  14.0595655  37.5805063  50.7230388  14.2232780  37.3323231
  48.3568012  16.2495007  22.8985894  48.6521453  15.3405685  22.8452947
  47.4556047  16.2282746  22.5766896  60.2654090  27.9702271  29.7036302
  60.1405230  27.1692011  29.1947247  60.9233182  28.4648464  29.2150272
  51.8862259  14.3251004  28.8813442  51.1648844  14.9386971  28.7420915
  52.6755514  14.8608768  28.8030088  62.3288999  25.7711291  31.3315852
  61.3819334  25.6516642  31.2594179  62.6771772  24.8833789  31.4142113
  54.6888572  11.6605430  35.1554094  55.2122974  11.9067727  35.9180403
  54.4700905  12.4925465  34.7357231  50.0855853  13.9309105  23.0225219
  49.7568559  13.0506484  22.8400325  50.4395224  13.8756773  23.9101608
  59.3335432  25.5664007  27.5320204  59.1860395  24.6380715  27.7127774
  60.1588926  25.5884098  27.0477279  53.1997676  14.2182074  23.3900696
  53.5393749  14.7467996  22.6679305  53.6469797  14.5562481  24.1659263
  62.9369554  26.3892566  28.6185077  63.8616101  26.1835427  28.4809528
  62.7684857  26.1408967  29.5274418  55.8941117  12.6019125  32.8403764
  55.5537938  11.8026938  33.2424444  55.1880123  12.9020836  32.2680598
  56.5457589   9.6868438  31.2931087  57.3683658   9.2128916  31.1709978
  56.7895653  10.4658921  31.7929774  55.1865824  12.7156696  21.5893989
  55.9074186  13.0937949  21.0857706  54.5631128  13.4345573  21.6928967
  59.3296946  13.4201845  22.5252321  59.5460561  14.3026483  22.2241150
  58.8491014  13.0288058  21.7957963  54.0696168  16.3787558  29.1023066
  53.9240749  16.6927861  29.9947348  53.5921371  16.9972459  28.5493965
  55.9292551  13.3690106  29.1503956  55.9154119  12.4731199  28.8136254
  56.6464979  13.3760770  29.7842242  57.7818681  13.8027446  31.1957083
  57.5236459  14.7244517  31.1941413  57.2503722  13.4057881  31.8857547
  62.7264870  26.9078233  23.9747168  62.9001748  26.3424656  23.2221021
  63.2193761  27.7079128  23.7926658  48.5441830  18.9192903  32.0410727
  47.9995298  19.6952711  32.1731002  49.4221180  19.2663707  31.8829849
  55.3329447  12.2504486  24.4191526  55.4545358  11.3221133  24.6182413
  55.0431489  12.2643172  23.5069841  58.2020637   9.9359397  27.5558246
  58.2242334   9.9998730  26.6010225  58.6188696   9.0963906  27.7498752
  68.5804261  19.6714656  25.5937468  69.0235407  18.9221982  25.1956591
  67.7030772  19.6624793  25.2111200  63.7140043  26.2244998  21.0744067
  64.4090947  26.8451691  21.2931381  64.0563193  25.3740349  21.3496445
  65.6131466  23.6744703  22.6031398  66.1382790  24.0131976  21.8780718
  65.5253818  22.7391719  22.4194532  57.2751514  27.5878777  34.7321274
  57.5838641  27.3427924  35.6043974  58.0726996  27.7925416  34.2440144
  57.2972127  29.7416687  26.9626651  56.8577117  29.2493065  27.6559507
  58.0480243  29.1989654  26.7218726  49.7764466  25.9328228  26.9651279
  50.6022485  25.6331999  26.5849922  49.4258518  25.1635850  27.4141067
  54.7445999  25.2854696  29.0348952  54.1226008  24.6225401  28.7351180
  55.4150866  25.3115828  28.3522600  47.9773071  23.8514554  27.9240212
  47.1404979  23.4236728  27.7424214  47.9496716  24.0446997  28.8611004
  54.8170526  13.7636484  38.6281458  54.8658682  14.6398607  38.2459228
  55.3593040  13.2213877  38.0553102  65.4223247  21.1570073  35.2215324
  65.4721252  20.9920081  36.1630847  65.3137170  20.2897332  34.8313205
  54.3059506  23.8358619  22.5107413  54.4547626  24.5194084  21.8574086
  55.1125949  23.8163709  23.0256869  62.7127009  17.1401001  36.5374631
  63.6136872  17.0007466  36.2458629  62.7874984  17.3055456  37.4772808
  57.0469815  14.5167856  35.3827817  56.1773124  14.8101422  35.1110406
  57.2829295  15.1008301  36.1035081  66.9241444  23.5767015  35.4657346
  66.6326252  23.9396996  36.3020807  66.3113575  22.8634023  35.2870678
  68.1237126  21.1419895  27.9859916  68.9584017  21.5809699  28.1497476
  68.2596255  20.6658548  27.1668162  65.1728632  18.6999630  33.9337404
  65.6482754  18.8927276  33.1256255  64.2494197  18.7558815  33.6880787
  52.0612139  19.8623797  23.5168482  51.8158181  18.9586127  23.7148692
  52.2308053  19.8640947  22.5747960  59.7508848  10.7347473  32.8993237
  60.2690792  11.4708500  32.5739726  59.3963981  11.0411466  33.7339997
  51.3307786  15.5952154  21.0154643  50.6377031  15.6696509  20.3594679
  51.0859538  14.8312498  21.5376160  60.0021443   7.1547756  28.4194134
  60.2823196   6.4870945  29.0454561  60.7872050   7.3476851  27.9068798
  57.8054911  26.3306750  19.9819160  57.2328878  26.9496937  19.5289632
  58.3787705  26.8806111  20.5159082  63.8730301  15.5765390  32.1665709
  64.8247724  15.6763487  32.1877933  63.7033751  14.7843658  32.6763793
  61.8944680  12.6620973  32.3525110  61.2994613  12.9425986  31.6571599
  61.6094377  13.1514874  33.1241851  61.0252171  26.6143900  21.1127743
  61.9582844  26.5489461  21.3160618  60.9375384  27.4500167  20.6542275
  63.6540188  25.9309770  18.0731690  63.5753819  25.5969634  18.9667448
  64.4749854  26.4231538  18.0723163  66.3518379  18.7971509  31.2808009
  66.3194699  17.8587510  31.4667693  66.9619002  18.8755546  30.5473834
  58.1901710  17.6667562  17.3235213  59.1360814  17.5373770  17.3923631
  57.8115955  16.9282224  17.8004641  66.5012867  15.5882553  31.3266292
  65.9851916  14.8041009  31.1396221  67.3852816  15.2601269  31.4912811
  64.1623594   9.3323568  27.2862105  63.9648415   9.0238657  28.1705437
  64.7723300  10.0585207  27.4160034  72.1694929  19.8587516  30.4214046
  72.8998317  19.5972804  30.9821749  71.5601874  19.1216238  30.4616114
  70.2510226  17.9995379  31.0188497  69.5243389  17.8651344  30.4104988
  69.8357513  18.3072207  31.8245215  56.3744627  15.5917539  17.2590098
  55.4676082  15.2950651  17.3352812  56.6520608  15.2947357  16.3924384
  47.2922567  16.9123902  27.7089144  46.9725351  16.0589210  27.4163518
  46.7455995  17.1272480  28.4647112  51.0702475  19.6286343  31.4258651
  51.2888484  20.5603451  31.4446685  51.4828249  19.2694318  32.2113455
  57.9906692  10.1354428  23.4134339  57.1807421   9.7901513  23.7889585
  58.6791109   9.8261972  24.0021951  59.9197241   9.2132475  25.0358636
  60.4728279   9.6327929  25.6948659  60.1567327   8.2868223  25.0781592
  55.9430340  15.2019549  40.8161400  55.8427067  16.1513906  40.7473491
  55.7251882  14.8737788  39.9437470  55.1443411  12.4504474  17.4002077
  56.0062575  12.7759372  17.6597895  55.3293756  11.6635970  16.8875143
  47.1610827  20.5326814  29.6782266  46.4674299  20.1180766  29.1652220
  47.9083818  20.5747350  29.0815685  63.2976048  11.3233000  24.5437300
  62.7174717  11.9817804  24.1615353  63.0311981  10.5010345  24.1324718
  61.7479614  10.7238058  26.7458621  62.2479393  10.8354593  25.9372939
  62.3915222  10.4199111  27.3859429  49.0747570  20.4645067  27.5548281
  49.0518258  20.5632755  26.6030164  49.3848206  21.3110218  27.8765447
  62.0800926  13.4833091  23.5993649  61.1926781  13.7682741  23.3813843
  62.4954915  13.3226854  22.7520925  65.4315462  13.5079612  27.3147988
  66.2075852  13.9976064  27.5872605  64.7063596  13.9337666  27.7719857
  67.8688021  14.2207231  28.3721928  68.4632511  13.9802967  27.6615237
  67.9414604  13.5014362  28.9995465  50.0885176  28.0640842  28.6865093
  49.9539644  27.3041243  28.1203091  49.6717239  28.7881742  28.2193882
  61.2244139  23.2477765  17.6941668  61.9279989  23.4527768  18.3099324
  60.5006788  23.8154527  17.9590752  62.0541950  18.9987627  23.8143939
  61.9977151  19.4556178  22.9751571  62.6070292  18.2378311  23.6366781
  65.8646756  14.7877359  24.6394058  65.6083690  14.3873994  25.4702266
  65.2399624  15.5021153  24.5144197  70.1759093  17.5273432  27.1465350
  69.6158651  17.5966621  27.9196912  69.5702597  17.3514416  26.4264846
  53.2454302  28.9610159  28.8983536  53.1286686  29.9055591  28.7962226
  52.4246748  28.6583720  29.2869335  63.1330837  23.6860295  19.7440129
  63.9676441  23.2541493  19.5617603  62.9715180  23.5142308  20.6717023
  62.7876729  20.1892408  21.1096468  62.7325533  20.0236679  20.1684912
  62.1622784  20.8968441  21.2658658  47.5769244  15.4260472  34.9357890
  48.2228108  14.9159426  35.4245115  47.3686395  16.1629154  35.5101315
  56.0972854   9.6900517  20.6881786  56.0851524  10.6342357  20.8450057
  56.9896276   9.5070662  20.3941247  56.0262418  28.3669407  28.7749543
  55.0758049  28.3671269  28.6613915  56.3294905  27.6202142  28.2585578
  59.9124974   6.2843294  24.9427723  59.1457370   5.7301780  25.0884405
  60.3235679   6.3565162  25.8041875  51.9166735  12.5728089  39.0332904
  52.7798196  12.2164894  39.2436229  51.3432146  12.2341984  39.7208309
  71.7615112  34.2029946  29.8395305  72.3993522  34.0836693  29.1358645
  71.6435955  35.1510790  29.8983257  68.5704818  34.1557374  29.7756830
  68.2323330  34.0398439  28.8877365  69.4394586  33.7548539  29.7557836
  64.4291634  36.0092850  25.7653721  63.8656499  35.9182787  24.9970009
  64.3144029  35.1892755  26.2456213  69.0524601  35.3092226  35.7343036
  69.0413242  34.9145024  34.8623539  69.2145241  34.5758298  36.3276807
  61.9756066  37.5044042  28.6037941  62.7677358  37.1634867  28.1884241
  62.2152716  37.6139017  29.5240095  70.0091193  39.6763818  21.0768186
  69.3579172  40.2617898  20.6902200  70.8035555  40.2070013  21.1363223
  63.9346820  36.7652955  21.4755320  64.7077696  36.2181942  21.3368196
  64.2872219  37.6297204  21.6869782  65.7731862  38.0929337  34.6822219
  65.4821728  38.9974968  34.5668886  66.4088847  38.1345865  35.3966289
  66.6988069  35.4706186  31.2723579  67.2951641  35.2462208  30.5580542
  66.7563041  34.7290931  31.8749027  66.2713098  32.9245621  19.1073770
  66.5238618  32.4027143  18.3457233  65.3337657  32.7611767  19.2100454
  71.3156380  31.9281400  26.9148513  72.1019470  31.5100823  26.5638930
  71.5795085  32.8327492  27.0830162  71.4866458  37.3654250  21.6137170
  70.8512291  37.4388876  22.3258075  71.1563864  37.9547849  20.9356249
  76.7164807  31.8656633  27.8181492  77.4489979  31.2955850  28.0519321
  75.9604163  31.4778233  28.2587997  65.9909386  34.8273727  21.3098145
  65.8745644  34.1518631  21.9779229  66.1011646  34.3406101  20.4930298
  68.3340927  34.2883874  25.0144834  67.9699134  33.7614495  25.7257756
  69.1908043  33.8982343  24.8411320  74.2390228  25.5778207  32.2776100
  73.9073553  26.4473618  32.0537315  73.6435841  25.2614491  32.9570131
  67.9746414  29.3173774  20.0106183  68.1420817  30.1854010  20.3776654
  67.7843583  29.4801056  19.0867472  70.7321747  37.7790753  31.6772013
  70.4322470  38.6815792  31.5687820  70.3872807  37.5122936  32.5293166
  64.1834229  34.2304550  27.7108718  63.2584725  34.0980764  27.9186409
  64.4318642  35.0098769  28.2078660  74.1318891  30.2973293  29.3569450
  73.2235768  30.2288702  29.0628211  74.0806487  30.7745238  30.1851276
  67.9535635  31.7731432  20.9952850  67.8335260  32.2188482  21.8338330
  67.2588223  32.1216749  20.4366388  61.5443040  33.8737823  28.5452507
  61.6735421  34.1272302  29.4591918  60.8640491  34.4665531  28.2257162
  65.7142527  44.5435073  24.6442981  65.6366557  45.4942898  24.7231461
  65.1104171  44.1980946  25.3017907  68.2059757  31.7162939  37.3004348
  67.4293091  32.2756859  37.2907212  68.8450320  32.2019722  37.8219218
  75.9980538  28.4989731  31.1347324  75.3554918  28.7922265  30.4887119
  75.4935466  28.3842652  31.9400521  73.6520701  32.2452905  21.8233184
  74.5638557  32.4780291  21.6480881  73.1430348  32.8289949  21.2608262
  66.4606129  34.5248392  36.8622315  67.2020814  35.0633436  36.5857138
  65.7543115  35.1514681  37.0193867  71.9361469  36.6677533  35.4594476
  72.3444825  36.2259943  34.7149109  71.2138730  36.0930160  35.7128669
  68.2892539  31.6050139  32.8328033  69.1353734  32.0289553  32.9762682
  68.2291177  30.9483764  33.5266596  72.2590284  37.2278723  29.2146765
  71.6299146  37.3924437  28.5122833  71.8715946  37.6420333  29.9857729
  76.1379515  38.1633161  26.5691129  75.4530554  38.5432062  26.0188162
  76.2223365  38.7728488  27.3023077  71.4391984  29.2654508  34.4909207
  71.1952916  30.0196568  33.9543483  71.7151915  29.6439855  35.3256454
  73.3930447  35.8093120  33.1686472  73.6047342  36.4524880  32.4920854
  73.3460195  34.9755437  32.7008403  70.9956676  28.4210941  30.0723045
  70.1341155  28.7192194  30.3639782  71.0219111  28.6381340  29.1404077
  67.8118245  36.9653131  26.4796850  68.2756591  37.2440834  25.6901473
  67.5475043  36.0636576  26.2969941  64.7042326  36.5124613  29.4176613
  65.2743684  36.9411881  28.7794098  65.2950438  36.2307197  30.1160799
  66.7487131  33.0876284  23.2886415  67.4511175  33.5397327  23.7560342
  66.4167760  32.4460102  23.9166309  65.1967493  31.6788040  37.6637625
  64.5666154  32.3604321  37.8973022  65.0903581  31.5671122  36.7190763
  60.4912465  31.3459836  28.5903549  59.7011519  31.6017365  28.1143660
  60.9823713  32.1608174  28.6955589  74.5076275  38.6865075  31.3408830
  75.3293719  38.2845263  31.0591511  74.5038678  38.5833310  32.2924946
  62.4427211  31.7104416  25.5487026  61.6458374  31.8223110  26.0670521
  62.2152803  32.0491068  24.6827916  68.2732878  38.2349119  33.4969540
  68.3377311  38.6969526  34.3327712  67.5643802  37.6046484  33.6251850
  58.7750168  31.5990327  31.0218540  59.0258207  32.4837337  31.2876116
  59.3109717  31.4194928  30.2493632  82.5982268  35.0303824  27.6893801
  81.8445976  34.4611222  27.5337806  82.7329809  34.9966488  28.6364436
  67.9880896  39.9017226  23.3648521  67.8526571  40.7468762  23.7933368
  68.5290709  40.1036504  22.6014454  61.4410293  37.4192664  23.9376446
  61.9534814  38.2135915  24.0882010  62.0933006  36.7218955  23.8710047
  63.2505178  40.5358421  26.0199199  63.4271806  41.4576385  25.8320183
  64.0462012  40.2216840  26.4493579  62.5357535  32.5823052  35.8961362
  62.4211050  31.6808310  36.1968461  61.6802052  32.8286749  35.5446179
  69.6149372  40.5240793  37.4948863  69.1713227  39.7377171  37.1769767
  70.2766586  40.7119943  36.8292753  64.3736494  42.0536594  32.0209541
  64.9243919  41.9253658  31.2486535  63.5347970  42.3531483  31.6704434
  71.7130611  40.8043593  35.5230264  71.6949086  41.6252474  35.0310533
  72.6350531  40.6797668  35.7480405  68.1703665  38.3187722  36.3653772
  68.7032001  37.5576010  36.1353080  67.6417746  38.0261374  37.1077927
  71.3373360  23.4247788  31.8947414  70.9937629  24.3149430  31.8186525
  71.7052322  23.2349446  31.0316999  59.4059210  35.7481319  24.7136016
  60.2434432  36.1578327  24.4969724  59.5837478  34.8080761  24.6836210
  71.3023642  33.4156399  20.4019849  70.7870266  34.1861004  20.6408237
  71.0300951  32.7421535  21.0252911  68.8870753  28.2606100  25.4605088
  68.0312350  27.8712950  25.2810726  69.2997705  28.3398061  24.6004873
  70.4169900  25.7952443  29.8596647  69.9134696  25.7582578  29.0464453
  70.7100507  26.7045186  29.9193304  66.6612786  25.8791173  28.8662829
  67.5265783  25.6833982  28.5068719  66.7290295  25.6501525  29.7932186
  76.2757916  36.1688754  22.3373023  75.4987359  35.8299913  21.8928185
  76.9549397  36.1741377  21.6627988  71.0909946  31.2883491  22.2279630
  70.7860081  31.6029640  23.0789774  72.0440388  31.3664911  22.2706963
  69.5356377  37.4473715  23.8772584  69.0077739  36.7126474  23.5645822
  69.0343880  38.2248391  23.6312553  74.5149223  35.6422735  28.9939631
  73.8572898  36.3321996  29.0819759  75.3189623  36.0319167  29.3373617
  64.2675105  28.1093381  26.2379196  64.8418857  27.8868562  25.5052389
  64.8546087  28.1782075  26.9907797  73.3254682  33.9967108  27.0443572
  73.8386564  34.6297100  27.5465282  73.9755906  33.3968303  26.6786932
  64.5944692  30.1397842  20.2575081  63.7582004  30.4772528  20.5784356
  64.4549462  30.0046822  19.3202218  66.5697773  24.9834630  24.9654265
  65.9162185  24.6683647  24.3410880  66.5278247  24.3610370  25.6914088
  67.6808978  35.2653925  16.8807557  66.7736039  35.0343178  17.0798706
  68.1780010  34.4691544  17.0681539  70.5877056  43.9751432  19.8004244
  69.9138755  44.2783129  20.4089201  70.9742878  44.7780512  19.4509701
  69.8035513  31.4716563  29.2901913  68.8858074  31.6931510  29.1323601
  70.2195657  31.5462874  28.4313620  70.5870561  32.8707979  24.4204593
  71.3342380  33.3829376  24.1111715  70.8562150  32.5492032  25.2808987
  68.8597211  35.3666520  21.4031547  67.9508430  35.0825553  21.5004017
  68.8892295  35.7865598  20.5434854  74.0916478  38.9773109  25.1722715
  73.6378805  38.1364019  25.2287905  73.4610445  39.6134508  25.5097495
  73.0349398  29.9065095  26.4023382  72.2972155  29.3942481  26.7333625
  73.2876171  29.4665477  25.5906659  72.5349418  40.8149606  26.1072533
  72.8272392  41.3754663  25.3884899  73.0448038  41.1078167  26.8625692
  73.1361025  22.6841347  26.9965152  73.4419902  21.8238711  26.7091067
  73.8613630  23.2758967  26.7964146  59.4285381  33.0872034  25.3846750
  59.2309781  32.4941395  24.6597816  58.8732045  32.7824244  26.1022688
  67.4082105  32.9795140  27.5041343  67.4630715  32.0268977  27.4283819
  66.5973307  33.1354579  27.9882641  68.5573299  36.9075263  18.7419626
  68.1192729  36.1911122  18.2825263  69.2983740  37.1351378  18.1804717
  65.3474465  31.5972200  25.2631722  64.5342330  31.8966371  25.6696914
  65.8433459  31.2027889  25.9806204  67.4983043  41.5929957  27.1965986
  67.4559222  41.8190803  26.2674518  68.4145742  41.3593332  27.3451788
  70.9448677  32.0614025  34.0946616  71.2998064  32.2885498  34.9541081
  71.5920808  32.3932401  33.4723871  76.6746414  35.1832460  24.7995945
  76.5364312  35.3734056  23.8717134  76.3182632  35.9451843  25.2563996
  64.8388540  29.1690556  30.8792957  65.4787919  29.0279315  30.1815920
  64.0066070  28.8825069  30.5031559  76.7015793  37.2508987  29.8107216
  77.1352300  37.1584277  30.6590270  77.4147374  37.2266488  29.1727232
  65.6148844  38.4692986  26.9927949  66.4089442  37.9743306  26.7910524
  64.9040536  37.9410849  26.6295655  70.4343688  40.8511082  31.3440317
  70.4880710  41.4202018  32.1118033  69.5658469  41.0212967  30.9794354
  61.9231607  32.6136068  23.0687702  60.9929195  32.5520523  23.2857664
  62.0189079  32.0912021  22.2724343  61.8417156  29.1390881  25.6565943
  62.1023973  30.0536214  25.5475104  62.6634328  28.6715323  25.8062556
  63.3142081  30.5528638  32.8264768  63.9865135  30.3446000  32.1777417
  62.4871868  30.3550724  32.3870000  77.5631343  37.2932688  32.3440102
  77.7567233  38.1978499  32.5899376  77.4631961  36.8340107  33.1778687
  69.2167653  27.1790579  34.8430429  68.5695569  27.8780528  34.7494905
  69.9868669  27.6126723  35.2106677  72.6246451  37.4439431  37.9180982
  72.4731958  37.2149983  37.0011066  72.6151131  38.4010032  37.9312327
  69.3931788  35.0171344  32.9027249  70.3223848  35.1682503  32.7296216
  68.9722818  35.1055364  32.0475895  68.1920120  39.0422008  30.6725786
  68.0531205  38.6740792  31.5451724  67.4034716  39.5569647  30.5009744
  68.7868272  44.1431104  22.0151323  68.9620027  43.6719148  22.8296945
  68.1001060  44.7696871  22.2432583  69.7425335  38.4203611  28.0614624
  69.4075167  38.3804381  28.9572274  69.2429280  37.7548327  27.5885034
  63.7169579  33.8271241  33.5867205  63.5789377  33.0951480  34.1878744
  64.6274502  33.7380141  33.3051393  72.6784526  35.7659645  18.3351684
  72.0613697  35.0406473  18.2384736  72.2101015  36.5269005  17.9918758
  66.3451879  33.5391200  33.0750885  67.0551498  32.8984392  33.0337503
  66.3021188  33.7904095  33.9977066  74.3338658  40.4758553  35.9957464
  74.2751204  39.7917774  35.3288047  74.7358176  41.2177543  35.5438090
  65.0580813  30.5256418  34.8946524  64.5218170  30.0747156  35.5468121
  64.4697522  30.6602327  34.1516989  63.3529357  47.2920467  28.7891183
  63.5925955  47.9238991  29.4670201  62.5098553  46.9408507  29.0756542
  64.4683072  29.9845069  17.4572988  63.5912539  29.8633870  17.0935235
  64.9440825  29.1931148  17.2051877  74.3356065  38.4398137  34.2271444
  73.4482844  38.1024059  34.3497843  74.9054616  37.7081169  34.4640209
  55.9885212  34.7722229  27.5514495  56.6756252  34.4583959  26.9635510
  55.8333341  35.6763594  27.2781746  60.7919935  29.6612426  31.9799519
  60.7078123  29.0538095  31.2449929  59.9702641  30.1521444  31.9809015
  67.8657219  43.0999590  31.1932687  67.7927390  43.9054561  31.7051991
  67.4234612  43.2991556  30.3680708  67.6546998  42.3371360  24.7035508
  66.8714520  42.8793040  24.7973733  68.3539744  42.8545339  25.1029750
  70.9643648  28.1465989  27.3469714  71.4612348  27.3935952  27.0270784
  70.1930630  28.1830306  26.7812923  78.8173406  33.8506355  28.9888005
  78.8063282  34.7331070  28.6181938  77.9490785  33.4977906  28.7942542
  70.3255902  42.9986424  33.3490846  71.0383874  43.6333889  33.2766747
  69.8345931  43.0950290  32.5330847  72.0473429  36.9037676  24.9208137
  71.1129708  37.0239139  24.7512842  72.2250098  36.0010143  24.6568147
  67.5478617  30.2883372  27.0741398  67.1776405  29.7354413  27.7622304
  68.0437710  29.6841506  26.5216398  75.4345980  32.7454996  25.4558171
  75.9006433  33.5782987  25.3818474  75.8853481  32.2799977  26.1603430
  65.3767816  40.7480867  34.1696416  66.0777275  41.3817350  34.3225811
  64.9062931  41.0895599  33.4092056  73.5022212  39.0898817  22.4544323
  73.7782056  38.9755412  23.3638197  72.6326710  38.6916302  22.4156496
  73.4062643  25.1135583  29.4949073  72.4925723  25.3439810  29.6631280
  73.8355745  25.1974027  30.3463105  73.1769102  33.3025475  31.9948967
  72.5240552  33.5501382  31.3401419  73.5549482  32.4889613  31.6611444
  70.1376276  43.3385168  26.0977137  70.3198670  42.5206824  26.5604889
  70.9609262  43.5552860  25.6602027  70.4718441  42.2653353  23.3592185
  71.0006208  41.7545808  22.7462348  70.7346661  41.9495883  24.2237719
  69.2256675  34.0445286  38.4815004  68.5497312  33.9439415  39.1517379
  70.0484309  33.8884499  38.9451001  60.9735534  40.2817222  31.1027519
  61.5588971  39.5360910  31.2355423  60.7760372  40.5921179  31.9864183
  63.8274189  43.3168470  26.1189961  63.1584564  43.8014597  25.6354001
  63.6887059  43.5637690  27.0333340  55.5653189  32.8522822  29.8231962
  55.6037288  32.3186413  30.6169080  55.0593481  32.3258028  29.2042939
  67.9679458  45.3512213  32.7172620  68.5197766  45.5143835  33.4821705
  68.3085651  45.9416651  32.0452645  62.9443951  27.6987363  33.3194504
  63.0085277  28.5602194  32.9071902  62.8811071  27.0861365  32.5866863
  72.8190332  40.1773471  38.5721274  73.3630236  40.7903429  38.0776229
  72.2377177  40.7353049  39.0888287  59.1961766  31.5786925  22.8985894
  59.4915207  30.6697603  22.8452947  58.2949802  31.5574664  22.5766896
  71.1047845  43.2994189  29.7036302  70.9798984  42.4983929  29.1947247
  71.7626936  43.7940382  29.2150272  62.7256013  29.6542921  28.8813442
  62.0042599  30.2678889  28.7420915  63.5149269  30.1900686  28.8030088
  73.1682753  41.1003209  31.3315852  72.2213089  40.9808560  31.2594179
  73.5165526  40.2125707  31.4142113  65.5282327  26.9897348  35.1554094
  66.0516728  27.2359644  35.9180403  65.3094660  27.8217382  34.7357231
  60.9249608  29.2601022  23.0225219  60.5962314  28.3798401  22.8400325
  61.2788978  29.2048691  23.9101608  70.1729187  40.8955925  27.5320204
  70.0254149  39.9672632  27.7127774  70.9982680  40.9176016  27.0477279
  64.0391431  29.5473992  23.3900696  64.3787503  30.0759913  22.6679305
  64.4863551  29.8854398  24.1659263  73.7763308  41.7184484  28.6185077
  74.7009856  41.5127345  28.4809528  73.6078612  41.4700885  29.5274418
  66.7334872  27.9311043  32.8403764  66.3931692  27.1318856  33.2424444
  66.0273878  28.2312754  32.2680598  67.3851344  25.0160355  31.2931087
  68.2077413  24.5420833  31.1709978  67.6289407  25.7950839  31.7929774
  66.0259578  28.0448614  21.5893989  66.7467941  28.4229866  21.0857706
  65.4024882  28.7637490  21.6928967  70.1690701  28.7493763  22.5252321
  70.3854315  29.6318401  22.2241150  69.6884768  28.3579976  21.7957963
  64.9089922  31.7079476  29.1023066  64.7634503  32.0219779  29.9947348
  64.4315126  32.3264376  28.5493965  66.7686305  28.6982024  29.1503956
  66.7547874  27.8023117  28.8136254  67.4858733  28.7052688  29.7842242
  68.6212436  29.1319364  31.1957083  68.3630214  30.0536435  31.1941413
  68.0897476  28.7349799  31.8857547  73.5658625  42.2370151  23.9747168
  73.7395502  41.6716574  23.2221021  74.0587516  43.0371046  23.7926658
  59.3835584  34.2484820  32.0410727  58.8389053  35.0244628  32.1731002
  60.2614934  34.5955625  31.8829849  66.1723201  27.5796404  24.4191526
  66.2939112  26.6513050  24.6182413  65.8825243  27.5935090  23.5069841
  69.0414392  25.2651315  27.5558246  69.0636088  25.3290648  26.6010225
  69.4582451  24.4255823  27.7498752  79.4198016  35.0006574  25.5937468
  79.8629162  34.2513899  25.1956591  78.5424526  34.9916710  25.2111200
  74.5533797  41.5536916  21.0744067  75.2484702  42.1743608  21.2931381
  74.8956947  40.7032267  21.3496445  60.1701606  33.3754717  34.9340884
  59.4283342  33.5237352  35.5205515  59.8494351  33.6362982  34.0707634
  76.4525220  39.0036621  22.6031398  76.9776544  39.3423894  21.8780718
  76.3647573  38.0683636  22.4194532  68.1145269  42.9170695  34.7321274
  68.4232395  42.6719842  35.6043974  68.9120751  43.1217333  34.2440144
  68.1365881  45.0708604  26.9626651  67.6970871  44.5784983  27.6559507
  68.8873998  44.5281572  26.7218726  60.6158220  41.2620145  26.9651279
  61.4416240  40.9623917  26.5849922  60.2652272  40.4927768  27.4141067
  65.5839753  40.6146613  29.0348952  64.9619762  39.9517318  28.7351180
  66.2544620  40.6407745  28.3522600  58.8166825  39.1806472  27.9240212
  57.9798733  38.7528646  27.7424214  58.7890470  39.3738915  28.8611004
  76.1419126  39.6369525  37.9082595  75.3514670  39.6193664  37.3687095
  75.9052481  40.1757818  38.6631632  76.2617001  36.4861991  35.2215324
  76.3115006  36.3211999  36.1630847  76.1530925  35.6189250  34.8313205
  65.1453260  39.1650537  22.5107413  65.2941380  39.8486001  21.8574086
  65.9519704  39.1455627  23.0256869  73.5520764  32.4692919  36.5374631
  74.4530627  32.3299384  36.2458629  73.6268738  32.6347374  37.4772808
  67.8863569  29.8459774  35.3827817  67.0166879  30.1393340  35.1110406
  68.1223049  30.4300219  36.1035081  77.7635198  38.9058933  35.4657346
  77.4720007  39.2688913  36.3020807  77.1507329  38.1925941  35.2870678
  78.9630881  36.4711812  27.9859916  79.7977772  36.9101616  28.1497476
  79.0990009  35.9950466  27.1668162  76.0122386  34.0291547  33.9337404
  76.4876508  34.2219194  33.1256255  75.0887952  34.0850733  33.6880787
  62.9005893  35.1915714  23.5168482  62.6551935  34.2878044  23.7148692
  63.0701808  35.1932865  22.5747960  70.5902603  26.0639391  32.8993237
  71.1084547  26.8000418  32.5739726  70.2357736  26.3703384  33.7339997
  62.1701541  30.9244072  21.0154643  61.4770786  30.9988427  20.3594679
  61.9253292  30.1604416  21.5376160  70.8415197  22.4839673  28.4194134
  71.1216951  21.8162862  29.0454561  71.6265804  22.6768769  27.9068798
  68.6448666  41.6598667  19.9819160  68.0722633  42.2788854  19.5289632
  69.2181459  42.2098029  20.5159082  74.7124055  30.9057307  32.1665709
  75.6641478  31.0055405  32.1877933  74.5427506  30.1135576  32.6763793
  72.7338435  27.9912891  32.3525110  72.1388367  28.2717903  31.6571599
  72.4488132  28.4806791  33.1241851  71.8645925  41.9435817  21.1127743
  72.7976599  41.8781379  21.3160618  71.7769138  42.7792084  20.6542275
  74.4933942  41.2601688  18.0731690  74.4147574  40.9261551  18.9667448
  75.3143609  41.7523456  18.0723163  77.1912133  34.1263427  31.2808009
  77.1588453  33.1879428  31.4667693  77.8012757  34.2047464  30.5473834
  69.0295464  32.9959480  17.3235213  69.9754569  32.8665688  17.3923631
  68.6509709  32.2574142  17.8004641  77.3406622  30.9174470  31.3266292
  76.8245670  30.1332927  31.1396221  78.2246570  30.5893187  31.4912811
  75.0017349  24.6615486  27.2862105  74.8042170  24.3530574  28.1705437
  75.6117054  25.3877125  27.4160034  81.0903980  33.3287296  31.0188497
  80.3637144  33.1943261  30.4104988  80.6751267  33.6364125  31.8245215
  68.9134157  37.0477226  38.7835870  69.8337166  37.2255825  38.9775916
  68.8783740  36.1033271  38.6315569  67.2138381  30.9209456  17.2590098
  66.3069837  30.6242569  17.3352812  67.4914362  30.6239274  16.3924384
  58.1316322  32.2415820  27.7089144  57.8119106  31.3881128  27.4163518
  57.5849750  32.4564398  28.4647112  61.9096229  34.9578261  31.4258651
  62.1282239  35.8895369  31.4446685  62.3222003  34.5986235  32.2113455
  68.8300447  25.4646346  23.4134339  68.0201175  25.1193431  23.7889585
  69.5184864  25.1553890  24.0021951  70.7590995  24.5424393  25.0358636
  71.3122034  24.9619846  25.6948659  70.9961082  23.6160141  25.0781592
  66.7824094  30.5311467  40.8161400  66.6820821  31.4805824  40.7473491
  66.5645637  30.2029705  39.9437470  65.9837166  27.7796392  17.4002077
  66.8456330  28.1051290  17.6597895  66.1687510  26.9927888  16.8875143
  58.0004582  35.8618731  29.6782266  57.3068053  35.4472684  29.1652220
  58.7477573  35.9039268  29.0815685  74.1369802  26.6524918  24.5437300
  73.5568471  27.3109722  24.1615353  73.8705735  25.8302263  24.1324718
  72.5873369  26.0529976  26.7458621  73.0873147  26.1646510  25.9372939
  73.2308977  25.7491029  27.3859429  66.6455365  33.9608605  39.6326462
  66.1622446  34.7608966  39.8390351  66.7316304  33.9716550  38.6793906
  59.9141324  35.7936985  27.5548281  59.8912012  35.8924672  26.6030164
  60.2241961  36.6402136  27.8765447  62.5728702  37.8513140  31.6694895
  63.5271956  37.8197082  31.6024827  62.3741226  37.3903764  32.4845121
  63.1628084  36.4214256  34.2365693  63.9820973  36.9158335  34.2600530
  63.4364892  35.5046224  34.2083260  72.9194680  28.8125008  23.5993649
  72.0320535  29.0974659  23.3813843  73.3348669  28.6518772  22.7520925
  76.2709217  28.8371529  27.3147988  77.0469607  29.3267982  27.5872605
  75.5457351  29.2629584  27.7719857  78.7081775  29.5499149  28.3721928
  79.3026266  29.3094885  27.6615237  78.7808359  28.8306279  28.9995465
  60.9278931  43.3932760  28.6865093  60.7933399  42.6333160  28.1203091
  60.5110993  44.1173659  28.2193882  72.0637894  38.5769683  17.6941668
  72.7673744  38.7819686  18.3099324  71.3400543  39.1446445  17.9590752
  72.8935704  34.3279544  23.8143939  72.8370906  34.7848096  22.9751571
  73.4464047  33.5670229  23.6366781  76.7040510  30.1169276  24.6394058
  76.4477444  29.7165912  25.4702266  76.0793378  30.8313070  24.5144197
  81.0152848  32.8565349  27.1465350  80.4552406  32.9258539  27.9196912
  80.4096351  32.6806334  26.4264846  64.0848057  44.2902077  28.8983536
  63.9680441  45.2347509  28.7962226  63.2640503  43.9875638  29.2869335
  73.9724591  39.0152212  19.7440129  74.8070195  38.5833411  19.5617603
  73.8108934  38.8434226  20.6717023  73.6270483  35.5184326  21.1096468
  73.5719287  35.3528597  20.1684912  73.0016539  36.2260359  21.2658658
  58.4162998  30.7552390  34.9357890  59.0621862  30.2451344  35.4245115
  58.2080150  31.4921072  35.5101315  70.9416391  37.8233237  40.4350031
  71.8107550  37.9973890  40.0736666  70.4623142  38.6427654  40.3125760
  66.9366609  25.0192435  20.6881786  66.9245279  25.9634275  20.8450057
  67.8290031  24.8362580  20.3941247  65.1102571  44.9430338  32.1139464
  66.0129818  44.9753949  32.4305959  64.8839941  44.0130789  32.1285800
  66.8656173  43.6961325  28.7749543  65.9151804  43.6963187  28.6613915
  67.1688659  42.9494060  28.2585578  70.7518728  21.6135211  24.9427723
  69.9851124  21.0593698  25.0884405  71.1629433  21.6857080  25.8041875
  79.4098573  49.4849292  29.7756830  79.0717084  49.3690356  28.8877365
  80.2788341  49.0840457  29.7557836  75.2685388  51.3384768  25.7653721
  74.7050253  51.2474705  24.9970009  75.1537783  50.5184672  26.2456213
  79.8918356  50.6384143  35.7343036  79.8806996  50.2436942  34.8623539
  80.0538995  49.9050216  36.3276807  72.8149820  52.8335960  28.6037941
  73.6071112  52.4926784  28.1884241  73.0546470  52.9430935  29.5240095
  80.8484947  55.0055736  21.0768186  80.1972927  55.5909816  20.6902200
  81.6429310  55.5361931  21.1363223  74.7740574  52.0944873  21.4755320
  75.5471450  51.5473860  21.3368196  75.1265973  52.9589122  21.6869782
  76.6125617  53.4221255  34.6822219  76.3215483  54.3266886  34.5668886
  77.2482601  53.4637783  35.3966289  77.5381824  50.7998104  31.2723579
  78.1345396  50.5754126  30.5580542  77.5956795  50.0582849  31.8749027
  77.1106852  48.2537539  19.1073770  77.3632373  47.7319060  18.3457233
  76.1731411  48.0903684  19.2100454  82.1550135  47.2573317  26.9148513
  82.9413224  46.8392740  26.5638930  82.4188839  48.1619409  27.0830162
  82.3260212  52.6946168  21.6137170  81.6906045  52.7680794  22.3258075
  81.9957619  53.2839766  20.9356249  76.8303141  50.1565645  21.3098145
  76.7139399  49.4810548  21.9779229  76.9405401  49.6698019  20.4930298
  79.1734682  49.6175792  25.0144834  78.8092889  49.0906413  25.7257756
  80.0301798  49.2274261  24.8411320  78.8140169  44.6465692  20.0106183
  78.9814571  45.5145928  20.3776654  78.6237338  44.8092973  19.0867472
  81.5715502  53.1082671  31.6772013  81.2716225  54.0107709  31.5687820
  81.2266561  52.8414854  32.5293166  75.0227983  49.5596467  27.7108718
  74.0978480  49.4272682  27.9186409  75.2712397  50.3390687  28.2078660
  78.7929390  47.1023349  20.9952850  78.6729015  47.5480400  21.8338330
  78.0981978  47.4508667  20.4366388  72.3836794  49.2029741  28.5452507
  72.5129176  49.4564220  29.4591918  71.7034246  49.7957449  28.2257162
  76.5536282  59.8726991  24.6442981  76.4760311  60.8234816  24.7231461
  75.9497925  59.5272863  25.3017907  79.0453511  47.0454856  37.3004348
  78.2686845  47.6048776  37.2907212  79.6844074  47.5311639  37.8219218
  77.2999884  49.8540310  36.8622315  78.0414568  50.3925354  36.5857138
  76.5936869  50.4806598  37.0193867  82.7755223  51.9969450  35.4594476
  83.1838579  51.5551861  34.7149109  82.0532485  51.4222078  35.7128669
  79.1286293  46.9342057  32.8328033  79.9747489  47.3581471  32.9762682
  79.0684931  46.2775681  33.5266596  83.0984038  52.5570641  29.2146765
  82.4692900  52.7216355  28.5122833  82.7109700  52.9712250  29.9857729
  82.2785739  44.5946425  34.4909207  82.0346671  45.3488486  33.9543483
  82.5545669  44.9731773  35.3256454  81.8350430  43.7502858  30.0723045
  80.9734909  44.0484112  30.3639782  81.8612865  43.9673257  29.1404077
  78.6512000  52.2945049  26.4796850  79.1150345  52.5732752  25.6901473
  78.3868798  51.3928493  26.2969941  75.5436081  51.8416530  29.4176613
  76.1137438  52.2703799  28.7794098  76.1344193  51.5599115  30.1160799
  77.5880886  48.4168201  23.2886415  78.2904929  48.8689245  23.7560342
  77.2561514  47.7752020  23.9166309  76.0361247  47.0079958  37.6637625
  75.4059908  47.6896239  37.8973022  75.9297335  46.8963040  36.7190763
  71.3306220  46.6751754  28.5903549  70.5405274  46.9309282  28.1143660
  71.8217467  47.4900092  28.6955589  73.2820965  47.0396333  25.5487026
  72.4852129  47.1515027  26.0670521  73.0546557  47.3782985  24.6827916
  79.1126633  53.5641036  33.4969540  79.1771065  54.0261444  34.3327712
  78.4037557  52.9338401  33.6251850  69.6143923  46.9282244  31.0218540
  69.8651961  47.8129254  31.2876116  70.1503471  46.7486846  30.2493632
  78.8274651  55.2309144  23.3648521  78.6920325  56.0760680  23.7933368
  79.3684463  55.4328422  22.6014454  75.3141990  41.3100724  40.0262876
  74.9208936  40.7566922  40.7010520  76.1308131  41.6211302  40.4169393
  72.2804048  52.7484582  23.9376446  72.7928569  53.5427832  24.0882010
  72.9326761  52.0510872  23.8710047  74.0898933  55.8650338  26.0199199
  74.2665561  56.7868303  25.8320183  74.8855766  55.5508757  26.4493579
  78.2309951  42.7258603  37.6183132  78.9719665  43.3265756  37.5387595
  78.4627874  41.9836241  37.0601175  73.3751289  47.9114970  35.8961362
  73.2604804  47.0100227  36.1968461  72.5195807  48.1578667  35.5446179
  80.4543127  55.8532710  37.4948863  80.0106981  55.0669089  37.1769767
  81.1160341  56.0411861  36.8292753  75.2130248  57.3828512  32.0209541
  75.7637673  57.2545575  31.2486535  74.3741724  57.6823401  31.6704434
  79.0097419  53.6479640  36.3653772  79.5425756  52.8867928  36.1353080
  78.4811500  53.3553292  37.1077927  82.1767114  38.7539706  31.8947414
  81.8331384  39.6441347  31.8186525  82.5446077  38.5641363  31.0316999
  70.2452965  51.0773236  24.7136016  71.0828187  51.4870245  24.4969724
  70.4231232  50.1372678  24.6836210  82.1417397  48.7448317  20.4019849
  81.6264020  49.5152922  20.6408237  81.8694705  48.0713453  21.0252911
  79.7264508  43.5898018  25.4605088  78.8706104  43.2004868  25.2810726
  80.1391460  43.6689978  24.6004873  81.2563655  41.1244361  29.8596647
  80.7528450  41.0874496  29.0464453  81.5494261  42.0337104  29.9193304
  77.5006540  41.2083091  28.8662829  78.3659537  41.0125899  28.5068719
  77.5684049  40.9793442  29.7932186  81.9303700  46.6175409  22.2279630
  81.6253836  46.9321558  23.0789774  82.8834142  46.6956829  22.2706963
  80.3750132  52.7765632  23.8772584  79.8471493  52.0418392  23.5645822
  79.8737635  53.5540309  23.6312553  75.1068859  43.4385299  26.2379196
  75.6812611  43.2160480  25.5052389  75.6939842  43.5073993  26.9907797
  75.4338447  45.4689760  20.2575081  74.5975759  45.8064446  20.5784356
  75.2943216  45.3338739  19.3202218  77.4091527  40.3126547  24.9654265
  76.7555940  39.9975565  24.3410880  77.3672001  39.6902288  25.6914088
  78.5202732  50.5945843  16.8807557  77.6129794  50.3635096  17.0798706
  79.0173764  49.7983462  17.0681539  81.4270811  59.3043350  19.8004244
  80.7532510  59.6075046  20.4089201  81.8136633  60.1072430  19.4509701
  80.6429268  46.8008481  29.2901913  79.7251829  47.0223428  29.1323601
  81.0589411  46.8754791  28.4313620  81.4264315  48.1999897  24.4204593
  82.1736134  48.7121294  24.1111715  81.6955905  47.8783949  25.2808987
  79.6990965  50.6958437  21.4031547  78.7902185  50.4117470  21.5004017
  79.7286049  51.1157516  20.5434854  70.2679136  48.4163952  25.3846750
  70.0703536  47.8233312  24.6597816  69.7125800  48.1116162  26.1022688
  78.2475860  48.3087058  27.5041343  78.3024469  47.3560894  27.4283819
  77.4367062  48.4646497  27.9882641  79.3967053  52.2367181  18.7419626
  78.9586483  51.5203040  18.2825263  80.1377494  52.4643296  18.1804717
  76.1868219  46.9264118  25.2631722  75.3736085  47.2258288  25.6696914
  76.6827214  46.5319807  25.9806204  78.3376797  56.9221875  27.1965986
  78.2952976  57.1482721  26.2674518  79.2539496  56.6885249  27.3451788
  81.7842431  47.3905942  34.0946616  82.1391819  47.6177415  34.9541081
  82.4314562  47.7224319  33.4723871  75.6782294  44.4982473  30.8792957
  76.3181674  44.3571232  30.1815920  74.8459825  44.2116987  30.5031559
  76.4542598  53.7984904  26.9927949  77.2483197  53.3035224  26.7910524
  75.7434290  53.2702767  26.6295655  81.2737443  56.1802999  31.3440317
  81.3274465  56.7493936  32.1118033  80.4052224  56.3504884  30.9794354
  72.7625362  47.9427985  23.0687702  71.8322950  47.8812441  23.2857664
  72.8582834  47.4203938  22.2724343  72.6810911  44.4682798  25.6565943
  72.9417728  45.3828132  25.5475104  73.5028083  44.0007241  25.8062556
  74.1535836  45.8820555  32.8264768  74.8258889  45.6737918  32.1777417
  73.3265622  45.6842641  32.3870000  80.0561408  42.5082496  34.8430429
  79.4089323  43.2072446  34.7494905  80.8262423  42.9418640  35.2106677
  80.2325542  50.3463261  32.9027249  81.1617602  50.4974421  32.7296216
  79.8116572  50.4347282  32.0475895  79.0313874  54.3713926  30.6725786
  78.8924960  54.0032710  31.5451724  78.2428470  54.8861565  30.5009744
  79.6262026  59.4723022  22.0151323  79.8013782  59.0011065  22.8296945
  78.9394814  60.0988788  22.2432583  80.5819089  53.7495528  28.0614624
  80.2468922  53.7096298  28.9572274  80.0823035  53.0840244  27.5885034
  74.5563333  49.1563158  33.5867205  74.4183131  48.4243397  34.1878744
  75.4668257  49.0672059  33.3051393  77.1845634  48.8683118  33.0750885
  77.8945252  48.2276310  33.0337503  77.1414942  49.1196013  33.9977066
  75.8974568  45.8548336  34.8946524  75.3611925  45.4039074  35.5468121
  75.3091276  45.9894244  34.1516989  74.1923111  62.6212385  28.7891183
  74.4319710  63.2530909  29.4670201  73.3492308  62.2700425  29.0756542
  75.3076827  45.3136987  17.4572988  74.4306293  45.1925788  17.0935235
  75.7834580  44.5223065  17.2051877  66.8278967  50.1014147  27.5514495
  67.5150007  49.7875877  26.9635510  66.6727096  51.0055511  27.2781746
  71.6313689  44.9904343  31.9799519  71.5471878  44.3830013  31.2449929
  70.8096395  45.4813362  31.9809015  78.7050973  58.4291507  31.1932687
  78.6321145  59.2346479  31.7051991  78.2628366  58.6283473  30.3680708
  78.4940753  57.6663277  24.7035508  77.7108275  58.2084958  24.7973733
  79.1933498  58.1837257  25.1029750  81.8037403  43.4757907  27.3469714
  82.3006102  42.7227869  27.0270784  81.0324384  43.5122224  26.7812923
  81.1649657  58.3278341  33.3490846  81.8777629  58.9625806  33.2766747
  80.6739685  58.4242207  32.5330847  82.8867184  52.2329594  24.9208137
  81.9523462  52.3531057  24.7512842  83.0643852  51.3302061  24.6568147
  78.3872372  45.6175290  27.0741398  78.0170159  45.0646330  27.7622304
  78.8831464  45.0133423  26.5216398  76.2161570  56.0772785  34.1696416
  76.9171030  56.7109268  34.3225811  75.7456685  56.4187516  33.4092056
  80.9770030  58.6677086  26.0977137  81.1592425  57.8498741  26.5604889
  81.8003016  58.8844778  25.6602027  81.3112196  57.5945271  23.3592185
  81.8399962  57.0837725  22.7462348  81.5740415  57.2787801  24.2237719
  80.0650429  49.3737203  38.4815004  79.3891066  49.2731333  39.1517379
  80.8878063  49.2176417  38.9451001  71.8129288  55.6109140  31.1027519
  72.3982725  54.8652828  31.2355423  71.6154127  55.9213097  31.9864183
  74.6667944  58.6460387  26.1189961  73.9978319  59.1306515  25.6354001
  74.5280813  58.8929608  27.0333340  66.4046943  48.1814740  29.8231962
  66.4431043  47.6478331  30.6169080  65.8987236  47.6549946  29.2042939
  78.8073212  60.6804131  32.7172620  79.3591520  60.8435752  33.4821705
  79.1479406  61.2708569  32.0452645  73.7837705  43.0279281  33.3194504
  73.8479032  43.8894112  32.9071902  73.7204826  42.4153282  32.5866863
  73.2589978  45.1002413  36.9667539  73.8862017  44.7179490  37.5805063
  72.4017897  44.8816615  37.3323231  70.0355521  46.9078842  22.8985894
  70.3308962  45.9989521  22.8452947  69.1343556  46.8866582  22.5766896
  81.9441599  58.6286106  29.7036302  81.8192739  57.8275846  29.1947247
  82.6020691  59.1232300  29.2150272  73.5649768  44.9834839  28.8813442
  72.8436353  45.5970807  28.7420915  74.3543023  45.5192604  28.8030088
  76.3676081  42.3189265  35.1554094  76.8910483  42.5651562  35.9180403
  76.1488414  43.1509300  34.7357231  71.7643362  44.5892940  23.0225219
  71.4356068  43.7090319  22.8400325  72.1182733  44.5340609  23.9101608
  81.0122941  56.2247843  27.5320204  80.8647904  55.2964550  27.7127774
  81.8376435  56.2467933  27.0477279  74.8785185  44.8765910  23.3900696
  75.2181258  45.4051831  22.6679305  75.3257306  45.2146316  24.1659263
  77.5728626  43.2602960  32.8403764  77.2325447  42.4610774  33.2424444
  76.8667632  43.5604671  32.2680598  78.2245098  40.3452273  31.2931087
  79.0471167  39.8712751  31.1709978  78.4683162  41.1242757  31.7929774
  76.8653333  43.3740531  21.5893989  77.5861695  43.7521784  21.0857706
  76.2418637  44.0929408  21.6928967  81.0084455  44.0785680  22.5252321
  81.2248070  44.9610318  22.2241150  80.5278523  43.6871894  21.7957963
  75.7483677  47.0371394  29.1023066  75.6028258  47.3511697  29.9947348
  75.2708880  47.6556294  28.5493965  77.6080060  44.0273942  29.1503956
  77.5941628  43.1315035  28.8136254  78.3252488  44.0344605  29.7842242
  79.4606190  44.4611282  31.1957083  79.2023968  45.3828352  31.1941413
  78.9291231  44.0641716  31.8857547  70.2229339  49.5776738  32.0410727
  69.6782807  50.3536546  32.1731002  71.1008689  49.9247542  31.8829849
  77.0116956  42.9088322  24.4191526  77.1332867  41.9804968  24.6182413
  76.7218998  42.9227008  23.5069841  79.8808146  40.5943232  27.5558246
  79.9029843  40.6582565  26.6010225  80.2976205  39.7547741  27.7498752
  71.0095361  48.7046634  34.9340884  70.2677097  48.8529270  35.5205515
  70.6888105  48.9654900  34.0707634  78.9539023  58.2462612  34.7321274
  79.2626150  58.0011759  35.6043974  79.7514505  58.4509251  34.2440144
  78.9759636  60.4000522  26.9626651  78.5364626  59.9076901  27.6559507
  79.7267752  59.8573490  26.7218726  71.4551974  56.5912063  26.9651279
  72.2809994  56.2915835  26.5849922  71.1046026  55.8219685  27.4141067
  69.6560580  54.5098389  27.9240212  68.8192488  54.0820564  27.7424214
  69.6284225  54.7030833  28.8611004  76.4958035  44.4220319  38.6281458
  76.5446191  45.2982442  38.2459228  77.0380549  43.8797712  38.0553102
  75.9847015  54.4942454  22.5107413  76.1335135  55.1777919  21.8574086
  76.7913458  54.4747545  23.0256869  78.7257324  45.1751692  35.3827817
  77.8560633  45.4685258  35.1110406  78.9616804  45.7592137  36.1035081
  73.7399648  50.5207632  23.5168482  73.4945689  49.6169962  23.7148692
  73.9095562  50.5224783  22.5747960  81.4296357  41.3931308  32.8993237
  81.9478301  42.1292335  32.5739726  81.0751490  41.6995302  33.7339997
  73.0095295  46.2535990  21.0154643  72.3164540  46.3280345  20.3594679
  72.7647047  45.4896333  21.5376160  81.6808952  37.8131591  28.4194134
  81.9610705  37.1454780  29.0454561  82.4659559  38.0060687  27.9068798
  79.4842420  56.9890585  19.9819160  78.9116387  57.6080772  19.5289632
  80.0575214  57.5389947  20.5159082  79.8689219  48.3251398  17.3235213
  80.8148323  48.1957606  17.3923631  79.4903464  47.5866060  17.8004641
  79.7527911  52.3769144  38.7835870  80.6730921  52.5547743  38.9775916
  79.7177494  51.4325189  38.6315569  78.0532136  46.2501374  17.2590098
  77.1463591  45.9534487  17.3352812  78.3308117  45.9531192  16.3924384
  68.9710076  47.5707737  27.7089144  68.6512860  46.7173046  27.4163518
  68.4243504  47.7856316  28.4647112  72.7489984  50.2870178  31.4258651
  72.9675993  51.2187286  31.4446685  73.1615757  49.9278153  32.2113455
  79.6694201  40.7938264  23.4134339  78.8594930  40.4485349  23.7889585
  80.3578618  40.4845808  24.0021951  81.5984750  39.8716311  25.0358636
  82.1515788  40.2911764  25.6948659  81.8354836  38.9452059  25.0781592
  77.6217849  45.8603384  40.8161400  77.5214576  46.8097741  40.7473491
  77.4039391  45.5321623  39.9437470  76.8230920  43.1088309  17.4002077
  77.6850084  43.4343208  17.6597895  77.0081265  42.3219805  16.8875143
  68.8398336  51.1910649  29.6782266  68.1461808  50.7764602  29.1652220
  69.5871327  51.2331185  29.0815685  77.4849119  49.2900523  39.6326462
  77.0016201  50.0900883  39.8390351  77.5710058  49.3008468  38.6793906
  70.7535079  51.1228903  27.5548281  70.7305767  51.2216590  26.6030164
  71.0635715  51.9694054  27.8765447  73.4122457  53.1805058  31.6694895
  74.3665710  53.1489000  31.6024827  73.2134980  52.7195682  32.4845121
  74.0021839  51.7506174  34.2365693  74.8214728  52.2450252  34.2600530
  74.2758646  50.8338142  34.2083260  71.7672685  58.7224677  28.6865093
  71.6327153  57.9625078  28.1203091  71.3504748  59.4465577  28.2193882
  74.9241811  59.6193994  28.8983536  74.8074195  60.5639427  28.7962226
  74.1034257  59.3167556  29.2869335  69.2556753  46.0844308  34.9357890
  69.9015617  45.5743262  35.4245115  69.0473904  46.8212989  35.5101315
  81.7810145  53.1525155  40.4350031  82.6501305  53.3265807  40.0736666
  81.3016897  53.9719572  40.3125760  77.7760363  40.3484352  20.6881786
  77.7639033  41.2926192  20.8450057  78.6683785  40.1654498  20.3941247
  75.9496325  60.2722256  32.1139464  76.8523572  60.3045866  32.4305959
  75.7233695  59.3422707  32.1285800  77.7049927  59.0253243  28.7749543
  76.7545558  59.0255104  28.6613915  78.0082413  58.2785977  28.2585578
  81.5912483  36.9427129  24.9427723  80.8244879  36.3885616  25.0884405
  82.0023188  37.0148998  25.8041875  73.5954244  43.2311925  39.0332904
  74.4585705  42.8748730  39.2436229  73.0219655  42.8925820  39.7208309
  82.1699974  62.0043672  28.5903549  81.3799028  62.2601200  28.1143660
  82.6611222  62.8192009  28.6955589  80.4537677  62.2574162  31.0218540
  80.7045716  63.1421172  31.2876116  80.9897226  62.0778764  30.2493632
  81.0846719  66.4065154  24.7136016  81.9221941  66.8162162  24.4969724
  81.2624987  65.4664596  24.6836210  81.1072890  63.7455869  25.3846750
  80.9097290  63.1525230  24.6597816  80.5519554  63.4408079  26.1022688
  77.6672721  65.4306064  27.5514495  78.3543761  65.1167794  26.9635510
  77.5120850  66.3347429  27.2781746  82.4707444  60.3196261  31.9799519
  82.3865632  59.7121931  31.2449929  81.6490150  60.8105279  31.9809015
  77.2440698  63.5106658  29.8231962  77.2824797  62.9770248  30.6169080
  76.7380990  62.9841863  29.2042939  80.8749275  62.2370760  22.8985894
  81.1702716  61.3281438  22.8452947  79.9737311  62.2158499  22.5766896
  82.6037117  59.9184858  23.0225219  82.2749823  59.0382237  22.8400325
  82.9576487  59.8632526  23.9101608  81.0623093  64.9068656  32.0410727
  80.5176562  65.6828464  32.1731002  81.9402443  65.2539460  31.8829849
  81.8489115  64.0338552  34.9340884  81.1070851  64.1821187  35.5205515
  81.5281860  64.2946817  34.0707634  80.4954334  69.8390307  27.9240212
  79.6586242  69.4112481  27.7424214  80.4677979  70.0322750  28.8611004
  79.8103831  62.8999655  27.7089144  79.4906615  62.0464963  27.4163518
  79.2637259  63.1148233  28.4647112  79.6792091  66.5202567  29.6782266
  78.9855562  66.1056519  29.1652220  80.4265082  66.5623103  29.0815685
  81.5928833  66.4520820  27.5548281  81.5699521  66.5508508  26.6030164
  81.9029470  67.2985971  27.8765447  80.0950507  61.4136225  34.9357890
  80.7409371  60.9035179  35.4245115  79.8867659  62.1504907  35.5101315
  54.8748774   6.2205278  11.3688288  54.7972804   7.1713103  11.4476768
  54.2710418   5.8751151  12.0263214  53.5342740   3.7306799  18.7454848
  54.0850166   3.6023863  17.9731842  52.6954216   4.0301688  18.3949741
  57.9474518   5.8201309   8.7396629  58.1226274   5.3489353   9.5542252
  57.2607306   6.4467076   8.9677890  52.5135604   8.9690672  15.5136490
  52.7532202   9.6009196  16.1915508  51.6704800   8.6178712  15.8001849
  57.0263465   4.7769795  17.9177994  56.9533637   5.5824766  18.4297298
  56.5840859   4.9761760  17.0926015  56.8153245   4.0141565  11.4280815
  56.0320767   4.5563245  11.5219040  57.5145990   4.5315544  11.8275056
  59.4862149   4.6756629  20.0736152  60.1990121   5.3104093  20.0012054
  58.9952178   4.7720495  19.2576154  50.1341781   1.9587427  17.8272826
  50.7195217   1.2131115  17.9600730  49.9366619   2.2691384  18.7109490
  52.9880436   4.9938675  12.8435268  52.3190811   5.4784802  12.3599308
  52.8493306   5.2407895  13.7578647  57.1285704   7.0282418  19.4417926
  57.6804012   7.1914040  20.2067012  57.4691898   7.6186856  18.7697951
  57.2751516   4.5940900  21.4566581  57.5838642   4.3490046  22.3289280
  58.0726998   4.7987538  20.9685451  57.2972128   6.7478809  13.6871957
  56.8577118   6.2555188  14.3804814  58.0480245   6.2051777  13.4464033
  49.7764467   2.9390350  13.6896585  50.6022487   2.6394122  13.3095229
  49.4258519   2.1697973  14.1386374  47.9773072   0.8576677  14.6485519
  47.1404980   0.4298851  14.4669520  47.9496717   1.0509120  15.5856310
  50.0885178   5.0702965  15.4110400  49.9539646   4.3103365  14.8448398
  49.6717240   5.7943864  14.9439189  53.2454303   5.9672282  15.6228842
  53.1286688   6.9117714  15.5207533  52.4246750   5.6645843  16.0114642
  54.2708818   6.6200543  18.8384771  55.1736064   6.6524154  19.1551266
  54.0446188   5.6900994  18.8531107  56.0262420   5.3731530  15.4994850
  55.0758051   5.3733392  15.3859222  56.3294906   4.6264265  14.9830884
  68.5704819  11.1619496  16.5002137  68.2323331  11.0460561  15.6122671
  69.4394588  10.7610662  16.4803143  64.4291635  13.0154973  12.4899028
  63.8656500  12.9244910  11.7215315  64.3144030  12.1954877  12.9701520
  69.0524602  12.3154348  22.4588342  69.0413243  11.9207146  21.5868846
  69.2145242  11.5820421  23.0522114  61.9756067  14.5106164  15.3283248
  62.7677359  14.1696989  14.9129547  62.2152717  14.6201140  16.2485401
  65.7731864  15.0991460  21.4067526  65.4821729  16.0037091  21.2914192
  66.4088848  15.1407988  22.1211596  66.6988070  12.4768309  17.9968886
  67.2951643  12.2524331  17.2825849  66.7563042  11.7353054  18.5994334
  70.7321749  14.7852876  18.4017320  70.4322472  15.6877914  18.2933127
  70.3872808  14.5185059  19.2538473  64.1834230  11.2366672  14.4354024
  63.2584727  11.1042886  14.6431716  64.4318643  12.0160892  14.9323967
  61.5443041  10.8799946  15.2697813  61.6735422  11.1334425  16.1837225
  60.8640492  11.4727654  14.9502468  65.7142528  21.5497196  11.3688288
  65.6366558  22.5005021  11.4476768  65.1104172  21.2043068  12.0263214
  68.2059758   8.7225061  24.0249654  67.4293092   9.2818981  24.0152519
  68.8450321   9.2081844  24.5464525  66.4606130  11.5310515  23.5867621
  67.2020815  12.0695559  23.3102445  65.7543116  12.1576803  23.7439173
  71.9361470  13.6739655  22.1839783  72.3444826  13.2322066  21.4394415
  71.2138732  13.0992283  22.4373976  68.2892540   8.6112262  19.5573340
  69.1353735   9.0351675  19.7007989  68.2291178   7.9545886  20.2511903
  72.2590285  14.2340846  15.9392072  71.6299147  14.3986560  15.2368140
  71.8715947  14.6482455  16.7103036  73.3930448  12.8155243  19.8931779
  73.6047344  13.4587002  19.2166160  73.3460197  11.9817559  19.4253709
  67.8118247  13.9715254  13.2042157  68.2756592  14.2502957  12.4146779
  67.5475045  13.0698698  13.0215248  64.7042328  13.5186735  16.1421920
  65.2743685  13.9474004  15.5039405  65.2950440  13.2369320  16.8406106
  65.1967494   8.6850163  24.3882931  64.5666155   9.3666444  24.6218328
  65.0903582   8.5733244  23.4436070  60.4912467   8.3521959  15.3148856
  59.7011521   8.6079487  14.8388966  60.9823714   9.1670297  15.4200896
  74.5076276  15.6927198  18.0654136  75.3293720  15.2907385  17.7836818
  74.5038679  15.5895432  19.0170252  62.4427212   8.7166538  12.2732332
  61.6458375   8.8285232  12.7915828  62.2152804   9.0553190  11.4073223
  68.2732880  15.2411241  20.2214847  68.3377312  15.7031649  21.0573019
  67.5643804  14.6108606  20.3497157  58.7750170   8.6052449  17.7463846
  59.0258208   9.4899459  18.0121422  59.3109718   8.4257051  16.9738938
  61.4410295  14.4254787  10.6621752  61.9534815  15.2198037  10.8127317
  62.0933008  13.7281077  10.5955354  63.2505179  17.5420543  12.7444506
  63.4271808  18.4638508  12.5565489  64.0462013  17.2278962  13.1738885
  62.5357536   9.5885175  22.6206669  62.4211051   8.6870432  22.9213768
  61.6802054   9.8348872  22.2691485  69.6149374  17.5302915  24.2194169
  69.1713228  16.7439294  23.9015074  70.2766587  17.7182066  23.5538060
  64.3736495  19.0598717  18.7454848  64.9243920  18.9315780  17.9731842
  63.5347971  19.3593606  18.3949741  71.7130612  17.8105715  22.2475571
  71.6949087  18.6314596  21.7555840  72.6350532  17.6859790  22.4725712
  68.1703666  15.3249845  23.0899079  68.7032003  14.5638133  22.8598387
  67.6417747  15.0323497  23.8323233  59.4059211  12.7543441  11.4381323
  60.2434433  13.1640450  11.2215031  59.5837479  11.8142883  11.4081517
  59.4285383  10.0934156  12.1092056  59.2309782   9.5003517  11.3843123
  58.8732047   9.7886367  12.8267995  67.4082106   9.9857263  14.2286649
  67.4630716   9.0331099  14.1529126  66.5973308  10.1416702  14.7127948
  67.4983044  18.5992080  13.9211293  67.4559223  18.8252926  12.9919825
  68.4145743  18.3655454  14.0697094  70.9448678   9.0676147  20.8191922
  71.2998066   9.2947620  21.6786388  71.5920809   9.3994524  20.1969178
  65.6148845  15.4755109  13.7173256  66.4089443  14.9805429  13.5155831
  64.9040537  14.9472972  13.3540961  70.4343689  17.8573204  18.0685623
  70.4880712  18.4264140  18.8363339  69.5658471  18.0275089  17.7039660
  61.8417157   6.1453003  12.3811250  62.1023975   7.0598336  12.2720411
  62.6634330   5.6777446  12.5307863  63.3142083   7.5590760  19.5510075
  63.9865136   7.3508123  18.9022724  62.4871869   7.3612846  19.1115307
  72.6246453  14.4501553  24.6426289  72.4731959  14.2212105  23.7256372
  72.6151132  15.4072155  24.6557634  69.3931789  12.0233466  19.6272555
  70.3223849  12.1744626  19.4541523  68.9722819  12.1117487  18.7721202
  68.1920121  16.0484131  17.3971093  68.0531207  15.6802915  18.2697031
  67.4034717  16.5631770  17.2255051  68.7868273  21.1493227   8.7396629
  68.9620029  20.6781270   9.5542252  68.1001061  21.7758993   8.9677890
  69.7425336  15.4265733  14.7859931  69.4075169  15.3866503  15.6817580
  69.2429282  14.7610449  14.3130341  63.7169580  10.8333363  20.3112512
  63.5789378  10.1013602  20.9124051  64.6274503  10.7442263  20.0296700
  66.3451881  10.5453323  19.7996191  67.0551499   9.9046515  19.7582810
  66.3021189  10.7966218  20.7222372  74.3338659  17.4820676  22.7202771
  74.2751205  16.7979896  22.0533354  74.7358178  18.2239666  22.2683397
  65.0580815   7.5318541  21.6191831  64.5218172   7.0809279  22.2713427
  64.4697523   7.6664449  20.8762295  63.3529358  24.2982590  15.5136490
  63.5925956  24.9301114  16.1915508  62.5098555  23.9470630  15.8001849
  74.3356067  15.4460260  20.9516750  73.4482845  15.1086182  21.0743149
  74.9054618  14.7143291  21.1885516  55.9885214  11.7784352  14.2759802
  56.6756254  11.4646082  13.6880817  55.8333342  12.6825716  14.0027053
  60.7919936   6.6674548  18.7044825  60.7078125   6.0600218  17.9695235
  59.9702642   7.1583567  18.7054322  67.8657220  20.1061712  17.9177994
  67.7927391  20.9116684  18.4297298  67.4234613  20.3053678  17.0926015
  67.6547000  19.3433482  11.4280815  66.8714521  19.8855163  11.5219040
  68.3539745  19.8607462  11.8275056  70.3255904  20.0048546  20.0736152
  71.0383876  20.6396011  20.0012054  69.8345932  20.1012412  19.2576154
  65.3767817  17.7542990  20.8941723  66.0777277  18.3879473  21.0471117
  64.9062932  18.0957721  20.1337362  70.1376277  20.3447290  12.8222444
  70.3198671  19.5268946  13.2850196  70.9609263  20.5614983  12.3847334
  69.2256676  11.0507408  25.2060310  68.5497313  10.9501538  25.8762686
  70.0484310  10.8946622  25.6696308  60.9735535  17.2879345  17.8272826
  61.5588972  16.5423033  17.9600730  60.7760374  17.5983302  18.7109490
  63.8274190  20.3230592  12.8435268  63.1584566  20.8076720  12.3599308
  63.6887060  20.5699813  13.7578647  55.5653190   9.8584945  16.5477269
  55.6037289   9.3248536  17.3414387  55.0593483   9.3320151  15.9288246
  67.9679459  22.3574336  19.4417926  68.5197767  22.5205957  20.2067012
  68.3085652  22.9478774  18.7697951  62.4196225   6.7772618  23.6912845
  63.0468263   6.3949695  24.3050370  61.5624144   6.5586820  24.0568538
  72.8190333  17.1835593  25.2966581  73.3630237  17.7965552  24.8021536
  72.2377178  17.7415172  25.8133594  59.1961767   8.5849047   9.6231200
  59.4915208   7.6759726   9.5698254  58.2949803   8.5636787   9.3012203
  71.1047846  20.3056311  16.4281609  70.9798986  19.5046051  15.9192554
  71.7626937  20.8002505  15.9395579  62.7256014   6.6605044  15.6058749
  62.0042600   7.2741011  15.4666222  63.5149270   7.1962809  15.5275395
  73.1682755  18.1065331  18.0561159  72.2213090  17.9870683  17.9839485
  73.5165528  17.2187829  18.1387420  70.1729188  17.9018048  14.2565511
  70.0254150  16.9734755  14.4373081  70.9982681  17.9238138  13.7722586
  73.7763310  18.7246606  15.3430384  74.7009857  18.5189468  15.2054835
  73.6078613  18.4763007  16.2519725  64.9089924   8.7141598  15.8268373
  64.7634504   9.0281902  16.7192654  64.4315127   9.3326499  15.2739271
  59.3835586  11.2546943  18.7656034  58.8389054  12.0306751  18.8976308
  60.2614936  11.6017747  18.6075155  60.1701608  10.3816839  21.6586191
  59.4283344  10.5299474  22.2450821  59.8494352  10.6425105  20.7952940
  68.1145270  19.9232817  21.4566581  68.4232397  19.6781964  22.3289280
  68.9120752  20.1279456  20.9685451  68.1365882  22.0770727  13.6871957
  67.6970873  21.5847106  14.3804814  68.8873999  21.5343695  13.4464033
  60.6158221  18.2682268  13.6896585  61.4416241  17.9686040  13.3095229
  60.2652273  17.4989890  14.1386374  65.5839754  17.6208736  15.7594259
  64.9619764  16.9579441  15.4596487  66.2544621  17.6469868  15.0767907
  58.8166826  16.1868594  14.6485519  57.9798735  15.7590769  14.4669520
  58.7890472  16.3801038  15.5856310  76.1419128  16.6431647  24.6327902
  75.3514671  16.6255786  24.0932402  75.9052482  17.1819941  25.3876939
  76.2617003  13.4924114  21.9460631  76.3115008  13.3274121  22.8876153
  76.1530926  12.6251373  21.5558511  65.1453261  16.1712659   9.2352720
  65.2941382  16.8548124   8.5819392  65.9519705  16.1517749   9.7502175
  77.7635199  15.9121055  22.1902652  77.4720008  16.2751036  23.0266113
  77.1507331  15.1988064  22.0115984  62.9005894  12.1977837  10.2413788
  62.6551936  11.2940167  10.4393999  63.0701809  12.1994987   9.2993266
  68.9134158  14.0539349  25.5081176  69.8337167  14.2317948  25.7021223
  68.8783741  13.1095394  25.3560876  58.1316323   9.2477942  14.4334451
  57.8119107   8.3943251  14.1408825  57.5849751   9.4626521  15.1892418
  61.9096230  11.9640383  18.1503958  62.1282240  12.8957491  18.1691991
  62.3222004  11.6048358  18.9358761  66.7824096   7.5373589  27.5406707
  66.6820823   8.4867946  27.4718798  66.5645638   7.2091828  26.6682777
  58.0004583  12.8680854  16.4027573  57.3068054  12.4534807  15.8897527
  58.7477574  12.9101390  15.8060992  66.6455366  10.9670728  26.3571768
  66.1622448  11.7671088  26.5635657  66.7316305  10.9778673  25.4039212
  59.9141325  12.7999108  14.2793588  59.8912014  12.8986795  13.3275471
  60.2241962  13.6464258  14.6010754  62.5728703  14.8575263  18.3940202
  63.5271957  14.8259205  18.3270134  62.3741227  14.3965886  19.2090428
  63.1628085  13.4276379  20.9611000  63.9820974  13.9220457  20.9845837
  63.4364893  12.5108347  20.9328567  60.9278932  20.3994882  15.4110400
  60.7933400  19.6395283  14.8448398  60.5110994  21.1235782  14.9439189
  64.0848058  21.2964199  15.6228842  63.9680442  22.2409632  15.5207533
  63.2640504  20.9937761  16.0114642  58.4163000   7.7614513  21.6603197
  59.0621863   7.2513467  22.1490422  58.2080151   8.4983194  22.2346622
  70.9416392  14.8295360  27.1595337  71.8107551  15.0036012  26.7981972
  70.4623143  15.6489777  27.0371067  65.1102572  21.9492461  18.8384771
  66.0129819  21.9816071  19.1551266  64.8839942  21.0192912  18.8531107
  66.8656174  20.7023448  15.4994850  65.9151805  20.7025309  15.3859222
  67.1688660  19.9556182  14.9830884  79.4098574  26.4911414  16.5002137
  79.0717085  26.3752479  15.6122671  80.2788342  26.0902579  16.4803143
  75.2685390  28.3446891  12.4899028  74.7050255  28.2536827  11.7215315
  75.1537785  27.5246795  12.9701520  79.8918357  27.6446266  22.4588342
  79.8806998  27.2499064  21.5868846  80.0538996  26.9112338  23.0522114
  72.8149822  29.8398082  15.3283248  73.6071113  29.4988907  14.9129547
  73.0546472  29.9493057  16.2485401  76.6125618  30.4283378  21.4067526
  76.3215484  31.3329009  21.2914192  77.2482602  30.4699905  22.1211596
  77.5381825  27.8060226  17.9968886  78.1345397  27.5816249  17.2825849
  77.5956796  27.0644972  18.5994334  81.5715503  30.1144793  18.4017320
  81.2716226  31.0169832  18.2933127  81.2266563  29.8476976  19.2538473
  75.0227985  26.5658590  14.4354024  74.0978481  26.4334804  14.6431716
  75.2712398  27.3452809  14.9323967  72.3836796  26.2091864  15.2697813
  72.5129177  26.4626343  16.1837225  71.7034247  26.8019572  14.9502468
  76.5536283  36.8789114  11.3688288  76.4760313  37.8296939  11.4476768
  75.9497926  36.5334986  12.0263214  79.0453513  24.0516979  24.0249654
  78.2686847  24.6110899  24.0152519  79.6844076  24.5373762  24.5464525
  77.2999885  26.8602432  23.5867621  78.0414569  27.3987476  23.3102445
  76.5936870  27.4868721  23.7439173  82.7755225  29.0031573  22.1839783
  83.1838581  28.5613983  21.4394415  82.0532486  28.4284200  22.4373976
  79.1286295  23.9404180  19.5573340  79.9747490  24.3643593  19.7007989
  79.0684932  23.2837804  20.2511903  83.0984039  29.5632763  15.9392072
  82.4692902  29.7278478  15.2368140  82.7109701  29.9774373  16.7103036
  82.2785740  21.6008548  21.2154513  82.0346672  22.3550608  20.6788789
  82.5545670  21.9793896  22.0501761  78.6512001  29.3007171  13.2042157
  79.1150347  29.5794874  12.4146779  78.3868799  28.3990616  13.0215248
  75.5436082  28.8478653  16.1421920  76.1137439  29.2765921  15.5039405
  76.1344194  28.5661238  16.8406106  76.0361249  24.0142080  24.3882931
  75.4059909  24.6958361  24.6218328  75.9297337  23.9025162  23.4436070
  71.3306221  23.6813877  15.3148856  70.5405275  23.9371405  14.8388966
  71.8217469  24.4962214  15.4200896  73.2820967  24.0458456  12.2732332
  72.4852130  24.1577150  12.7915828  73.0546559  24.3845108  11.4073223
  79.1126634  30.5703159  20.2214847  79.1771067  31.0323566  21.0573019
  78.4037558  29.9400524  20.3497157  69.6143924  23.9344367  17.7463846
  69.8651963  24.8191377  18.0121422  70.1503473  23.7548969  16.9738938
  75.3141991  18.3162846  26.7508182  74.9208937  17.7629045  27.4255827
  76.1308132  18.6273425  27.1414700  72.2804049  29.7546705  10.6621752
  72.7928570  30.5489955  10.8127317  72.9326762  29.0572995  10.5955354
  74.0898934  32.8712461  12.7444506  74.2665562  33.7930426  12.5565489
  74.8855767  32.5570880  13.1738885  78.2309952  19.7320725  24.3428439
  78.9719666  20.3327879  24.2632901  78.4627875  18.9898363  23.7846482
  73.3751290  24.9177093  22.6206669  73.2604806  24.0162350  22.9213768
  72.5195808  25.1640789  22.2691485  80.4543128  32.8594833  24.2194169
  80.0106982  32.0731212  23.9015074  81.1160342  33.0473984  23.5538060
  75.2130249  34.3890635  18.7454848  75.7637674  34.2607698  17.9731842
  74.3741725  34.6885524  18.3949741  79.0097420  30.6541762  23.0899079
  79.5425757  29.8930051  22.8598387  78.4811502  30.3615414  23.8323233
  70.2452966  28.0835359  11.4381323  71.0828188  28.4932367  11.2215031
  70.4231234  27.1434801  11.4081517  70.2679137  25.4226074  12.1092056
  70.0703537  24.8295435  11.3843123  69.7125801  25.1178284  12.8267995
  78.2475861  25.3149181  14.2286649  78.3024471  24.3623017  14.1529126
  77.4367063  25.4708620  14.7127948  78.3376799  33.9283997  13.9211293
  78.2952977  34.1544844  12.9919825  79.2539497  33.6947372  14.0697094
  81.7842432  24.3968065  20.8191922  82.1391820  24.6239538  21.6786388
  82.4314564  24.7286442  20.1969178  75.6782295  21.5044596  17.6038263
  76.3181675  21.3633355  16.9061227  74.8459826  21.2179109  17.2276865
  76.4542599  30.8047026  13.7173256  77.2483198  30.3097346  13.5155831
  75.7434292  30.2764889  13.3540961  81.2737444  33.1865122  18.0685623
  81.3274466  33.7556058  18.8363339  80.4052225  33.3567007  17.7039660
  72.6810912  21.4744921  12.3811250  72.9417729  22.3890254  12.2720411
  73.5028084  21.0069363  12.5307863  74.1535837  22.8882678  19.5510075
  74.8258891  22.6800040  18.9022724  73.3265624  22.6904764  19.1115307
  80.0561409  19.5144619  21.5675735  79.4089324  20.2134569  21.4740212
  80.8262425  19.9480763  21.9351984  80.2325544  27.3525384  19.6272555
  81.1617604  27.5036543  19.4541523  79.8116574  27.4409405  18.7721202
  79.0313875  31.3776048  17.3971093  78.8924961  31.0094833  18.2697031
  78.2428472  31.8923688  17.2255051  79.6262027  36.4785145   8.7396629
  79.8013783  36.0073188   9.5542252  78.9394815  37.1050911   8.9677890
  80.5819091  30.7557651  14.7859931  80.2468923  30.7158421  15.6817580
  80.0823036  30.0902367  14.3130341  74.5563334  26.1625281  20.3112512
  74.4183132  25.4305520  20.9124051  75.4668258  26.0734181  20.0296700
  77.1845635  25.8745240  19.7996191  77.8945254  25.2338433  19.7582810
  77.1414943  26.1258135  20.7222372  75.8974569  22.8610458  21.6191831
  75.3611926  22.4101197  22.2713427  75.3091278  22.9956367  20.8762295
  74.1923113  39.6274508  15.5136490  74.4319711  40.2593032  16.1915508
  73.3492309  39.2762548  15.8001849  66.8278968  27.1076269  14.2759802
  67.5150008  26.7937999  13.6880817  66.6727097  28.0117634  14.0027053
  71.6313690  21.9966466  18.7044825  71.5471879  21.3892135  17.9695235
  70.8096397  22.4875484  18.7054322  78.7050974  35.4353630  17.9177994
  78.6321146  36.2408601  18.4297298  78.2628368  35.6345596  17.0926015
  78.4940754  34.6725400  11.4280815  77.7108276  35.2147080  11.5219040
  79.1933499  35.1899380  11.8275056  81.1649658  35.3340464  20.0736152
  81.8777630  35.9687929  20.0012054  80.6739687  35.4304330  19.2576154
  76.2161572  33.0834907  20.8941723  76.9171031  33.7171390  21.0471117
  75.7456687  33.4249639  20.1337362  80.9770031  35.6739208  12.8222444
  81.1592426  34.8560864  13.2850196  81.8003017  35.8906900  12.3847334
  80.0650431  26.3799326  25.2060310  79.3891068  26.2793455  25.8762686
  80.8878064  26.2238540  25.6696308  71.8129290  32.6171263  17.8272826
  72.3982726  31.8714950  17.9600730  71.6154128  32.9275219  18.7109490
  74.6667945  35.6522510  12.8435268  73.9978320  36.1368638  12.3599308
  74.5280815  35.8991730  13.7578647  66.4046944  25.1876863  16.5477269
  66.4431044  24.6540453  17.3414387  65.8987237  24.6612068  15.9288246
  78.8073213  37.6866253  19.4417926  79.3591521  37.8497875  20.2067012
  79.1479407  38.2770691  18.7697951  73.7837707  20.0341403  20.0439811
  73.8479033  20.8956234  19.6317209  73.7204827  19.4215405  19.3112170
  73.2589979  22.1064536  23.6912845  73.8862018  21.7241613  24.3050370
  72.4017898  21.8878738  24.0568538  70.0355522  23.9140965   9.6231200
  70.3308963  23.0051643   9.5698254  69.1343558  23.8928704   9.3012203
  81.9441601  35.6348229  16.4281609  81.8192740  34.8337969  15.9192554
  82.6020692  36.1294422  15.9395579  73.5649769  21.9896961  15.6058749
  72.8436355  22.6032929  15.4666222  74.3543025  22.5254726  15.5275395
  76.3676082  19.3251388  21.8799401  76.8910484  19.5713684  22.6425710
  76.1488416  20.1571423  21.4602538  81.0122942  33.2309965  14.2565511
  80.8647905  32.3026673  14.4373081  81.8376436  33.2530056  13.7722586
  77.5728627  20.2665083  19.5649071  77.2325448  19.4672896  19.9669751
  76.8667634  20.5666794  18.9925904  75.7483678  24.0433516  15.8268373
  75.6028259  24.3573819  16.7192654  75.2708882  24.6618416  15.2739271
  79.4606192  21.4673404  17.9202390  79.2023969  22.3890475  17.9186720
  78.9291232  21.0703839  18.6102854  70.2229340  26.5838861  18.7656034
  69.6782808  27.3598668  18.8976308  71.1008690  26.9309665  18.6075155
  71.0095362  25.7108757  21.6586191  70.2677098  25.8591392  22.2450821
  70.6888106  25.9717022  20.7952940  78.9539025  35.2524735  21.4566581
  79.2626151  35.0073882  22.3289280  79.7514507  35.4571373  20.9685451
  78.9759637  37.4062645  13.6871957  78.5364627  36.9139023  14.3804814
  79.7267754  36.8635612  13.4464033  71.4551976  33.5974186  13.6896585
  72.2809996  33.2977957  13.3095229  71.1046028  32.8281808  14.1386374
  76.4233509  32.9500654  15.7594259  75.8013518  32.2871359  15.4596487
  77.0938376  32.9761786  15.0767907  69.6560581  31.5160512  14.6485519
  68.8192489  31.0882686  14.4669520  69.6284226  31.7092955  15.5856310
  76.4958036  21.4282442  25.3526765  76.5446192  22.3044565  24.9704535
  77.0380551  20.8859835  24.7798408  75.9847016  31.5004577   9.2352720
  76.1335136  32.1840041   8.5819392  76.7913459  31.4809667   9.7502175
  78.7257325  22.1813814  22.1073124  77.8560634  22.4747380  21.8355712
  78.9616805  22.7654259  22.8280387  73.7399649  27.5269755  10.2413788
  73.4945691  26.6232085  10.4393999  73.9095563  27.5286905   9.2993266
  79.7527912  29.3831266  25.5081176  80.6730922  29.5609865  25.7021223
  79.7177495  28.4387312  25.3560876  68.9710077  24.5769860  14.4334451
  68.6512862  23.7235168  14.1408825  68.4243506  24.7918438  15.1892418
  72.7489985  27.2932301  18.1503958  72.9675995  28.2249409  18.1691991
  73.1615759  26.9340275  18.9358761  77.6217850  22.8665507  27.5406707
  77.5214577  23.8159864  27.4718798  77.4039392  22.5383746  26.6682777
  68.8398337  28.1972772  16.4027573  68.1461809  27.7826724  15.8897527
  69.5871328  28.2393308  15.8060992  77.4849120  26.2962646  26.3571768
  77.0016202  27.0963006  26.5635657  77.5710059  26.3070591  25.4039212
  70.7535080  28.1291025  14.2793588  70.7305768  28.2278713  13.3275471
  71.0635716  28.9756176  14.6010754  73.4122458  30.1867180  18.3940202
  74.3665711  30.1551123  18.3270134  73.2134981  29.7257804  19.2090428
  74.0021840  28.7568296  20.9611000  74.8214729  29.2512375  20.9845837
  74.2758648  27.8400265  20.9328567  71.7672687  35.7286800  15.4110400
  71.6327155  34.9687201  14.8448398  71.3504749  36.4527700  14.9439189
  74.9241812  36.6256117  15.6228842  74.8074197  37.5701549  15.5207533
  74.1034259  36.3229678  16.0114642  69.2556754  23.0906430  21.6603197
  69.9015618  22.5805384  22.1490422  69.0473905  23.8275112  22.2346622
  81.7810146  30.1587278  27.1595337  82.6501306  30.3327930  26.7981972
  81.3016898  30.9781695  27.0371067  75.9496327  37.2784379  18.8384771
  76.8523573  37.3107989  19.1551266  75.7233697  36.3484830  18.8531107
  77.7049929  36.0315365  15.4994850  76.7545560  36.0317227  15.3859222
  78.0082415  35.2848100  14.9830884  73.5954245  20.2374047  25.7578211
  74.4585707  19.8810852  25.9681536  73.0219656  19.8987942  26.4453615
  82.1699976  39.0105794  15.3148856  81.3799030  39.2663323  14.8388966
  82.6611223  39.8254132  15.4200896  80.4537679  39.2636285  17.7463846
  80.7045717  40.1483295  18.0121422  80.9897227  39.0840886  16.9738938
  81.0846720  43.4127277  11.4381323  81.9221942  43.8224285  11.2215031
  81.2624988  42.4726719  11.4081517  81.1072892  40.7517992  12.1092056
  80.9097291  40.1587353  11.3843123  80.5519556  40.4470202  12.8267995
  77.6672723  42.4368187  14.2759802  78.3543763  42.1229917  13.6880817
  77.5120851  43.3409552  14.0027053  82.4707445  37.3258384  18.7044825
  82.3865634  36.7184053  17.9695235  81.6490151  37.8167402  18.7054322
  77.2440699  40.5168780  16.5477269  77.2824798  39.9832371  17.3414387
  76.7380992  39.9903986  15.9288246  80.8749276  39.2432883   9.6231200
  81.1702717  38.3343561   9.5698254  79.9737312  39.2220622   9.3012203
  81.0623095  41.9130778  18.7656034  80.5176563  42.6890586  18.8976308
  81.9402445  42.2601583  18.6075155  81.8489117  41.0400674  21.6586191
  81.1070853  41.1883310  22.2450821  81.5281861  41.3008940  20.7952940
  82.2945730  48.9266103  13.6896585  83.1203750  48.6269875  13.3095229
  81.9439782  48.1573726  14.1386374  80.4954335  46.8452430  14.6485519
  79.6586244  46.4174604  14.4669520  80.4677981  47.0384873  15.5856310
  79.8103832  39.9061778  14.4334451  79.4906616  39.0527086  14.1408825
  79.2637260  40.1210356  15.1892418  79.6792092  43.5264689  16.4027573
  78.9855563  43.1118642  15.8897527  80.4265083  43.5685226  15.8060992
  81.5928834  43.4582943  14.2793588  81.5699523  43.5570630  13.3275471
  81.9029471  44.3048094  14.6010754  82.6066441  51.0578718  15.4110400
  82.4720909  50.2979118  14.8448398  82.1898503  51.7819617  14.9439189
  80.0950509  38.4198348  21.6603197  80.7409372  37.9097302  22.1490422
  79.8867660  39.1567030  22.2346622   6.7225983  42.6949785  67.5157878
   5.9689691  42.1257183  67.3601883   6.8573524  42.6612450  68.4628513
   0.7990128  42.8478422  64.6260022   0.6608027  43.0380018  63.6981211
   0.4426347  43.6097805  65.0828073   0.8259508  44.9154949  69.6371293
   1.2596015  44.8230238  70.4854347   1.5391089  44.8912449  68.9991309
   1.6875058  44.9578650  72.1704179   1.8810948  45.8624460  72.4163453
   1.5875676  44.4986069  73.0042764   2.9417121  41.5152316  68.8152082
   2.9306997  42.3977032  68.4446015   2.0734500  41.1623867  68.6206619
   3.5441731  42.6652536  65.4201545   3.9872877  41.9159861  65.0220668
   2.6668241  42.6562672  65.0375277   0.5768935  46.6682583  62.4295475
   1.1020259  47.0069855  61.7044795   0.4891288  45.7329598  62.2458609
   3.0874595  44.1357774  67.8123993   3.9221487  44.5747578  67.9761553
   3.2233724  43.6596427  66.9932239   1.3155848  41.7909389  71.1072086
   1.2832168  40.8525389  71.2931770   1.9256472  41.8693425  70.3737911
   1.4650337  38.5820432  71.1530369   0.9489385  37.7978889  70.9660298
   2.3490285  38.2539149  71.3176888   7.1332398  42.8525395  70.2478123
   7.8635786  42.5910684  70.8085826   6.5239343  42.1154117  70.2880191
   5.2147695  40.9933258  70.8452574   4.4880859  40.8589223  70.2369065
   4.7994982  41.3010087  71.6509292   2.8325490  37.2145110  68.1986005
   3.4269981  36.9740846  67.4879314   2.9052074  36.4952241  68.8259542
   5.1396563  40.5211311  66.9729427   4.5796121  40.5904500  67.7460989
   4.5340066  40.3452296  66.2528923   6.7252581  57.1967825  69.6659382
   7.3630991  57.0774572  68.9622722   6.6073424  58.1448669  69.7247334
   4.9728662  62.6701697  60.9032263   4.3216642  63.2555778  60.5166277
   5.7673025  63.2007892  60.9627300   1.2350567  55.9183500  58.9337847
   1.4876087  55.3965022  58.1721310   0.2975126  55.7549646  59.0364531
   6.2793850  54.9219279  66.7412590   7.0656939  54.5038702  66.3903007
   6.5432554  55.8265371  66.9094239   6.4503927  60.3592129  61.4401247
   5.8149760  60.4326756  62.1522152   6.1201333  60.9485728  60.7620326
  11.6802277  54.8594512  67.6445569  12.4127449  54.2893729  67.8783398
  10.9241632  54.4716112  68.0852074   0.9546856  57.8211606  61.1362222
   0.8383114  57.1456510  61.8043306   1.0649115  57.3343980  60.3194375
   3.2978396  57.2821753  64.8408911   2.9336604  56.7552374  65.5521833
   4.1545512  56.8920223  64.6675397   9.2027697  48.5716086  72.1040177
   8.8711022  49.4411497  71.8801392   8.6073310  48.2552370  72.7834208
   2.9383883  52.3111653  59.8370260   3.1058286  53.1791890  60.2040731
   2.7481053  52.4738935  58.9131549   9.0956360  53.2911172  69.1833527
   8.1873238  53.2226581  68.8892288   9.0443956  53.7683117  70.0115353
   2.9173104  54.7669311  60.8216927   2.7972730  55.2126361  61.6602407
   2.2225693  55.1154628  60.2630465  10.9618007  51.4927611  70.9611401
  10.3192387  51.7860144  70.3151196  10.4572935  51.3780531  71.7664598
   8.6158170  55.2390784  61.6497261   9.5276027  55.4718171  61.4744958
   8.1067818  55.8227828  61.0872339   7.2227753  60.2216602  69.0410842
   6.5936615  60.3862316  68.3386910   6.8353415  60.6358212  69.8121806
  11.1016985  61.1571040  66.3955206  10.4168023  61.5369942  65.8452239
  11.1860834  61.7666367  67.1287154   5.9594145  51.4148820  69.8987122
   5.0978624  51.7130073  70.1903859   5.9856580  51.6319219  68.9668154
   2.7755715  59.9591010  66.3060927   3.2394060  60.2378713  65.5165550
   2.5112513  59.0574455  66.1234018   1.7124601  56.0814163  63.1150492
   2.4148644  56.5335206  63.5824419   1.3805229  55.4397982  63.7430386
  17.5619737  58.0241703  67.5157878  16.8083446  57.4549101  67.3601883
  17.6967279  57.9904368  68.4628513   2.9518365  62.8955105  63.1912598
   2.8164040  63.7406641  63.6197445   3.4928178  63.0974383  62.4278531
   6.3010829  46.4185667  71.7211491   5.9575098  47.3087309  71.6450602
   6.6689792  46.2287325  70.8581076   6.2661112  56.4094278  60.2283926
   5.7507735  57.1798883  60.4672314   5.9938420  55.7359415  60.8516988
   3.8508223  51.2543979  65.2869165   2.9949819  50.8650830  65.1074803
   4.2635174  51.3335940  64.4268950   5.3807369  48.7890322  69.6860724
   4.8772165  48.7520458  68.8728530   5.6737976  49.6983065  69.7457381
   1.6250255  48.8729052  68.6926906   2.4903252  48.6771861  68.3332796
   1.6927764  48.6439404  69.6196263  11.2395386  59.1626633  62.1637100
  10.4624829  58.8237793  61.7192262  11.9186867  59.1679256  61.4892065
   6.0547415  54.2821370  62.0543707   5.7497550  54.5967520  62.9053851
   7.0077857  54.3602790  62.0971040   4.4993847  60.4411594  63.7036661
   3.9715208  59.7064353  63.3909899   3.9981349  61.2186270  63.4576630
   9.4786693  58.6360614  68.8203708   8.8210367  59.3259876  68.9083836
  10.2827092  59.0257046  69.1637694   8.2892151  56.9904987  66.8707649
   8.8024033  57.6234979  67.3729359   8.9393375  56.3906182  66.5051009
   1.5335242  47.9772509  64.7918342   0.8799654  47.6621526  64.1674957
   1.4915716  47.3548249  65.5178165   2.6446447  58.2591804  56.7071634
   1.7373509  58.0281058  56.9062783   3.1417479  57.4629423  56.8945616
   5.5514526  66.9689311  59.6268321   4.8776224  67.2721008  60.2353278
   5.9380348  67.7718392  59.2773778   4.7672982  54.4654443  69.1165990
   3.8495544  54.6869390  68.9587678   5.1833126  54.5400753  68.2577697
   5.5508030  55.8645858  64.2468670   6.2979849  56.3767255  63.9375792
   5.8199620  55.5429911  65.1073064   3.8234680  58.3604399  61.2295624
   2.9145900  58.0763432  61.3268094   3.8529764  58.7803477  60.3698931
   9.0553948  61.9710988  64.9986792   8.6016275  61.1301898  65.0551983
   8.4247914  62.6072387  65.3361572   7.9986867  52.9002974  66.2287459
   7.2609624  52.3880361  66.5597702   8.2513641  52.4603356  65.4170736
   7.4986887  63.8087485  65.9336610   7.7909861  64.3692542  65.2148976
   8.0085507  64.1016046  66.6889769   8.0998495  45.6779226  66.8229229
   8.4057371  44.8176590  66.5355144   8.8251099  46.2696847  66.6228223
   2.3719574  55.9733020  67.3305420   2.4268184  55.0206856  67.2547896
   1.5610776  56.1292459  67.8146718   3.5210768  59.9013143  58.5683703
   3.0830198  59.1849002  58.1089340   4.2621209  60.1289257  58.0068794
  11.6383883  58.1770340  64.6260022  11.5001781  58.3671936  63.6981211
  11.2820102  58.9389722  65.0828073  11.6653262  60.2446867  69.6371293
  12.0989769  60.1522156  70.4854347  12.3784843  60.2204367  68.9991309
  12.5268812  60.2870567  72.1704179  12.7204702  61.1916378  72.4163453
  12.4269430  59.8277986  73.0042764   3.7505741  67.1368984  61.8415400
   3.9257497  66.6657027  62.6561022   3.0638529  67.7634750  62.0696660
   7.6421996  58.7597524  58.1615761   7.0251166  58.0344352  58.0648813
   7.1738484  59.5206885  57.8182835   5.9281118  51.1403868  67.1733791
   6.4249817  50.3873831  66.8534861   5.1568099  51.1768185  66.6077000
  13.7810875  56.8444234  68.8152082  13.7700751  57.7268949  68.4446015
  12.9128255  56.4915785  68.6206619   7.0110898  59.8975556  64.7472214
   6.0767177  60.0177018  64.5776919   7.1887567  58.9948022  64.4832224
   2.5116086  53.2821251  66.9005475   2.1413874  52.7292292  67.5886381
   3.0075179  52.6779385  66.3480475  10.3983450  55.7392875  65.2822248
  10.8643902  56.5720866  65.2082551  10.8490950  55.2737856  65.9867507
   8.4659681  62.0836696  62.2808400   8.7419525  61.9693291  63.1902274
   7.5964180  61.6854181  62.2420573   8.3700113  48.1073462  69.3213150
   7.4563192  48.3377689  69.4895357   8.7993214  48.1911906  70.1727182
   8.1406571  56.2963354  71.8213044   7.4878021  56.5439261  71.1665496
   8.5186951  55.4827492  71.4875521   5.4355910  65.2591232  63.1856262
   5.9643677  64.7483687  62.5726425   5.6984130  64.9433762  64.0501796
   8.7400778  64.7122363  68.4449154   9.6647325  64.5065224  68.3073605
   8.5716081  64.4638764  69.3538495   2.3488813  48.0098234  71.1195164
   3.1714882  47.5358713  70.9974055   2.5926876  48.7888718  71.6193851
   0.9897047  51.0386493  61.4158066   1.7105410  51.4167746  60.9121783
   0.3662351  51.7575370  61.5193044   5.1328170  51.7431642  62.3516398
   5.3491785  52.6256280  62.0505227   4.6522237  51.3517855  61.6222040
   1.7323774  51.6919903  68.9768033   1.7185343  50.7960996  68.6400331
   2.4496203  51.6990567  69.6106319   3.5849905  52.1257243  71.0221160
   3.3267683  53.0474314  71.0205491   3.0534946  51.7287678  71.7121624
   8.5296094  65.2308030  63.8011245   8.7032971  64.6654453  63.0485098
   9.0224985  66.0308925  63.6190735   1.1360670  50.5734283  64.2455603
   1.2576582  49.6450929  64.4446490   0.8462713  50.5872969  63.3333918
   4.0051861  48.2589194  67.3822323   4.0273558  48.3228527  66.4274302
   4.4219920  47.4193702  67.5762829  14.3835485  57.9944453  65.4201545
  14.8266631  57.2451778  65.0220668  13.5061995  57.9854590  65.0375277
   9.5171266  64.5474795  60.9008144  10.2122171  65.1681487  61.1195458
   9.8594417  63.6970146  61.1760522  11.4162690  61.9974500  62.4295475
  11.9414014  62.3361773  61.7044795  11.3285042  61.0621516  62.2458609
  13.9268350  59.4649692  67.8123993  14.7615241  59.9039496  67.9761553
  14.0627479  58.9888345  66.9932239  10.9759856  57.0229426  73.7601481
  11.4513977  57.2157073  72.9520332  10.0525421  57.0788612  73.5144864
   5.5540072  49.0577270  72.7257314   6.0722016  49.7938297  72.4003803
   5.1995205  49.3641263  73.5604074   5.8052666  45.4777553  68.2458211
   6.0854420  44.8100742  68.8718638   6.5903273  45.6706648  67.7332875
   3.6086135  64.6536546  59.8083237   3.0360102  65.2726734  59.3553709
   4.1818929  65.2035908  60.3423159   9.6761525  53.8995187  71.9929786
  10.6278948  53.9993284  72.0142010   9.5064975  53.1073455  72.5027871
   7.6975904  50.9850770  72.1789187   7.1025836  51.2655782  71.4835676
   7.4125601  51.4744671  72.9505928   6.8283395  64.9373697  60.9391820
   7.7614068  64.8719258  61.1424695   6.7406608  65.7729963  60.4806352
   9.4571411  64.2539567  57.8995767   9.3785043  63.9199431  58.7931525
  10.2781078  64.7461335  57.8987240  12.1549603  57.1201306  71.1072086
  12.1225923  56.1817307  71.2931770  12.7650226  57.1985343  70.3737911
   3.9932933  55.9897359  57.1499290   4.9392038  55.8603567  57.2187708
   3.6147178  55.2512021  57.6268718  12.3044091  53.9112350  71.1530369
  11.7883140  53.1270806  70.9660298  13.1884040  53.5831066  71.3176888
   9.9654818  47.6553365  67.1126182   9.7679639  47.3468453  67.9969514
  10.5754524  48.3815004  67.2424112  17.9726152  58.1817313  70.2478123
  18.7029541  57.9202601  70.8085826  17.3633098  57.4446035  70.2880191
  16.0541450  56.3225176  70.8452574  15.3274613  56.1881141  70.2369065
  15.6388736  56.6302004  71.6509292   2.1775851  53.9147336  57.0854175
   1.2707306  53.6180448  57.1616889   2.4551832  53.6177154  56.2188461
   3.7937916  48.4584225  63.2398416   2.9838645  48.1131310  63.6153662
   4.4822333  48.1491769  63.8286028   5.7228465  47.5362272  64.8622713
   6.2759503  47.9557726  65.5212736   5.9598551  46.6098020  64.9045669
   0.9474635  50.7734271  57.2266154   1.8093799  51.0989169  57.4861972
   1.1324979  49.9865767  56.7139220   9.1007272  49.6462797  64.3701377
   8.5205941  50.3047601  63.9879430   8.8343204  48.8240142  63.9588795
   7.5510838  49.0467855  66.5722698   8.0510616  49.1584389  65.7637016
   8.1946446  48.7428908  67.2123506   7.8832150  51.8062888  63.4257726
   6.9958005  52.0912538  63.2077920   8.2986139  51.6456651  62.5785002
  11.2346686  51.8309409  67.1412065  12.0107076  52.3205861  67.4136682
  10.5094820  52.2567463  67.5983934  13.6719244  52.5437028  68.1986005
  14.2663735  52.3032764  67.4879314  13.7445828  51.8244158  68.8259542
   7.0275363  61.5707562  57.5205745   7.7311213  61.7757565  58.1363401
   6.3038012  62.1384324  57.7854829   7.8573173  57.3217424  63.6408016
   7.8008375  57.7785975  62.8015648   8.4101516  56.5608108  63.4630858
  11.6677979  53.1107155  64.4658135  11.4114914  52.7103791  65.2966343
  11.0430847  53.8250949  64.3408274  15.9790317  55.8503229  66.9729427
  15.4189875  55.9196418  67.7460989  15.3733821  55.6744213  66.2528923
   8.9362061  62.0090092  59.5704206   9.7707664  61.5771290  59.3881680
   8.7746403  61.8372105  60.4981100   8.5907953  58.5122205  60.9360545
   8.5356757  58.3466476  59.9948989   7.9654008  59.2198238  61.0922735
   1.9004078  48.0130314  60.5145863   1.8882748  48.9572154  60.6714134
   2.7927500  47.8300459  60.2205324   5.7156198  44.6073090  64.7691800
   4.9488593  44.0531577  64.9148482   6.1266903  44.6794959  65.6305952
  17.5646336  72.5259743  69.6659382  18.2024746  72.4066490  68.9622722
  17.4467179  73.4740587  69.7247334  12.0744321  71.2475418  58.9337847
  12.3269842  70.7256939  58.1721310  11.1368880  71.0841564  59.0364531
  17.1187604  70.2511196  66.7412590  17.9050693  69.8330620  66.3903007
  17.3826308  71.1557289  66.9094239  17.2897681  75.6884047  61.4401247
  16.6543514  75.7618673  62.1522152  16.9595088  76.2777646  60.7620326
  22.5196031  70.1886430  67.6445569  23.2521203  69.6185646  67.8783398
  21.7635387  69.8008030  68.0852074  11.7940610  73.1503524  61.1362222
  11.6776868  72.4748427  61.8043306  11.9042870  72.6635898  60.3194375
  14.1372151  72.6113671  64.8408911  13.7730358  72.0844292  65.5521833
  14.9939267  72.2212140  64.6675397  20.0421452  63.9008004  72.1040177
  19.7104776  64.7703415  71.8801392  19.4467065  63.5844288  72.7834208
  13.7777638  67.6403571  59.8370260  13.9452040  68.5083807  60.2040731
  13.5874807  67.8030853  58.9131549  19.9350115  68.6203090  69.1833527
  19.0266992  68.5518498  68.8892288  19.8837711  69.0975035  70.0115353
  13.7566859  70.0961228  60.8216927  13.6366484  70.5418279  61.6602407
  13.0619447  70.4446546  60.2630465  21.8011761  66.8219528  70.9611401
  21.1586142  67.1152062  70.3151196  21.2966690  66.7072449  71.7664598
  19.4551925  70.5682702  61.6497261  20.3669781  70.8010088  61.4744958
  18.9461572  71.1519746  61.0872339  18.0621507  75.5508520  69.0410842
  17.4330370  75.7154234  68.3386910  17.6747169  75.9650130  69.8121806
  21.9410739  76.4862958  66.3955206  21.2561777  76.8661859  65.8452239
  22.0254588  77.0958284  67.1287154  16.7987900  66.7440738  69.8987122
  15.9372379  67.0421991  70.1903859  16.8250334  66.9611136  68.9668154
  13.6149469  75.2882928  66.3060927  14.0787815  75.5670631  65.5165550
  13.3506267  74.3866373  66.1234018  12.5518355  71.4106080  63.1150492
  13.2542399  71.8627124  63.5824419  12.2198984  70.7689899  63.7430386
  28.4013492  73.3533621  67.5157878  27.6477200  72.7841019  67.3601883
  28.5361033  73.3196285  68.4628513  17.1404583  61.7477585  71.7211491
  16.7968853  62.6379227  71.6450602  17.5083546  61.5579243  70.8581076
  17.1054866  71.7386196  60.2283926  16.5901490  72.5090801  60.4672314
  16.8332175  71.0651332  60.8516988  14.6901977  66.5835897  65.2869165
  13.8343573  66.1942747  65.1074803  15.1028929  66.6627858  64.4268950
  16.2201124  64.1182240  69.6860724  15.7165919  64.0812375  68.8728530
  16.5131731  65.0274983  69.7457381  12.4644010  64.2020970  68.6926906
  13.3297006  64.0063779  68.3332796  12.5321519  63.9731322  69.6196263
  22.0789140  74.4918551  62.1637100  21.3018583  74.1529710  61.7192262
  22.7580621  74.4971174  61.4892065  16.8941169  69.6113288  62.0543707
  16.5891305  69.9259437  62.9053851  17.8471611  69.6894708  62.0971040
  20.3180447  73.9652532  68.8203708  19.6604122  74.6551793  68.9083836
  21.1220846  74.3548964  69.1637694  10.0706329  66.4323178  66.0643273
  10.6450081  66.2098359  65.3316466  10.6577311  66.5011872  66.8171874
  19.1285906  72.3196905  66.8707649  19.6417788  72.9526896  67.3729359
  19.7787130  71.7198100  66.5051009  10.3975916  68.4627639  60.0839158
   9.5613228  68.8002325  60.4048433  10.2580686  68.3276619  59.1466295
  12.3728996  63.3064427  64.7918342  11.7193409  62.9913444  64.1674957
  12.3309471  62.6840167  65.5178165  13.4840201  73.5883722  56.7071634
  12.5767263  73.3572975  56.9062783  13.9811233  72.7921341  56.8945616
  15.6066737  69.7946360  69.1165990  14.6889298  70.0161307  68.9587678
  16.0226880  69.8692671  68.2577697  16.3901785  71.1937776  64.2468670
  17.1373604  71.7059173  63.9375792  16.6593374  70.8721829  65.1073064
  14.6628435  73.6896317  61.2295624  13.7539654  73.4055349  61.3268094
  14.6923519  74.1095395  60.3698931  19.8947702  77.3002906  64.9986792
  19.4410029  76.4593816  65.0551983  19.2641669  77.9364304  65.3361572
  18.8380622  68.2294892  66.2287459  18.1003379  67.7172278  66.5597702
  19.0907395  67.7895274  65.4170736  18.9392249  61.0071144  66.8229229
  19.2451126  60.1468508  66.5355144  19.6644854  61.5988764  66.6228223
  13.2113329  71.3024937  67.3305420  13.2661939  70.3498774  67.2547896
  12.4004531  71.4584376  67.8146718  14.3604523  75.2305060  58.5683703
  13.9223952  74.5140919  58.1089340  15.1014963  75.4581175  58.0068794
  11.1505689  69.9201997  65.0895799  10.3373554  70.2196168  65.4960991
  11.6464683  69.5257686  65.8070281  22.4777637  73.5062257  64.6260022
  22.3395536  73.6963853  63.6981211  22.1213856  74.2681640  65.0828073
  22.5047017  75.5738784  69.6371293  22.9383524  75.4814073  70.4854347
  23.2178598  75.5496285  68.9991309   7.7262831  70.9365865  62.8951779
   6.7960419  70.8750320  63.1121741   7.8220303  70.4141817  62.0988420
   7.6448380  67.4620677  65.4830020   7.9055197  68.3766011  65.3739181
   8.4665552  66.9945120  65.6326633  23.3662567  75.6162485  72.1704179
  23.5598457  76.5208295  72.4163453  23.2663185  75.1569904  73.0042764
  18.4815750  74.0889442  58.1615761  17.8644921  73.3636270  58.0648813
  18.0132239  74.8498802  57.8182835  10.2714296  68.3074866  57.2837065
   9.3943762  68.1863667  56.9199312  10.7472049  67.5160945  57.0315954
  16.7674872  66.4695786  67.1733791  17.2643572  65.7165748  66.8534861
  15.9961854  66.5060103  66.6077000  24.6204630  72.1736152  68.8152082
  24.6094506  73.0560867  68.4446015  23.7522009  71.8207702  68.6206619
  17.8504653  75.2267473  64.7472214  16.9160932  75.3468936  64.5776919
  18.0281321  74.3239940  64.4832224  13.3509841  68.6113169  66.9005475
  12.9807629  68.0584209  67.5886381  13.8468933  68.0071303  66.3480475
  21.2377204  71.0684793  65.2822248  21.7037656  71.9012784  65.2082551
  21.6884705  70.6029774  65.9867507  19.3053435  77.4128614  62.2808400
  19.5813279  77.2985208  63.1902274  18.4357934  77.0146099  62.2420573
  19.2093867  63.4365380  69.3213150  18.2956947  63.6669606  69.4895357
  19.6386968  63.5203824  70.1727182  18.9800326  71.6255272  71.8213044
  18.3271776  71.8731179  71.1665496  19.3580705  70.8119410  71.4875521
   4.9992990  69.9016721  62.7249971   5.2946431  68.9927400  62.6717024
   4.0981026  69.8804461  62.4030973   6.7280832  67.5830819  62.8489296
   6.3993538  66.7028198  62.6664402   7.0820202  67.5278488  63.7365685
   9.8422655  67.8703789  63.2164773  10.1818727  68.3989710  62.4943382
  10.2894775  68.2084195  63.9923340  13.1882567  63.3390152  71.1195164
  14.0108637  62.8650630  70.9974055  13.4320631  64.1180636  71.6193851
  11.8290802  66.3678411  61.4158066  12.5499164  66.7459663  60.9121783
  11.2056106  67.0867287  61.5193044  15.9721925  67.0723559  62.3516398
  16.1885539  67.9548197  62.0505227  15.4915992  66.6809773  61.6222040
  12.5717529  67.0211821  68.9768033  12.5579098  66.1252914  68.6400331
  13.2889957  67.0282484  69.6106319  14.4243660  67.4549161  71.0221160
  14.1661438  68.3766232  71.0205491  13.8928700  67.0579595  71.7121624
  11.9754425  65.9026201  64.2455603  12.0970336  64.9742847  64.4446490
  11.6856467  65.9164887  63.3333918  14.8445615  63.5881111  67.3822323
  14.8667312  63.6520445  66.4274302  15.2613674  62.7485620  67.5762829
  25.2229240  73.3236371  65.4201545  25.6660386  72.5743696  65.0220668
  24.3455750  73.3146507  65.0375277  22.2556444  77.3266418  62.4295475
  22.7807768  77.6653691  61.7044795  22.1678797  76.3913433  62.2458609
  24.7662104  74.7941609  67.8123993  25.6008996  75.2331413  67.9761553
  24.9021233  74.3180262  66.9932239  21.8153610  72.3521344  73.7601481
  22.2907732  72.5448990  72.9520332  20.8919176  72.4080530  73.5144864
   8.7037117  73.5145511  63.3432559   8.4583159  72.6107841  63.5412769
   8.8733031  73.5162662  62.4012037  16.3933827  64.3869188  72.7257314
  16.9115771  65.1230215  72.4003803  16.0388959  64.6933181  73.5604074
   7.9732764  69.2473869  60.8418720   7.2802009  69.3218224  60.1858756
   7.7284516  68.4834213  61.3640237  16.6446421  60.8069470  68.2458211
  16.9248175  60.1392659  68.8718638  17.4297028  60.9998566  67.7332875
  20.5155279  69.2287104  71.9929786  21.4672702  69.3285202  72.0142010
  20.3458730  68.4365373  72.5027871  18.5369659  66.3142687  72.1789187
  17.9419591  66.5947700  71.4835676  18.2519355  66.8036588  72.9505928
  22.9943357  72.4493224  71.1072086  22.9619677  71.5109225  71.2931770
  23.6043981  72.5277261  70.3737911  14.8326688  71.3189277  57.1499290
  15.7785793  71.1895485  57.2187708  14.4540933  70.5803939  57.6268718
  23.1437846  69.2404267  71.1530369  22.6276894  68.4562724  70.9660298
  24.0277794  68.9122984  71.3176888  20.8048572  62.9845283  67.1126182
  20.6073394  62.6760371  67.9969514  21.4148278  63.7106922  67.2424112
  28.8119907  73.5109231  70.2478123  29.5423295  73.2494519  70.8085826
  28.2026852  72.7737953  70.2880191  26.8935204  71.6517093  70.8452574
  26.1668368  71.5173058  70.2369065  26.4782491  71.9593922  71.6509292
  13.0169605  69.2439253  57.0854175  12.1101060  68.9472366  57.1616889
  13.2945586  68.9469071  56.2188461  14.6331671  63.7876143  63.2398416
  13.8232399  63.4423228  63.6153662  15.3216088  63.4783687  63.8286028
  16.5622219  62.8654190  64.8622713  17.1153258  63.2849643  65.5212736
  16.7992305  61.9389938  64.9045669  11.7868390  66.1026188  57.2266154
  12.6487554  66.4281087  57.4861972  11.9718734  65.3157684  56.7139220
  19.9401026  64.9754715  64.3701377  19.3599695  65.6339519  63.9879430
  19.6736959  64.1532060  63.9588795  18.3904593  64.3759773  66.5722698
  18.8904371  64.4876307  65.7637016  19.0340200  64.0720825  67.2123506
  18.7225904  67.1354805  63.4257726  17.8351759  67.4204456  63.2077920
  19.1379893  66.9748569  62.5785002  22.0740440  67.1601326  67.1412065
  22.8500830  67.6497779  67.4136682  21.3488574  67.5859380  67.5983934
  24.5112999  67.8728946  68.1986005  25.1057490  67.6324681  67.4879314
  24.5839583  67.1536076  68.8259542  18.6966928  72.6509341  63.6408016
  18.6402129  73.1077893  62.8015648  19.2495270  71.8900026  63.4630858
  22.5071734  68.4399073  64.4658135  22.2508668  68.0395709  65.2966343
  21.8824602  69.1542867  64.3408274  26.8184072  71.1795146  66.9729427
  26.2583630  71.2488336  67.7460989  26.2127575  71.0036131  66.2528923
  19.7755815  77.3382009  59.5704206  20.6101419  76.9063208  59.3881680
  19.6140158  77.1664023  60.4981100  19.4301707  73.8414122  60.9360545
  19.3750511  73.6758394  59.9948989  18.8047762  74.5490155  61.0922735
  12.7397833  63.3422231  60.5145863  12.7276502  64.2864071  60.6714134
  13.6321255  63.1592377  60.2205324  16.5549952  59.9365008  64.7691800
  15.7882348  59.3823495  64.9148482  16.9660657  60.0086877  65.6305952
  30.8815206  79.2299921  72.1040177  30.5498531  80.0995332  71.8801392
  30.2860819  78.9136205  72.7834208  32.6405516  82.1511446  70.9611401
  31.9979896  82.4443979  70.3151196  32.1360444  82.0364366  71.7664598
  27.9798338  77.0769503  71.7211491  27.6362607  77.9671144  71.6450602
  28.3477300  76.8871160  70.8581076  27.0594878  79.4474158  69.6860724
  26.5559674  79.4104293  68.8728530  27.3525485  80.3566901  69.7457381
  23.2122751  78.6356344  64.7918342  22.5587163  78.3205362  64.1674957
  23.1703225  78.0132085  65.5178165  29.7786004  76.3363062  66.8229229
  30.0844880  75.4760425  66.5355144  30.5038608  76.9280682  66.6228223
  30.0487622  78.7657297  69.3213150  29.1350701  78.9961524  69.4895357
  30.4780723  78.8495741  70.1727182  24.0276322  78.6682070  71.1195164
  24.8502391  78.1942548  70.9974055  24.2714385  79.4472554  71.6193851
  25.6839370  78.9173029  67.3822323  25.7061067  78.9812362  66.4274302
  26.1007429  78.0777538  67.5762829  27.2327581  79.7161105  72.7257314
  27.7509525  80.4522132  72.4003803  26.8782714  80.0225099  73.5604074
  27.4840175  76.1361388  68.2458211  27.7641929  75.4684577  68.8718638
  28.2690782  76.3290483  67.7332875  31.6442327  78.3137201  67.1126182
  31.4467148  78.0052289  67.9969514  32.2542032  79.0398839  67.2424112
  25.4725425  79.1168061  63.2398416  24.6626154  78.7715146  63.6153662
  26.1609842  78.8075604  63.8286028  27.4015974  78.1946107  64.8622713
  27.9547012  78.6141561  65.5212736  27.6386060  77.2681856  64.9045669
  30.7794781  80.3046633  64.3701377  30.1993450  80.9631437  63.9879430
  30.5130713  79.4823977  63.9588795  29.2298347  79.7051690  66.5722698
  29.7298125  79.8168225  65.7637016  29.8733955  79.4012743  67.2123506
  35.3506753  83.2020863  68.1986005  35.9451244  82.9616599  67.4879314
  35.4233337  82.4827994  68.8259542  27.3943707  75.2656926  64.7691800
  26.6276102  74.7115413  64.9148482  27.8054412  75.3378795  65.6305952
   6.7225984  19.7011908  54.2403185   5.9689692  19.1319306  54.0847189
   6.8573525  19.6674573  55.1873820   0.7990130  19.8540545  51.3505328
   0.6608028  20.0442141  50.4226517   0.4426348  20.6159927  51.8073379
   0.8259509  21.9217072  56.3616600   1.2596016  21.8292361  57.2099654
   1.5391090  21.8974572  55.7236616   1.6875059  21.9640772  58.8949485
   1.8810949  22.8686583  59.1408760   1.5875677  21.5048191  59.7288070
   2.9417122  18.5214439  55.5397389   2.9306998  19.4039154  55.1691322
   2.0734501  18.1685990  55.3451926   3.5441732  19.6714658  52.1446852
   3.9872878  18.9221983  51.7465975   2.6668242  19.6624795  51.7620584
   0.5768936  23.6744705  49.1540781   1.1020260  24.0131978  48.4290101
   0.4891289  22.7391721  48.9703916   0.3860717  21.1570075  61.7724708
   0.4358722  20.9920083  62.7140230   0.2774641  20.2897334  61.3822588
   1.8878914  23.5767017  62.0166729   1.5963723  23.9396997  62.8530190
   1.2751046  22.8634025  61.8380061   3.0874597  21.1419897  54.5369299
   3.9221488  21.5809701  54.7006860   3.2233725  20.6658550  53.7177545
   1.3155849  18.7971511  57.8317392   1.2832169  17.8587512  58.0177076
   1.9256473  18.8755548  57.0983217   1.4650338  15.5882555  57.8775676
   0.9489386  14.8041011  57.6905604   2.3490286  15.2601271  58.0422195
   7.1332399  19.8587518  56.9723429   7.8635788  19.5972806  57.5331133
   6.5239345  19.1216240  57.0125497   5.2147696  17.9995381  57.5697880
   4.4880860  17.8651345  56.9614372   4.7994983  18.3072209  58.3754598
   2.8325491  14.2207233  54.9231312   3.4269982  13.9802969  54.2124620
   2.9052075  13.5014363  55.5504848   5.1396564  17.5273434  53.6974733
   4.5796122  17.5966623  54.4706295   4.5340067  17.3514418  52.9774229
   6.7252582  34.2029948  56.3904689   7.3630992  34.0836695  55.6868029
   6.6073425  35.1510791  56.4492641   3.5342289  34.1557376  56.3266214
   3.1960800  34.0398440  55.4386748   4.4032057  33.7548541  56.3067220
   4.0162072  35.3092227  62.2852419   4.0050712  34.9145026  61.4132923
   4.1782711  34.5758300  62.8786191   4.9728663  39.6763820  47.6277569
   4.3216643  40.2617900  47.2411583   5.7673026  40.2070015  47.6872607
   0.7369333  38.0929339  61.2331603   0.4459199  38.9974970  61.1178269
   1.3726317  38.1345867  61.9475673   1.6625540  35.4706188  57.8232963
   2.2589112  35.2462210  57.1089926   1.7200511  34.7290933  58.4258411
   1.2350568  32.9245623  45.6583154   1.4876089  32.4027144  44.8966617
   0.2975127  32.7611768  45.7609837   6.2793851  31.9281401  53.4657897
   7.0656940  31.5100825  53.1148314   6.5432555  32.8327494  53.6339545
   6.4503928  37.3654252  48.1646554   5.8149761  37.4388878  48.8767458
   6.1201335  37.9547851  47.4865633  11.6802278  31.8656635  54.3690875
  12.4127450  31.2955851  54.6028705  10.9241634  31.4778235  54.8097381
   0.9546857  34.8273729  47.8607529   0.8383115  34.1518632  48.5288613
   1.0649117  34.3406103  47.0439682   3.2978398  34.2883876  51.5654218
   2.9336605  33.7614497  52.2767139   4.1545514  33.8982345  51.3920703
   9.2027698  25.5778209  58.8285484   8.8711023  26.4473620  58.6046699
   8.6073312  25.2614493  59.5079514   2.9383885  29.3173776  46.5615566
   3.1058287  30.1854012  46.9286038   2.7481054  29.4801057  45.6376856
   5.6959218  37.7790755  58.2281397   5.3959941  38.6815793  58.1197204
   5.3510277  37.5122938  59.0802550   9.0956362  30.2973295  55.9078834
   8.1873239  30.2288703  55.6137595   9.0443957  30.7745240  56.7360660
   2.9173106  31.7731433  47.5462233   2.7972731  32.2188484  48.3847714
   2.2225694  32.1216751  46.9875771   3.1697227  31.7162940  63.8513731
   2.3930562  32.2756861  63.8416596   3.8087791  32.2019723  64.3728602
  10.9618008  28.4989733  57.6856708  10.3192388  28.7922266  57.0396503
  10.4572937  28.3842654  58.4909905   8.6158172  32.2452906  48.3742567
   9.5276028  32.4780293  48.1990265   8.1067819  32.8289951  47.8117646
   1.4243600  34.5248394  63.4131698   2.1658284  35.0633438  63.1366522
   0.7180585  35.1514683  63.5703250   6.8998939  36.6677534  62.0103860
   7.3082295  36.2259945  61.2658492   6.1776201  36.0930162  62.2638053
   3.2530009  31.6050141  59.3837417   4.0991205  32.0289555  59.5272066
   3.1928647  30.9483765  60.0775980   7.2227754  37.2278725  55.7656149
   6.5936616  37.3924439  55.0632217   6.8353416  37.6420334  56.5367113
  11.1016986  38.1633163  53.1200513  10.4168024  38.5432064  52.5697546
  11.1860835  38.7728489  53.8532460   6.4029455  29.2654509  61.0418590
   6.1590387  30.0196570  60.5052866   6.6789385  29.6439857  61.8765838
   8.3567918  35.8093122  59.7195856   8.5684813  36.4524882  59.0430237
   8.3097666  34.9755438  59.2517786   5.9594147  28.4210942  56.6232428
   5.0978626  28.7192196  56.9149166   5.9856581  28.6381341  55.6913461
   2.7755716  36.9653133  53.0306234   3.2394061  37.2440836  52.2410856
   2.5112514  36.0636578  52.8479325   1.7124602  33.0876285  49.8395799
   2.4148645  33.5397329  50.3069725   1.3805230  32.4460104  50.4675692
   9.4713746  38.6865077  57.8918213  10.2931189  38.2845264  57.6100895
   9.4676148  38.5833311  58.8434329   3.2370349  38.2349121  60.0478924
   3.3014781  38.6969528  60.8837096   2.5281273  37.6046485  60.1761234
   2.9518367  39.9017228  49.9157904   2.8164041  40.7468764  50.3442752
   3.4928179  40.1036506  49.1523838   2.3553667  27.3966687  64.1692516
   3.0963381  27.9973840  64.0896979   2.5871590  26.6544325  63.6110559
   4.5786843  40.5240795  64.0458246   4.1350697  39.7377173  63.7279151
   5.2404057  40.7119945  63.3802137   6.6768081  40.8043594  62.0739648
   6.6586556  41.6252475  61.5819917   7.5988001  40.6797670  62.2989789
   3.1341135  38.3187724  62.9163156   3.6669472  37.5576012  62.6862464
   2.6055216  38.0261376  63.6587310   6.3010830  23.4247790  58.4456798
   5.9575100  24.3149432  58.3695908   6.6689793  23.2349448  57.5826383
   6.2661113  33.4156401  46.9529233   5.7507736  34.1861006  47.1917620
   5.9938421  32.7421537  47.5762294   3.8508224  28.2606102  52.0114471
   2.9949820  27.8712952  51.8320110   4.2635176  28.3398063  51.1514257
   5.3807371  25.7952445  56.4106031   4.8772166  25.7582580  55.5973836
   5.6737977  26.7045188  56.4702688   1.6250256  25.8791175  55.4172213
   2.4903253  25.6833983  55.0578102   1.6927765  25.6501527  56.3441569
  11.2395387  36.1688756  48.8882406  10.4624830  35.8299915  48.4437568
  11.9186868  36.1741379  48.2137371   6.0547416  31.2883493  48.7789014
   5.7497552  31.6029642  49.6299157   7.0077858  31.3664913  48.8216347
   4.4993848  37.4473716  50.4281968   3.9715209  36.7126476  50.1155205
   3.9981351  38.2248393  50.1821936   9.4786694  35.6422737  55.5449014
   8.8210368  36.3321998  55.6329143  10.2827093  36.0319169  55.8883001
   8.2892153  33.9967110  53.5952956   8.8024034  34.6297101  54.0974666
   8.9393377  33.3968305  53.2296316   1.5335243  24.9834632  51.5163649
   0.8799656  24.6683649  50.8920264   1.4915717  24.3610372  52.2423472
   2.6446448  35.2653927  43.4316941   1.7373510  35.0343180  43.6308090
   3.1417480  34.4691546  43.6190923   5.5514527  43.9751434  46.3513627
   4.8776226  44.2783131  46.9598585   5.9380349  44.7780514  46.0019084
   4.7672984  31.4716565  55.8411297   3.8495545  31.6931512  55.6832985
   5.1833127  31.5462876  54.9823004   5.5508031  32.8707981  50.9713977
   6.2979850  33.3829378  50.6621099   5.8199621  32.5492034  51.8318370
   3.8234682  35.3666522  47.9540931   2.9145901  35.0825554  48.0513401
   3.8529765  35.7865600  47.0944238   9.0553949  38.9773111  51.7232099
   8.6016276  38.1364021  51.7797289   8.4247916  39.6134509  52.0606879
   7.9986869  29.9065097  52.9532766   7.2609625  29.3942483  53.2843009
   8.2513642  29.4665479  52.1416043   7.4986888  40.8149608  52.6581917
   7.7909863  41.3754665  51.9394282   8.0085509  41.1078169  53.4135076
   8.0998496  22.6841349  53.5474535   8.4057373  21.8238712  53.2600450
   8.8251101  23.2758969  53.3473529   2.3719576  32.9795142  54.0550726
   2.4268185  32.0268979  53.9793203   1.5610778  33.1354581  54.5392025
   3.5210769  36.9075265  45.2929010   3.0830199  36.1911124  44.8334647
   4.2621210  37.1351380  44.7314101   2.4620513  41.5929959  53.7475370
   2.4196692  41.8190805  52.8183902   3.3783212  41.3593333  53.8961171
   5.9086147  32.0614026  60.6455999   6.2635535  32.2885499  61.5050465
   6.5558278  32.3932403  60.0233255  11.6383884  35.1832462  51.3505328
  11.5001783  35.3734058  50.4226517  11.2820103  35.9451845  51.8073379
  11.6653264  37.2508989  56.3616600  12.0989770  37.1584278  57.2099654
  12.3784844  37.2266490  55.7236616   5.3981159  40.8511083  57.8949700
   5.4518181  41.4202020  58.6627416   4.5295940  41.0212968  57.5303737
  12.5268813  37.2932690  58.8949485  12.7204703  38.1978500  59.1408760
  12.4269431  36.8340109  59.7288070   4.1805124  27.1790580  61.3939812
   3.5333039  27.8780530  61.3004289   4.9506139  27.6126724  61.7616061
   7.5883922  37.4439433  64.4690366   7.4369428  37.2149984  63.5520449
   7.5788601  38.4010034  64.4821711   4.3569258  35.0171345  59.4536632
   5.2861318  35.1682505  59.2805600   3.9360288  35.1055366  58.5985279
   3.1557590  39.0422010  57.2235170   3.0168676  38.6740794  58.0961108
   2.3672186  39.5569649  57.0519128   3.7505742  44.1431106  48.5660706
   3.9257498  43.6719149  49.3806329   3.0638530  44.7696872  48.7941967
   4.7062805  38.4203612  54.6124008   4.3712638  38.3804382  55.5081658
   4.2066751  37.7548328  54.1394418   7.6421997  35.7659647  44.8861067
   7.0251168  35.0406475  44.7894120   7.1738485  36.5269007  44.5428142
   1.3089350  33.5391202  59.6260268   2.0188968  32.8984394  59.5846887
   1.2658658  33.7904097  60.5486449   9.2976129  40.4758555  62.5466848
   9.2388675  39.7917775  61.8797431   9.6995647  41.2177545  62.0947474
   9.2993536  38.4398139  60.7780827   8.4120315  38.1024061  60.9007226
   9.8692087  37.7081170  61.0149593   2.8294689  43.0999591  57.7442071
   2.7564861  43.9054563  58.2561375   2.3872082  43.2991557  56.9190092
   2.6184469  42.3371362  51.2544892   1.8351991  42.8793042  51.3483117
   3.3177214  42.8545341  51.6539133   5.9281119  28.1465991  53.8979097
   6.4249819  27.3935953  53.5780168   5.1568101  28.1830308  53.3322307
  13.7810876  33.8506356  55.5397389  13.7700753  34.7331072  55.1691322
  12.9128256  33.4977907  55.3451926   5.2893373  42.9986426  59.9000229
   6.0021345  43.6333890  59.8276131   4.7983401  43.0950291  59.0840231
   7.0110900  36.9037678  51.4717521   6.0767178  37.0239141  51.3022225
   7.1887568  36.0010145  51.2077531   2.5116088  30.2883374  53.6250782
   2.1413875  29.7354414  54.3131688   3.0075180  29.6841507  53.0725782
  10.3983451  32.7454997  52.0067555  10.8643903  33.5782989  51.9327858
  10.8490952  32.2799979  52.7112813   8.4659682  39.0898819  49.0053707
   8.7419526  38.9755413  49.9147581   7.5964181  38.6916304  48.9665880
   8.3700114  25.1135584  56.0458456   7.4563194  25.3439811  56.2140663
   8.7993215  25.1974029  56.8972489   8.1406572  33.3025476  58.5458350
   7.4878023  33.5501384  57.8910803   8.5186952  32.4889615  58.2120828
   5.1013746  43.3385170  52.6486521   5.2836141  42.5206826  53.1114273
   5.9246732  43.5552862  52.2111411   5.4355912  42.2653355  49.9101569
   5.9643678  41.7545809  49.2971731   5.6984131  41.9495885  50.7747102
   4.1894145  34.0445287  65.0324387   3.5134782  33.9439417  65.7026763
   5.0121779  33.8884501  65.4960385   2.9316928  45.3512215  59.2682003
   3.4835236  45.5143836  60.0331089   3.2723122  45.9416653  58.5962028
   7.7827803  40.1773472  65.1230658   8.3267706  40.7903431  64.6285613
   7.2014647  40.7353051  65.6397671   6.0685315  43.2994190  56.2545686
   5.9436455  42.4983930  55.7456631   6.7264407  43.7940384  55.7659656
   8.1320224  41.1003211  57.8825236   7.1850559  40.9808562  57.8103562
   8.4802997  40.2125709  57.9651497   0.4919797  26.9897349  61.7063478
   1.0154199  27.2359646  62.4689787   0.2732130  27.8217384  61.2866615
   5.1366657  40.8955927  54.0829588   4.9891620  39.9672634  54.2637158
   5.9620151  40.9176017  53.5986663   8.7400779  41.7184485  55.1694461
   9.6647326  41.5127347  55.0318912   8.5716082  41.4700887  56.0783802
   1.6972342  27.9311045  59.3913148   1.3569163  27.1318858  59.7933828
   0.9911349  28.2312755  58.8189981   2.3488814  25.0160357  57.8440471
   3.1714883  24.5420835  57.7219361   2.5926878  25.7950841  58.3439157
   0.9897049  28.0448615  48.1403373   1.7105411  28.4229868  47.6367090
   0.3662353  28.7637492  48.2438351   5.1328171  28.7493764  49.0761705
   5.3491786  29.6318402  48.7750533   4.6522239  28.3579978  48.3467347
   1.7323776  28.6982026  55.7013339   1.7185344  27.8023119  55.3645637
   2.4496204  28.7052689  56.3351625   3.5849906  29.1319366  57.7466467
   3.3267684  30.0536436  57.7450797   3.0534947  28.7349800  58.4366931
   8.5296095  42.2370153  50.5256552   8.7032973  41.6716575  49.7730405
   9.0224986  43.0371048  50.3436042   1.1360672  27.5796406  50.9700909
   1.2576583  26.6513052  51.1691797   0.8462714  27.5935092  50.0579225
   4.0051862  25.2651316  54.1067629   4.0273559  25.3290649  53.1519609
   4.4219921  24.4255825  54.3008135  14.3835486  35.0006576  52.1446852
  14.8266632  34.2513901  51.7465975  13.5061997  34.9916712  51.7620584
   9.5171268  41.5536917  47.6253450  10.2122172  42.1743610  47.8440765
   9.8594418  40.7032269  47.9005828  11.4162691  39.0036623  49.1540781
  11.9414015  39.3423896  48.4290101  11.3285043  38.0683638  48.9703916
   3.0782740  42.9170697  61.2830658   3.3869866  42.6719843  62.1553357
   3.8758222  43.1217335  60.7949528   3.1003352  45.0708606  53.5136034
   2.6608342  44.5784985  54.2068891   3.8511469  44.5281574  53.2728110
   0.6201751  29.0928403  65.1790842   0.6689907  29.9690526  64.7968612
   1.1624265  28.5505796  64.6062485  11.1056597  39.6369527  64.4591979
  10.3152141  39.6193665  63.9196479  10.8689951  40.1757820  65.2141016
  11.2254472  36.4861993  61.7724708  11.2752477  36.3212000  62.7140230
  11.1168395  35.6189252  61.3822588   8.5158234  32.4692921  63.0884014
   9.4168097  32.3299386  62.7968012   8.5906209  32.6347376  64.0282192
   2.8501040  29.8459776  61.9337201   1.9804349  30.1393342  61.6619789
   3.0860520  30.4300221  62.6544464  12.7272669  38.9058934  62.0166729
  12.4357477  39.2688915  62.8530190  12.1144800  38.1925943  61.8380061
  13.9268351  36.4711814  54.5369299  14.7615242  36.9101618  54.7006860
  14.0627480  35.9950467  53.7177545  10.9759857  34.0291549  60.4846787
  11.4513979  34.2219195  59.6765639  10.0525422  34.0850735  60.2390171
   5.5540073  26.0639393  59.4502621   6.0722017  26.8000420  59.1249110
   5.1995206  26.3703386  60.2849380   5.8052668  22.4839675  54.9703518
   6.0854421  21.8162864  55.5963944   6.5903275  22.6768771  54.4578182
   3.6086136  41.6598669  46.5328544   3.0360103  42.2788856  46.0799016
   4.1818930  42.2098031  47.0668466   9.6761526  30.9057309  58.7175093
  10.6278949  31.0055407  58.7387317   9.5064976  30.1135578  59.2273177
   7.6975905  27.9912892  58.9034494   7.1025838  28.2717905  58.2080982
   7.4125602  28.4806793  59.6751235   6.8283396  41.9435819  47.6637126
   7.7614069  41.8781381  47.8670002   6.7406609  42.7792086  47.2051659
   9.4571413  41.2601690  44.6241074   9.3785044  40.9261553  45.5176832
  10.2781079  41.7523457  44.6232546  12.1549604  34.1263429  57.8317392
  12.1225924  33.1879430  58.0177076  12.7650227  34.2047466  57.0983217
   3.9932935  32.9959482  43.8744596   4.9392039  32.8665690  43.9433015
   3.6147180  32.2574144  44.3514025  12.3044092  30.9174472  57.8775676
  11.7883141  30.1332929  57.6905604  13.1884041  30.5893189  58.0422195
   9.9654819  24.6615488  53.8371488   9.7679640  24.3530576  54.7214820
  10.5754525  25.3877127  53.9669418  16.0541451  33.3287298  57.5697880
  15.3274614  33.1943263  56.9614372  15.6388738  33.6364127  58.3754598
   3.8771627  37.0477228  65.3345253   4.7974637  37.2255827  65.5285300
   3.8421210  36.1033273  65.1824953   2.1775852  30.9209458  43.8099482
   1.2707307  30.6242571  43.8862195   2.4551833  30.6239276  42.9433768
   3.7937918  25.4646348  49.9643723   2.9838646  25.1193433  50.3398969
   4.4822334  25.1553892  50.5531335   5.7228466  24.5424395  51.5868020
   6.2759504  24.9619848  52.2458043   5.9598552  23.6160143  51.6290976
   1.7461565  30.5311468  67.3670784   1.6458292  31.4805825  67.2982875
   1.5283107  30.2029707  66.4946854   0.9474636  27.7796393  43.9511461
   1.8093800  28.1051292  44.2107278   1.1324981  26.9927889  43.4384527
   9.1007273  26.6524920  51.0946684   8.5205942  27.3109724  50.7124736
   8.8343206  25.8302264  50.6834101   7.5510839  26.0529978  53.2968004
   8.0510618  26.1646512  52.4882323   8.1946447  25.7491030  53.9368813
   1.6092835  33.9608607  66.1835845   1.1259917  34.7608967  66.3899734
   1.6953774  33.9716552  65.2303289   7.8832151  28.8125010  50.1503032
   6.9958006  29.0974661  49.9323227   8.2986140  28.6518774  49.3030309
  11.2346687  28.8371531  53.8657371  12.0107077  29.3267984  54.1381988
  10.5094821  29.2629585  54.3229241  13.6719246  29.5499150  54.9231312
  14.2663736  29.3094886  54.2124620  13.7445829  28.8306281  55.5504848
   7.0275364  38.5769685  44.2451052   7.7311215  38.7819687  44.8608708
   6.3038013  39.1446447  44.5100136   7.8573175  34.3279546  50.3653322
   7.8008376  34.7848098  49.5260955   8.4101517  33.5670231  50.1876165
  11.6677981  30.1169278  51.1903442  11.4114915  29.7165914  52.0211650
  11.0430849  30.8313072  51.0653581  15.9790318  32.8565351  53.6974733
  15.4189876  32.9258541  54.4706295  15.3733822  32.6806336  52.9774229
   8.9362062  39.0152214  46.2949512   9.7707666  38.5833413  46.1126987
   8.7746405  38.8434228  47.2226407   8.5907954  35.5184327  47.6605852
   8.5356758  35.3528599  46.7194296   7.9654009  36.2260360  47.8168041
   5.9053861  37.8233239  66.9859414   6.7745021  37.9973892  66.6246049
   5.4260613  38.6427656  66.8635144   1.9004079  25.0192436  47.2391170
   1.8882749  25.9634276  47.3959441   2.7927501  24.8362582  46.9450631
   1.8293643  43.6961327  55.3258927   0.8789274  43.6963188  55.2123299
   2.1326130  42.9494061  54.8094961   5.7156199  21.6135213  51.4937107
   4.9488595  21.0593700  51.6393789   6.1266904  21.6857082  52.3551258
  17.5646337  49.5321865  56.3904689  18.2024747  49.4128613  55.6868029
  17.4467180  50.4802709  56.4492641  14.3736043  49.4849293  56.3266214
  14.0354555  49.3690358  55.4386748  15.2425811  49.0840458  56.3067220
  10.2322859  51.3384770  52.3163105   9.6687724  51.2474707  51.5479392
  10.1175254  50.5184674  52.7965597  14.8555826  50.6384145  62.2852419
  14.8444467  50.2436943  61.4132923  15.0176466  49.9050218  62.8786191
   7.7787291  52.8335961  55.1547325   8.5708583  52.4926786  54.7393624
   8.0183941  52.9430936  56.0749478  15.8122418  55.0055737  47.6277569
  15.1610397  55.5909818  47.2411583  16.6066780  55.5361932  47.6872607
   9.7378045  52.0944875  48.0264704  10.5108921  51.5473862  47.8877580
  10.0903444  52.9589124  48.2379165  11.5763087  53.4221257  61.2331603
  11.2852953  54.3266888  61.1178269  12.2120072  53.4637784  61.9475673
  12.5019294  50.7998105  57.8232963  13.0982866  50.5754128  57.1089926
  12.5594266  50.0582851  58.4258411  12.0744323  48.2537541  45.6583154
  12.3269843  47.7319062  44.8966617  11.1368882  48.0903686  45.7609837
  17.1187605  47.2573319  53.4657897  17.9050695  46.8392742  53.1148314
  17.3826310  48.1619411  53.6339545  17.2897683  52.6946169  48.1646554
  16.6543516  52.7680796  48.8767458  16.9595089  53.2839768  47.4865633
  22.5196033  47.1948552  54.3690875  23.2521204  46.6247769  54.6028705
  21.7635388  46.8070153  54.8097381  11.7940611  50.1565647  47.8607529
  11.6776869  49.4810550  48.5288613  11.9042871  49.6698021  47.0439682
  14.1372152  49.6175794  51.5654218  13.7730359  49.0906415  52.2767139
  14.9939268  49.2274263  51.3920703  20.0421453  40.9070126  58.8285484
  19.7104778  41.7765537  58.6046699  19.4467066  40.5906410  59.5079514
  13.7777639  44.6465693  46.5615566  13.9452042  45.5145930  46.9286038
  13.5874808  44.8092975  45.6376856  16.5352972  53.1082672  58.2281397
  16.2353695  54.0107711  58.1197204  16.1904032  52.8414856  59.0802550
   9.9865454  49.5596469  54.2618101   9.0615950  49.4272683  54.4695793
  10.2349867  50.3390688  54.7588044  19.9350116  45.6265213  55.9078834
  19.0266994  45.5580621  55.6137595  19.8837712  46.1037157  56.7360660
  13.7566860  47.1023351  47.5462233  13.6366485  47.5480402  48.3847714
  13.0619448  47.4508669  46.9875771   7.3474265  49.2029743  55.0961890
   7.4766646  49.4564222  56.0101302   6.6671716  49.7957451  54.7766545
  11.5173752  59.8726993  51.1952365  11.4397782  60.8234818  51.2740845
  10.9135396  59.5272865  51.8527291  14.0090982  47.0454858  63.8513731
  13.2324316  47.6048778  63.8416596  14.6481545  47.5311641  64.3728602
  21.8011763  43.8281651  57.6856708  21.1586143  44.1214184  57.0396503
  21.2966691  43.7134571  58.4909905  19.4551926  47.5744824  48.3742567
  20.3669782  47.8072211  48.1990265  18.9461573  48.1581868  47.8117646
  12.2637354  49.8540312  63.4131698  13.0052039  50.3925355  63.1366522
  11.5574340  50.4806600  63.5703250  17.7392694  51.9969452  62.0103860
  18.1476050  51.5551862  61.2658492  17.0169955  51.4222079  62.2638053
  14.0923764  46.9342059  59.3837417  14.9384959  47.3581472  59.5272066
  14.0322402  46.2775683  60.0775980  18.0621509  52.5570643  55.7656149
  17.4330371  52.7216357  55.0632217  17.6747171  52.9712252  56.5367113
  21.9410740  53.4925080  53.1200513  21.2561779  53.8723982  52.5697546
  22.0254590  54.1020407  53.8532460  17.2423209  44.5946427  61.0418590
  16.9984141  45.3488488  60.5052866  17.5183140  44.9731775  61.8765838
  19.1961672  51.1385039  59.7195856  19.4078567  51.7816799  59.0430237
  19.1491420  50.3047356  59.2517786  16.7987901  43.7502860  56.6232428
  15.9372380  44.0484114  56.9149166  16.8250336  43.9673259  55.6913461
  13.6149470  52.2945051  53.0306234  14.0787816  52.5732754  52.2410856
  13.3506269  51.3928495  52.8479325  10.5073551  51.8416532  55.9685997
  11.0774909  52.2703801  55.3303482  11.0981663  51.5599117  56.6670183
  12.5518356  48.4168203  49.8395799  13.2542400  48.8689247  50.3069725
  12.2198985  47.7752022  50.4675692  10.9998718  47.0079960  64.2147008
  10.3697379  47.6896241  64.4482405  10.8934806  46.8963041  63.2700147
   6.2943690  46.6751756  55.1412933   5.5042744  46.9309284  54.6653043
   6.7854938  47.4900094  55.2464973  20.3107500  54.0156995  57.8918213
  21.1324944  53.6137182  57.6100895  20.3069903  53.9125229  58.8434329
   8.2458436  47.0396335  52.0996409   7.4489599  47.1515029  52.6179905
   8.0184028  47.3782987  51.2337300  14.0764103  53.5641038  60.0478924
  14.1408536  54.0261445  60.8837096  13.3675027  52.9338403  60.1761234
   4.5781393  46.9282246  57.5727923   4.8289432  47.8129256  57.8385499
   5.1140942  46.7486848  56.8003015  28.4013493  50.3595743  54.2403185
  27.6477201  49.7903141  54.0847189  28.5361034  50.3258408  55.1873820
  13.7912121  55.2309146  49.9157904  13.6557796  56.0760681  50.3442752
  14.3321934  55.4328423  49.1523838  10.2779461  41.3100726  66.5772259
   9.8846406  40.7566924  67.2519904  11.0945601  41.6211304  66.9678777
   7.2441518  52.7484584  50.4885829   7.7566039  53.5427834  50.6391394
   7.8964231  52.0510874  50.4219431   9.0536403  55.8650340  52.5708583
   9.2303032  56.7868305  52.3829566   9.8493237  55.5508759  53.0002962
  13.1947422  42.7258605  64.1692516  13.9357135  43.3265758  64.0896979
  13.4265345  41.9836242  63.6110559   8.3388760  47.9114972  62.4470746
   8.2242275  47.0100229  62.7477845   7.4833277  48.1578669  62.0955562
  15.4180597  55.8532712  64.0458246  14.9744452  55.0669091  63.7279151
  16.0797811  56.0411863  63.3802137  10.1767719  57.3828514  58.5718925
  10.7275144  57.2545577  57.7995919   9.3379195  57.6823403  58.2213818
  17.5161836  56.1335512  62.0739648  17.4980311  56.9544393  61.5819917
  18.4381756  56.0089587  62.2989789  13.9734890  53.6479642  62.9163156
  14.5063226  52.8867930  62.6862464  13.4448971  53.3553293  63.6587310
  17.1404585  38.7539708  58.4456798  16.7968854  39.6441349  58.3695908
  17.5083547  38.5641365  57.5826383   5.2090435  51.0773238  51.2645400
   6.0465657  51.4870246  51.0479108   5.3868703  50.1372680  51.2345594
  17.1054867  48.7448319  46.9529233  16.5901491  49.5152923  47.1917620
  16.8332176  48.0713455  47.5762294  14.6901978  43.5898019  52.0114471
  13.8343575  43.2004870  51.8320110  15.1028930  43.6689980  51.1514257
  16.2201125  41.1244363  56.4106031  15.7165921  41.0874498  55.5973836
  16.5131732  42.0337105  56.4702688  12.4644011  41.2083092  55.4172213
  13.3297008  41.0125901  55.0578102  12.5321520  40.9793444  56.3441569
  22.0789142  51.4980673  48.8882406  21.3018584  51.1591833  48.4437568
  22.7580622  51.5033296  48.2137371  16.8941171  46.6175411  48.7789014
  16.5891306  46.9321560  49.6299157  17.8471613  46.6956831  48.8216347
  15.3387602  52.7765634  50.4281968  14.8108964  52.0418394  50.1155205
  14.8375105  53.5540310  50.1821936  20.3180448  50.9714655  55.5449014
  19.6604123  51.6613916  55.6329143  21.1220848  51.3611086  55.8883001
  10.0706330  43.4385300  52.7888580  10.6450082  43.2160482  52.0561772
  10.6577312  43.5073995  53.5417181  19.1285907  49.3259027  53.5952956
  19.6417789  49.9589019  54.0974666  19.7787131  48.7260223  53.2296316
  10.3975917  45.4689761  46.8084465   9.5613229  45.8064448  47.1293739
  10.2580687  45.3338741  45.8711602  12.3728998  40.3126549  51.5163649
  11.7193410  39.9975566  50.8920264  12.3309472  39.6902290  52.2423472
  13.4840203  50.5945844  43.4316941  12.5767264  50.3635098  43.6308090
  13.9811235  49.7983464  43.6190923  16.3908281  59.3043352  46.3513627
  15.7169980  59.6075048  46.9598585  16.7774103  60.1072432  46.0019084
  15.6066738  46.8008483  55.8411297  14.6889299  47.0223430  55.6832985
  16.0226882  46.8754793  54.9823004  16.3901786  48.1999898  50.9713977
  17.1373605  48.7121296  50.6621099  16.6593375  47.8783951  51.8318370
  14.6628436  50.6958439  47.9540931  13.7539655  50.4117472  48.0513401
  14.6923520  51.1157518  47.0944238  19.8947703  54.3065029  51.7232099
  19.4410031  53.4655939  51.7797289  19.2641670  54.9426427  52.0606879
  18.8380623  45.2357015  52.9532766  18.1003380  44.7234401  53.2843009
  19.0907397  44.7957396  52.1416043  18.3380643  56.1441525  52.6581917
  18.6303617  56.7046582  51.9394282  18.8479263  56.4370086  53.4135076
   5.2316606  48.4163953  51.9356133   5.0341006  47.8233314  51.2107200
   4.6763270  48.1116164  52.6532072  13.2113330  48.3087060  54.0550726
  13.2661940  47.3560896  53.9793203  12.4004532  48.4646499  54.5392025
  14.3604524  52.2367183  45.2929010  13.9223954  51.5203042  44.8334647
  15.1014965  52.4643298  44.7314101  11.1505690  46.9264120  51.8141105
  10.3373556  47.2258290  52.2206297  11.6464684  46.5319808  52.5315588
  13.3014268  56.9221876  53.7475370  13.2590447  57.1482723  52.8183902
  14.2176967  56.6885251  53.8961171  16.7479902  47.3905944  60.6455999
  17.1029289  47.6177417  61.5050465  17.3952033  47.7224321  60.0233255
  22.4777639  50.5124380  51.3505328  22.3395537  50.7025976  50.4226517
  22.1213857  51.2743763  51.8073379  10.6419765  44.4982475  57.4302340
  11.2819144  44.3571234  56.7325304   9.8097295  44.2116988  57.0540942
  22.5047018  52.5800907  56.3616600  22.9383525  52.4876196  57.2099654
  23.2178599  52.5558407  55.7236616  11.4180069  53.7984905  53.5437333
  12.2120667  53.3035226  53.3419908  10.7071761  53.2702769  53.1805038
  16.2374913  56.1803001  57.8949700  16.2911935  56.7493937  58.6627416
  15.3689694  56.3504886  57.5303737   7.7262832  47.9427987  49.6197085
   6.7960420  47.8812443  49.8367048   7.8220304  47.4203940  48.8233727
   7.6448381  44.4682800  52.2075327   7.9055198  45.3828133  52.0984488
   8.4665553  44.0007243  52.3571940   9.1173306  45.8820557  59.3774152
   9.7896360  45.6737919  58.7286801   8.2903093  45.6842643  58.9379384
  23.3662568  52.6224608  58.8949485  23.5598458  53.5270418  59.1408760
  23.2663186  52.1632027  59.7288070  15.0198879  42.5082498  61.3939812
  14.3726794  43.2072448  61.3004289  15.7899894  42.9418642  61.7616061
  18.4277676  52.7731350  64.4690366  18.2763183  52.5441902  63.5520449
  18.4182356  53.7301952  64.4821711  15.1963013  50.3463263  59.4536632
  16.1255073  50.4974423  59.2805600  14.7754043  50.4347284  58.5985279
  13.9951345  54.3713927  57.2235170  13.8562430  54.0032712  58.0961108
  13.2065941  54.8861567  57.0519128  14.5899497  59.4723024  48.5660706
  14.7651252  59.0011067  49.3806329  13.9032285  60.0988790  48.7941967
  15.5456560  53.7495530  54.6124008  15.2106392  53.7096300  55.5081658
  15.0460505  53.0840246  54.1394418   9.5200804  49.1563160  60.1376589
   9.3820602  48.4243399  60.7388128  10.4305727  49.0672060  59.8560777
  18.4815751  51.0951565  44.8861067  17.8644922  50.3698393  44.7894120
  18.0132240  51.8560925  44.5428142  12.1483104  48.8683120  59.6260268
  12.8582723  48.2276312  59.5846887  12.1052413  49.1196014  60.5486449
  20.1369883  55.8050473  62.5466848  20.0782429  55.1209693  61.8797431
  20.5389401  56.5469463  62.0947474  10.8612038  45.8548337  61.4455908
  10.3249395  45.4039076  62.0977504  10.2728747  45.9894246  60.7026372
   9.1560582  62.6212387  55.3400567   9.3957180  63.2530911  56.0179585
   8.3129778  62.2700427  55.6265926  10.2714297  45.3136989  44.0082372
   9.3943764  45.1925790  43.6444618  10.7472050  44.5223067  43.7561260
  20.1387290  53.7690057  60.7780827  19.2514069  53.4315979  60.9007226
  20.7085841  53.0373088  61.0149593   1.7916437  50.1014149  54.1023879
   2.4787477  49.7875879  53.5144894   1.6364566  51.0055513  53.8291130
   6.5951160  44.9904345  58.5308902   6.5109348  44.3830015  57.7959312
   5.7733866  45.4813363  58.5318399  13.6688444  58.4291509  57.7442071
  13.5958615  59.2346481  58.2561375  13.2265837  58.6283475  56.9190092
  13.4578223  57.6663279  51.2544892  12.6745745  58.2084959  51.3483117
  14.1570969  58.1837259  51.6539133  16.7674873  43.4757909  53.8979097
  17.2643573  42.7227871  53.5780168  15.9961855  43.5122225  53.3322307
  24.6204631  49.1798274  55.5397389  24.6094507  50.0622990  55.1691322
  23.7522010  48.8269825  55.3451926  16.1287127  58.3278343  59.9000229
  16.8415099  58.9625808  59.8276131  15.6377156  58.4242209  59.0840231
  17.8504654  52.2329596  51.4717521  16.9160933  52.3531058  51.3022225
  18.0281323  51.3302063  51.2077531  13.3509842  45.6175292  53.6250782
  12.9807630  45.0646332  54.3131688  13.8468935  45.0133425  53.0725782
  21.2377206  48.0746915  52.0067555  21.7037658  48.9074907  51.9327858
  21.6884706  47.6091897  52.7112813  11.1799041  56.0772787  60.7205800
  11.8808500  56.7109270  60.8735194  10.7094156  56.4187518  59.9601439
  19.3053437  54.4190736  49.0053707  19.5813281  54.3047331  49.9147581
  18.4357935  54.0208221  48.9665880  18.9800327  48.6317394  58.5458350
  18.3271777  48.8793302  57.8910803  19.3580707  47.8181532  58.2120828
  15.9407501  58.6677087  52.6486521  16.1229895  57.8498743  53.1114273
  16.7640487  58.8844780  52.2111411  16.2749666  57.5945272  49.9101569
  16.8037433  57.0837727  49.2971731  16.5377886  57.2787803  50.7747102
  15.0287900  49.3737205  65.0324387  14.3528537  49.2731334  65.7026763
  15.8515534  49.2176419  65.4960385   6.7766759  55.6109142  57.6536903
   7.3620196  54.8652830  57.7864807   6.5791597  55.9213098  58.5373567
   9.6305414  58.6460389  52.6699345   8.9615789  59.1306517  52.1863385
   9.4918284  58.8929610  53.5842724   1.3684414  48.1814742  56.3741346
   1.4068513  47.6478333  57.1678464   0.8624706  47.6549947  55.7552323
  13.7710683  60.6804133  59.2682003  14.3228991  60.8435754  60.0331089
  14.1116876  61.2708570  58.5962028   8.7475176  43.0279282  59.8703888
   8.8116502  43.8894113  59.4581286   8.6842296  42.4153284  59.1376247
   8.2227448  45.1002415  63.5176922   8.8499487  44.7179492  64.1314447
   7.3655367  44.8816617  63.8832615  18.6221557  55.5065390  65.1230658
  19.1661461  56.1195348  64.6285613  18.0408402  56.0644969  65.6397671
   4.9992991  46.9078844  49.4495277   5.2946432  45.9989522  49.3962331
   4.0981027  46.8866584  49.1276280  16.9079070  58.6286108  56.2545686
  16.7830209  57.8275848  55.7456631  17.5658161  59.1232302  55.7659656
   8.5287238  44.9834841  55.4322826   7.8073824  45.5970808  55.2930299
   9.3180494  45.5192605  55.3539472  18.9713978  56.4295128  57.8825236
  18.0244314  56.3100479  57.8103562  19.3196751  55.5417626  57.9651497
  11.3313552  42.3189267  61.7063478  11.8547954  42.5651564  62.4689787
  11.1125885  43.1509302  61.2866615   6.7280833  44.5892942  49.5734602
   6.3993539  43.7090321  49.3909708   7.0820203  44.5340610  50.4610992
  15.9760412  56.2247844  54.0829588  15.8285374  55.2964552  54.2637158
  16.8013905  56.2467935  53.5986663   9.8422656  44.8765912  49.9410080
  10.1818728  45.4051833  49.2188688  10.2894776  45.2146318  50.7168647
  19.5794533  57.0476403  55.1694461  20.5041081  56.8419265  55.0318912
  19.4109837  56.7992804  56.0783802  12.5366097  43.2602962  59.3913148
  12.1962917  42.4610775  59.7933828  11.8305103  43.5604673  58.8189981
  13.1882569  40.3452275  57.8440471  14.0108638  39.8712753  57.7219361
  13.4320632  41.1242758  58.3439157  11.8290803  43.3740533  48.1403373
  12.5499166  43.7521786  47.6367090  11.2056107  44.0929410  48.2438351
  15.9721926  44.0785682  49.0761705  16.1885540  44.9610320  48.7750533
  15.4915993  43.6871895  48.3467347  10.7121147  47.0371395  55.6532450
  10.5665728  47.3511698  56.5456731  10.2346351  47.6556296  55.1003348
  12.5717530  44.0273943  55.7013339  12.5579099  43.1315037  55.3645637
  13.2889958  44.0344607  56.3351625  14.4243661  44.4611283  57.7466467
  14.1661439  45.3828354  57.7450797  13.8928701  44.0641718  58.4366931
  19.3689850  57.5662071  50.5256552  19.5426727  57.0008493  49.7730405
  19.8618741  58.3662966  50.3436042   5.1866809  49.5776740  58.5920111
   4.6420278  50.3536548  58.7240385   6.0646159  49.9247544  58.4339232
  11.9754426  42.9088324  50.9700909  12.0970337  41.9804970  51.1691797
  11.6856469  42.9227010  50.0579225  14.8445617  40.5943234  54.1067629
  14.8667313  40.6582567  53.1519609  15.2613676  39.7547743  54.3008135
  25.2229241  50.3298494  52.1446852  25.6660387  49.5805819  51.7465975
  24.3455751  50.3208630  51.7620584  20.3565022  56.8828835  47.6253450
  21.0515927  57.5035528  47.8440765  20.6988172  56.0324186  47.9005828
   5.9732831  48.7046636  61.4850268   5.2314567  48.8529271  62.0714898
   5.6525576  48.9654902  60.6217017  22.2556445  54.3328541  49.1540781
  22.7807769  54.6715813  48.4290101  22.1678798  53.3975556  48.9703916
  13.9176494  58.2462614  61.2830658  14.2263620  58.0011761  62.1553357
  14.7151976  58.4509253  60.7949528  13.9397106  60.4000524  53.5136034
  13.5002096  59.9076903  54.2068891  14.6905223  59.8573491  53.2728110
   6.4189445  56.5912065  53.5160662   7.2447465  56.2915837  53.1359306
   6.0683497  55.8219687  53.9650451  11.3870978  55.9438533  55.5858336
  10.7650987  55.2809238  55.2860564  12.0575845  55.9699665  54.9031984
   4.6198050  54.5098391  54.4749596   3.7829958  54.0820566  54.2933597
   4.5921696  54.7030834  55.4120387  11.4595506  44.4220321  65.1790842
  11.5083661  45.2982444  64.7968612  12.0018020  43.8797714  64.6062485
  21.9450351  54.9661444  64.4591979  21.1545895  54.9485583  63.9196479
  21.7083706  55.5049738  65.2141016  22.0648226  51.8153911  61.7724708
  22.1146231  51.6503918  62.7140230  21.9562150  50.9481170  61.3822588
  10.9484485  54.4942456  49.0616797  11.0972605  55.1777921  48.4083469
  11.7550929  54.4747546  49.5766252  19.3551989  47.7984839  63.0884014
  20.2561852  47.6591303  62.7968012  19.4299963  47.9639293  64.0282192
  13.6894794  45.1751693  61.9337201  12.8198104  45.4685259  61.6619789
  13.9254274  45.7592138  62.6544464  23.5666423  54.2350852  62.0166729
  23.2751232  54.5980833  62.8530190  22.9538555  53.5217860  61.8380061
  24.7662106  51.8003732  54.5369299  25.6008997  52.2393536  54.7006860
  24.9021234  51.3242385  53.7177545  21.8153611  49.3583467  60.4846787
  22.2907733  49.5511113  59.6765639  20.8919177  49.4142653  60.2390171
   8.7037118  50.5207634  50.0677865   8.4583160  49.6169964  50.2658076
   8.8733033  50.5224784  49.1257343  16.3933828  41.3931310  59.4502621
  16.9115772  42.1292337  59.1249110  16.0388961  41.6995304  60.2849380
   7.9732766  46.2535991  47.5664027   7.2802011  46.3280346  46.9104063
   7.7284518  45.4896335  48.0885544  14.4479891  56.9890587  46.5328544
  13.8753858  57.6080774  46.0799016  15.0212684  57.5389948  47.0668466
  20.5155280  46.2349227  58.7175093  21.4672703  46.3347324  58.7387317
  20.3458731  45.4427495  59.2273177  18.5369660  43.3204810  58.9034494
  17.9419592  43.6009823  58.2080982  18.2519357  43.8098711  59.6751235
  17.6677150  57.2727737  47.6637126  18.6007824  57.2073299  47.8670002
  17.5800363  58.1084004  47.2051659  20.2965167  56.5893607  44.6241074
  20.2178799  56.2553471  45.5176832  21.1174834  57.0815375  44.6232546
  22.9943358  49.4555346  57.8317392  22.9619678  48.5171347  58.0177076
  23.6043982  49.5339383  57.0983217  14.8326689  48.3251399  43.8744596
  15.7785794  48.1957608  43.9433015  14.4540934  47.5866061  44.3514025
  23.1437847  46.2466390  57.8775676  22.6276895  45.4624847  57.6905604
  24.0277795  45.9185107  58.0422195  28.8119908  50.5171353  56.9723429
  29.5423297  50.2556641  57.5331133  28.2026854  49.7800075  57.0125497
  26.8935205  48.6579216  57.5697880  26.1668369  48.5235181  56.9614372
  26.4782492  48.9656045  58.3754598  14.7165382  52.3769146  65.3345253
  15.6368391  52.5547745  65.5285300  14.6814965  51.4325191  65.1824953
  13.0169606  46.2501376  43.8099482  12.1101062  45.9534489  43.8862195
  13.2945587  45.9531194  42.9433768   3.9347547  47.5707739  54.2598528
   3.6150331  46.7173047  53.9672902   3.3880975  47.7856317  55.0156495
   7.7127454  50.2870180  57.9768035   7.9313464  51.2187288  57.9956068
   8.1253228  49.9278155  58.7622838  14.6331672  40.7938266  49.9643723
  13.8232400  40.4485351  50.3398969  15.3216089  40.4845809  50.5531335
  16.5622220  39.8716312  51.5868020  17.1153259  40.2911766  52.2458043
  16.7992307  38.9452060  51.6290976  12.5855320  45.8603386  67.3670784
  12.4852046  46.8097743  67.2982875  12.3676862  45.5321625  66.4946854
  11.7868391  43.1088311  43.9511461  12.6487555  43.4343209  44.2107278
  11.9718735  42.3219807  43.4384527   3.8035807  51.1910651  56.2291650
   3.1099278  50.7764604  55.7161604   4.5508798  51.2331187  55.6325069
  19.9401027  41.9816838  51.0946684  19.3599696  42.6401642  50.7124736
  19.6736960  41.1594182  50.6834101  18.3904594  41.3821895  53.2968004
  18.8904372  41.4938430  52.4882323  19.0340202  41.0782948  53.9368813
  12.4486590  49.2900525  66.1835845  11.9653671  50.0900885  66.3899734
  12.5347529  49.3008470  65.2303289   5.7172549  51.1228905  54.1057665
   5.6943237  51.2216592  53.1539548   6.0273186  51.9694055  54.4274831
   8.3759927  53.1805060  58.2204279   9.3303181  53.1489002  58.1534211
   8.1772451  52.7195683  59.0354505   8.9659309  51.7506176  60.7875077
   9.7852198  52.2450254  60.8109914   9.2396117  50.8338144  60.7592644
  18.7225905  44.1416928  50.1503032  17.8351760  44.4266579  49.9323227
  19.1379894  43.9810691  49.3030309  22.0740442  44.1663449  53.8657371
  22.8500832  44.6559901  54.1381988  21.3488576  44.5921503  54.3229241
  24.5113000  44.8791068  54.9231312  25.1057491  44.6386804  54.2124620
  24.5839584  44.1598199  55.5504848   6.7310156  58.7224679  55.2374477
   6.5964624  57.9625080  54.6712475   6.3142218  59.4465579  54.7703266
  17.8669119  53.9061603  44.2451052  18.5704969  54.1111605  44.8608708
  17.1431768  54.4738364  44.5100136  18.6966929  49.6571464  50.3653322
  18.6402131  50.1140015  49.5260955  19.2495272  48.8962148  50.1876165
  22.5071735  45.4461196  51.1903442  22.2508669  45.0457831  52.0211650
  21.8824603  46.1604990  51.0653581  26.8184073  48.1857269  53.6974733
  26.2583631  48.2550458  54.4706295  26.2127576  48.0098254  52.9774229
   9.8879282  59.6193996  55.4492919   9.7711666  60.5639429  55.3471610
   9.0671728  59.3167558  55.8378719  19.7755816  54.3444132  46.2949512
  20.6101420  53.9125330  46.1126987  19.6140159  54.1726145  47.2226407
  19.4301708  50.8476245  47.6605852  19.3750512  50.6820517  46.7194296
  18.8047764  51.5552278  47.8168041   4.2194223  46.0844309  61.4867274
   4.8653087  45.5743263  61.9754499   4.0111375  46.8212991  62.0610699
  16.7447616  53.1525157  66.9859414  17.6138775  53.3265809  66.6246049
  16.2654367  53.9719574  66.8635144  12.7397834  40.3484354  47.2391170
  12.7276504  41.2926194  47.3959441  13.6321256  40.1654500  46.9450631
  10.9133796  60.2722258  58.6648848  11.8161043  60.3045868  58.9815343
  10.6871166  59.3422709  58.6795184  12.6687398  59.0253245  55.3258927
  11.7183029  59.0255106  55.2123299  12.9719884  58.2785979  54.8094961
  16.5549953  36.9427131  51.4937107  15.7882349  36.3885617  51.6393789
  16.9660658  37.0148999  52.3551258   8.5591714  43.2311927  65.5842288
   9.4223176  42.8748731  65.7945613   7.9857125  42.8925821  66.2717692
  28.4040091  64.8613783  56.3904689  29.0418501  64.7420530  55.6868029
  28.2860934  65.8094627  56.4492641  25.2129798  64.8141211  56.3266214
  24.8748309  64.6982276  55.4386748  26.0819566  64.4132376  56.3067220
  21.0716613  66.6676687  52.3163105  20.5081478  66.5766624  51.5479392
  20.9569008  65.8476592  52.7965597  25.6949581  65.9676063  62.2852419
  25.6838221  65.5728861  61.4132923  25.8570220  65.2342135  62.8786191
  18.6181045  68.1627879  55.1547325  19.4102337  67.8218704  54.7393624
  18.8577695  68.2722854  56.0749478  26.6516172  70.3347655  47.6277569
  26.0004152  70.9201736  47.2411583  27.4460535  70.8653850  47.6872607
  20.5771799  67.4236792  48.0264704  21.3502675  66.8765779  47.8877580
  20.9297198  68.2881042  48.2379165  22.4156842  68.7513175  61.2331603
  22.1246708  69.6558805  61.1178269  23.0513826  68.7929702  61.9475673
  23.3413049  66.1290023  57.8232963  23.9376621  65.9046045  57.1089926
  23.3988020  65.3874769  58.4258411  22.9138077  63.5829458  45.6583154
  23.1663598  63.0610980  44.8966617  21.9762636  63.4195604  45.7609837
  27.9581360  62.5865237  53.4657897  28.7444449  62.1684660  53.1148314
  28.2220064  63.4911329  53.6339545  28.1291437  68.0238087  48.1646554
  27.4937270  68.0972714  48.8767458  27.7988844  68.6131686  47.4865633
  33.3589787  62.5240470  54.3690875  34.0914959  61.9539687  54.6028705
  32.6029143  62.1362070  54.8097381  22.6334366  65.4857564  47.8607529
  22.5170624  64.8102468  48.5288613  22.7436626  64.9989938  47.0439682
  24.9765907  64.9467711  51.5654218  24.6124114  64.4198332  52.2767139
  25.8333023  64.5566180  51.3920703  30.8815207  56.2362044  58.8285484
  30.5498532  57.1057455  58.6046699  30.2860821  55.9198328  59.5079514
  24.6171394  59.9757611  46.5615566  24.7845796  60.8437848  46.9286038
  24.4268563  60.1384893  45.6376856  27.3746727  68.4374590  58.2281397
  27.0747450  69.3399629  58.1197204  27.0297786  68.1706773  59.0802550
  20.8259208  64.8888387  54.2618101  19.9009705  64.7564601  54.4695793
  21.0743622  65.6682606  54.7588044  30.7743871  60.9557130  55.9078834
  29.8660748  60.8872539  55.6137595  30.7231466  61.4329075  56.7360660
  24.5960615  62.4315269  47.5462233  24.4760240  62.8772319  48.3847714
  23.9013203  62.7800586  46.9875771  18.1868019  64.5321660  55.0961890
  18.3160401  64.7856139  56.0101302  17.5065471  65.1249368  54.7766545
  22.3567507  75.2018910  51.1952365  22.2791536  76.1526735  51.2740845
  21.7529150  74.8564783  51.8527291  24.8484736  62.3746776  63.8513731
  24.0718071  62.9340696  63.8416596  25.4875299  62.8603559  64.3728602
  32.6405517  59.1573569  57.6856708  31.9979897  59.4506102  57.0396503
  32.1360446  59.0426489  58.4909905  30.2945681  62.9036742  48.3742567
  31.2063537  63.1364129  48.1990265  29.7855328  63.4873786  47.8117646
  23.1031109  65.1832229  63.4131698  23.8445793  65.7217273  63.1366522
  22.3968094  65.8098518  63.5703250  28.5786448  67.3261370  62.0103860
  28.9869804  66.8843780  61.2658492  27.8563710  66.7513997  62.2638053
  24.9317518  62.2633976  59.3837417  25.7778714  62.6873390  59.5272066
  24.8716156  61.6067601  60.0775980  28.9015263  67.8862560  55.7656149
  28.2724125  68.0508274  55.0632217  28.5140925  68.3004170  56.5367113
  32.7804495  68.8216998  53.1200513  32.0955533  69.2015899  52.5697546
  32.8648344  69.4312325  53.8532460  28.0816964  59.9238345  61.0418590
  27.8377896  60.6780405  60.5052866  28.3576894  60.3023692  61.8765838
  30.0355427  66.4676957  59.7195856  30.2472322  67.1108717  59.0430237
  29.9885175  65.6339274  59.2517786  27.6381655  59.0794778  56.6232428
  26.7766135  59.3776031  56.9149166  27.6644090  59.2965177  55.6913461
  24.4543225  67.6236968  53.0306234  24.9181570  67.9024671  52.2410856
  24.1900023  66.7220413  52.8479325  21.3467306  67.1708450  55.9685997
  21.9168663  67.5995718  55.3303482  21.9375418  66.8891035  56.6670183
  23.3912111  63.7460121  49.8395799  24.0936154  64.1981164  50.3069725
  23.0592739  63.1043940  50.4675692  21.8392472  62.3371877  64.2147008
  21.2091133  63.0188158  64.4482405  21.7328560  62.2254959  63.2700147
  17.1337445  62.0043673  55.1412933  16.3436499  62.2601202  54.6653043
  17.6248692  62.8192011  55.2464973  31.1501254  69.3448913  57.8918213
  31.9718698  68.9429100  57.6100895  31.1463657  69.2417147  58.8434329
  19.0852190  62.3688253  52.0996409  18.2883354  62.4806947  52.6179905
  18.8577783  62.7074905  51.2337300  24.9157858  68.8932956  60.0478924
  24.9802290  69.3553363  60.8837096  24.2068782  68.2630321  60.1761234
  15.4175148  62.2574164  57.5727923  15.6683186  63.1421174  57.8385499
  15.9534696  62.0778765  56.8003015  39.2407248  65.6887661  54.2403185
  38.4870956  65.1195059  54.0847189  39.3754789  65.6550326  55.1873820
  24.6305876  70.5601063  49.9157904  24.4951550  71.4052599  50.3442752
  25.1715688  70.7620341  49.1523838  21.1173215  56.6392643  66.5772259
  20.7240161  56.0858842  67.2519904  21.9339356  56.9503222  66.9678777
  18.0835273  68.0776501  50.4885829  18.5959794  68.8719752  50.6391394
  18.7357986  67.3802792  50.4219431  19.8930158  71.1942258  52.5708583
  20.0696786  72.1160222  52.3829566  20.6886991  70.8800677  53.0002962
  24.0341176  58.0550522  64.1692516  24.7750890  58.6557675  64.0896979
  24.2659099  57.3128160  63.6110559  19.1782514  63.2406890  62.4470746
  19.0636029  62.3392147  62.7477845  18.3227032  63.4870586  62.0955562
  26.2574352  71.1824630  64.0458246  25.8138206  70.3961008  63.7279151
  26.9191566  71.3703780  63.3802137  21.0161473  72.7120431  58.5718925
  21.5668898  72.5837495  57.7995919  20.1772949  73.0115320  58.2213818
  28.3555590  71.4627430  62.0739648  28.3374065  72.2836311  61.5819917
  29.2775510  71.3381505  62.2989789  24.8128644  68.9771559  62.9163156
  25.3456981  68.2159847  62.6862464  24.2842725  68.6845211  63.6587310
  27.9798339  54.0831625  58.4456798  27.6362609  54.9733267  58.3695908
  28.3477302  53.8933283  57.5826383  16.0484190  66.4065156  51.2645400
  16.8859412  66.8162164  51.0479108  16.2262457  65.4664598  51.2345594
  27.9448622  64.0740236  46.9529233  27.4295245  64.8444841  47.1917620
  27.6725930  63.4005372  47.5762294  25.5295733  58.9189937  52.0114471
  24.6737329  58.5296788  51.8320110  25.9422685  58.9981898  51.1514257
  27.0594880  56.4536280  56.4106031  26.5559675  56.4166416  55.5973836
  27.3525486  57.3629023  56.4702688  23.3037765  56.5375010  55.4172213
  24.1690762  56.3417819  55.0578102  23.3715274  56.3085362  56.3441569
  32.9182896  66.8272591  48.8882406  32.1412339  66.4883750  48.4437568
  33.5974377  66.8325214  48.2137371  27.7334925  61.9467328  48.7789014
  27.4285061  62.2613478  49.6299157  28.6865367  62.0248748  48.8216347
  26.1781357  68.1057552  50.4281968  25.6502718  67.3710311  50.1155205
  25.6768860  68.8832228  50.1821936  31.1574203  66.3006572  55.5449014
  30.4997877  66.9905834  55.6329143  31.9614602  66.6903004  55.8883001
  20.9100084  58.7677218  52.7888580  21.4843836  58.5452400  52.0561772
  21.4971067  58.8365913  53.5417181  29.9679662  64.6550945  53.5952956
  30.4811543  65.2880937  54.0974666  30.6180886  64.0552140  53.2296316
  21.2369672  60.7981679  46.8084465  20.4006984  61.1356366  47.1293739
  21.0974441  60.6630659  45.8711602  23.2122752  55.6418467  51.5163649
  22.5587165  55.3267484  50.8920264  23.1703226  55.0194207  52.2423472
  24.3233957  65.9237762  43.4316941  23.4161019  65.6927015  43.6308090
  24.8204989  65.1275381  43.6190923  27.2302036  74.6335269  46.3513627
  26.5563735  74.9366966  46.9598585  27.6167858  75.4364350  46.0019084
  26.4460493  62.1300400  55.8411297  25.5283054  62.3515347  55.6832985
  26.8620636  62.2046711  54.9823004  27.2295540  63.5291816  50.9713977
  27.9767359  64.0413213  50.6621099  27.4987130  63.2075869  51.8318370
  25.5022191  66.0250357  47.9540931  24.5933410  65.7409390  48.0513401
  25.5317274  66.4449435  47.0944238  30.7341458  69.6356946  51.7232099
  30.2803785  68.7947856  51.7797289  30.1035425  70.2718345  52.0606879
  29.6774377  60.5648932  52.9532766  28.9397134  60.0526319  53.2843009
  29.9301151  60.1249314  52.1416043  29.1774397  71.4733443  52.6581917
  29.4697372  72.0338500  51.9394282  29.6873018  71.7662004  53.4135076
  29.7786005  53.3425184  53.5474535  30.0844882  52.4822548  53.2600450
  30.5038610  53.9342805  53.3473529  16.0710361  63.7455871  51.9356133
  15.8734761  63.1525232  51.2107200  15.5157025  63.4408081  52.6532072
  24.0507085  63.6378977  54.0550726  24.1055694  62.6852814  53.9793203
  23.2398287  63.7938417  54.5392025  25.1998278  67.5659101  45.2929010
  24.7617708  66.8494959  44.8334647  25.9408719  67.7935215  44.7314101
  21.9899444  62.2556037  51.8141105  21.1767310  62.5550208  52.2206297
  22.4858439  61.8611726  52.5315588  24.1408022  72.2513794  53.7475370
  24.0984201  72.4774640  52.8183902  25.0570721  72.0177169  53.8961171
  27.5873656  62.7197862  60.6455999  27.9423044  62.9469335  61.5050465
  28.2345787  63.0516238  60.0233255  33.3171393  65.8416298  51.3505328
  33.1789292  66.0317894  50.4226517  32.9607612  66.6035680  51.8073379
  21.4813519  59.8274393  57.4302340  22.1212899  59.6863152  56.7325304
  20.6491050  59.5408906  57.0540942  33.3440773  67.9092825  56.3616600
  33.7777279  67.8168114  57.2099654  34.0572353  67.8850325  55.7236616
  22.2573823  69.1276823  53.5437333  23.0514422  68.6327143  53.3419908
  21.5465516  68.5994686  53.1805038  27.0768668  71.5094919  57.8949700
  27.1305690  72.0785855  58.6627416  26.2083449  71.6796804  57.5303737
  18.5656587  63.2719905  49.6197085  17.6354175  63.2104360  49.8367048
  18.6614059  62.7495858  48.8233727  18.4842136  59.7974718  52.2075327
  18.7448953  60.7120051  52.0984488  19.3059308  59.3299160  52.3571940
  19.9567061  61.2112475  59.3774152  20.6290114  61.0029837  58.7286801
  19.1296848  61.0134561  58.9379384  34.2056322  67.9516525  58.8949485
  34.3992212  68.8562336  59.1408760  34.1056940  67.4923944  59.7288070
  25.8592633  57.8374416  61.3939812  25.2120548  58.5364365  61.3004289
  26.6293648  58.2710560  61.7616061  29.2671431  68.1023268  64.4690366
  29.1156937  67.8733820  63.5520449  29.2576110  69.0593869  64.4821711
  26.0356767  65.6755181  59.4536632  26.9648827  65.8266340  59.2805600
  25.6147797  65.7639202  58.5985279  24.8345099  69.7005845  57.2235170
  24.6956185  69.3324630  58.0961108  24.0459695  70.2153485  57.0519128
  25.4293251  74.8014942  48.5660706  25.6045007  74.3302985  49.3806329
  24.7426039  75.4280708  48.7941967  26.3850314  69.0787448  54.6124008
  26.0500147  69.0388218  55.5081658  25.8854260  68.4132164  54.1394418
  20.3594558  64.4855078  60.1376589  20.2214356  63.7535317  60.7388128
  21.2699482  64.3963978  59.8560777  29.3209506  66.4243482  44.8861067
  28.7038677  65.6990310  44.7894120  28.8525994  67.1852842  44.5428142
  22.9876859  64.1975037  59.6260268  23.6976477  63.5568229  59.5846887
  22.9446167  64.4487932  60.5486449  30.9763638  71.1342391  62.5466848
  30.9176184  70.4501611  61.8797431  31.3783156  71.8761381  62.0947474
  21.7005793  61.1840255  61.4455908  21.1643150  60.7330994  62.0977504
  21.1122501  61.3186164  60.7026372  21.1108052  60.6428907  44.0082372
  20.2337518  60.5217707  43.6444618  21.5865805  59.8514985  43.7561260
  30.9781045  69.0981974  60.7780827  30.0907824  68.7607896  60.9007226
  31.5479596  68.3665006  61.0149593  12.6310192  65.4306066  54.1023879
  13.3181232  65.1167796  53.5144894  12.4758321  66.3347431  53.8291130
  17.4344914  60.3196263  58.5308902  17.3503103  59.7121932  57.7959312
  16.6127621  60.8105281  58.5318399  24.5082198  73.7583427  57.7442071
  24.4352370  74.5638398  58.2561375  24.0659591  73.9575393  56.9190092
  24.2971978  72.9955197  51.2544892  23.5139500  73.5376877  51.3483117
  24.9964723  73.5129176  51.6539133  27.6068628  58.8049826  53.8979097
  28.1037328  58.0519789  53.5780168  26.8355609  58.8414143  53.3322307
  35.4598385  64.5090192  55.5397389  35.4488262  65.3914907  55.1691322
  34.5915765  64.1561743  55.3451926  26.9680882  73.6570261  59.9000229
  27.6808854  74.2917726  59.8276131  26.4770910  73.7534127  59.0840231
  28.6898409  67.5621514  51.4717521  27.7554687  67.6822976  51.3022225
  28.8675077  66.6593980  51.2077531  24.1903597  60.9467209  53.6250782
  23.8201384  60.3938250  54.3131688  24.6862689  60.3425343  53.0725782
  32.0770960  63.4038833  52.0067555  32.5431412  64.2366824  51.9327858
  32.5278461  62.9383814  52.7112813  22.0192795  71.4064704  60.7205800
  22.7202255  72.0401187  60.8735194  21.5487910  71.7479436  59.9601439
  30.1447191  69.7482654  49.0053707  30.4207035  69.6339249  49.9147581
  29.2751690  69.3500139  48.9665880  30.0487623  55.7719420  56.0458456
  29.1350703  56.0023647  56.2140663  30.4780724  55.8557864  56.8972489
  29.8194081  63.9609312  58.5458350  29.1665532  64.2085219  57.8910803
  30.1974461  63.1473450  58.2120828  26.7801255  73.9969005  52.6486521
  26.9623650  73.1790661  53.1114273  27.6034241  74.2136697  52.2111411
  27.1143421  72.9237190  49.9101569  27.6431187  72.4129645  49.2971731
  27.3771640  72.6079720  50.7747102  25.8681654  64.7029123  65.0324387
  25.1922291  64.6023252  65.7026763  26.6909288  64.5468337  65.4960385
  17.6160513  70.9401059  57.6536903  18.2013950  70.1944747  57.7864807
  17.4185352  71.2505016  58.5373567  20.4699169  73.9752307  52.6699345
  19.8009544  74.4598434  52.1863385  20.3312038  74.2221527  53.5842724
  12.2078168  63.5106660  56.3741346  12.2462268  62.9770250  57.1678464
  11.7018461  62.9841865  55.7552323  24.6104437  76.0096050  59.2682003
  25.1622745  76.1727672  60.0331089  24.9510631  76.6000488  58.5962028
  19.5868930  58.3571200  59.8703888  19.6510257  59.2186031  59.4581286
  19.5236051  57.7445202  59.1376247  19.0621203  60.4294333  63.5176922
  19.6893242  60.0471410  64.1314447  18.2049122  60.2108535  63.8832615
  29.4615311  70.8357308  65.1230658  30.0055215  71.4487266  64.6285613
  28.8802156  71.3936886  65.6397671  15.8386746  62.2370762  49.4495277
  16.1340187  61.3281440  49.3962331  14.9374781  62.2158501  49.1276280
  27.7472824  73.9578026  56.2545686  27.6223964  73.1567766  55.7456631
  28.4051916  74.4524219  55.7659656  19.3680993  60.3126758  55.4322826
  18.6467578  60.9262726  55.2930299  20.1574248  60.8484523  55.3539472
  29.8107733  71.7587046  57.8825236  28.8638068  71.6392397  57.8103562
  30.1590506  70.8709544  57.9651497  22.1707306  57.6481185  61.7063478
  22.6941708  57.8943481  62.4689787  21.9519639  58.4801220  61.2866615
  17.5674587  59.9184859  49.5734602  17.2387293  59.0382238  49.3909708
  17.9213958  59.8632528  50.4610992  26.8154166  71.5539762  54.0829588
  26.6679129  70.6256470  54.2637158  27.6407660  71.5759853  53.5986663
  20.6816410  60.2057829  49.9410080  21.0212483  60.7343750  49.2188688
  21.1288531  60.5438235  50.7168647  30.4188288  72.3768321  55.1694461
  31.3434835  72.1711182  55.0318912  30.2503591  72.1284722  56.0783802
  23.3759851  58.5894880  59.3913148  23.0356672  57.7902693  59.7933828
  22.6698858  58.8896591  58.8189981  24.0276323  55.6744192  57.8440471
  24.8502392  55.2004671  57.7219361  24.2714387  56.4534676  58.3439157
  22.6684558  58.7032451  48.1403373  23.3892920  59.0813704  47.6367090
  22.0449862  59.4221328  48.2438351  26.8115680  59.4077600  49.0761705
  27.0279295  60.2902238  48.7750533  26.3309748  59.0163813  48.3467347
  21.5514902  62.3663313  55.6532450  21.4059483  62.6803616  56.5456731
  21.0740105  62.9848213  55.1003348  23.4111285  59.3565861  55.7013339
  23.3972853  58.4606954  55.3645637  24.1283713  59.3636525  56.3351625
  25.2637415  59.7903201  57.7466467  25.0055193  60.7120272  57.7450797
  24.7322456  59.3933636  58.4366931  30.2083604  72.8953988  50.5256552
  30.3820482  72.3300411  49.7730405  30.7012495  73.6954883  50.3436042
  16.0260564  64.9068657  58.5920111  15.4814032  65.6828465  58.7240385
  16.9039914  65.2539462  58.4339232  22.8148181  58.2380241  50.9700909
  22.9364092  57.3096887  51.1691797  22.5250223  58.2518927  50.0579225
  25.6839371  55.9235152  54.1067629  25.7061068  55.9874485  53.1519609
  26.1007430  55.0839660  54.3008135  36.0622995  65.6590411  52.1446852
  36.5054141  64.9097736  51.7465975  35.1849506  65.6500548  51.7620584
  31.1958777  72.2120753  47.6253450  31.8909681  72.8327445  47.8440765
  31.5381927  71.3616104  47.9005828  16.8126586  64.0338554  61.4850268
  16.0708322  64.1821189  62.0714898  16.4919330  64.2946819  60.6217017
  33.0950200  69.6620458  49.1540781  33.6201524  70.0007731  48.4290101
  33.0072552  68.7267474  48.9703916  24.7570248  73.5754532  61.2830658
  25.0657375  73.3303679  62.1553357  25.5545731  73.7801170  60.7949528
  24.7790861  75.7292442  53.5136034  24.3395851  75.2368820  54.2068891
  25.5298977  75.1865409  53.2728110  17.2583200  71.9203982  53.5160662
  18.0841219  71.6207754  53.1359306  16.9077252  71.1511605  53.9650451
  22.2264733  71.2730451  55.5858336  21.6044742  70.6101156  55.2860564
  22.8969600  71.2991582  54.9031984  15.4591805  69.8390309  54.4749596
  14.6223713  69.4112483  54.2933597  15.4315450  70.0322752  55.4120387
  22.2989260  59.7512239  65.1790842  22.3477416  60.6274361  64.7968612
  22.8411774  59.2089632  64.6062485  32.7844106  70.2953362  64.4591979
  31.9939650  70.2777501  63.9196479  32.5477460  70.8341656  65.2141016
  32.9041981  67.1445828  61.7724708  32.9539986  66.9795836  62.7140230
  32.7955904  66.2773087  61.3822588  21.7878240  69.8234374  49.0616797
  21.9366360  70.5069838  48.4083469  22.5944683  69.8039464  49.5766252
  30.1945743  63.1276756  63.0884014  31.0955606  62.9883221  62.7968012
  30.2693718  63.2931211  64.0282192  24.5288549  60.5043611  61.9337201
  23.6591858  60.7977177  61.6619789  24.7648029  61.0884056  62.6544464
  34.4060178  69.5642770  62.0166729  34.1144986  69.9272750  62.8530190
  33.7932309  68.8509778  61.8380061  35.6055860  67.1295650  54.5369299
  36.4402751  67.5685454  54.7006860  35.7414989  66.6534303  53.7177545
  32.6547366  64.6875384  60.4846787  33.1301488  64.8803031  59.6765639
  31.7312931  64.7434570  60.2390171  19.5430873  65.8499552  50.0677865
  19.2976915  64.9461882  50.2658076  19.7126787  65.8516702  49.1257343
  27.2327582  56.7223228  59.4502621  27.7509526  57.4584255  59.1249110
  26.8782715  57.0287221  60.2849380  18.8126520  61.5827909  47.5664027
  18.1195765  61.6572264  46.9104063  18.5678272  60.8188253  48.0885544
  27.4840177  53.1423510  54.9703518  27.7641930  52.4746700  55.5963944
  28.2690784  53.3352606  54.4578182  25.2873645  72.3182504  46.5328544
  24.7147612  72.9372692  46.0799016  25.8606439  72.8681866  47.0668466
  31.3549035  61.5641144  58.7175093  32.3066458  61.6639242  58.7387317
  31.1852485  60.7719413  59.2273177  29.3763414  58.6496728  58.9034494
  28.7813347  58.9301740  58.2080982  29.0913111  59.1390629  59.6751235
  28.5070905  72.6019655  47.6637126  29.4401578  72.5365216  47.8670002
  28.4194118  73.4375921  47.2051659  31.1358922  71.9185525  44.6241074
  31.0572553  71.5845388  45.5176832  31.9568588  72.4107293  44.6232546
  33.8337113  64.7847264  57.8317392  33.8013433  63.8463265  58.0177076
  34.4437736  64.8631301  57.0983217  25.6720444  63.6543317  43.8744596
  26.6179548  63.5249525  43.9433015  25.2934689  62.9157979  44.3514025
  33.9831601  61.5758308  57.8775676  33.4670650  60.7916764  57.6905604
  34.8671550  61.2477024  58.0422195  31.6442328  55.3199323  53.8371488
  31.4467149  55.0114411  54.7214820  32.2542034  56.0460962  53.9669418
  39.6513663  65.8463271  56.9723429  40.3817051  65.5848559  57.5331133
  39.0420608  65.1091993  57.0125497  37.7328960  63.9871134  57.5697880
  37.0062123  63.8527099  56.9614372  37.3176247  64.2947962  58.3754598
  25.5559136  67.7061063  65.3345253  26.4762146  67.8839662  65.5285300
  25.5208719  66.7617109  65.1824953  23.8563361  61.5793294  43.8099482
  22.9494816  61.2826406  43.8862195  24.1339342  61.2823112  42.9433768
  14.7741301  62.8999657  54.2598528  14.4544086  62.0464965  53.9672902
  14.2274729  63.1148235  55.0156495  18.5521209  65.6162098  57.9768035
  18.7707218  66.5479206  57.9956068  18.9646983  65.2570072  58.7622838
  25.4725427  56.1230183  49.9643723  24.6626155  55.7777268  50.3398969
  26.1609843  55.8137727  50.5531335  27.4015975  55.2008230  51.5868020
  27.9547013  55.6203683  52.2458043  27.6386061  54.2743978  51.6290976
  23.4249074  61.1895304  67.3670784  23.3245801  62.1389661  67.2982875
  23.2070616  60.8613543  66.4946854  22.6262145  58.4380229  43.9511461
  23.4881309  58.7635127  44.2107278  22.8112490  57.6511725  43.4384527
  14.6429561  66.5202568  56.2291650  13.9493033  66.1056521  55.7161604
  15.3902552  66.5623105  55.6325069  30.7794782  57.3108755  51.0946684
  30.1993451  57.9693559  50.7124736  30.5130715  56.4886100  50.6834101
  29.2298348  56.7113813  53.2968004  29.7298127  56.8230347  52.4882323
  29.8733956  56.4074866  53.9368813  23.2880344  64.6192443  66.1835845
  22.8047426  65.4192803  66.3899734  23.3741283  64.6300387  65.2303289
  16.5566304  66.4520822  54.1057665  16.5336992  66.5508509  53.1539548
  16.8666940  67.2985973  54.4274831  19.2153682  68.5096977  58.2204279
  20.1696935  68.4780920  58.1534211  19.0166205  68.0487601  59.0354505
  19.8053064  67.0798093  60.7875077  20.6245953  67.5742172  60.8109914
  20.0789871  66.1630061  60.7592644  29.5619660  59.4708846  50.1503032
  28.6745515  59.7558496  49.9323227  29.9773649  59.3102609  49.3030309
  32.9134196  59.4955367  53.8657371  33.6894586  59.9851819  54.1381988
  32.1882330  59.9213421  54.3229241  35.3506755  60.2082986  54.9231312
  35.9451245  59.9678722  54.2124620  35.4233338  59.4890116  55.5504848
  17.5703910  74.0516597  55.2374477  17.4358378  73.2916998  54.6712475
  17.1535973  74.7757497  54.7703266  28.7062873  69.2353520  44.2451052
  29.4098723  69.4403523  44.8608708  27.9825522  69.8030282  44.5100136
  29.5360684  64.9863382  50.3653322  29.4795885  65.4431933  49.5260955
  30.0889026  64.2254066  50.1876165  33.3465490  60.7753113  51.1903442
  33.0902424  60.3749749  52.0211650  32.7218358  61.4896907  51.0653581
  37.6577827  63.5149187  53.6974733  37.0977385  63.5842376  54.4706295
  37.0521331  63.3390171  52.9774229  20.7273036  74.9485914  55.4492919
  20.6105420  75.8931346  55.3471610  19.9065482  74.6459475  55.8378719
  30.6149571  69.6736049  46.2949512  31.4495175  69.2417248  46.1126987
  30.4533914  69.5018063  47.2226407  30.2695463  66.1768163  47.6605852
  30.2144267  66.0112434  46.7194296  29.6441518  66.8844196  47.8168041
  15.0587978  61.4136227  61.4867274  15.7046842  60.9035181  61.9754499
  14.8505129  62.1504909  62.0610699  27.5841370  68.4817075  66.9859414
  28.4532530  68.6557727  66.6246049  27.1048122  69.3011491  66.8635144
  23.5791588  55.6776272  47.2391170  23.5670258  56.6218112  47.3959441
  24.4715010  55.4946417  46.9450631  21.7527550  75.6014176  58.6648848
  22.6554797  75.6337786  58.9815343  21.5264920  74.6714627  58.6795184
  23.5081152  74.3545162  55.3258927  22.5576783  74.3547024  55.2123299
  23.8113639  73.6077897  54.8094961  27.3943708  52.2719048  51.4937107
  26.6276104  51.7177535  51.6393789  27.8054413  52.3440917  52.3551258
  19.3985469  58.5603844  65.5842288  20.2616930  58.2040649  65.7945613
  18.8250880  58.2217739  66.2717692  39.2433846  80.1905701  56.3904689
  39.8812256  80.0712448  55.6868029  39.1254689  81.1386545  56.4492641
  36.0523552  80.1433129  56.3266214  35.7142064  80.0274193  55.4386748
  36.9213320  79.7424294  56.3067220  31.9110368  81.9968605  52.3163105
  31.3475233  81.9058542  51.5479392  31.7962763  81.1768510  52.7965597
  36.5343335  81.2967980  62.2852419  36.5231976  80.9020779  61.4132923
  36.6963975  80.5634053  62.8786191  34.1806803  81.4581941  57.8232963
  34.7770375  81.2337963  57.1089926  34.2381775  80.7166686  58.4258411
  33.7531832  78.9121376  45.6583154  34.0057352  78.3902897  44.8966617
  32.8156391  78.7487522  45.7609837  38.7975114  77.9157154  53.4657897
  39.5838204  77.4976578  53.1148314  39.0613819  78.8203247  53.6339545
  38.9685192  83.3530005  48.1646554  38.3331025  83.4264631  48.8767458
  38.6382598  83.9423604  47.4865633  44.1983541  77.8532388  54.3690875
  44.9308713  77.2831604  54.6028705  43.4422897  77.4653988  54.8097381
  33.4728120  80.8149482  47.8607529  33.3564378  80.1394385  48.5288613
  33.5830380  80.3281856  47.0439682  35.8159661  80.2759629  51.5654218
  35.4517868  79.7490250  52.2767139  36.6726777  79.8858098  51.3920703
  41.7208962  71.5653962  58.8285484  41.3892287  72.4349373  58.6046699
  41.1254575  71.2490246  59.5079514  35.4565148  75.3049529  46.5615566
  35.6239551  76.1729765  46.9286038  35.2662317  75.4676811  45.6376856
  31.6652963  80.2180305  54.2618101  30.7403459  80.0856519  54.4695793
  31.9137376  80.9974524  54.7588044  41.6137625  76.2849048  55.9078834
  40.7054502  76.2164456  55.6137595  41.5625221  76.7620993  56.7360660
  35.4354369  77.7607186  47.5462233  35.3153994  78.2064237  48.3847714
  34.7406957  78.1092504  46.9875771  29.0261774  79.8613578  55.0961890
  29.1554155  80.1148057  56.0101302  28.3459225  80.4541286  54.7766545
  35.6878491  77.7038693  63.8513731  34.9111825  78.2632614  63.8416596
  36.3269054  78.1895476  64.3728602  43.4799272  74.4865486  57.6856708
  42.8373652  74.7798019  57.0396503  42.9754200  74.3718407  58.4909905
  41.1339435  78.2328659  48.3742567  42.0457291  78.4656046  48.1990265
  40.6249082  78.8165704  47.8117646  33.9424863  80.5124147  63.4131698
  34.6839548  81.0509191  63.1366522  33.2361849  81.1390436  63.5703250
  39.4180203  82.6553287  62.0103860  39.8263559  82.2135698  61.2658492
  38.6957464  82.0805915  62.2638053  35.7711273  77.5925894  59.3837417
  36.6172468  78.0165308  59.5272066  35.7109911  76.9359518  60.0775980
  39.7409018  83.2154478  55.7656149  39.1117880  83.3800192  55.0632217
  39.3534680  83.6296087  56.5367113  43.6198249  84.1508916  53.1200513
  42.9349288  84.5307817  52.5697546  43.7042099  84.7604242  53.8532460
  38.9210718  75.2530262  61.0418590  38.6771650  76.0072323  60.5052866
  39.1970649  75.6315610  61.8765838  40.8749181  81.7968875  59.7195856
  41.0866076  82.4400635  59.0430237  40.8278929  80.9631191  59.2517786
  38.4775410  74.4086695  56.6232428  37.6159889  74.7067949  56.9149166
  38.5037845  74.6257094  55.6913461  35.2936979  82.9528886  53.0306234
  35.7575325  83.2316589  52.2410856  35.0293778  82.0512331  52.8479325
  34.2305865  79.0752038  49.8395799  34.9329909  79.5273082  50.3069725
  33.8986494  78.4335857  50.4675692  32.6786227  77.6663795  64.2147008
  32.0484888  78.3480076  64.4482405  32.5722315  77.5546877  63.2700147
  27.9731199  77.3335591  55.1412933  27.1830253  77.5893120  54.6653043
  28.4642447  78.1483929  55.2464973  41.9895009  84.6740830  57.8918213
  42.8112453  84.2721018  57.6100895  41.9857412  84.5709064  58.8434329
  29.9245945  77.6980170  52.0996409  29.1277108  77.8098865  52.6179905
  29.6971537  78.0366823  51.2337300  26.2568902  77.5866082  57.5727923
  26.5076941  78.4713091  57.8385499  26.7928451  77.4070683  56.8003015
  50.0801002  81.0179579  54.2403185  49.3264710  80.4486977  54.0847189
  50.2148543  80.9842243  55.1873820  31.9566970  71.9684561  66.5772259
  31.5633915  71.4150759  67.2519904  32.7733110  72.2795139  66.9678777
  34.8734931  73.3842440  64.1692516  35.6144644  73.9849593  64.0896979
  35.1052854  72.6420078  63.6110559  30.0176269  78.5698807  62.4470746
  29.9029784  77.6684064  62.7477845  29.1620786  78.8162504  62.0955562
  38.8192094  69.4123543  58.4456798  38.4756363  70.3025185  58.3695908
  39.1871056  69.2225201  57.5826383  38.7842376  79.4032154  46.9529233
  38.2689000  80.1736759  47.1917620  38.5119685  78.7297290  47.5762294
  36.3689487  74.2481855  52.0114471  35.5131084  73.8588705  51.8320110
  36.7816439  74.3273816  51.1514257  37.8988634  71.7828198  56.4106031
  37.3953430  71.7458333  55.5973836  38.1919241  72.6920941  56.4702688
  34.1431520  71.8666928  55.4172213  35.0084517  71.6709736  55.0578102
  34.2109029  71.6377280  56.3441569  43.7576650  82.1564509  48.8882406
  42.9806093  81.8175668  48.4437568  44.4368131  82.1617132  48.2137371
  38.5728680  77.2759246  48.7789014  38.2678815  77.5905395  49.6299157
  39.5259122  77.3540666  48.8216347  41.9967957  81.6298490  55.5449014
  41.3391632  82.3197751  55.6329143  42.8008357  82.0194922  55.8883001
  31.7493839  74.0969136  52.7888580  32.3237591  73.8744317  52.0561772
  32.3364821  74.1657830  53.5417181  40.8073416  79.9842863  53.5952956
  41.3205298  80.6172854  54.0974666  41.4574640  79.3844058  53.2296316
  32.0763426  76.1273597  46.8084465  31.2400738  76.4648283  47.1293739
  31.9368196  75.9922577  45.8711602  34.0516507  70.9710385  51.5163649
  33.3980919  70.6559402  50.8920264  34.0096981  70.3486125  52.2423472
  35.1627712  81.2529680  43.4316941  34.2554773  81.0218933  43.6308090
  35.6598744  80.4567299  43.6190923  37.2854247  77.4592318  55.8411297
  36.3676808  77.6807265  55.6832985  37.7014391  77.5338629  54.9823004
  38.0689295  78.8583734  50.9713977  38.8161114  79.3705131  50.6621099
  38.3380884  78.5367787  51.8318370  36.3415945  81.3542275  47.9540931
  35.4327164  81.0701307  48.0513401  36.3711029  81.7741353  47.0944238
  41.5735212  84.9648864  51.7232099  41.1197540  84.1239774  51.7797289
  40.9429179  85.6010262  52.0606879  40.5168132  75.8940850  52.9532766
  39.7790889  75.3818236  53.2843009  40.7694906  75.4541232  52.1416043
  40.6179759  68.6717102  53.5474535  40.9238636  67.8114466  53.2600450
  41.3432364  69.2634722  53.3473529  26.9104115  79.0747789  51.9356133
  26.7128515  78.4817149  51.2107200  26.3550779  78.7699999  52.6532072
  34.8900839  78.9670895  54.0550726  34.9449449  78.0144732  53.9793203
  34.0792041  79.1230334  54.5392025  36.0392033  82.8951018  45.2929010
  35.6011463  82.1786877  44.8334647  36.7802474  83.1227133  44.7314101
  32.8293199  77.5847955  51.8141105  32.0161064  77.8842125  52.2206297
  33.3252193  77.1903644  52.5315588  38.4267411  78.0489779  60.6455999
  38.7816798  78.2761253  61.5050465  39.0739542  78.3808156  60.0233255
  44.1565148  81.1708215  51.3505328  44.0183046  81.3609811  50.4226517
  43.8001366  81.9327598  51.8073379  32.3207274  75.1566310  57.4302340
  32.9606653  75.0155070  56.7325304  31.4884804  74.8700824  57.0540942
  44.1834527  83.2384742  56.3616600  44.6171034  83.1460031  57.2099654
  44.8966108  83.2142243  55.7236616  29.4050341  78.6011823  49.6197085
  28.4747929  78.5396278  49.8367048  29.5007813  78.0787775  48.8233727
  29.3235890  75.1266635  52.2075327  29.5842707  76.0411969  52.0984488
  30.1453062  74.6591078  52.3571940  30.7960815  76.5404393  59.3774152
  31.4683869  76.3321755  58.7286801  29.9690602  76.3426479  58.9379384
  45.0450077  83.2808443  58.8949485  45.2385967  84.1854253  59.1408760
  44.9450695  82.8215862  59.7288070  36.6986387  73.1666334  61.3939812
  36.0514303  73.8656283  61.3004289  37.4687403  73.6002477  61.7616061
  40.1065185  83.4315186  64.4690366  39.9550692  83.2025737  63.5520449
  40.0969865  84.3885787  64.4821711  36.8750522  81.0047098  59.4536632
  37.8042582  81.1558258  59.2805600  36.4541552  81.0931119  58.5985279
  31.1988313  79.8146996  60.1376589  31.0608111  79.0827234  60.7388128
  32.1093236  79.7255896  59.8560777  40.1603260  81.7535400  44.8861067
  39.5432431  81.0282228  44.7894120  39.6919749  82.5144760  44.5428142
  33.8270613  79.5266955  59.6260268  34.5370232  78.8860147  59.5846887
  33.7839922  79.7779850  60.5486449  32.5399547  76.5132173  61.4455908
  32.0036904  76.0622911  62.0977504  31.9516256  76.6478082  60.7026372
  31.9501806  75.9720824  44.0082372  31.0731273  75.8509625  43.6444618
  32.4259559  75.1806902  43.7561260  41.8174799  84.4273892  60.7780827
  40.9301578  84.0899814  60.9007226  42.3873350  83.6956923  61.0149593
  28.2738669  75.6488180  58.5308902  28.1896857  75.0413850  57.7959312
  27.4521375  76.1397199  58.5318399  38.4462382  74.1341744  53.8979097
  38.9431082  73.3811706  53.5780168  37.6749364  74.1706061  53.3322307
  46.2992140  79.8382110  55.5397389  46.2882016  80.7206825  55.1691322
  45.4309519  79.4853660  55.3451926  39.5292163  82.8913431  51.4717521
  38.5948442  83.0114894  51.3022225  39.7068832  81.9885898  51.2077531
  35.0297351  76.2759127  53.6250782  34.6595139  75.7230167  54.3131688
  35.5256444  75.6717260  53.0725782  42.9164715  78.7330750  52.0067555
  43.3825167  79.5658742  51.9327858  43.3672215  78.2675732  52.7112813
  40.9840946  85.0774572  49.0053707  41.2600790  84.9631166  49.9147581
  40.1145444  84.6792057  48.9665880  40.8881377  71.1011337  56.0458456
  39.9744457  71.3315564  56.2140663  41.3174479  71.1849782  56.8972489
  40.6587836  79.2901229  58.5458350  40.0059286  79.5377137  57.8910803
  41.0368216  78.4765368  58.2120828  36.7075409  80.0321041  65.0324387
  36.0316046  79.9315170  65.7026763  37.5303043  79.8760254  65.4960385
  23.0471923  78.8398577  56.3741346  23.0856022  78.3062168  57.1678464
  22.5412215  78.3133783  55.7552323  30.4262685  73.6863118  59.8703888
  30.4904011  74.5477949  59.4581286  30.3629805  73.0737119  59.1376247
  29.9014957  75.7586250  63.5176922  30.5286996  75.3763328  64.1314447
  29.0442876  75.5400452  63.8832615  26.6780500  77.5662679  49.4495277
  26.9733941  76.6573358  49.3962331  25.7768536  77.5450419  49.1276280
  30.2074747  75.6418676  55.4322826  29.4861333  76.2554644  55.2930299
  30.9968003  76.1776441  55.3539472  33.0101061  72.9773102  61.7063478
  33.5335463  73.2235399  62.4689787  32.7913394  73.8093137  61.2866615
  28.4068342  75.2476777  49.5734602  28.0781048  74.3674156  49.3909708
  28.7607712  75.1924446  50.4610992  31.5210165  75.5349747  49.9410080
  31.8606237  76.0635668  49.2188688  31.9682285  75.8730153  50.7168647
  34.2153606  73.9186798  59.3913148  33.8750426  73.1194611  59.7933828
  33.5092612  74.2188508  58.8189981  34.8670078  71.0036110  57.8440471
  35.6896147  70.5296588  57.7219361  35.1108141  71.7826594  58.3439157
  33.5078312  74.0324368  48.1403373  34.2286675  74.4105621  47.6367090
  32.8843616  74.7513245  48.2438351  37.6509435  74.7369517  49.0761705
  37.8673049  75.6194155  48.7750533  37.1703502  74.3455731  48.3467347
  32.3908656  77.6955231  55.6532450  32.2453237  78.0095534  56.5456731
  31.9133860  78.3140131  55.1003348  34.2505039  74.6857779  55.7013339
  34.2366608  73.7898872  55.3645637  34.9677467  74.6928442  56.3351625
  36.1031170  75.1195119  57.7466467  35.8448948  76.0412189  57.7450797
  35.5716210  74.7225553  58.4366931  33.6541935  73.5672159  50.9700909
  33.7757846  72.6388805  51.1691797  33.3643977  73.5810845  50.0579225
  36.5233126  71.2527069  54.1067629  36.5454822  71.3166402  53.1519609
  36.9401185  70.4131578  54.3008135  46.9016750  80.9882329  52.1446852
  47.3447896  80.2389654  51.7465975  46.0243260  80.9792465  51.7620584
  27.6520340  79.3630471  61.4850268  26.9102076  79.5113107  62.0714898
  27.3313085  79.6238737  60.6217017  43.9343954  84.9912376  49.1540781
  44.4595278  85.3299649  48.4290101  43.8466307  84.0559391  48.9703916
  33.1383015  75.0804156  65.1790842  33.1871170  75.9566279  64.7968612
  33.6805529  74.5381549  64.6062485  43.6237860  85.6245280  64.4591979
  42.8333404  85.6069418  63.9196479  43.3871215  86.1633573  65.2141016
  43.7435735  82.4737746  61.7724708  43.7933740  82.3087753  62.7140230
  43.6349659  81.6065005  61.3822588  41.0339498  78.4568674  63.0884014
  41.9349361  78.3175139  62.7968012  41.1087472  78.6223129  64.0282192
  35.3682303  75.8335529  61.9337201  34.4985613  76.1269095  61.6619789
  35.6041783  76.4175974  62.6544464  45.2453932  84.8934687  62.0166729
  44.9538741  85.2564668  62.8530190  44.6326064  84.1801696  61.8380061
  46.4449615  82.4587567  54.5369299  47.2796506  82.8977371  54.7006860
  46.5808743  81.9826220  53.7177545  43.4941120  80.0167302  60.4846787
  43.9695242  80.2094948  59.6765639  42.5706686  80.0726488  60.2390171
  30.3824627  81.1791469  50.0677865  30.1370669  80.2753799  50.2658076
  30.5520542  81.1808620  49.1257343  38.0721337  72.0515146  59.4502621
  38.5903281  72.7876173  59.1249110  37.7176470  72.3579139  60.2849380
  29.6520275  76.9119827  47.5664027  28.9589520  76.9864182  46.9104063
  29.4072027  76.1480170  48.0885544  38.3233931  68.4715428  54.9703518
  38.6035685  67.8038617  55.5963944  39.1084538  68.6644524  54.4578182
  42.1942789  76.8933062  58.7175093  43.1460212  76.9931160  58.7387317
  42.0246240  76.1011331  59.2273177  40.2157169  73.9788645  58.9034494
  39.6207101  74.2593658  58.2080982  39.9306866  74.4682546  59.6751235
  44.6730867  80.1139182  57.8317392  44.6407187  79.1755183  58.0177076
  45.2831491  80.1923219  57.0983217  36.5114198  78.9835235  43.8744596
  37.4573303  78.8541443  43.9433015  36.1328443  78.2449897  44.3514025
  44.8225356  76.9050225  57.8775676  44.3064404  76.1208682  57.6905604
  45.7065304  76.5768942  58.0422195  42.4836083  70.6491241  53.8371488
  42.2860904  70.3406329  54.7214820  43.0935788  71.3752880  53.9669418
  50.4907417  81.1755189  56.9723429  51.2210806  80.9140477  57.5331133
  49.8814363  80.4383911  57.0125497  48.5722714  79.3163051  57.5697880
  47.8455878  79.1819016  56.9614372  48.1570001  79.6239880  58.3754598
  36.3952891  83.0352981  65.3345253  37.3155900  83.2131580  65.5285300
  36.3602474  82.0909026  65.1824953  34.6957115  76.9085211  43.8099482
  33.7888571  76.6118324  43.8862195  34.9733096  76.6115029  42.9433768
  25.6135056  78.2291575  54.2598528  25.2937840  77.3756883  53.9672902
  25.0668484  78.4440153  55.0156495  36.3119181  71.4522101  49.9643723
  35.5019909  71.1069186  50.3398969  37.0003598  71.1429645  50.5531335
  38.2409729  70.5300148  51.5868020  38.7940768  70.9495601  52.2458043
  38.4779816  69.6035896  51.6290976  34.2642829  76.5187221  67.3670784
  34.1639555  77.4681578  67.2982875  34.0464371  76.1905460  66.4946854
  33.4655900  73.7672146  43.9511461  34.3275064  74.0927045  44.2107278
  33.6506244  72.9803642  43.4384527  41.6188536  72.6400673  51.0946684
  41.0387205  73.2985477  50.7124736  41.3524469  71.8178017  50.6834101
  40.0692103  72.0405731  53.2968004  40.5691881  72.1522265  52.4882323
  40.7127711  71.7366783  53.9368813  34.1274099  79.9484360  66.1835845
  33.6441180  80.7484720  66.3899734  34.2135038  79.9592305  65.2303289
  40.4013414  74.8000763  50.1503032  39.5139269  75.0850414  49.9323227
  40.8167403  74.6394527  49.3030309  43.7527951  74.8247284  53.8657371
  44.5288341  75.3143737  54.1381988  43.0276085  75.2505338  54.3229241
  46.1900509  75.5374903  54.9231312  46.7845000  75.2970639  54.2124620
  46.2627093  74.8182034  55.5504848  40.3754438  80.3155299  50.3653322
  40.3189640  80.7723851  49.5260955  40.9282781  79.5545984  50.1876165
  44.1859244  76.1045031  51.1903442  43.9296178  75.7041667  52.0211650
  43.5612112  76.8188825  51.0653581  48.4971582  78.8441104  53.6974733
  47.9371140  78.9134294  54.4706295  47.8915085  78.6682089  52.9774229
  41.4543325  85.0027967  46.2949512  42.2888929  84.5709166  46.1126987
  41.2927668  84.8309981  47.2226407  41.1089217  81.5060080  47.6605852
  41.0538021  81.3404352  46.7194296  40.4835273  82.2136113  47.8168041
  25.8981732  76.7428145  61.4867274  26.5440596  76.2327099  61.9754499
  25.6898884  77.4796826  62.0610699  38.4235125  83.8108992  66.9859414
  39.2926284  83.9849645  66.6246049  37.9441876  84.6303409  66.8635144
  34.4185343  71.0068189  47.2391170  34.4064013  71.9510029  47.3959441
  35.3108765  70.8238335  46.9450631  38.2337462  67.6010966  51.4937107
  37.4669858  67.0469453  51.6393789  38.6448167  67.6732835  52.3551258
  30.2379223  73.8895762  65.5842288  31.1010685  73.5332567  65.7945613
  29.6644634  73.5509657  66.2717692  52.5602716  86.8945879  58.8285484
  52.2286041  87.7641290  58.6046699  51.9648330  86.5782163  59.5079514
  54.3193026  89.8157404  57.6856708  53.6767406  90.1089937  57.0396503
  53.8147955  89.7010324  58.4909905  49.6585848  84.7415461  58.4456798
  49.3150118  85.6317102  58.3695908  50.0264811  84.5517118  57.5826383
  48.7382389  87.1120116  56.4106031  48.2347184  87.0750251  55.5973836
  49.0312995  88.0212858  56.4702688  44.8910261  86.3002302  51.5163649
  44.2374674  85.9851319  50.8920264  44.8490735  85.6778043  52.2423472
  51.4573514  84.0009020  53.5474535  51.7632391  83.1406383  53.2600450
  52.1826119  84.5926640  53.3473529  51.7275132  86.4303255  56.0458456
  50.8138212  86.6607482  56.2140663  52.1568233  86.5141699  56.8972489
  45.7063832  86.3328028  57.8440471  46.5289901  85.8588506  57.7219361
  45.9501896  87.1118511  58.3439157  47.3626880  86.5818987  54.1067629
  47.3848577  86.6458320  53.1519609  47.7794939  85.7423496  54.3008135
  48.9115091  87.3807063  59.4502621  49.4297035  88.1168090  59.1249110
  48.5570224  87.6871057  60.2849380  49.1627686  83.8007346  54.9703518
  49.4429439  83.1330535  55.5963944  49.9478293  83.9936441  54.4578182
  53.3229837  85.9783159  53.8371488  53.1254658  85.6698247  54.7214820
  53.9329543  86.7044797  53.9669418  47.1512935  86.7814019  49.9643723
  46.3413664  86.4361104  50.3398969  47.8397352  86.4721562  50.5531335
  49.0803484  85.8592065  51.5868020  49.6334522  86.2787519  52.2458043
  49.3173570  84.9327814  51.6290976  52.4582291  87.9692591  51.0946684
  51.8780960  88.6277395  50.7124736  52.1918224  87.1469935  50.6834101
  50.9085857  87.3697648  53.2968004  51.4085636  87.4814183  52.4882323
  51.5521465  87.0658701  53.9368813  49.0731217  82.9302884  51.4937107
  48.3063613  82.3761370  51.6393789  49.4841922  83.0024753  52.3551258
   6.7252584  11.2092070  43.1149996   7.3630994  11.0898817  42.4113336
   6.6073427  12.1572914  43.1737948   3.5342290  11.1619498  43.0511520
   3.1960801  11.0460563  42.1632055   4.4032058  10.7610663  43.0312526
   4.0162073  12.3154350  49.0097726   4.0050714  11.9207148  48.1378229
   4.1782712  11.5820423  49.6031497   4.9728664  16.6825942  34.3522876
   4.3216644  17.2680023  33.9656890   5.7673027  17.2132137  34.4117914
   0.7369334  15.0991462  47.9576910   0.4459200  16.0037093  47.8423576
   1.3726318  15.1407989  48.6720979   1.6625541  12.4768310  44.5478269
   2.2589113  12.2524333  43.8335232   1.7200512  11.7353056  45.1503717
   6.2793852   8.9343524  40.1903204   7.0656941   8.5162947  39.8393621
   6.5432556   9.8389616  40.3584852   6.4503929  14.3716374  34.8891860
   5.8149762  14.4451001  35.6012765   6.1201336  14.9609973  34.2110940
  11.6802279   8.8718757  41.0936182  12.4127451   8.3017974  41.3274012
  10.9241635   8.4840358  41.5342688   3.2978399  11.2945999  38.2899525
   2.9336606  10.7676620  39.0012446   4.1545515  10.9044468  38.1166010
   5.6959219  14.7852877  44.9526703   5.3959942  15.6877916  44.8442511
   5.3510279  14.5185060  45.8047856   9.0956363   7.3035417  42.6324141
   8.1873240   7.2350826  42.3382902   9.0443959   7.7807362  43.4605966
   8.6158173   9.2515029  35.0987874   9.5276029   9.4842416  34.9235572
   8.1067820   9.8352073  34.5362953   6.8998941  13.6739657  48.7349167
   7.3082297  13.2322067  47.9903799   6.1776202  13.0992284  48.9883359
   7.2227755  14.2340848  42.4901455   6.5936618  14.3986562  41.7877523
   6.8353417  14.6482457  43.2612419  11.1016987  15.1695285  39.8445819
  10.4168025  15.5494187  39.2942852  11.1860837  15.7790612  40.5777767
   8.3567919  12.8155244  46.4441163   8.5684814  13.4587004  45.7675544
   8.3097667  11.9817561  45.9763093   2.7755717  13.9715256  39.7551541
   3.2394063  14.2502959  38.9656163   2.5112515  13.0698700  39.5724631
   9.4713747  15.6927200  44.6163520  10.2931190  15.2907387  44.3346202
   9.4676150  15.5895434  45.5679636   3.2370350  15.2411243  46.7724231
   3.3014783  15.7031650  47.6082402   2.5281274  14.6108608  46.9006540
  17.5619740  12.0365948  40.9648492  16.8083448  11.4673346  40.8092496
  17.6967281  12.0028613  41.9119126   2.9518368  16.9079351  36.6403211
   2.8164043  17.7530886  37.0688059   3.4928180  17.1098628  35.8769145
   4.5786844  17.5302917  50.7703553   4.1350698  16.7439296  50.4524457
   5.2404058  17.7182068  50.1047444   6.6768082  17.8105717  48.7984954
   6.6586558  18.6314598  48.3065223   7.5988002  17.6859792  49.0235095
   3.1341136  15.3249847  49.6408463   3.6669473  14.5638135  49.4107771
   2.6055218  15.0323498  50.3832617   6.2661114  10.4218524  33.6774539
   5.7507738  11.1923128  33.9162927   5.9938423   9.7483660  34.3007601
  11.2395388  13.1750878  35.6127713  10.4624831  12.8362038  35.1682875
  11.9186869  13.1803501  34.9382678   4.4993849  14.4535839  37.1527275
   3.9715211  13.7188599  36.8400512   3.9981352  15.2310515  36.9067243
   9.4786695  12.6484859  42.2694321   8.8210370  13.3384121  42.3574450
  10.2827094  13.0381291  42.6128307   8.2892154  11.0029232  40.3198263
   8.8024036  11.6359224  40.8219972   8.9393378  10.4030428  39.9541623
   2.6446449  12.2716049  30.1562248   1.7373511  12.0405303  30.3553397
   3.1417481  11.4753669  30.3436229   5.5514528  20.9813556  33.0758934
   4.8776227  21.2845253  33.6843892   5.9380350  21.7842637  32.7264391
   5.5508033   9.8770103  37.6959283   6.2979852  10.3891501  37.3866406
   5.8199622   9.5554156  38.5563677   3.8234683  12.3728644  34.6786238
   2.9145902  12.0887677  34.7758707   3.8529767  12.7927723  33.8189545
   9.0553950  15.9835234  38.4477405   8.6016277  15.1426144  38.5042596
   8.4247917  16.6196632  38.7852185   7.4986889  17.8211730  39.3827223
   7.7909864  18.3816787  38.6639589   8.0085510  18.1140291  40.1380383
   3.5210771  13.9137388  32.0174316   3.0830201  13.1973247  31.5579954
   4.2621211  14.1413503  31.4559408   2.4620515  18.5992081  40.4720677
   2.4196693  18.8252928  39.5429209   3.3783213  18.3655456  40.6206478
   5.9086148   9.0676149  47.3701306   6.2635536   9.2947622  48.2295772
   6.5558280   9.3994526  46.7478561  11.6383885  12.1894585  38.0750635
  11.5001784  12.3796181  37.1471824  11.2820104  12.9513968  38.5318686
  11.6653265  14.2571112  43.0861906  12.0989772  14.1646401  43.9344960
  12.3784846  14.2328612  42.4481922   5.3981160  17.8573206  44.6195007
   5.4518182  18.4264142  45.3872723   4.5295941  18.0275091  44.2549044
  12.5268815  14.2994812  45.6194792  12.7204705  15.2040623  45.8654067
  12.4269433  13.8402232  46.4533377   7.5883923  14.4501555  51.1935672
   7.4369430  14.2212107  50.2765756   7.5788603  15.4072157  51.2067017
   4.3569260  12.0233468  46.1781939   5.2861320  12.1744628  46.0050906
   3.9360290  12.1117489  45.3230585   3.1557591  16.0484132  43.9480476
   3.0168677  15.6802917  44.8206415   2.3672188  16.5631772  43.7764434
   3.7505743  21.1493229  35.2906013   3.9257499  20.6781272  36.1051636
   3.0638531  21.7758995  35.5187274   4.7062807  15.4265735  41.3369314
   4.3712639  15.3866505  42.2326964   4.2066752  14.7610451  40.8639724
   7.6421998  12.7721769  31.6106374   7.0251169  12.0468598  31.5139427
   7.1738487  13.5331130  31.2673448   9.2976130  17.4820678  49.2712154
   9.2388676  16.7979898  48.6042737   9.6995648  18.2239668  48.8192780
   9.2993537  15.4460262  47.5026134   8.4120316  15.1086184  47.6252533
   9.8692088  14.7143293  47.7394899   2.8294691  20.1061714  44.4687377
   2.7564862  20.9116686  44.9806682   2.3872084  20.3053680  43.6435399
   2.6184470  19.3433484  37.9790199   1.8351992  19.8855164  38.0728423
   3.3177215  19.8607464  38.3784440  13.7810878  10.8568479  42.2642696
  13.7700754  11.7393195  41.8936629  12.9128257  10.5040030  42.0697233
   5.2893374  20.0048548  46.6245536   6.0021346  20.6396013  46.5521437
   4.7983403  20.1012414  45.8085538   7.0110901  13.9099801  38.1962827
   6.0767180  14.0301263  38.0267532   7.1887569  13.0072268  37.9322837
  10.3983452   9.7517120  38.7312862  10.8643905  10.5845112  38.6573164
  10.8490953   9.2862102  39.4358120   8.4659683  16.0960941  35.7299014
   8.7419527  15.9817536  36.6392888   7.5964182  15.6978426  35.6911187
   8.1406574  10.3087599  45.2703657   7.4878024  10.5563506  44.6156110
   8.5186953   9.4951737  44.9366134   5.1013747  20.3447292  39.3731827
   5.2836142  19.5268948  39.8359580   5.9246733  20.5614984  38.9356717
   5.4355913  19.2715477  36.6346876   5.9643679  18.7607932  36.0217038
   5.6984133  18.9558008  37.4992409   4.1894147  11.0507410  51.7569694
   3.5134784  10.9501539  52.4272069   5.0121780  10.8946624  52.2205691
   2.9316929  22.3574338  45.9927310   3.4835237  22.5205959  46.7576395
   3.2723123  22.9478775  45.3207335   7.7827804  17.1835595  51.8475964
   8.3267708  17.7965553  51.3530919   7.2014649  17.7415173  52.3642977
   6.0685317  20.3056313  42.9790992   5.9436456  19.5046053  42.4701938
   6.7264408  20.8002506  42.4904962   8.1320225  18.1065333  44.6070542
   7.1850561  17.9870684  44.5348869   8.4802998  17.2187831  44.6896804
   5.1366658  17.9018049  40.8074895   4.9891621  16.9734757  40.9882465
   5.9620152  17.9238140  40.3231970   8.7400780  18.7246608  41.8939767
   9.6647328  18.5189469  41.7564218   8.5716084  18.4763009  42.8029109
   8.5296096  19.2432276  37.2501859   8.7032974  18.6778698  36.4975711
   9.0224988  20.0433170  37.0681349  14.3835488  12.0068698  38.8692158
  14.8266634  11.2576024  38.4711282  13.5061998  11.9978835  38.4865890
   9.5171269  18.5599040  34.3498757  10.2122174  19.1805733  34.5686072
   9.8594419  17.7094391  34.6251135  11.4162692  16.0098745  35.8786088
  11.9414016  16.3486018  35.1535408  11.3285045  15.0745761  35.6949222
   3.0782741  19.9232819  48.0075964   3.3869867  19.6781966  48.8798664
   3.8758223  20.1279458  47.5194835   3.1003353  22.0770729  40.2381341
   2.6608343  21.5847107  40.9314198   3.8511470  21.5343696  39.9973416
  11.1056598  16.6431649  51.1837286  10.3152142  16.6255788  50.6441785
  10.8689953  17.1819943  51.9386322  11.2254473  13.4924115  48.4970014
  11.2752478  13.3274123  49.4385537  11.1168397  12.6251375  48.1067895
   8.5158236   9.4755044  49.8129321   9.4168098   9.3361508  49.5213319
   8.5906210   9.6409498  50.7527498  12.7272670  15.9121057  48.7412036
  12.4357478  16.2751038  49.5775497  12.1144801  15.1988065  48.5625368
  13.9268352  13.4773937  41.2614606  14.7615244  13.9163741  41.4252166
  14.0627481  13.0012590  40.4422852  10.9759858  11.0353672  47.2092094
  11.4513980  11.2281318  46.4010945  10.0525424  11.0912857  46.9635477
   3.6086137  18.6660792  33.2573851   3.0360104  19.2850979  32.8044322
   4.1818931  19.2160153  33.7913773   9.6761527   7.9119432  45.4420399
  10.6278950   8.0117529  45.4632623   9.5064978   7.1197700  45.9518484
   6.8283397  18.9497942  34.3882433   7.7614070  18.8843503  34.5915308
   6.7406610  19.7854209  33.9296966   9.4571414  18.2663812  31.3486380
   9.3785045  17.9323676  32.2422138  10.2781081  18.7585580  31.3477853
  12.1549605  11.1325551  44.5562699  12.1225925  10.1941552  44.7422383
  12.7650229  11.2109588  43.8228524  12.3044094   7.9236595  44.6020982
  11.7883142   7.1395051  44.4150911  13.1884042   7.5955311  44.7667502
  17.9726155  12.1941558  43.6968736  18.7029543  11.9326846  44.2576439
  17.3633100  11.4570280  43.7370804  16.0541452  10.3349421  44.2943187
  15.3274616  10.2005386  43.6859679  15.6388739  10.6426249  45.0999905
   3.8771628  14.0539351  52.0590560   4.7974638  14.2317950  52.2530607
   3.8421211  13.1095396  51.9070259  11.2346688   5.8433654  40.5902678
  12.0107078   6.3330106  40.8627295  10.5094822   6.2691708  41.0474548
  13.6719247   6.5561273  41.6476619  14.2663738   6.3157009  40.9369927
  13.7445831   5.8368404  42.2750155   7.0275366  15.5831807  30.9696359
   7.7311216  15.7881810  31.5854014   6.3038014  16.1508569  31.2345442
   7.8573176  11.3341669  37.0898629   7.8008377  11.7910220  36.2506261
   8.4101518  10.5732353  36.9121472  11.6677982   7.1231401  37.9148748
  11.4114916   6.7228036  38.7456956  11.0430850   7.8375195  37.7898888
  15.9790320   9.8627474  40.4220040  15.4189878   9.9320663  41.1951602
  15.3733823   9.6868458  39.7019536   8.9362063  16.0214337  33.0194819
   9.7707667  15.5895535  32.8372294   8.7746406  15.8496350  33.9471713
   8.5907955  12.5246450  34.3851158   8.5356759  12.3590721  33.4439602
   7.9654011  13.2322483  34.5413348   5.9053862  14.8295362  53.7104721
   6.7745022  15.0036014  53.3491356   5.4260614  15.6489779  53.5880450
   1.8293645  20.7023449  42.0504233   0.8789276  20.7025311  41.9368605
   2.1326131  19.9556184  41.5340268  10.2322860  28.3446892  39.0408411
   9.6687725  28.2536829  38.2724699  10.1175255  27.5246797  39.5210904
  14.8555827  27.6446268  49.0097726  14.8444468  27.2499066  48.1378229
  15.0176467  26.9112340  49.6031497   7.7787292  29.8398084  41.8792632
   8.5708584  29.4988909  41.4638931   8.0183942  29.9493059  42.7994785
  15.8122419  32.0117860  34.3522876  15.1610399  32.5971940  33.9656890
  16.6066782  32.5424055  34.4117914   9.7378046  29.1006997  34.7510010
  10.5108922  28.5535984  34.6122886  10.0903445  29.9651247  34.9624472
  11.5763089  30.4283379  47.9576910  11.2852955  31.3329010  47.8423576
  12.2120073  30.4699907  48.6720979  12.5019295  27.8060228  44.5478269
  13.0982868  27.5816250  43.8335232  12.5594267  27.0644973  45.1503717
  12.0744324  25.2599663  32.3828460  12.3269844  24.7381185  31.6211923
  11.1368883  25.0965809  32.4855144  11.7940613  27.1627769  34.5852835
  11.6776871  26.4872673  35.2533920  11.9042872  26.6760143  33.7684988
  20.0421454  17.9132249  45.5530791  19.7104779  18.7827660  45.3292006
  19.4467067  17.5968533  46.2324821  13.7777640  21.6527816  33.2860873
  13.9452043  22.5208052  33.6531344  13.5874810  21.8155098  32.3622162
  16.5352974  30.1144795  44.9526703  16.2353697  31.0169834  44.8442511
  16.1904033  29.8476978  45.8047856   9.9865455  26.5658592  40.9863408
   9.0615952  26.4334806  41.1941100  10.2349868  27.3452811  41.4833350
  13.7566861  24.1085474  34.2707540  13.6366487  24.5542524  35.1093020
  13.0619450  24.4570791  33.7121078   7.3474266  26.2091865  41.8207197
   7.4766647  26.4626344  42.7346609   6.6671717  26.8019573  41.5011852
  11.5173753  36.8789115  37.9197671  11.4397783  37.8296940  37.9986152
  10.9135397  36.5334988  38.5772597  14.0090983  24.0516981  50.5759038
  13.2324317  24.6110901  50.5661903  14.6481546  24.5373764  51.0973908
  12.2637356  26.8602434  50.1377005  13.0052040  27.3987478  49.8611829
  11.5574341  27.4868723  50.2948557  17.7392695  29.0031575  48.7349167
  18.1476051  28.5613985  47.9903799  17.0169957  28.4284202  48.9883359
  14.0923765  23.9404181  46.1082723  14.9384960  24.3643595  46.2517372
  14.0322403  23.2837806  46.8021287  19.1961673  28.1447162  46.4441163
  19.4078569  28.7878922  45.7675544  19.1491422  27.3109479  45.9763093
  10.5073553  28.8478655  42.6931304  11.0774910  29.2765923  42.0548788
  11.0981665  28.5661240  43.3915489  12.5518358  25.4230326  36.5641106
  13.2542401  25.8751369  37.0315032  12.2198986  24.7814145  37.1920999
  10.9998719  24.0142082  50.9392315  10.3697380  24.6958363  51.1727712
  10.8934807  23.9025164  49.9945453   6.2943692  23.6813878  41.8658239
   5.5042746  23.9371407  41.3898350   6.7854939  24.4962216  41.9710280
   8.2458437  24.0458458  38.8241716   7.4489600  24.1577152  39.3425212
   8.0184029  24.3845110  37.9582606  14.0764105  30.5703161  46.7724231
  14.1408537  31.0323568  47.6082402  13.3675029  29.9400526  46.9006540
   4.5781395  23.9344369  44.2973230   4.8289433  24.8191379  44.5630806
   5.1140943  23.7548970  43.5248322  13.7912122  32.2371268  36.6403211
  13.6557797  33.0822804  37.0688059  14.3321935  32.4390546  35.8769145
  10.2779462  18.3162848  53.3017566   9.8846408  17.7629047  53.9765210
  11.0945602  18.6273427  53.6924084   7.2441520  29.7546706  37.2131136
   7.7566040  30.5489957  37.3636701   7.8964233  29.0572997  37.1464737
   9.0536404  32.8712463  39.2953889   9.2303033  33.7930427  39.1074873
   9.8493238  32.5570882  39.7248269  13.1947423  19.7320727  50.8937823
  13.9357136  20.3327880  50.8142285  13.4265346  18.9898365  50.3355865
   8.3388761  24.9177094  49.1716052   8.2242276  24.0162352  49.4723151
   7.4833279  25.1640791  48.8200869  15.4180599  32.8594835  50.7703553
  14.9744453  32.0731213  50.4524457  16.0797812  33.0473985  50.1047444
  10.1767720  34.3890636  45.2964231  10.7275145  34.2607700  44.5241225
   9.3379196  34.6885525  44.9459124  13.9734891  30.6541764  49.6408463
  14.5063228  29.8930052  49.4107771  13.4448972  30.3615416  50.3832617
  17.1404586  15.7601830  45.1702104  16.7968855  16.6503472  45.0941215
  17.5083549  15.5703488  44.3071689   5.2090437  28.0835361  37.9890707
   6.0465659  28.4932369  37.7724414   5.3868704  27.1434803  37.9590900
  17.1054869  25.7510441  33.6774539  16.5901492  26.5215046  33.9162927
  16.8332177  25.0775577  34.3007601  14.6901980  20.5960142  38.7359778
  13.8343576  20.2066992  38.5565417  15.1028931  20.6752103  37.8759563
  16.2201126  18.1306485  43.1351338  15.7165922  18.0936620  42.3219143
  16.5131733  19.0399228  43.1947994  12.4644012  18.2145215  42.1417519
  13.3297009  18.0188024  41.7823409  12.5321521  17.9855567  43.0686876
  16.8941172  23.6237533  35.5034321  16.5891307  23.9383683  36.3544464
  17.8471614  23.7018953  35.5461654  10.0706331  20.4447423  39.5133886
  10.6450083  20.2222604  38.7807079  10.6577314  20.5136117  40.2662487
  10.3975918  22.4751884  33.5329771   9.5613231  22.8126571  33.8539046
  10.2580688  22.3400864  32.5956908  12.3728999  17.3188672  38.2408956
  11.7193411  17.0037689  37.6165570  12.3309473  16.6964412  38.9668779
  13.4840204  27.6007967  30.1562248  12.5767266  27.3697220  30.3553397
  13.9811236  26.8045586  30.3436229  16.3908283  36.3105474  33.0758934
  15.7169981  36.6137171  33.6843892  16.7774105  37.1134554  32.7264391
  14.6628437  27.7020562  34.6786238  13.7539657  27.4179595  34.7758707
  14.6923521  28.1219640  33.8189545  18.9392252  15.0195389  40.2719842
  19.2451128  14.1592753  39.9845757  19.6644856  15.6113010  40.0718836
   5.2316608  25.4226076  38.6601440   5.0341007  24.8295437  37.9352507
   4.6763272  25.1178286  39.3777379  14.3604525  29.2429305  32.0174316
  13.9223955  28.5265164  31.5579954  15.1014966  29.4705420  31.4559408
  11.1505691  23.9326242  38.5386412  10.3373557  24.2320413  38.9451604
  11.6464685  23.5381931  39.2560894  13.3014269  33.9283999  40.4720677
  13.2590448  34.1544845  39.5429209  14.2176968  33.6947374  40.6206478
  16.7479903  24.3968067  47.3701306  17.1029291  24.6239540  48.2295772
  17.3952034  24.7286443  46.7478561  10.6419766  21.5044598  44.1547647
  11.2819145  21.3633357  43.4570610   9.8097297  21.2179111  43.7786249
  11.4180070  30.8047028  40.2682639  12.2120668  30.3097348  40.0665214
  10.7071762  30.2764891  39.9050345  16.2374914  33.1865124  44.6195007
  16.2911937  33.7556060  45.3872723  15.3689696  33.3567009  44.2549044
   7.7262833  24.9490110  36.3442392   6.7960421  24.8874565  36.5612354
   7.8220305  24.4266063  35.5479033   7.6448382  21.4744923  38.9320634
   7.9055200  22.3890256  38.8229794   8.4665555  21.0069365  39.0817247
   9.1173308  22.8882680  46.1019458   9.7896361  22.6800042  45.4532107
   8.2903094  22.6904766  45.6624691  15.0198880  19.5144621  48.1185119
  14.3726795  20.2134570  48.0249596  15.7899895  19.9480765  48.4861367
  18.4277678  29.7793473  51.1935672  18.2763184  29.5504025  50.2765756
  18.4182357  30.7364074  51.2067017  15.1963014  27.3525386  46.1781939
  16.1255074  27.5036545  46.0050906  14.7754044  27.4409406  45.3230585
  13.9951346  31.3776050  43.9480476  13.8562432  31.0094834  44.8206415
  13.2065942  31.8923690  43.7764434   9.5200805  26.1625283  46.8621895
   9.3820603  25.4305522  47.4633434  10.4305728  26.0734183  46.5806083
  18.4815753  28.1013687  31.6106374  17.8644923  27.3760515  31.5139427
  18.0132241  28.8623047  31.2673448  12.1483106  25.8745242  46.3505575
  12.8582724  25.2338434  46.3092193  12.1052414  26.1258137  47.2731756
  10.8612040  22.8610460  48.1701215  10.3249397  22.4101198  48.8222811
  10.2728748  22.9956369  47.4271679   9.1560583  39.6274509  42.0645873
   9.3957181  40.2593033  42.7424892   8.3129780  39.2762549  42.3511232
  10.2714299  22.3199111  30.7327678   9.3943765  22.1987912  30.3689925
  10.7472052  21.5285190  30.4806567  20.1387292  30.7752179  47.5026134
  19.2514070  30.4378101  47.6252533  20.7085843  30.0435211  47.7394899
   1.7916439  27.1076271  40.8269185   2.4787479  26.7938001  40.2390201
   1.6364567  28.0117636  40.5536437   6.5951161  21.9966468  45.2554209
   6.5109350  21.3892137  44.5204619   5.7733867  22.4875486  45.2563705
  13.6688445  35.4353632  44.4687377  13.5958616  36.2408603  44.9806682
  13.2265838  35.6345598  43.6435399  13.4578225  34.6725402  37.9790199
  12.6745747  35.2147082  38.0728423  14.1570970  35.1899381  38.3784440
  11.1799042  33.0834909  47.4451107  11.8808502  33.7171392  47.5980501
  10.7094157  33.4249641  46.6846746  19.2093870  17.4489625  42.7703763
  18.2956949  17.6793852  42.9385970  19.6386971  17.5328069  43.6217795
  16.2749667  34.6007395  36.6346876  16.8037434  34.0899850  36.0217038
  16.5377887  34.2849925  37.4992409  15.0287901  26.3799328  51.7569694
  14.3528538  26.2793457  52.4272069  15.8515535  26.2238541  52.2205691
   6.7766760  32.6171264  44.3782209   7.3620197  31.8714952  44.5110114
   6.5791599  32.9275221  45.2618873   9.6305415  35.6522512  39.3944652
   8.9615791  36.1368639  38.9108692   9.4918285  35.8991732  40.3088030
   1.3684415  25.1876865  43.0986652   1.4068514  24.6540455  43.8923771
   0.8624708  24.6612070  42.4797630  13.7710684  37.6866255  45.9927310
  14.3228992  37.8497877  46.7576395  14.1116877  38.2770693  45.3207335
   8.7475177  20.0341405  46.5949195   8.8116504  20.8956236  46.1826592
   8.6842297  19.4215407  45.8621553   8.2227450  22.1064538  50.2422229
   8.8499489  21.7241615  50.8559753   7.3655369  21.8878739  50.6077922
  18.6221558  32.5127513  51.8475964  19.1661462  33.1257471  51.3530919
  18.0408403  33.0707091  52.3642977   4.9992992  23.9140967  36.1740584
   5.2946434  23.0051645  36.1207638   4.0981028  23.8928706  35.8521586
  16.9079071  35.6348231  42.9790992  16.7830211  34.8337971  42.4701938
  17.5658162  36.1294424  42.4904962   8.5287239  21.9896963  42.1568132
   7.8073825  22.6032931  42.0175606   9.3180495  22.5254728  42.0784778
  11.3313553  19.3251390  48.4308784  11.8547955  19.5713686  49.1935094
  11.1125886  20.1571425  48.0111922   6.7280834  21.5955064  36.2979909
   6.3993540  20.7152443  36.1155015   7.0820205  21.5402733  37.1856298
  15.9760413  33.2309967  40.8074895  15.8285375  32.3026674  40.9882465
  16.8013906  33.2530058  40.3231970   9.8422657  21.8828034  36.6655387
  10.1818730  22.4113955  35.9433995  10.2894778  22.2208440  37.4413953
  12.5366098  20.2665085  46.1158455  12.1962918  19.4672898  46.5179135
  11.8305104  20.5666796  45.5435288  13.1882570  17.3514397  44.5685778
  14.0108639  16.8774875  44.4464668  13.4320633  18.1304881  45.0684464
  11.8290804  20.3802656  34.8648679  12.5499167  20.7583908  34.3612396
  11.2056108  21.0991533  34.9683657  15.9721927  21.0847805  35.8007012
  16.1885542  21.9672443  35.4995840  15.4915994  20.6934018  35.0712654
  10.7121149  24.0433518  42.3777756  10.5665729  24.3573821  43.2702038
  10.2346352  24.6618418  41.8248655   5.1866811  26.5838862  45.3165418
   4.6420279  27.3598670  45.4485692   6.0646161  26.9309667  45.1584539
  11.9754427  19.9150446  37.6946216  12.0970339  18.9867092  37.8937104
  11.6856470  19.9289132  36.7824531  14.8445618  17.6005357  40.8312936
  14.8667315  17.6644690  39.8764915  15.2613677  16.7609865  41.0253442
   5.9732833  25.7108759  48.2095574   5.2314569  25.8591394  48.7960205
   5.6525577  25.9717024  47.3462324  13.9176495  35.2524737  48.0075964
  14.2263622  35.0073884  48.8798664  14.7151977  35.4571375  47.5194835
   6.4189446  33.5974187  40.2405969   7.2447466  33.2977959  39.8604613
   6.0683498  32.8281810  40.6895758  11.3870979  32.9500656  42.3103643
  10.7650989  32.2871361  42.0105871  12.0575846  32.9761787  41.6277290
   4.6198051  31.5160514  41.1994903   3.7829960  31.0882688  41.0178904
   4.5921697  31.7092957  42.1365694  11.4595507  21.4282444  51.9036149
  11.5083662  22.3044566  51.5213918  12.0018021  20.8859837  51.3307792
  10.9484486  31.5004579  35.7862103  11.0972607  32.1840043  35.1328776
  11.7550930  31.4809669  36.3011559  13.6894795  22.1813816  48.6582507
  12.8198105  22.4747382  48.3865096  13.9254276  22.7654261  49.3789771
   8.7037119  27.5269756  36.7923172   8.4583161  26.6232086  36.9903382
   8.8733034  27.5286907  35.8502650  16.3933829  18.3993433  46.1747928
  16.9115773  19.1354460  45.8494416  16.0388962  18.7057426  47.0094687
   7.9732767  23.2598114  34.2909334   7.2802012  23.3342469  33.6349370
   7.7284519  22.4958458  34.8130850  16.6446423  14.8193715  41.6948824
  16.9248177  14.1516904  42.3209251  17.4297030  15.0122811  41.1823488
  14.4479892  33.9952709  33.2573851  13.8753859  34.6142896  32.8044322
  15.0212686  34.5452071  33.7913773  17.6677152  34.2789859  34.3882433
  18.6007825  34.2135421  34.5915308  17.5800365  35.1146126  33.9296966
  14.8326690  25.3313522  30.5989903  15.7785795  25.2019730  30.6678321
  14.4540935  24.5928184  31.0759331  20.8048575  16.9969528  40.5616795
  20.6073396  16.6884616  41.4460127  21.4148281  17.7231167  40.6914725
  14.7165383  29.3831268  52.0590560  15.6368392  29.5609867  52.2530607
  14.6814966  28.4387314  51.9070259  13.0169608  23.2563498  30.5344788
  12.1101063  22.9596611  30.6107502  13.2945589  22.9593317  29.6679075
   3.9347548  24.5769862  40.9843835   3.6150332  23.7235170  40.6918209
   3.3880976  24.7918440  41.7401802   7.7127455  27.2932303  44.7013341
   7.9313465  28.2249411  44.7201375   8.1253229  26.9340277  45.4868145
  14.6331673  17.8000388  36.6889030  13.8232402  17.4547473  37.0644276
  15.3216090  17.4907932  37.2776641  16.5622222  16.8778435  38.3113326
  17.1153260  17.2973888  38.9703349  16.7992308  15.9514183  38.3536282
  12.5855321  22.8665509  54.0916090  12.4852048  23.8159866  54.0228181
  12.3676863  22.5383748  53.2192160  11.7868392  20.1150434  30.6756768
  12.6487556  20.4405332  30.9352585  11.9718736  19.3281930  30.1629833
   3.8035808  28.1972773  42.9536956   3.1099279  27.7826726  42.4406911
   4.5508799  28.2393310  42.3570375  19.9401029  18.9878960  37.8191991
  19.3599698  19.6463764  37.4370043  19.6736961  18.1656305  37.4079408
  18.3904595  18.3884018  40.0213311  18.8904373  18.5000552  39.2127630
  19.0340203  18.0845071  40.6614119  12.4486591  26.2962647  52.9081152
  11.9653673  27.0963008  53.1145041  12.5347530  26.3070592  51.9548596
   5.7172550  28.1291027  40.8302971   5.6943239  28.2278714  39.8784854
   6.0273187  28.9756178  41.1520137   8.3759928  30.1867182  44.9449586
   9.3303182  30.1551124  44.8779517   8.1772452  29.7257806  45.7599812
   8.9659310  28.7568298  47.5120383   9.7852199  29.2512377  47.5355221
   9.2396118  27.8400266  47.4837951  18.7225907  21.1479051  36.8748339
  17.8351762  21.4328701  36.6568534  19.1379896  20.9872814  36.0275616
   6.7310157  35.7286802  41.9619783   6.5964625  34.9687203  41.3957782
   6.3142219  36.4527702  41.4948572  17.8669120  30.9123725  30.9696359
  18.5704970  31.1173728  31.5854014  17.1431769  31.4800487  31.2345442
   9.8879283  36.6256119  42.1738226   9.7711667  37.5701551  42.0716916
   9.0671729  36.3229680  42.5624025   4.2194225  23.0906432  48.2112580
   4.8653088  22.5805386  48.6999806   4.0111376  23.8275114  48.7856006
  16.7447617  30.1587280  53.7104721  17.6138777  30.3327932  53.3491356
  16.2654368  30.9781696  53.5880450  12.7397835  17.3546477  33.9636477
  12.7276505  18.2988317  34.1204747  13.6321257  17.1716622  33.6695938
  10.9133797  37.2784381  45.3894155  11.8161044  37.3107991  45.7060650
  10.6871167  36.3484832  45.4040490  12.6687399  36.0315367  42.0504233
  11.7183030  36.0317229  41.9368605  12.9719885  35.2848102  41.5340268
  16.5549955  13.9489253  38.2182413  15.7882350  13.3947740  38.3639096
  16.9660660  14.0211122  39.0796565   8.5591716  20.2374049  52.3087595
   9.4223177  19.8810854  52.5190919   7.9857126  19.8987944  52.9962999
  22.4156843  45.7575297  47.9576910  22.1246709  46.6620928  47.8423576
  23.0513827  45.7991825  48.6720979  15.4175149  39.2636286  44.2973230
  15.6683188  40.1483296  44.5630806  15.9534698  39.0840888  43.5248322
  19.1782515  40.2469012  49.1716052  19.0636031  39.3454269  49.4723151
  18.3227033  40.4932709  48.8200869  26.2574353  48.1886752  50.7703553
  25.8138207  47.4023131  50.4524457  26.9191567  48.3765903  50.1047444
  21.0161474  49.7182554  45.2964231  21.5668900  49.5899617  44.5241225
  20.1772950  50.0177443  44.9459124  28.3555591  48.4689552  48.7984954
  28.3374067  49.2898433  48.3065223  29.2775511  48.3443628  49.0235095
  24.8128645  45.9833682  49.6408463  25.3456982  45.2221970  49.4107771
  24.2842727  45.6907334  50.3832617  29.2671432  45.1085391  51.1935672
  29.1156939  44.8795942  50.2765756  29.2576112  46.0655992  51.2067017
  20.3594559  41.4917200  46.8621895  20.2214357  40.7597439  47.4633434
  21.2699483  41.4026101  46.5806083  30.9763639  48.1404513  49.2712154
  30.9176185  47.4563733  48.6042737  31.3783157  48.8823503  48.8192780
  19.9954338  54.9566427  42.0645873  20.2350936  55.5884951  42.7424892
  19.1523534  54.6054467  42.3511232  17.4344915  37.3258385  45.2554209
  17.3503104  36.7184055  44.5204619  16.6127622  37.8167404  45.2563705
  24.5082200  50.7645549  44.4687377  24.4352371  51.5700521  44.9806682
  24.0659593  50.9637515  43.6435399  26.9680883  50.6632383  46.6245536
  27.6808855  51.2979848  46.5521437  26.4770912  50.7596249  45.8085538
  22.0192797  48.4126827  47.4451107  22.7202256  49.0463310  47.5980501
  21.5487912  48.7541558  46.6846746  17.6160515  47.9463182  44.3782209
  18.2013951  47.2006870  44.5110114  17.4185353  48.2567139  45.2618873
  12.2078169  40.5168782  43.0986652  12.2462269  39.9832373  43.8923771
  11.7018462  39.9903988  42.4797630  24.6104438  53.0158173  45.9927310
  25.1622746  53.1789794  46.7576395  24.9510632  53.6062611  45.3207335
  29.4615313  47.8419430  51.8475964  30.0055217  48.4549389  51.3530919
  28.8802158  48.3999009  52.3642977  27.7472826  50.9640148  42.9790992
  27.6223965  50.1629888  42.4701938  28.4051917  51.4586342  42.4904962
  16.0260565  41.9130780  45.3165418  15.4814033  42.6890588  45.4485692
  16.9039915  42.2601584  45.1584539  16.8126587  41.0400676  48.2095574
  16.0708323  41.1883312  48.7960205  16.4919331  41.3008942  47.3462324
  24.7570250  50.5816654  48.0075964  25.0657376  50.3365801  48.8798664
  25.5545732  50.7863293  47.5194835  32.7844107  47.3015484  51.1837286
  31.9939651  47.2839623  50.6441785  32.5477462  47.8403778  51.9386322
  32.9041982  44.1507951  48.4970014  32.9539987  43.9857958  49.4385537
  32.7955906  43.2835210  48.1067895  34.4060179  46.5704892  48.7412036
  34.1144987  46.9334873  49.5775497  33.7932310  45.8571901  48.5625368
  19.2153683  45.5159100  44.9449586  20.1696936  45.4843042  44.8779517
  19.0166206  45.0549724  45.7599812  19.8053065  44.0860216  47.5120383
  20.6245954  44.5804295  47.5355221  20.0789873  43.1692184  47.4837951
  17.5703912  51.0578719  41.9619783  17.4358380  50.2979120  41.3957782
  17.1535974  51.7819619  41.4948572  20.7273037  51.9548036  42.1738226
  20.6105422  52.8993469  42.0716916  19.9065484  51.6521598  42.5624025
  15.0587979  38.4198350  48.2112580  15.7046843  37.9097304  48.6999806
  14.8505130  39.1567031  48.7856006  27.5841371  45.4879197  53.7104721
  28.4532531  45.6619850  53.3491356  27.1048123  46.3073614  53.5880450
  21.7527552  52.6076298  45.3894155  22.6554798  52.6399909  45.7060650
  21.5264922  51.6776749  45.4040490  36.0523553  57.1495251  43.0511520
  35.7142065  57.0336316  42.1632055  36.9213322  56.7486416  43.0312526
  31.9110369  59.0030728  39.0408411  31.3475234  58.9120665  38.2724699
  31.7962764  58.1830632  39.5210904  36.5343336  58.3030103  49.0097726
  36.5231977  57.9082901  48.1378229  36.6963976  57.5696176  49.6031497
  29.4574801  60.4981919  41.8792632  30.2496093  60.1572744  41.4638931
  29.6971451  60.6076894  42.7994785  37.4909928  62.6701695  34.3522876
  36.8397908  63.2555776  33.9656890  38.2854291  63.2007890  34.4117914
  31.4165555  59.7590833  34.7510010  32.1896431  59.2119820  34.6122886
  31.7690954  60.6235082  34.9624472  33.2550598  61.0867215  47.9576910
  32.9640464  61.9912846  47.8423576  33.8907582  61.1283742  48.6720979
  34.1806804  58.4644063  44.5478269  34.7770377  58.2400086  43.8335232
  34.2381776  57.7228809  45.1503717  33.7531833  55.9183499  32.3828460
  34.0057353  55.3965020  31.6211923  32.8156392  55.7549644  32.4855144
  33.4728122  57.8211605  34.5852835  33.3564380  57.1456508  35.2533920
  33.5830381  57.3343979  33.7684988  35.8159662  57.2821752  38.2899525
  35.4517870  56.7552373  39.0012446  36.6726778  56.8920221  38.1166010
  31.6652964  57.2242427  40.9863408  30.7403461  57.0918641  41.1941100
  31.9137377  58.0036646  41.4833350  29.0261775  56.8675701  41.8207197
  29.1554156  57.1210180  42.7346609  28.3459226  57.4603409  41.5011852
  33.1961262  67.5372951  37.9197671  33.1185292  68.4880776  37.9986152
  32.5922906  67.1918823  38.5772597  35.6878492  54.7100816  50.5759038
  34.9111826  55.2694736  50.5661903  36.3269055  55.1957599  51.0973908
  33.9424864  57.5186269  50.1377005  34.6839549  58.0571313  49.8611829
  33.2361850  58.1452558  50.2948557  35.7711274  54.5988017  46.1082723
  36.6172469  55.0227430  46.2517372  35.7109912  53.9421641  46.8021287
  32.1861062  59.5062490  42.6931304  32.7562419  59.9349759  42.0548788
  32.7769174  59.2245075  43.3915489  34.2305867  56.0814161  36.5641106
  34.9329910  56.5335205  37.0315032  33.8986495  55.4397980  37.1920999
  32.6786228  54.6725918  50.9392315  32.0484889  55.3542198  51.1727712
  32.5722316  54.5608999  49.9945453  27.9731201  54.3397714  41.8658239
  27.1830255  54.5955242  41.3898350  28.4642448  55.1546052  41.9710280
  29.9245946  54.7042293  38.8241716  29.1277109  54.8160987  39.3425212
  29.6971538  55.0428945  37.9582606  35.7551614  61.2286996  46.7724231
  35.8196046  61.6907403  47.6082402  35.0462538  60.5984361  46.9006540
  26.2568904  54.5928204  44.2973230  26.5076942  55.4775214  44.5630806
  26.7928452  54.4132806  43.5248322  35.4699631  62.8955104  36.6403211
  35.3345306  63.7406639  37.0688059  36.0109444  63.0974381  35.8769145
  31.9566971  48.9746683  53.3017566  31.5633917  48.4212882  53.9765210
  32.7733111  49.2857262  53.6924084  28.9229029  60.4130542  37.2131136
  29.4353549  61.2073792  37.3636701  29.5751742  59.7156832  37.1464737
  30.7323913  63.5296298  39.2953889  30.9090542  64.4514263  39.1074873
  31.5280747  63.2154717  39.7248269  34.8734932  50.3904563  50.8937823
  35.6144645  50.9911716  50.8142285  35.1052855  49.6482200  50.3355865
  30.0176270  55.5760930  49.1716052  29.9029785  54.6746187  49.4723151
  29.1620788  55.8224627  48.8200869  37.0968108  63.5178670  50.7703553
  36.6531962  62.7315049  50.4524457  37.7585321  63.7057821  50.1047444
  31.8555229  65.0474472  45.2964231  32.4062654  64.9191535  44.5241225
  31.0166705  65.3469361  44.9459124  39.1949346  63.7981470  48.7984954
  39.1767821  64.6190351  48.3065223  40.1169266  63.6735545  49.0235095
  35.6522400  61.3125600  49.6408463  36.1850737  60.5513888  49.4107771
  35.1236481  61.0199251  50.3832617  26.8877946  58.7419196  37.9890707
  27.7253168  59.1516204  37.7724414  27.0656213  57.8018638  37.9590900
  35.1627713  58.2591802  30.1562248  34.2554775  58.0281056  30.3553397
  35.6598745  57.4629422  30.3436229  38.0695792  66.9689309  33.0758934
  37.3957490  67.2721006  33.6843892  38.4561614  67.7718390  32.7264391
  26.9104117  56.0809911  38.6601440  26.7128516  55.4879272  37.9352507
  26.3550781  55.7762121  39.3777379  34.8900840  55.9733018  40.7796033
  34.9449450  55.0206854  40.7038510  34.0792042  56.1292457  41.2637332
  36.0392034  59.9013141  32.0174316  35.6011464  59.1849000  31.5579954
  36.7802475  60.1289256  31.4559408  34.9801778  64.5867834  40.4720677
  34.9377957  64.8128681  39.5429209  35.8964477  64.3531209  40.6206478
  33.0967579  61.4630863  40.2682639  33.8908177  60.9681184  40.0665214
  32.3859271  60.9348727  39.9050345  29.4050342  55.6073945  36.3442392
  28.4747930  55.5458401  36.5612354  29.5007814  55.0849898  35.5479033
  30.7960817  53.5466515  46.1019458  31.4683870  53.3383877  45.4532107
  29.9690603  53.3488601  45.6624691  36.6986389  50.1728456  48.1185119
  36.0514304  50.8718406  48.0249596  37.4687404  50.6064600  48.4861367
  36.8750523  58.0109221  46.1781939  37.8042583  58.1620381  46.0050906
  36.4541553  58.0993242  45.3230585  36.2687007  67.1368982  35.2906013
  36.4438763  66.6657025  36.1051636  35.5819795  67.7634748  35.5187274
  31.1988314  56.8209118  46.8621895  31.0608112  56.0889357  47.4633434
  32.1093237  56.7318018  46.5806083  33.8270615  56.5329077  46.3505575
  34.5370233  55.8922270  46.3092193  33.7839923  56.7841972  47.2731756
  41.8157393  63.4696431  49.2712154  41.7569939  62.7855651  48.6042737
  42.2176912  64.2115421  48.8192780  32.5399549  53.5194295  48.1701215
  32.0036906  53.0685034  48.8222811  31.9516257  53.6540204  47.4271679
  30.8348092  70.2858345  42.0645873  31.0744690  70.9176869  42.7424892
  29.9917289  69.9346385  42.3511232  23.4703948  57.7660106  40.8269185
  24.1574988  57.4521837  40.2390201  23.3152076  58.6701471  40.5536437
  28.2738670  52.6550303  45.2554209  28.1896859  52.0475973  44.5204619
  27.4521376  53.1459321  45.2563705  35.3475954  66.0937467  44.4687377
  35.2746125  66.8992439  44.9806682  34.9053347  66.2929433  43.6435399
  35.1365734  65.3309237  37.9790199  34.3533256  65.8730917  38.0728423
  35.8358479  65.8483217  38.3784440  37.8074638  65.9924301  46.6245536
  38.5202610  66.6271766  46.5521437  37.3164666  66.0888167  45.8085538
  35.0297352  53.2821250  40.3496089  34.6595140  52.7292290  41.0376994
  35.5256445  52.6779383  39.7971089  32.8586551  63.7418745  47.4451107
  33.5596011  64.3755228  47.5980501  32.3881666  64.0833476  46.6846746
  37.6195011  66.3323045  39.3731827  37.8017405  65.5144701  39.8359580
  38.4427997  66.5490737  38.9356717  37.9537176  65.2591230  36.6346876
  38.4824943  64.7483685  36.0217038  38.2165396  64.9433761  37.4992409
  36.7075410  57.0383163  51.7569694  36.0316047  56.9377292  52.4272069
  37.5303044  56.8822377  52.2205691  28.4554269  63.2755100  44.3782209
  29.0407706  62.5298788  44.5110114  28.2579108  63.5859056  45.2618873
  31.3092924  66.3106347  39.3944652  30.6403300  66.7952475  38.9108692
  31.1705794  66.5575567  40.3088030  23.0471924  55.8460700  43.0986652
  23.0856023  55.3124291  43.8923771  22.5412217  55.3195905  42.4797630
  35.4498193  68.3450091  45.9927310  36.0016501  68.5081712  46.7576395
  35.7904386  68.9354528  45.3207335  29.9014959  52.7648373  50.2422229
  30.5286997  52.3825450  50.8559753  29.0442878  52.5462575  50.6077922
  40.3009067  63.1711348  51.8475964  40.8448971  63.7841306  51.3530919
  39.7195912  63.7290926  52.3642977  26.6780501  54.5724802  36.1740584
  26.9733943  53.6635480  36.1207638  25.7768537  54.5512541  35.8521586
  38.5866580  66.2932066  42.9790992  38.4617720  65.4921806  42.4701938
  39.2445671  66.7878259  42.4904962  33.0101062  49.9835225  48.4308784
  33.5335464  50.2297522  49.1935094  32.7913395  50.8155260  48.0111922
  34.2153607  50.9248920  46.1158455  33.8750427  50.1256733  46.5179135
  33.5092613  51.2250631  45.5435288  32.3908658  54.7017353  42.3777756
  32.2453238  55.0157656  43.2702038  31.9133861  55.3202254  41.8248655
  36.1031171  52.1257241  44.4711773  35.8448949  53.0474312  44.4696104
  35.5716212  51.7287676  45.1612237  26.8654320  57.2422698  45.3165418
  26.3207788  58.0182506  45.4485692  27.7433670  57.5893502  45.1584539
  27.6520342  56.3692594  48.2095574  26.9102078  56.5175229  48.7960205
  27.3313086  56.6300860  47.3462324  35.5964004  65.9108572  48.0075964
  35.9051131  65.6657719  48.8798664  36.3939486  66.1155211  47.5194835
  35.6184616  68.0646482  40.2381341  35.1789607  67.5722860  40.9314198
  36.3692733  67.5219449  39.9973416  28.0976955  64.2558023  40.2405969
  28.9234975  63.9561795  39.8604613  27.7471007  63.4865645  40.6895758
  33.0658488  63.6084491  42.3103643  32.4438498  62.9455196  42.0105871
  33.7363355  63.6345623  41.6277290  26.2985560  62.1744349  41.1994903
  25.4617469  61.7466523  41.0178904  26.2709206  62.3676792  42.1365694
  33.1383016  52.0866279  51.9036149  33.1871171  52.9628402  51.5213918
  33.6805530  51.5443672  51.3307792  32.6271995  62.1588414  35.7862103
  32.7760116  62.8423879  35.1328776  33.4338439  62.1393504  36.3011559
  35.3682304  52.8397651  48.6582507  34.4985614  53.1331217  48.3865096
  35.6041785  53.4238096  49.3789771  30.3824628  58.1853592  36.7923172
  30.1370670  57.2815922  36.9903382  30.5520543  58.1870742  35.8502650
  38.0721338  49.0577268  46.1747928  38.5903282  49.7938295  45.8494416
  37.7176471  49.3641262  47.0094687  36.1267401  64.6536545  33.2573851
  35.5541368  65.2726732  32.8044322  36.7000195  65.2035906  33.7913773
  39.3464661  64.9373695  34.3882433  40.2795334  64.8719256  34.5915308
  39.2587873  65.7729962  33.9296966  41.9752677  64.2539565  31.3486380
  41.8966309  63.9199429  32.2422138  42.7962344  64.7461333  31.3477853
  36.3952892  60.0415104  52.0590560  37.3155901  60.2193703  52.2530607
  36.3602475  59.0971149  51.9070259  25.6135057  55.2353697  40.9843835
  25.2937841  54.3819005  40.6918209  25.0668485  55.4502275  41.7401802
  29.3914964  57.9516138  44.7013341  29.6100974  58.8833246  44.7201375
  29.8040738  57.5924113  45.4868145  34.2642830  53.5249344  54.0916090
  34.1639557  54.4743701  54.0228181  34.0464372  53.1967583  53.2192160
  25.4823317  58.8556609  42.9536956  24.7886788  58.4410561  42.4406911
  26.2296308  58.8977145  42.3570375  34.1274100  56.9546483  52.9081152
  33.6441182  57.7546843  53.1145041  34.2135039  56.9654428  51.9548596
  27.3960059  58.7874862  40.8302971  27.3730748  58.8862550  39.8784854
  27.7060696  59.6340013  41.1520137  30.0547437  60.8451018  44.9449586
  31.0090691  60.8134960  44.8779517  29.8559961  60.3841641  45.7599812
  30.6446819  59.4152134  47.5120383  31.4639708  59.9096212  47.5355221
  30.9183627  58.4984102  47.4837951  28.4097666  66.3870637  41.9619783
  28.2752134  65.6271038  41.3957782  27.9929728  67.1111537  41.4948572
  39.5456629  61.5707561  30.9696359  40.2492479  61.7757563  31.5854014
  38.8219278  62.1384322  31.2345442  31.5666792  67.2839954  42.1738226
  31.4499176  68.2285386  42.0716916  30.7459238  66.9813516  42.5624025
  25.8981734  53.7490267  48.2112580  26.5440597  53.2389221  48.6999806
  25.6898885  54.4858949  48.7856006  38.4235126  60.8171115  53.7104721
  39.2926286  60.9911767  53.3491356  37.9441877  61.6365532  53.5880450
  32.5921306  67.9368216  45.3894155  33.4948553  67.9691826  45.7060650
  32.3658676  67.0068667  45.4040490  34.3474908  66.6899202  42.0504233
  33.3970539  66.6901064  41.9368605  34.6507394  65.9431937  41.5340268
  30.2379225  50.8957884  52.3087595  31.1010686  50.5394689  52.5190919
  29.6644635  50.5571779  52.9962999  42.7504124  74.3322645  39.0408411
  42.1868989  74.2412582  38.2724699  42.6356519  73.5122550  39.5210904
  47.3737091  73.6322021  49.0097726  47.3625732  73.2374819  48.1378229
  47.5357730  72.8988093  49.6031497  40.2968556  75.8273837  41.8792632
  41.0889847  75.4864662  41.4638931  40.5365206  75.9368812  42.7994785
  48.3303682  77.9993613  34.3522876  47.6791662  78.5847693  33.9656890
  49.1248045  78.5299808  34.4117914  42.2559309  75.0882750  34.7510010
  43.0290185  74.5411737  34.6122886  42.6084708  75.9527000  34.9624472
  44.0944352  76.4159132  47.9576910  43.8034218  77.3204763  47.8423576
  44.7301336  76.4575660  48.6720979  44.5925587  71.2475416  32.3828460
  44.8451108  70.7256938  31.6211923  43.6550146  71.0841562  32.4855144
  49.8078947  75.6884045  34.8891860  49.1724780  75.7618672  35.6012765
  49.4776354  76.2777644  34.2110940  44.3121876  73.1503522  34.5852835
  44.1958134  72.4748426  35.2533920  44.4224136  72.6635896  33.7684988
  49.0534237  76.1020548  44.9526703  48.7534960  77.0045587  44.8442511
  48.7085297  75.8352731  45.8047856  42.5046719  72.5534345  40.9863408
  41.5797215  72.4210559  41.1941100  42.7531132  73.3328564  41.4833350
  39.8655530  72.1967618  41.8207197  39.9947911  72.4502097  42.7346609
  39.1852981  72.7895326  41.5011852  44.0355017  82.8664868  37.9197671
  43.9579047  83.8172693  37.9986152  43.4316660  82.5210741  38.5772597
  44.7818619  72.8478187  50.1377005  45.5233303  73.3863231  49.8611829
  44.0755604  73.4744476  50.2948557  50.2573959  74.9907328  48.7349167
  50.6657315  74.5489738  47.9903799  49.5351220  74.4159955  48.9883359
  50.5802773  75.5508518  42.4901455  49.9511636  75.7154232  41.7877523
  50.1928435  75.9650128  43.2612419  54.4592005  76.4862956  39.8445819
  53.7743043  76.8661857  39.2942852  54.5435854  77.0958283  40.5777767
  51.7142937  74.1322915  46.4441163  51.9259832  74.7754675  45.7675544
  51.6672685  73.2985232  45.9763093  46.1330735  75.2882926  39.7551541
  46.5969081  75.5670629  38.9656163  45.8687533  74.3866371  39.5724631
  43.0254816  74.8354408  42.6931304  43.5956173  75.2641676  42.0548788
  43.6162928  74.5536993  43.3915489  43.5179983  70.0017835  50.9392315
  42.8878643  70.6834116  51.1727712  43.4116071  69.8900917  49.9945453
  38.8124955  69.6689631  41.8658239  38.0224009  69.9247160  41.3898350
  39.3036203  70.4837969  41.9710280  52.8288765  77.0094871  44.6163520
  53.6506208  76.6075058  44.3346202  52.8251168  76.9063105  45.5679636
  40.7639701  70.0334211  38.8241716  39.9670864  70.1452905  39.3425212
  40.5365293  70.3720863  37.9582606  46.5945368  76.5578914  46.7724231
  46.6589801  77.0199321  47.6082402  45.8856292  75.9276279  46.9006540
  37.0962658  69.9220122  44.2973230  37.3470697  70.8067132  44.5630806
  37.6322207  69.7424723  43.5248322  60.9194758  73.3533619  40.9648492
  60.1658466  72.7841017  40.8092496  61.0542299  73.3196283  41.9119126
  46.3093386  78.2247021  36.6403211  46.1739061  79.0698557  37.0688059
  46.8503198  78.4266299  35.8769145  39.7622783  75.7422459  37.2131136
  40.2747304  76.5365710  37.3636701  40.4145496  75.0448750  37.1464737
  41.5717668  78.8588216  39.2953889  41.7484296  79.7806180  39.1074873
  42.3674501  78.5446635  39.7248269  40.8570024  70.9052848  49.1716052
  40.7423540  70.0038105  49.4723151  40.0014542  71.1516544  48.8200869
  47.9361862  78.8470588  50.7703553  47.4925716  78.0606966  50.4524457
  48.5979076  79.0349738  50.1047444  42.6948983  80.3766389  45.2964231
  43.2456408  80.2483453  44.5241225  41.8560459  80.6761278  44.9459124
  50.0343100  79.1273388  48.7984954  50.0161576  79.9482269  48.3065223
  50.9563020  79.0027463  49.0235095  46.4916154  76.6417517  49.6408463
  47.0244491  75.8805805  49.4107771  45.9630236  76.3491169  50.3832617
  37.7271700  74.0711114  37.9890707  38.5646922  74.4808122  37.7724414
  37.9049968  73.1310556  37.9590900  49.6236132  71.7386194  33.6774539
  49.1082756  72.5090799  33.9162927  49.3513441  71.0651330  34.3007601
  54.5970406  74.4918549  35.6127713  53.8199849  74.1529708  35.1682875
  55.2761887  74.4971172  34.9382678  47.8568867  75.7703510  37.1527275
  47.3290229  75.0356269  36.8400512  47.3556370  76.5478186  36.9067243
  52.8361713  73.9652530  42.2694321  52.1785388  74.6551792  42.3574450
  53.6402112  74.3548962  42.6128307  51.6467172  72.3196903  40.3198263
  52.1599054  72.9526895  40.8219972  52.2968396  71.7198098  39.9541623
  42.9157182  68.4627637  33.5329771  42.0794494  68.8002324  33.8539046
  42.7761951  68.3276617  32.5956908  46.0021467  73.5883720  30.1562248
  45.0948529  73.3572973  30.3553397  46.4992499  72.7921339  30.3436229
  48.9089546  82.2981227  33.0758934  48.2351245  82.6012924  33.6843892
  49.2955368  83.1010307  32.7264391  47.1809701  73.6896315  34.6786238
  46.2720920  73.4055348  34.7758707  47.2104785  74.1095393  33.8189545
  52.4128968  77.3002904  38.4477405  51.9591295  76.4593814  38.5042596
  51.7822935  77.9364303  38.7852185  50.8561907  79.1379401  39.3827223
  51.1484882  79.6984458  38.6639589  51.3660528  79.4307962  40.1380383
  37.7497871  71.4101829  38.6601440  37.5522271  70.8171190  37.9352507
  37.1944535  71.1054039  39.3777379  46.8785789  75.2305058  32.0174316
  46.4405218  74.5140917  31.5579954  47.6196229  75.4581173  31.4559408
  43.6686955  69.9201995  38.5386412  42.8554820  70.2196166  38.9451604
  44.1645949  69.5257684  39.2560894  45.8195533  79.9159752  40.4720677
  45.7771711  80.1420598  39.5429209  46.7358231  79.6823127  40.6206478
  54.9958903  73.5062256  38.0750635  54.8576802  73.6963852  37.1471824
  54.6395122  74.2681638  38.5318686  55.0228283  75.5738783  43.0861906
  55.4564790  75.4814072  43.9344960  55.7359864  75.5496283  42.4481922
  43.9361333  76.7922781  40.2682639  44.7301932  76.2973101  40.0665214
  43.2253026  76.2640644  39.9050345  48.7556178  79.1740877  44.6195007
  48.8093200  79.7431813  45.3872723  47.8870959  79.3442762  44.2549044
  40.2444097  70.9365863  36.3442392  39.3141685  70.8750318  36.5612354
  40.3401569  70.4141816  35.5479033  40.1629646  67.4620676  38.9320634
  40.4236463  68.3766009  38.8229794  40.9846818  66.9945118  39.0817247
  55.8843833  75.6162483  45.6194792  56.0779723  76.5208294  45.8654067
  55.7844451  75.1569902  46.4533377  50.9458941  75.7669226  51.1935672
  50.7944448  75.5379778  50.2765756  50.9363621  76.7239827  51.2067017
  47.7144278  73.3401139  46.1781939  48.6436338  73.4912298  46.0050906
  47.2935308  73.4285159  45.3230585  46.5132609  77.3651803  43.9480476
  46.3743695  76.9970588  44.8206415  45.7247206  77.8799443  43.7764434
  47.1080761  82.4660900  35.2906013  47.2832517  81.9948943  36.1051636
  46.4213549  83.0926666  35.5187274  48.0637825  76.7433406  41.3369314
  47.7287657  76.7034176  42.2326964  47.5641770  76.0778122  40.8639724
  42.0382068  72.1501036  46.8621895  41.9001866  71.4181275  47.4633434
  42.9486992  72.0609936  46.5806083  50.9997016  74.0889440  31.6106374
  50.3826187  73.3636268  31.5139427  50.5313505  74.8498800  31.2673448
  52.6551148  78.7988348  49.2712154  52.5963694  78.1147569  48.6042737
  53.0570666  79.5407338  48.8192780  43.3793303  68.8486213  48.1701215
  42.8430660  68.3976951  48.8222811  42.7910012  68.9832122  47.4271679
  42.7895562  68.3074864  30.7327678  41.9125028  68.1863665  30.3689925
  43.2653315  67.5160943  30.4806567  52.6568555  76.7627932  47.5026134
  51.7695334  76.4253854  47.6252533  53.2267106  76.0310964  47.7394899
  34.3097702  73.0952024  40.8269185  34.9968742  72.7813754  40.2390201
  34.1545831  73.9993389  40.5536437  39.1132424  67.9842221  45.2554209
  39.0290613  67.3767890  44.5204619  38.2915131  68.4751239  45.2563705
  46.1869708  81.4229385  44.4687377  46.1139880  82.2284356  44.9806682
  45.7447102  81.6221351  43.6435399  45.9759488  80.6601155  37.9790199
  45.1927010  81.2022835  38.0728423  46.6752233  81.1775134  38.3784440
  57.1385896  72.1736150  42.2642696  57.1275772  73.0560865  41.8936629
  56.2703275  71.8207701  42.0697233  48.6468392  81.3216219  46.6245536
  49.3596364  81.9563684  46.5521437  48.1558421  81.4180085  45.8085538
  50.3685919  75.2267471  38.1962827  49.4342198  75.3468934  38.0267532
  50.5462587  74.3239938  37.9322837  43.6980306  79.0710662  47.4451107
  44.3989765  79.7047145  47.5980501  43.2275421  79.4125394  46.6846746
  51.8234701  77.4128612  35.7299014  52.0994545  77.2985207  36.6392888
  50.9539200  77.0146097  35.6911187  51.4981592  71.6255270  45.2703657
  50.8453042  71.8731177  44.6156110  51.8761971  70.8119408  44.9366134
  48.4588765  81.6614963  39.3731827  48.6411160  80.8436619  39.8359580
  49.2821751  81.8782655  38.9356717  48.7930931  80.5883148  36.6346876
  49.3218697  80.0775603  36.0217038  49.0559150  80.2725678  37.4992409
  47.5469165  72.3675081  51.7569694  46.8709802  72.2669210  52.4272069
  48.3696798  72.2114295  52.2205691  39.2948024  78.6047017  44.3782209
  39.8801460  77.8590705  44.5110114  39.0972862  78.9150974  45.2618873
  42.1486679  81.6398265  39.3944652  41.4797054  82.1244392  38.9108692
  42.0099549  81.8867485  40.3088030  33.8865678  71.1752618  43.0986652
  33.9249778  70.6416208  43.8923771  33.3805971  70.6487823  42.4797630
  46.2891947  83.6742008  45.9927310  46.8410255  83.8373630  46.7576395
  46.6298141  84.2646446  45.3207335  41.2656441  66.0217158  46.5949195
  41.3297767  66.8831989  46.1826592  41.2023561  65.4091160  45.8621553
  40.7408713  68.0940291  50.2422229  41.3680752  67.7117368  50.8559753
  39.8836632  67.8754493  50.6077922  51.1402822  78.5003266  51.8475964
  51.6842726  79.1133224  51.3530919  50.5589667  79.0582844  52.3642977
  37.5174256  69.9016720  36.1740584  37.8127697  68.9927398  36.1207638
  36.6162292  69.8804459  35.8521586  49.4260335  81.6223984  42.9790992
  49.3011474  80.8213724  42.4701938  50.0839426  82.1170177  42.4904962
  41.0468503  67.9772716  42.1568132  40.3255089  68.5908684  42.0175606
  41.8361759  68.5130481  42.0784778  51.4895243  79.4233004  44.6070542
  50.5425579  79.3038355  44.5348869  51.8378016  78.5355502  44.6896804
  39.2462098  67.5830817  36.2979909  38.9174804  66.7028196  36.1155015
  39.6001468  67.5278486  37.1856298  48.4941676  79.2185720  40.8074895
  48.3466639  78.2902427  40.9882465  49.3195170  79.2405811  40.3231970
  52.0975798  80.0414279  41.8939767  53.0222346  79.8357140  41.7564218
  51.9291102  79.7930680  42.8029109  51.8871114  80.5599946  37.2501859
  52.0607992  79.9946369  36.4975711  52.3800006  81.3600841  37.0681349
  37.7048074  72.5714615  45.3165418  37.1601542  73.3474423  45.4485692
  38.5827424  72.9185420  45.1584539  57.7410506  73.3236369  38.8692158
  58.1841652  72.5743694  38.4711282  56.8637016  73.3146506  38.4865890
  52.8746287  79.8766711  34.3498757  53.5697192  80.4973403  34.5686072
  53.2169437  79.0262062  34.6251135  38.4914096  71.6984512  48.2095574
  37.7495832  71.8467147  48.7960205  38.1706840  71.9592777  47.3462324
  54.7737710  77.3266416  35.8786088  55.2989034  77.6653689  35.1535408
  54.6860063  76.3913432  35.6949222  46.4357759  81.2400490  48.0075964
  46.7444885  80.9949637  48.8798664  47.2333241  81.4447128  47.5194835
  46.4578371  83.3938399  40.2381341  46.0183361  82.9014778  40.9314198
  47.2086488  82.8511367  39.9973416  38.9370710  79.5849940  40.2405969
  39.7628730  79.2853712  39.8604613  38.5864762  78.8157563  40.6895758
  43.9052243  78.9376409  42.3103643  43.2832252  78.2747114  42.0105871
  44.5757110  78.9637540  41.6277290  37.1379315  77.5036267  41.1994903
  36.3011223  77.0758441  41.0178904  37.1102960  77.6968710  42.1365694
  43.9776770  67.4158197  51.9036149  44.0264926  68.2920319  51.5213918
  44.5199285  66.8735590  51.3307792  54.4631616  77.9599320  51.1837286
  53.6727160  77.9423459  50.6441785  54.2264971  78.4987614  51.9386322
  54.5829491  74.8091786  48.4970014  54.6327496  74.6441794  49.4385537
  54.4743414  73.9419045  48.1067895  43.4665750  77.4880332  35.7862103
  43.6153870  78.1715796  35.1328776  44.2732193  77.4685422  36.3011559
  51.8733254  70.7922714  49.8129321  52.7743116  70.6529179  49.5213319
  51.9481228  70.9577169  50.7527498  56.0847688  77.2288728  48.7412036
  55.7932496  77.5918708  49.5775497  55.4719819  76.5155736  48.5625368
  57.2843370  74.7941607  41.2614606  58.1190262  75.2331412  41.4252166
  57.4202499  74.3180261  40.4422852  54.3334876  72.3521342  47.2092094
  54.8088998  72.5448989  46.4010945  53.4100442  72.4080528  46.9635477
  41.2218383  73.5145510  36.7923172  40.9764425  72.6107840  36.9903382
  41.3914297  73.5162660  35.8502650  40.4914030  69.2473867  34.2909334
  39.7983275  69.3218222  33.6349370  40.2465782  68.4834211  34.8130850
  46.9661155  79.9828462  33.2573851  46.3935122  80.6018649  32.8044322
  47.5393949  80.5327824  33.7913773  50.1858415  80.2665612  34.3882433
  51.1189088  80.2011174  34.5915308  50.0981628  81.1021879  33.9296966
  52.8146432  79.5831483  31.3486380  52.7360063  79.2491346  32.2422138
  53.6356099  80.0753251  31.3477853  55.5124623  72.4493222  44.5562699
  55.4800943  71.5109223  44.7422383  56.1225247  72.5277259  43.8228524
  47.3507954  71.3189275  30.5989903  48.2967059  71.1895483  30.6678321
  46.9722199  70.5803937  31.0759331  55.6619111  69.2404266  44.6020982
  55.1458160  68.4562722  44.4150911  56.5459060  68.9122982  44.7667502
  61.3301173  73.5109229  43.6968736  62.0604561  73.2494517  44.2576439
  60.7208118  72.7737951  43.7370804  59.4116470  71.6517092  44.2943187
  58.6849634  71.5173056  43.6859679  58.9963757  71.9593920  45.0999905
  47.2346646  75.3707021  52.0590560  48.1549656  75.5485620  52.2530607
  47.1996229  74.4263067  51.9070259  36.4528811  70.5645615  40.9843835
  36.1331596  69.7110923  40.6918209  35.9062240  70.7794193  41.7401802
  40.2308719  73.2808056  44.7013341  40.4494729  74.2125164  44.7201375
  40.6434493  72.9216030  45.4868145  45.1036584  68.8541262  54.0916090
  45.0033311  69.8035619  54.0228181  44.8858126  68.5259501  53.2192160
  36.3217071  74.1848526  42.9536956  35.6280543  73.7702479  42.4406911
  37.0690062  74.2269063  42.3570375  44.9667854  72.2838400  52.9081152
  44.4834936  73.0838761  53.1145041  45.0528793  72.2946345  51.9548596
  38.2353814  74.1166780  40.8302971  38.2124502  74.2154467  39.8784854
  38.5454450  74.9631931  41.1520137  40.8941192  76.1742935  44.9449586
  41.8484445  76.1426878  44.8779517  40.6953715  75.7133559  45.7599812
  41.4840574  74.7444051  47.5120383  42.3033463  75.2388130  47.5355221
  41.7577382  73.8276019  47.4837951  39.2491421  81.7162555  41.9619783
  39.1145889  80.9562956  41.3957782  38.8323483  82.4403455  41.4948572
  50.3850384  76.8999478  30.9696359  51.0886234  77.1049481  31.5854014
  49.6613032  77.4676240  31.2345442  51.2148194  72.6509339  37.0898629
  51.1583395  73.1077891  36.2506261  51.7676536  71.8900024  36.9121472
  59.3365338  71.1795145  40.4220040  58.7764896  71.2488334  41.1951602
  58.7308841  71.0036129  39.7019536  42.4060546  82.6131872  42.1738226
  42.2892931  83.5577304  42.0716916  41.5852993  82.3105433  42.5624025
  52.2937081  77.3382007  33.0194819  53.1282685  76.9063206  32.8372294
  52.1321424  77.1664021  33.9471713  51.9482973  73.8414121  34.3851158
  51.8931777  73.6758392  33.4439602  51.3229028  74.5490154  34.5413348
  36.7375488  69.0782185  48.2112580  37.3834352  68.5681139  48.6999806
  36.5292639  69.8150867  48.7856006  49.2628880  76.1463033  53.7104721
  50.1320040  76.3203685  53.3491356  48.7835632  76.9657449  53.5880450
  43.4315061  83.2660134  45.3894155  44.3342307  83.2983744  45.7060650
  43.2052431  82.3360585  45.4040490  45.1868663  82.0191120  42.0504233
  44.2364294  82.0192982  41.9368605  45.4901149  81.2723855  41.5340268
  41.0772979  66.2249802  52.3087595  41.9404441  65.8686607  52.5190919
  40.5038390  65.8863697  52.9962999  57.7311062  87.8079087  43.0511520
  57.3929574  87.6920151  42.1632055  58.6000831  87.4070252  43.0312526
  53.5897878  89.6614563  39.0408411  53.0262743  89.5704500  38.2724699
  53.4750273  88.8414467  39.5210904  58.2130845  88.9613938  49.0097726
  58.2019486  88.5666737  48.1378229  58.3751485  88.2280011  49.6031497
  55.8594313  89.1227899  44.5478269  56.4557886  88.8983921  43.8335232
  55.9169285  88.3812644  45.1503717  55.4319342  86.5767334  32.3828460
  55.6844862  86.0548855  31.6211923  54.4943901  86.4133479  32.4855144
  60.4762625  85.5803112  40.1903204  61.2625714  85.1622536  39.8393621
  60.7401329  86.4849205  40.3584852  55.1515631  88.4795440  34.5852835
  55.0351889  87.8040343  35.2533920  55.2617890  87.9927814  33.7684988
  57.4947171  87.9405587  38.2899525  57.1305379  87.4136208  39.0012446
  58.3514287  87.5504056  38.1166010  63.3996472  79.2299920  45.5530791
  63.0679797  80.0995331  45.3292006  62.8042085  78.9136204  46.2324821
  57.1352658  82.9695487  33.2860873  57.3027061  83.8375723  33.6531344
  56.9449827  83.1322768  32.3622162  53.3440473  87.8826263  40.9863408
  52.4190970  87.7502477  41.1941100  53.5924886  88.6620482  41.4833350
  63.2925135  83.9495006  42.6324141  62.3842013  83.8810414  42.3382902
  63.2412731  84.4266951  43.4605966  57.1141879  85.4253144  34.2707540
  56.9941504  85.8710195  35.1093020  56.4194468  85.7738462  33.7121078
  50.7049284  87.5259536  41.8207197  50.8341665  87.7794015  42.7346609
  50.0246735  88.1187244  41.5011852  57.3666001  85.3684651  50.5759038
  56.5899335  85.9278572  50.5661903  58.0056564  85.8541434  51.0973908
  65.1586782  82.1511444  44.4102015  64.5161162  82.4443977  43.7641809
  64.6541710  82.0364365  45.2155211  55.6212373  88.1770105  50.1377005
  56.3627058  88.7155149  49.8611829  54.9149359  88.8036394  50.2948557
  57.4498783  85.2571852  46.1082723  58.2959978  85.6811266  46.2517372
  57.3897421  84.6005476  46.8021287  60.5998228  82.9176220  47.7663897
  60.3559160  83.6718281  47.2298173  60.8758159  83.2961568  48.6011144
  60.1562920  82.0732653  43.3477735  59.2947399  82.3713907  43.6394472
  60.1825355  82.2903052  42.4158767  55.9093376  86.7397996  36.5641106
  56.6117419  87.1919040  37.0315032  55.5774004  86.0981815  37.1920999
  54.3573737  85.3309753  50.9392315  53.7272398  86.0126034  51.1727712
  54.2509825  85.2192835  49.9945453  49.6518710  84.9981549  41.8658239
  48.8617764  85.2539078  41.3898350  50.1429957  85.8129887  41.9710280
  51.6033455  85.3626128  38.8241716  50.8064618  85.4744823  39.3425212
  51.3759047  85.7012780  37.9582606  47.9356413  85.2512039  44.2973230
  48.1864451  86.1359049  44.5630806  48.4715961  85.0716641  43.5248322
  53.6354480  79.6330519  53.3017566  53.2421426  79.0796717  53.9765210
  54.4520620  79.9441097  53.6924084  56.5522441  81.0488398  50.8937823
  57.2932154  81.6495551  50.8142285  56.7840364  80.3066036  50.3355865
  51.6963779  86.2344765  49.1716052  51.5817294  85.3330022  49.4723151
  50.8408297  86.4808462  48.8200869  60.4979604  77.0769501  45.1702104
  60.1543873  77.9671143  45.0941215  60.8658566  76.8871158  44.3071689
  58.0476998  81.9127813  38.7359778  57.1918594  81.5234663  38.5565417
  58.4603949  81.9919774  37.8759563  59.5776144  79.4474156  43.1351338
  59.0740940  79.4104291  42.3219143  59.8706751  80.3566899  43.1947994
  55.8219030  79.5312886  42.1417519  56.6872027  79.3355694  41.7823409
  55.8896539  79.3023238  43.0686876  60.2516190  84.9405204  35.5034321
  59.9466325  85.2551353  36.3544464  61.2046632  85.0186624  35.5461654
  53.4281349  81.7615094  39.5133886  54.0025101  81.5390275  38.7807079
  54.0152332  81.8303788  40.2662487  53.7550936  83.7919555  33.5329771
  52.9188249  84.1294241  33.8539046  53.6155706  83.6568534  32.5956908
  55.7304017  78.6356343  38.2408956  55.0768429  78.3205360  37.6165570
  55.6884491  78.0132083  38.9668779  56.8415222  88.9175638  30.1562248
  55.9342284  88.6864891  30.3553397  57.3386254  88.1213257  30.3436229
  58.9641757  85.1238276  42.5656603  58.0464319  85.3453223  42.4078291
  59.3801901  85.1984587  41.7068311  59.7476805  86.5229692  37.6959283
  60.4948624  87.0351089  37.3866406  60.0168395  86.2013745  38.5563677
  62.1955642  83.5586808  39.6778073  61.4578399  83.0464194  40.0088315
  62.4482416  83.1187190  38.8661350  62.2967270  76.3363060  40.2719842
  62.6026146  75.4760423  39.9845757  63.0219874  76.9280680  40.0718836
  48.5891626  86.7393747  38.6601440  48.3916025  86.1463107  37.9352507
  48.0338290  86.4345957  39.3777379  56.5688349  86.6316853  40.7796033
  56.6236959  85.6790690  40.7038510  55.7579551  86.7876292  41.2637332
  54.5080709  85.2493913  38.5386412  53.6948575  85.5488083  38.9451604
  55.0039703  84.8549602  39.2560894  60.1054921  85.7135737  47.3701306
  60.4604309  85.9407210  48.2295772  60.7527052  86.0454114  46.7478561
  53.9994784  82.8212268  44.1547647  54.6394163  82.6801027  43.4570610
  53.1672315  82.5346782  43.7786249  51.0837851  86.2657781  36.3442392
  50.1535439  86.2042236  36.5612354  51.1795323  85.7433733  35.5479033
  51.0023400  82.7912593  38.9320634  51.2630218  83.7057927  38.8229794
  51.8240573  82.3237036  39.0817247  52.4748326  84.2050351  46.1019458
  53.1471379  83.9967713  45.4532107  51.6478112  84.0072437  45.6624691
  58.3773898  80.8312291  48.1185119  57.7301813  81.5302241  48.0249596
  59.1474913  81.2648435  48.4861367  52.8775823  87.4792954  46.8621895
  52.7395621  86.7473192  47.4633434  53.7880746  87.3901854  46.5806083
  55.5058124  87.1912913  46.3505575  56.2157742  86.5506105  46.3092193
  55.4627432  87.4425808  47.2731756  54.2187058  84.1778131  48.1701215
  53.6824415  83.7268869  48.8222811  53.6303766  84.3124040  47.4271679
  53.6289317  83.6366782  30.7327678  52.7518783  83.5155583  30.3689925
  54.1047070  82.8452860  30.4806567  49.9526179  83.3134138  45.2554209
  49.8684368  82.7059808  44.5204619  49.1308885  83.8043157  45.2563705
  60.1249893  81.7987702  40.6224404  60.6218592  81.0457664  40.3025474
  59.3536874  81.8352019  40.0567613  56.7084861  83.9405085  40.3496089
  56.3382649  83.3876125  41.0376994  57.2043954  83.3363218  39.7971089
  62.5668887  78.7657295  42.7703763  61.6531967  78.9961522  42.9385970
  62.9961989  78.8495740  43.6217795  58.3862919  87.6966998  51.7569694
  57.7103556  87.5961128  52.4272069  59.2090553  87.5406212  52.2205691
  44.7259433  86.5044535  43.0986652  44.7643532  85.9708126  43.8923771
  44.2199726  85.9779741  42.4797630  52.1050195  81.3509076  46.5949195
  52.1691522  82.2123907  46.1826592  52.0417315  80.7383077  45.8621553
  51.5802468  83.4232208  50.2422229  52.2074506  83.0409286  50.8559753
  50.7230387  83.2046410  50.6077922  48.3568010  85.2308637  36.1740584
  48.6521451  84.3219316  36.1207638  47.4556046  85.2096377  35.8521586
  51.8862257  83.3064634  42.1568132  51.1648843  83.9200602  42.0175606
  52.6755513  83.8422399  42.0784778  54.6888571  80.6419060  48.4308784
  55.2122973  80.8881357  49.1935094  54.4700904  81.4739095  48.0111922
  50.0855852  82.9122735  36.2979909  49.7568558  82.0320114  36.1155015
  50.4395223  82.8570404  37.1856298  53.1997675  83.1995705  36.6655387
  53.5393748  83.7281626  35.9433995  53.6469796  83.5376111  37.4413953
  55.8941116  81.5832756  46.1158455  55.5537936  80.7840569  46.5179135
  55.1880122  81.8834466  45.5435288  56.5457588  78.6682068  44.5685778
  57.3683657  78.1942546  44.4464668  56.7895651  79.4472552  45.0684464
  55.1865822  81.6970326  34.8648679  55.9074185  82.0751579  34.3612396
  54.5631126  82.4159203  34.9683657  59.3296945  82.4015475  35.8007012
  59.5460560  83.2840113  35.4995840  58.8491012  82.0101689  35.0712654
  54.0696167  85.3601189  42.3777756  53.9240747  85.6741492  43.2702038
  53.5921370  85.9786089  41.8248655  55.9292549  82.3503737  42.4258646
  55.9154118  81.4544830  42.0890944  56.6464978  82.3574400  43.0596932
  57.7818680  82.7841077  44.4711773  57.5236458  83.7058147  44.4696104
  57.2503721  82.3871511  45.1612237  55.3329445  81.2318117  37.6946216
  55.4545357  80.3034763  37.8937104  55.0431488  81.2456803  36.7824531
  58.2020636  78.9173027  40.8312936  58.2242333  78.9812360  39.8764915
  58.6188695  78.0777536  41.0253442  49.3307851  87.0276429  48.2095574
  48.5889587  87.1759065  48.7960205  49.0100595  87.2884695  47.3462324
  54.8170525  82.7450114  51.9036149  54.8658680  83.6212237  51.5213918
  55.3593039  82.2027507  51.3307792  57.0469813  83.4981487  48.6582507
  56.1773123  83.7915053  48.3865096  57.2829294  84.0821932  49.3789771
  52.0612137  88.8437427  36.7923172  51.8158179  87.9399757  36.9903382
  52.2308052  88.8454578  35.8502650  59.7508847  79.7161104  46.1747928
  60.2690791  80.4522131  45.8494416  59.3963980  80.0225097  47.0094687
  51.3307785  84.5765785  34.2909334  50.6377030  84.6510140  33.6349370
  51.0859537  83.8126128  34.8130850  60.0021441  76.1361386  41.6948824
  60.2823195  75.4684575  42.3209251  60.7872048  76.3290482  41.1823488
  61.8944679  81.6434603  45.6279800  61.2994611  81.9239616  44.9326289
  61.6094376  82.1328504  46.3996541  58.1901708  86.6481193  30.5989903
  59.1360813  86.5187401  30.6678321  57.8115953  85.9095855  31.0759331
  64.1623593  78.3137199  40.5616795  63.9648414  78.0052287  41.4460127
  64.7723298  79.0398838  40.6914725  56.3744626  84.5731169  30.5344788
  55.4676081  84.2764282  30.6107502  56.6520607  84.2760987  29.6679075
  47.2922566  85.8937533  40.9843835  46.9725350  85.0402841  40.6918209
  46.7455994  86.1086111  41.7401802  57.9906691  79.1168059  36.6889030
  57.1807420  78.7715144  37.0644276  58.6791108  78.8075603  37.2776641
  59.9197240  78.1946106  38.3113326  60.4728278  78.6141559  38.9703349
  60.1567326  77.2681854  38.3536282  55.9430339  84.1833179  54.0916090
  55.8427066  85.1327536  54.0228181  55.7251881  83.8551418  53.2192160
  55.1443410  81.4318104  30.6756768  56.0062574  81.7573003  30.9352585
  55.3293754  80.6449600  30.1629833  63.2976047  80.3046631  37.8191991
  62.7174716  80.9631435  37.4370043  63.0311979  79.4823975  37.4079408
  61.7479613  79.7051689  40.0213311  62.2479391  79.8168223  39.2127630
  62.3915221  79.4012741  40.6614119  55.8061609  87.6130318  52.9081152
  55.3228691  88.4130678  53.1145041  55.8922548  87.6238263  51.9548596
  62.0800925  82.4646721  36.8748339  61.1926780  82.7496372  36.6568534
  62.4954914  82.3040485  36.0275616  65.4315461  82.4893242  40.5902678
  66.2075851  82.9789695  40.8627295  64.7063595  82.9151296  41.0474548
  47.5769243  84.4074103  48.2112580  48.2228106  83.8973057  48.6999806
  47.3686394  85.1442784  48.7856006  56.0972853  78.6714147  33.9636477
  56.0851523  79.6155987  34.1204747  56.9896275  78.4884293  33.6695938
  59.9124973  75.2656924  38.2182413  59.1457368  74.7115411  38.3639096
  60.3235678  75.3378793  39.0796565  51.9166734  81.5541720  52.3087595
  52.7798195  81.1978525  52.5190919  51.3432144  81.2155615  52.9962999
  17.5646339   3.5446110  29.8395302  18.2024749   3.4252858  29.1358642
  17.4467182   4.4926954  29.8983254  14.3736046   3.4973539  29.7756827
  14.0354557   3.3814603  28.8877362  15.2425814   3.0964704  29.7557833
  14.8555829   4.6508390  35.7343032  14.8444469   4.2561189  34.8623536
  15.0176468   3.9174463  36.3276804  15.8122420   9.0179983  21.0768183
  15.1610400   9.6034063  20.6902197  16.6066783   9.5486178  21.1363220
  11.5763090   7.4345502  34.6822216  11.2852956   8.3391133  34.5668883
  12.2120074   7.4762030  35.3966286  12.5019297   4.8122351  31.2723576
  13.0982869   4.5878373  30.5580539  12.5594268   4.0707096  31.8749024
  17.1187608   1.2697564  26.9148510  17.9050697   0.8516987  26.5638927
  17.3826312   2.1743656  27.0830159  22.5196035   1.2072797  27.8181489
  23.2521207   0.6372014  28.0519318  21.7635391   0.8194398  28.2587994
  14.1372155   3.6300039  25.0144831  13.7730362   3.1030660  25.7257753
  14.9939271   3.2398508  24.8411317  16.5352975   7.1206918  31.6772010
  16.2353698   8.0231956  31.5687817  16.1904034   6.8539101  32.5293163
  19.9350119  -0.3610542  29.3569447  19.0266996  -0.4295134  29.0628208
  19.8837714   0.1161403  30.1851273  11.5173755  13.8851238  24.6442978
  11.4397784  14.8359063  24.7231458  10.9135398  13.5397110  25.3017904
  17.7392696   6.0093697  35.4594473  18.1476052   5.5676108  34.7149106
  17.0169958   5.4346325  35.7128666  18.0621511   6.5694888  29.2146762
  17.4330373   6.7340602  28.5122830  17.6747173   6.9836497  29.9857726
  21.9410743   7.5049326  26.5691126  21.2561781   7.8848227  26.0188159
  22.0254592   8.1144652  27.3023074  19.1961675   5.1509285  33.1686469
  19.4078570   5.7941045  32.4920850  19.1491423   4.3171601  32.7008399
  13.6149473   6.3069296  26.4796847  14.0787818   6.5856999  25.6901470
  13.3506271   5.4052740  26.2969938  10.5073554   5.8540777  29.4176610
  11.0774911   6.2828046  28.7794095  11.0981666   5.5723362  30.1160796
  20.3107503   8.0281240  31.3408827  21.1324946   7.6261427  31.0591508
  20.3069905   7.9249474  32.2924942  14.0764106   7.5765283  33.4969537
  14.1408538   8.0385691  34.3327709  13.3675030   6.9462648  33.6251847
  28.4013496   4.3719989  27.6893798  27.6477204   3.8027387  27.5337803
  28.5361037   4.3382653  28.6364433  13.7912124   9.2433391  23.3648518
  13.6557798  10.0884927  23.7933365  14.3321936   9.4452669  22.6014451
   9.0536406   9.8774585  26.0199196   9.2303034  10.7992550  25.8320180
   9.8493239   9.5633004  26.4493576  15.4180600   9.8656957  37.4948860
  14.9744454   9.0793336  37.1769764  16.0797814  10.0536108  36.8292750
  10.1767721  11.3952759  32.0209538  10.7275146  11.2669822  31.2486532
   9.3379197  11.6947648  31.6704431  17.5161838  10.1459757  35.5230261
  17.4980313  10.9668638  35.0310530  18.4381758  10.0213833  35.7480402
  13.9734892   7.6603887  36.3653769  14.5063229   6.8992175  36.1353077
  13.4448973   7.3677539  37.1077924  22.0789144   5.5104919  22.3373020
  21.3018587   5.1716078  21.8928182  22.7580625   5.5157542  21.6627985
  15.3387605   6.7889879  23.8772581  14.8108966   6.0542639  23.5645819
  14.8375108   7.5664556  23.6312550  20.3180451   4.9838900  28.9939628
  19.6604125   5.6738161  29.0819756  21.1220850   5.3735332  29.3373614
  19.1285910   3.3383272  27.0443569  19.6417791   3.9713264  27.5465279
  19.7787134   2.7384468  26.6786929  16.3908284  13.3167597  19.8004240
  15.7169983  13.6199293  20.4089198  16.7774106  14.1196677  19.4509698
  16.3901788   2.2124144  24.4204590  17.1373607   2.7245541  24.1111712
  16.6593378   1.8908196  25.2808984  19.8947706   8.3189274  25.1722712
  19.4410033   7.4780184  25.2287902  19.2641673   8.9550672  25.5097492
  18.3380645  10.1565771  26.1072530  18.6303620  10.7170828  25.3884896
  18.8479266  10.4494332  26.8625689  13.3014270  10.9346122  27.1965983
  13.2590449  11.1606968  26.2674515  14.2176969  10.7009496  27.3451784
  16.7479904   1.4030189  34.0946612  17.1029292   1.6301662  34.9541078
  17.3952035   1.7348566  33.4723868  22.4777641   4.5248625  24.7995942
  22.3395540   4.7150221  23.8717131  22.1213860   5.2868008  25.2563993
  22.5047021   6.5925152  29.8107213  22.9383527   6.5000441  30.6590267
  23.2178601   6.5682653  29.1727229  11.4180071   7.8109151  26.9927946
  12.2120670   7.3159471  26.7910521  10.7071764   7.2827014  26.6295652
  16.2374916  10.1927246  31.3440314  16.2911938  10.7618183  32.1118030
  15.3689697  10.3629131  30.9794351  23.3662570   6.6348853  32.3440098
  23.5598460   7.5394663  32.5899373  23.2663188   6.1756272  33.1778683
  18.4277679   6.7855596  37.9180979  18.2763185   6.5566147  37.0011063
  18.4182358   7.7426197  37.9312324  15.1963015   4.3587508  32.9027245
  16.1255075   4.5098668  32.7296213  14.7754045   4.4471529  32.0475892
  13.9951347   8.3838173  30.6725783  13.8562433   8.0156957  31.5451721
  13.2065943   8.8985812  30.5009741  14.5899499  13.4847269  22.0151320
  14.7651255  13.0135312  22.8296942  13.9032287  14.1113035  22.2432580
  15.5456562   7.7619775  28.0614621  15.2106395   7.7220545  28.9572271
  15.0460508   7.0964491  27.5885031  20.1369886   9.8174718  35.9957461
  20.0782432   9.1333938  35.3288044  20.5389404  10.5593708  35.5438087
   9.1560584  16.6336632  28.7891180   9.3957183  17.2655156  29.4670198
   8.3129781  16.2824672  29.0756539  20.1387293   7.7814302  34.2271441
  19.2514072   7.4440224  34.3497839  20.7085844   7.0497333  34.4640206
  13.6688446  12.4415754  31.1932684  13.5958618  13.2470726  31.7051988
  13.2265839  12.6407720  30.3680705  13.4578226  11.6787524  24.7035505
  12.6745748  12.2209205  24.7973730  14.1570971  12.1961504  25.1029747
  24.6204633   3.1922519  28.9888002  24.6094510   4.0747235  28.6181935
  23.7522013   2.8394070  28.7942539  16.1287130  12.3402588  33.3490842
  16.8415102  12.9750053  33.2766744  15.6377158  12.4366454  32.5330844
  17.8504657   6.2453841  24.9208134  16.9160935   6.3655304  24.7512838
  18.0281325   5.3426308  24.6568144  21.2377208   2.0871160  25.4558168
  21.7037660   2.9199152  25.3818471  21.6884709   1.6216142  26.1603427
  11.1799043  10.0897032  34.1696413  11.8808503  10.7233515  34.3225807
  10.7094158  10.4311763  33.4092053  19.3053439   8.4314982  22.4544320
  19.5813283   8.3171576  23.3638194  18.4357938   8.0332466  22.4156493
  18.9800329   2.6441639  31.9948964  18.3271780   2.8917547  31.3401416
  19.3580709   1.8305777  31.6611441  15.9407503  12.6801332  26.0977134
  16.1229898  11.8622988  26.5604886  16.7640489  12.8969025  25.6602024
  16.2749669  11.6069518  23.3592182  16.8037435  11.0961972  22.7462344
  16.5377888  11.2912048  24.2237715  15.0287902   3.3861450  38.4815001
  14.3528539   3.2855580  39.1517376  15.8515536   3.2300664  38.9450998
   6.7766761   9.6233387  31.1027516   7.3620198   8.8777075  31.2355420
   6.5791600   9.9337344  31.9864180   9.6305417  12.6584634  26.1189958
   8.9615792  13.1430762  25.6353998   9.4918286  12.9053855  27.0333337
  13.7710685  14.6928378  32.7172617  14.3228993  14.8559999  33.4821702
  14.1116879  15.2832816  32.0452642  18.6221560   9.5189635  38.5721271
  19.1661463  10.1319594  38.0776226  18.0408404  10.0769214  39.0888284
  16.9079072  12.6410353  29.7036299  16.7830212  11.8400093  29.1947244
  17.5658164  13.1356547  29.2150269  18.9713981  10.4419373  31.3315849
  18.0244316  10.3224725  31.2594176  19.3196754   9.5541871  31.4142110
  15.9760414  10.2372090  27.5320201  15.8285377   9.3088797  27.7127771
  16.8013908  10.2592180  27.0477276  19.5794536  11.0600648  28.6185074
  20.5041083  10.8543510  28.4809525  19.4109839  10.8117050  29.5274415
  19.3689852  11.5786316  23.9747165  19.5426730  11.0132738  23.2221018
  19.8618743  12.3787211  23.7926655  25.2229243   4.3422739  25.5937465
  25.6660389   3.5930064  25.1956588  24.3455754   4.3332875  25.2111197
  20.3565025  10.8953080  21.0744064  21.0515929  11.5159773  21.2931378
  20.6988175  10.0448431  21.3496442  22.2556448   8.3452786  22.6031394
  22.7807772   8.6840059  21.8780714  22.1678800   7.4099801  22.4194529
  13.9176497  12.2586859  34.7321271  14.2263623  12.0136006  35.6043971
  14.7151979  12.4633498  34.2440141  13.9397109  14.4124769  26.9626648
  13.5002099  13.9201148  27.6559504  14.6905226  13.8697737  26.7218723
   6.4189448  10.6036310  26.9651276   7.2447467  10.3040082  26.5849919
   6.0683500   9.8343932  27.4141064  11.3870981   9.9562778  29.0348949
  10.7650990   9.2933483  28.7351177  12.0575848   9.9823910  28.3522597
  21.9450354   8.9785689  37.9082592  21.1545898   8.9609828  37.3687092
  21.7083708   9.5173983  38.6631629  22.0648229   5.8278156  35.2215321
  22.1146234   5.6628163  36.1630844  21.9562152   4.9605415  34.8313202
  19.3551991   1.8109084  36.5374628  20.2561854   1.6715549  36.2458625
  19.4299966   1.9763539  37.4772805  23.5666426   8.2475097  35.4657342
  23.2751234   8.6105078  36.3020803  22.9538557   7.5342106  35.2870675
  24.7662108   5.8127977  27.9859913  25.6008999   6.2517781  28.1497473
  24.9021237   5.3366630  27.1668158  21.8153614   3.3707712  33.9337400
  22.2907736   3.5635358  33.1256252  20.8919179   3.4266898  33.6880784
  20.5155283   0.2473472  32.1665706  21.4672706   0.3471570  32.1877930
  20.3458733  -0.5448259  32.6763790  17.6677153  11.2851982  21.1127740
  18.6007826  11.2197544  21.3160615  17.5800366  12.1208249  20.6542272
  20.2965170  10.6017852  18.0731687  20.2178801  10.2677716  18.9667445
  21.1174836  11.0939620  18.0723159  22.9943361   3.4679592  31.2808006
  22.9619681   2.5295592  31.4667690  23.6043984   3.5463628  30.5473831
  23.1437849   0.2590635  31.3266289  22.6276898  -0.5250908  31.1396218
  24.0277798  -0.0690648  31.4912808  28.8119911   4.5295599  30.4214042
  29.5423299   4.2680887  30.9821746  28.2026856   3.7924320  30.4616110
  26.8935208   2.6703461  31.0188494  26.1668371   2.5359426  30.4104985
  26.4782495   2.9780290  31.8245212  14.7165384   6.3893391  38.7835867
  15.6368394   6.5671990  38.9775913  14.6814967   5.4449436  38.6315566
  22.0740444  -1.8212306  27.3147985  22.8500834  -1.3315853  27.5872601
  21.3488578  -1.3954252  27.7719854  24.5113003  -1.1084687  28.3721925
  25.1057493  -1.3488951  27.6615234  24.5839586  -1.8277556  28.9995462
   6.7310158  12.7348924  28.6865090   6.5964626  11.9749325  28.1203088
   6.3142221  13.4589824  28.2193879  18.6966932   3.6695709  23.8143936
  18.6402133   4.1264260  22.9751568  19.2495274   2.9086394  23.6366778
  22.5071738  -0.5414559  24.6394055  22.2508672  -0.9417923  25.4702263
  21.8824606   0.1729235  24.5144194  26.8184075   2.1981514  27.1465346
  26.2583633   2.2674703  27.9196909  26.2127579   2.0222499  26.4264843
   9.8879284  13.6318241  28.8983533   9.7711668  14.5763674  28.7962223
   9.0671731  13.3291803  29.2869332  19.7755819   8.3568377  19.7440125
  20.6101423   7.9249575  19.5617600  19.6140162   8.1850391  20.6717020
  16.7447618   7.1649402  40.4350028  17.6138778   7.3390054  40.0736662
  16.2654370   7.9843819  40.3125757  10.9133798  14.2846503  32.1139461
  11.8161045  14.3170113  32.4305956  10.6871168  13.3546954  32.1285797
  12.6687400  13.0377490  28.7749540  11.7183031  13.0379351  28.6613912
  12.9719887  12.2910224  28.2585574  21.0716616  20.6800933  25.7653718
  20.5081481  20.5890870  24.9970006  20.9569011  19.8600837  26.2456210
  18.6181048  22.1752124  28.6037938  19.4102340  21.8342949  28.1884238
  18.8577698  22.2847099  29.5240092  20.5771802  21.4361037  21.4755317
  21.3502678  20.8890025  21.3368193  20.9297201  22.3005287  21.6869778
  22.9138080  17.5953704  19.1073767  23.1663600  17.0735225  18.3457230
  21.9762639  17.4319849  19.2100451  27.9581362  16.5989482  26.9148510
  28.7444452  16.1808905  26.5638927  28.2220067  17.5035574  27.0830159
  28.1291440  22.0362332  21.6137167  27.4937273  22.1096959  22.3258072
  27.7988846  22.6255931  20.9356246  33.3589790  16.5364715  27.8181489
  34.0914961  15.9663932  28.0519318  32.6029145  16.1486316  28.2587994
  22.6334368  19.4981810  21.3098142  22.5170626  18.8226713  21.9779226
  22.7436628  19.0114183  20.4930295  24.9765909  18.9591957  25.0144831
  24.6124116  18.4322578  25.7257753  25.8333025  18.5690426  24.8411317
  30.8815210  10.2486289  32.2776097  30.5498535  11.1181700  32.0537312
  30.2860823   9.9322573  32.9570128  24.6171396  13.9881856  20.0106180
  24.7845799  14.8562093  20.3776651  24.4268565  14.1509138  19.0867469
  20.8259211  18.9012632  27.7108715  19.9009707  18.7688846  27.9186406
  21.0743624  19.6806851  28.2078657  30.7743873  14.9681375  29.3569447
  29.8660751  14.8996784  29.0628208  30.7231469  15.4453320  30.1851273
  24.5960617  16.4439514  20.9952847  24.4760242  16.8896565  21.8338327
  23.9013205  16.7924832  20.4366385  18.1868022  18.5445906  28.5452504
  18.3160403  18.7980385  29.4591915  17.5065473  19.1373614  28.2257159
  24.8484739  16.3871021  37.3004345  24.0718073  16.9464941  37.2907209
  25.4875302  16.8727804  37.8219215  32.6405520  13.1697814  31.1347321
  31.9979900  13.4630347  30.4887116  32.1360448  13.0550734  31.9400518
  30.2945683  16.9160987  21.8233181  31.2063539  17.1488374  21.6480878
  29.7855330  17.4998031  21.2608259  24.9317521  16.2758222  32.8328030
  25.7778716  16.6997635  32.9762679  24.8716159  15.6191846  33.5266593
  28.0816966  13.9362590  34.4909204  27.8377898  14.6904650  33.9543479
  28.3576897  14.3147938  35.3256451  27.6381658  13.0919023  30.0723041
  26.7766137  13.3900277  30.3639779  27.6644093  13.3089422  29.1404074
  23.3912113  17.7584366  23.2886412  24.0936157  18.2105410  23.7560339
  23.0592742  17.1168185  23.9166305  21.8392475  16.3496123  37.6637622
  21.2091136  17.0312403  37.8973019  21.7328563  16.2379204  36.7190760
  17.1337447  16.0167919  28.5903546  16.3436501  16.2725447  28.1143656
  17.6248695  16.8316256  28.6955586  19.0852193  16.3812498  25.5487023
  18.2883356  16.4931192  26.0670518  18.8577785  16.7199150  24.6827913
  15.4175150  16.2698409  31.0218537  15.6683189  17.1545419  31.2876113
  15.9534699  16.0903011  30.2493628  21.1173218  10.6516888  40.0262873
  20.7240163  10.0983087  40.7010517  21.9339358  10.9627467  40.4169390
  18.0835275  22.0900747  23.9376443  18.5959796  22.8843997  24.0882007
  18.7357988  21.3927037  23.8710044  24.0341179  12.0674767  37.6183129
  24.7750892  12.6681921  37.5387592  24.2659102  11.3252405  37.0601172
  19.1782517  17.2531135  35.8961359  19.0636032  16.3516392  36.1968458
  18.3227034  17.4994832  35.5446176  27.9798342   8.0955870  31.8947411
  27.6362611   8.9857512  31.8186522  28.3477304   7.9057528  31.0316996
  16.0484192  20.4189401  24.7136013  16.8859414  20.8286409  24.4969721
  16.2262460  19.4788843  24.6836207  27.9448624  18.0864482  20.4019846
  27.4295248  18.8569086  20.6408234  27.6725933  17.4129618  21.0252908
  25.5295735  12.9314182  25.4605084  24.6737332  12.5421033  25.2810723
  25.9422687  13.0106143  24.6004870  27.0594882  10.4660526  29.8596644
  26.5559678  10.4290661  29.0464450  27.3525489  11.3753268  29.9193301
  23.3037768  10.5499255  28.8662826  24.1690765  10.3542064  28.5068715
  23.3715277  10.3209607  29.7932183  32.9182899  20.8396836  22.3373020
  32.1412341  20.5007996  21.8928182  33.5974379  20.8449459  21.6627985
  27.7334928  15.9591574  22.2279627  27.4285063  16.2737723  23.0789770
  28.6865370  16.0372994  22.2706960  20.9100087  12.7801463  26.2379193
  21.4843839  12.5576645  25.5052386  21.4971069  12.8490158  26.9907794
  29.9679664  18.6675190  27.0443569  30.4811546  19.3005182  27.5465279
  30.6180888  18.0676386  26.6786929  21.2369674  14.8105924  20.2575078
  20.4006986  15.1480611  20.5784353  21.0974444  14.6754904  19.3202215
  23.2122755   9.6542712  24.9654262  22.5587167   9.3391729  24.3410877
  23.1703229   9.0318453  25.6914085  24.3233960  19.9362007  16.8807554
  23.4161021  19.7051261  17.0798703  24.8204992  19.1399626  17.0681536
  26.4460495  16.1424646  29.2901910  25.5283056  16.3639593  29.1323598
  26.8620639  16.2170956  28.4313617  27.2295543  17.5416061  24.4204590
  27.9767362  18.0537459  24.1111712  27.4987132  17.2200114  25.2808984
  25.5022193  20.0374602  21.4031544  24.5933412  19.7533635  21.5004014
  25.5317277  20.4573681  20.5434851  29.6774380  14.5773178  26.4023379
  28.9397137  14.0650564  26.7333622  29.9301154  14.1373559  25.5906656
  29.7786007   7.3549430  26.9965149  30.0844884   6.4946793  26.7091064
  30.5038612   7.9467050  26.7964143  16.0710363  17.7580116  25.3846747
  15.8734763  17.1649477  24.6597813  15.5157027  17.4532326  26.1022685
  24.0507087  17.6503223  27.5041340  24.1055697  16.6977059  27.4283816
  23.2398289  17.8062662  27.9882638  25.1998281  21.5783346  18.7419623
  24.7617711  20.8619205  18.2825260  25.9408722  21.8059461  18.1804714
  21.9899447  16.2680282  25.2631719  21.1767313  16.5674453  25.6696911
  22.4858441  15.8735971  25.9806201  21.4813522  13.8398638  30.8792954
  22.1212901  13.6987397  30.1815917  20.6491052  13.5533151  30.5031556
  18.5656589  17.2844150  23.0687699  17.6354177  17.2228606  23.2857661
  18.6614061  16.7620103  22.2724340  18.4842138  13.8098963  25.6565940
  18.7448955  14.7244296  25.5475101  19.3059310  13.3423405  25.8062553
  19.9567063  15.2236720  32.8264765  20.6290117  15.0154082  32.1777414
  19.1296850  15.0258806  32.3869997  25.8592636  11.8498661  34.8430426
  25.2120551  12.5488611  34.7494902  26.6293651  12.2834805  35.2106674
  20.3594561  18.4979323  33.5867202  20.2214359  17.7659562  34.1878741
  21.2699484  18.4088223  33.3051390  29.3209508  20.4367727  18.3351681
  28.7038679  19.7114556  18.2384733  28.8525997  21.1977088  17.9918755
  21.7005795  15.1964500  34.8946521  21.1643152  14.7455239  35.5468117
  21.1122504  15.3310409  34.1516986  21.1108054  14.6553152  17.4572985
  20.2337521  14.5341952  17.0935231  21.5865807  13.8639230  17.2051873
  12.6310194  19.4430311  27.5514492  13.3181234  19.1292041  26.9635507
  12.4758323  20.3471676  27.2781743  17.4344917  14.3320508  31.9799516
  17.3503105  13.7246178  31.2449926  16.6127623  14.8229526  31.9809012
  27.6068630  12.8174072  27.3469711  28.1037330  12.0644034  27.0270781
  26.8355612  12.8538388  26.7812920  24.1903599  14.9591455  27.0741395
  23.8201387  14.4062495  27.7622301  24.6862692  14.3549588  26.5216395
  32.0770963  17.4163078  25.4558168  32.5431415  18.2491070  25.3818471
  32.5278463  16.9508060  26.1603427  30.0487625   9.7843665  29.4949070
  29.1350705  10.0147892  29.6631277  30.4780727   9.8682109  30.3463102
  17.6160516  24.9525305  31.1027516  18.2013953  24.2068992  31.2355420
  17.4185354  25.2629261  31.9864180  12.2078171  17.5230905  29.8231959
  12.2462270  16.9894495  30.6169077  11.7018463  16.9966110  29.2042936
  19.5868933  12.3695445  33.3194501  19.6510259  13.2310276  32.9071899
  19.5236053  11.7569447  32.5866860  19.0621205  14.4418578  36.9667536
  19.6893244  14.0595655  37.5805060  18.2049124  14.2232780  37.3323228
  15.8386748  16.2495007  22.8985890  16.1340189  15.3405685  22.8452944
  14.9374784  16.2282746  22.5766893  19.3680995  14.3251004  28.8813439
  18.6467581  14.9386971  28.7420912  20.1574251  14.8608768  28.8030085
  22.1707309  11.6605430  35.1554091  22.6941711  11.9067727  35.9180400
  21.9519642  12.4925465  34.7357228  17.5674590  13.9309105  23.0225216
  17.2387296  13.0506484  22.8400322  17.9213960  13.8756773  23.9101605
  20.6816413  14.2182074  23.3900693  21.0212485  14.7467996  22.6679302
  21.1288533  14.5562481  24.1659260  23.3759854  12.6019125  32.8403761
  23.0356674  11.8026938  33.2424441  22.6698860  12.9020836  32.2680595
  24.0276326   9.6868438  31.2931084  24.8502395   9.2128916  31.1709975
  24.2714389  10.4658921  31.7929771  22.6684560  12.7156696  21.5893986
  23.3892923  13.0937949  21.0857703  22.0449864  13.4345573  21.6928964
  26.8115683  13.4201845  22.5252318  27.0279297  14.3026483  22.2241147
  26.3309750  13.0288058  21.7957960  21.5514904  16.3787558  29.1023063
  21.4059485  16.6927861  29.9947345  21.0740108  16.9972459  28.5493962
  23.4111287  13.3690106  29.1503953  23.3972856  12.4731199  28.8136251
  24.1283715  13.3760770  29.7842239  25.2637418  13.8027446  31.1957080
  25.0055196  14.7244517  31.1941410  24.7322458  13.4057881  31.8857544
  16.0260566  18.9192903  32.0410724  15.4814035  19.6952711  32.1730999
  16.9039916  19.2663707  31.8829846  22.8148183  12.2504486  24.4191523
  22.9364094  11.3221133  24.6182410  22.5250226  12.2643172  23.5069838
  25.6839374   9.9359397  27.5558243  25.7061070   9.9998730  26.6010222
  26.1007433   9.0963906  27.7498749  36.0622998  19.6714656  25.5937465
  36.5054144  18.9221982  25.1956588  35.1849508  19.6624793  25.2111197
  16.8126588  18.0462799  34.9340881  16.0708324  18.1945434  35.5205511
  16.4919333  18.3071064  34.0707630  17.2583202  25.9328228  26.9651276
  18.0841222  25.6331999  26.5849919  16.9077254  25.1635850  27.4141064
  15.4591807  23.8514554  27.9240209  14.6223715  23.4236728  27.7424211
  15.4315453  24.0446997  28.8611000  22.2989263  13.7636484  38.6281455
  22.3477418  14.6398607  38.2459225  22.8411777  13.2213877  38.0553099
  24.5288551  14.5167856  35.3827814  23.6591861  14.8101422  35.1110402
  24.7648032  15.1008301  36.1035078  19.5430875  19.8623797  23.5168479
  19.2976917  18.9586127  23.7148689  19.7126790  19.8640947  22.5747957
  27.2327585  10.7347473  32.8993234  27.7509529  11.4708500  32.5739723
  26.8782718  11.0411466  33.7339993  18.8126523  15.5952154  21.0154640
  18.1195768  15.6696509  20.3594676  18.5678275  14.8312498  21.5376157
  27.4840179   7.1547756  28.4194131  27.7641933   6.4870945  29.0454557
  28.2690786   7.3476851  27.9068795  29.3763417  12.6620973  32.3525107
  28.7813349  12.9425986  31.6571596  29.0913114  13.1514874  33.1241848
  25.6720446  17.6667562  17.3235210  26.6179551  17.5373770  17.3923628
  25.2934691  16.9282224  17.8004638  31.6442331   9.3323568  27.2862102
  31.4467152   9.0238657  28.1705434  32.2542036  10.0585207  27.4160031
  23.8563363  15.5917539  17.2590095  22.9494819  15.2950651  17.3352809
  24.1339344  15.2947357  16.3924381  14.7741304  16.9123902  27.7089141
  14.4544088  16.0589210  27.4163515  14.2274732  17.1272480  28.4647109
  18.5521211  19.6286343  31.4258648  18.7707221  20.5603451  31.4446682
  18.9646985  19.2694318  32.2113452  25.4725429  10.1354428  23.4134336
  24.6626157   9.7901513  23.7889582  26.1609846   9.8261972  24.0021948
  27.4015977   9.2132475  25.0358633  27.9547016   9.6327929  25.6948656
  27.6386064   8.2868223  25.0781589  22.6262148  12.4504474  17.4002074
  23.4881312  12.7759372  17.6597892  22.8112492  11.6635970  16.8875140
  14.6429564  20.5326814  29.6782263  13.9493035  20.1180766  29.1652217
  15.3902555  20.5747350  29.0815682  30.7794784  11.3233000  24.5437297
  30.1993453  11.9817804  24.1615350  30.5130717  10.5010345  24.1324715
  29.2298351  10.7238058  26.7458617  29.7298129  10.8354593  25.9372936
  29.8733959  10.4199111  27.3859426  16.5566306  20.4645067  27.5548278
  16.5336994  20.5632755  26.6030161  16.8666943  21.3110218  27.8765444
  19.2153684  22.5221222  31.6694892  20.1696938  22.4905165  31.6024824
  19.0166208  22.0611846  32.4845118  29.5619662  13.4833091  23.5993645
  28.6745517  13.7682741  23.3813840  29.9773651  13.3226854  22.7520922
  32.9134199  13.5079612  27.3147985  33.6894589  13.9976064  27.5872601
  32.1882333  13.9337666  27.7719854  35.3506757  14.2207231  28.3721925
  35.9451248  13.9802967  27.6615234  35.4233341  13.5014362  28.9995462
  17.5703913  28.0640842  28.6865090  17.4358381  27.3041243  28.1203088
  17.1535975  28.7881742  28.2193879  29.5360686  18.9987627  23.8143936
  29.4795888  19.4556178  22.9751568  30.0889029  18.2378311  23.6366778
  33.3465492  14.7877359  24.6394055  33.0902426  14.3873994  25.4702263
  32.7218360  15.5021153  24.5144194  37.6577830  17.5273432  27.1465346
  37.0977388  17.5966621  27.9196909  37.0521333  17.3514416  26.4264843
  30.2695465  20.1892408  21.1096465  30.2144269  20.0236679  20.1684909
  29.6441521  20.8968441  21.2658654  15.0587980  15.4260472  34.9357887
  15.7046844  14.9159426  35.4245112  14.8505132  16.1629154  35.5101312
  23.5791591   9.6900517  20.6881783  23.5670261  10.6342357  20.8450054
  24.4715013   9.5070662  20.3941244  27.3943710   6.2843294  24.9427720
  26.6276106   5.7301780  25.0884402  27.8054415   6.3565162  25.8041872
  19.3985471  12.5728089  39.0332901  20.2616933  12.2164894  39.2436226
  18.8250882  12.2341984  39.7208305  37.4909929  39.6763818  21.0768183
  36.8397909  40.2617898  20.6902197  38.2854292  40.2070013  21.1363220
  33.7531834  32.9245621  19.1073767  34.0057355  32.4027143  18.3457230
  32.8156393  32.7611767  19.2100451  38.9685194  37.3654250  21.6137167
  38.3331027  37.4388876  22.3258072  38.6382601  37.9547849  20.9356246
  35.4565151  29.3173774  20.0106180  35.6239553  30.1854010  20.3776651
  35.2662320  29.4801056  19.0867469  35.4354372  31.7731432  20.9952847
  35.3153997  32.2188482  21.8338327  34.7406960  32.1216749  20.4366385
  41.1339438  32.2452905  21.8233181  42.0457294  32.4780291  21.6480878
  40.6249085  32.8289949  21.2608259  38.7842379  33.4156399  20.4019846
  38.2689002  34.1861004  20.6408234  38.5119687  32.7421535  21.0252908
  43.7576653  36.1688754  22.3373020  42.9806096  35.8299913  21.8928182
  44.4368134  36.1741377  21.6627985  38.5728682  31.2883491  22.2279627
  38.2678818  31.6029640  23.0789770  39.5259124  31.3664911  22.2706960
  37.0175114  37.4473715  23.8772581  36.4896475  36.7126474  23.5645819
  36.5162617  38.2248391  23.6312550  35.1627714  35.2653925  16.8807554
  34.2554776  35.0343178  17.0798703  35.6598746  34.4691544  17.0681536
  38.0695793  43.9751432  19.8004240  37.3957492  44.2783129  20.4089198
  38.4561615  44.7780512  19.4509698  36.0392035  36.9075263  18.7419623
  35.6011465  36.1911122  18.2825260  36.7802476  37.1351378  18.1804714
  40.1603263  35.7659645  18.3351681  39.5432434  35.0406473  18.2384733
  39.6919751  36.5269005  17.9918755  31.9501809  29.9845069  17.4572985
  31.0731275  29.8633870  17.0935231  32.4259562  29.1931148  17.2051873
  46.2992142  33.8506355  28.9888002  46.2882019  34.7331070  28.6181935
  45.4309522  33.4977906  28.7942539  40.9840948  39.0898817  22.4544320
  41.2600792  38.9755412  23.3638194  40.1145447  38.6916302  22.4156493
  46.9016752  35.0006574  25.5937465  47.3447898  34.2513899  25.1956588
  46.0243263  34.9916710  25.2111197  42.0352534  41.5536916  21.0744064
  42.7303438  42.1743608  21.2931378  42.3775684  40.7032267  21.3496442
  29.6520277  30.9244072  21.0154640  28.9589522  30.9988427  20.3594676
  29.4072029  30.1604416  21.5376157  36.1267402  41.6598667  19.9819157
  35.5541369  42.2788854  19.5289629  36.7000196  42.2098029  20.5159079
  39.3464662  41.9435817  21.1127740  40.2795335  41.8781379  21.3160615
  39.2587875  42.7792084  20.6542272  41.9752679  41.2601688  18.0731687
  41.8966310  40.9261551  18.9667445  42.7962345  41.7523456  18.0723159
  36.5114201  32.9959480  17.3235210  37.4573305  32.8665688  17.3923628
  36.1328446  32.2574142  17.8004638  34.6957118  30.9209456  17.2590095
  33.7888573  30.6242569  17.3352809  34.9733099  30.6239274  16.3924381
  33.4655902  27.7796392  17.4002074  34.3275066  28.1051290  17.6597892
  33.6506247  26.9927888  16.8875140  40.4013417  28.8125008  23.5993645
  39.5139272  29.0974659  23.3813840  40.8167406  28.6518772  22.7520922
  43.7527953  28.8371529  27.3147985  44.5288343  29.3267982  27.5872601
  43.0276087  29.2629584  27.7719854  39.5456630  38.5769683  17.6941665
  40.2492480  38.7819686  18.3099321  38.8219279  39.1446445  17.9590749
  44.1859247  30.1169276  24.6394055  43.9296181  29.7165912  25.4702263
  43.5612115  30.8313070  24.5144194  48.4971584  32.8565349  27.1465346
  47.9371142  32.9258539  27.9196909  47.8915088  32.6806334  26.4264843
  41.4543328  39.0152212  19.7440125  42.2888932  38.5833411  19.5617600
  41.2927671  38.8434226  20.6717020  41.1089220  35.5184326  21.1096465
  41.0538024  35.3528597  20.1684909  40.4835275  36.2260359  21.2658654
  48.3303684  55.0055736  21.0768183  47.6791663  55.5909816  20.6902197
  49.1248046  55.5361931  21.1363220  44.5925589  48.2537539  19.1073767
  44.8451109  47.7319060  18.3457230  43.6550148  48.0903684  19.2100451
  49.8078949  52.6946168  21.6137167  49.1724782  52.7680794  22.3258072
  49.4776355  53.2839766  20.9356246  55.0377298  47.1948550  27.8181489
  55.7702470  46.6247767  28.0519318  54.2816654  46.8070151  28.2587994
  46.6553418  49.6175792  25.0144831  46.2911625  49.0906413  25.7257753
  47.5120534  49.2274261  24.8411317  46.2958905  44.6465692  20.0106180
  46.4633308  45.5145928  20.3776651  46.1056074  44.8092973  19.0867469
  46.2748126  47.1023349  20.9952847  46.1547751  47.5480400  21.8338327
  45.5800714  47.4508667  20.4366385  44.0355018  59.8726991  24.6442978
  43.9579048  60.8234816  24.7231458  43.4316662  59.5272863  25.3017904
  51.9733192  47.5744822  21.8233181  52.8851048  47.8072209  21.6480878
  51.4642839  48.1581867  21.2608259  54.4592006  53.4925079  26.5691126
  53.7743045  53.8723980  26.0188159  54.5435856  54.1020405  27.3023074
  60.9194759  50.3595742  27.6893798  60.1658467  49.7903140  27.5337803
  61.0542300  50.3258406  28.6364433  46.3093387  55.2309144  23.3648518
  46.1739062  56.0760680  23.7933365  46.8503200  55.4328422  22.6014451
  49.6236133  48.7448317  20.4019846  49.1082757  49.5152922  20.6408234
  49.3513442  48.0713453  21.0252908  47.2083244  43.5898018  25.4605084
  46.3524841  43.2004868  25.2810723  47.6210196  43.6689978  24.6004870
  54.5970407  51.4980672  22.3373020  53.8199850  51.1591831  21.8928182
  55.2761888  51.5033295  21.6627985  49.4122437  46.6175409  22.2279627
  49.1072572  46.9321558  23.0789770  50.3652879  46.6956829  22.2706960
  47.8568868  52.7765632  23.8772581  47.3290230  52.0418392  23.5645819
  47.3556371  53.5540309  23.6312550  42.9157183  45.4689760  20.2575078
  42.0794495  45.8064446  20.5784353  42.7761953  45.3338739  19.3202215
  46.0021469  50.5945843  16.8807554  45.0948530  50.3635096  17.0798703
  46.4992501  49.7983462  17.0681536  48.9089547  59.3043350  19.8004240
  48.2351246  59.6075046  20.4089198  49.2955369  60.1072430  19.4509698
  48.9083052  48.1999897  24.4204590  49.6554871  48.7121294  24.1111712
  49.1774641  47.8783949  25.2808984  47.1809702  50.6958437  21.4031544
  46.2720921  50.4117470  21.5004014  47.2104786  51.1157516  20.5434851
  52.4128969  54.3065027  25.1722712  51.9591297  53.4655937  25.2287902
  51.7822936  54.9426425  25.5097492  51.3561889  45.2357013  26.4023379
  50.6184646  44.7234399  26.7333622  51.6088663  44.7957395  25.5906656
  46.8785790  52.2367181  18.7419623  46.4405220  51.5203040  18.2825260
  47.6196231  52.4643296  18.1804714  54.9958905  50.5124378  24.7995942
  54.8576803  50.7025974  23.8717131  54.6395123  51.2743761  25.2563993
  47.1080763  59.4723022  22.0151320  47.2832518  59.0011065  22.8296942
  46.4213551  60.0988788  22.2432580  50.9997017  51.0951563  18.3351681
  50.3826188  50.3698391  18.2384733  50.5313506  51.8560923  17.9918755
  41.6741848  62.6212385  28.7891180  41.9138446  63.2530909  29.4670198
  40.8311044  62.2700425  29.0756539  42.7895563  45.3136987  17.4572985
  41.9125030  45.1925788  17.0935231  43.2653316  44.5223065  17.2051873
  45.9759489  57.6663277  24.7035505  45.1927011  58.2084958  24.7973730
  46.6752235  58.1837257  25.1029747  57.1385897  49.1798272  28.9888002
  57.1275773  50.0622988  28.6181935  56.2703276  48.8269823  28.7942539
  50.3685920  52.2329594  24.9208134  49.4342199  52.3531057  24.7512838
  50.5462589  51.3302061  24.6568144  45.8691108  45.6175290  27.0741395
  45.4988896  45.0646330  27.7622301  46.3650201  45.0133423  26.5216395
  53.7558472  48.0746913  25.4558168  54.2218924  48.9074905  25.3818471
  54.2065972  47.6091895  26.1603427  51.8234703  54.4190735  22.4544320
  52.0994547  54.3047329  23.3638194  50.9539201  54.0208220  22.4156493
  48.7930932  57.5945271  23.3592182  49.3218699  57.0837725  22.7462344
  49.0559152  57.2787801  24.2237715  42.1486680  58.6460387  26.1189958
  41.4797055  59.1306515  25.6353998  42.0099550  58.8929608  27.0333337
  48.4903192  44.0785680  22.5252318  48.7066806  44.9610318  22.2241147
  48.0097259  43.6871894  21.7957960  51.8871116  57.5662069  23.9747165
  52.0607993  57.0008491  23.2221018  52.3800007  58.3662964  23.7926655
  57.7410507  50.3298492  25.5937465  58.1841653  49.5805817  25.1956588
  56.8637017  50.3208628  25.2111197  52.8746288  56.8828833  21.0744064
  53.5697193  57.5035526  21.2931378  53.2169438  56.0324184  21.3496442
  54.7737711  54.3328539  22.6031394  55.2989035  54.6715812  21.8780714
  54.6860064  53.3975554  22.4194529  43.4665751  54.4942454  22.5107410
  43.6153871  55.1777919  21.8574083  44.2732195  54.4747545  23.0256866
  57.2843372  51.8003730  27.9859913  58.1190263  52.2393534  28.1497473
  57.4202500  51.3242383  27.1668158  46.9661157  56.9890585  19.9819157
  46.3935124  57.6080772  19.5289629  47.5393950  57.5389947  20.5159079
  50.1858416  57.2727735  21.1127740  51.1189090  57.2073297  21.3160615
  50.0981629  58.1084002  20.6542272  52.8146433  56.5893605  18.0731687
  52.7360065  56.2553469  18.9667445  53.6356100  57.0815373  18.0723159
  47.3507955  48.3251398  17.3235210  48.2967060  48.1957606  17.3923628
  46.9722200  47.5866060  17.8004638  61.3301174  50.5171352  30.4214042
  62.0604563  50.2556640  30.9821746  60.7208120  49.7800073  30.4616110
  59.4116471  48.6579214  31.0188494  58.6849635  48.5235179  30.4104985
  58.9963758  48.9656043  31.8245212  45.5350872  46.2501374  17.2590095
  44.6282328  45.9534487  17.3352809  45.8126853  45.9531192  16.3924381
  44.3049657  43.1088309  17.4002074  45.1668821  43.4343208  17.6597892
  44.4900001  42.3219805  16.8875140  51.2407171  44.1416926  23.5993645
  50.3533026  44.4266577  23.3813840  51.6561160  43.9810690  22.7520922
  57.0294266  44.8791066  28.3721925  57.6238757  44.6386802  27.6615234
  57.1020850  44.1598197  28.9995462  39.2491422  58.7224677  28.6865090
  39.1145890  57.9625078  28.1203088  38.8323484  59.4465577  28.2193879
  50.3850385  53.9061601  17.6941665  51.0886235  54.1111603  18.3099321
  49.6613034  54.4738363  17.9590749  51.2148195  49.6571462  23.8143936
  51.1583397  50.1140013  22.9751568  51.7676538  48.8962147  23.6366778
  55.0253001  45.4461194  24.6394055  54.7689935  45.0457830  25.4702263
  54.4005869  46.1604988  24.5144194  59.3365339  48.1857267  27.1465346
  58.7764897  48.2550456  27.9196909  58.7308842  48.0098252  26.4264843
  42.4060548  59.6193994  28.8983533  42.2892932  60.5639427  28.7962223
  41.5852994  59.3167556  29.2869332  52.2937082  54.3444130  19.7440125
  53.1282686  53.9125328  19.5617600  52.1321425  54.1726144  20.6717020
  51.9482974  50.8476243  21.1096465  51.8931778  50.6820515  20.1684909
  51.3229030  51.5552276  21.2658654  45.2579100  40.3484352  20.6881783
  45.2457770  41.2926192  20.8450054  46.1502522  40.1654498  20.3941244
  49.0731219  36.9427129  24.9427720  48.3063615  36.3885616  25.0884402
  49.4841924  37.0148998  25.8041872  60.9221357  64.8613781  29.8395302
  61.5599767  64.7420528  29.1358642  60.8042200  65.8094625  29.8983254
  59.1697438  70.3347653  21.0768183  58.5185418  70.9201734  20.6902197
  59.9641801  70.8653848  21.1363220  53.0953065  67.4236790  21.4755317
  53.8683941  66.8765778  21.3368193  53.4478464  68.2881040  21.6869778
  55.4319343  63.5829457  19.1073767  55.6844864  63.0610978  18.3457230
  54.4943902  63.4195602  19.2100451  60.6472703  68.0238085  21.6137167
  60.0118536  68.0972712  22.3258072  60.3170110  68.6131684  20.9356246
  65.8771053  62.5240468  27.8181489  66.6096225  61.9539685  28.0519318
  65.1210409  62.1362069  28.2587994  55.1515632  65.4857563  21.3098142
  55.0351890  64.8102466  21.9779226  55.2617892  64.9989936  20.4930295
  63.3996473  56.2362042  32.2776097  63.0679798  57.1057453  32.0537312
  62.8042087  55.9198326  32.9570128  57.1352660  59.9757609  20.0106180
  57.3027062  60.8437846  20.3776651  56.9449829  60.1384891  19.0867469
  59.8927993  68.4374588  31.6772010  59.5928716  69.3399627  31.5687817
  59.5479052  68.1706771  32.5293163  63.2925137  60.9557128  29.3569447
  62.3842014  60.8872537  29.0628208  63.2412732  61.4329073  30.1851273
  57.1141881  62.4315267  20.9952847  56.9941506  62.8772318  21.8338327
  56.4194469  62.7800585  20.4366385  54.8748773  75.2018909  24.6442978
  54.7972802  76.1526734  24.7231458  54.2710416  74.8564781  25.3017904
  65.1586783  59.1573567  31.1347321  64.5161163  59.4506100  30.4887116
  64.6541712  59.0426487  31.9400518  62.8126947  62.9036740  21.8233181
  63.7244803  63.1364127  21.6480878  62.3036594  63.4873784  21.2608259
  61.4196529  67.8862558  29.2146762  60.7905391  68.0508273  28.5122830
  61.0322191  68.3004168  29.9857726  65.2985761  68.8216996  26.5691126
  64.6136799  69.2015898  26.0188159  65.3829610  69.4312323  27.3023074
  62.5536693  66.4676955  33.1686469  62.7653588  67.1108715  32.4920850
  62.5066441  65.6339272  32.7008399  56.9724491  67.6236967  26.4796847
  57.4362836  67.9024670  25.6901470  56.7081289  66.7220411  26.2969938
  55.9093377  63.7460119  23.2886412  56.6117420  64.1981163  23.7560339
  55.5774005  63.1043938  23.9166305  63.6682520  69.3448911  31.3408827
  64.4899964  68.9429098  31.0591508  63.6644923  69.2417145  32.2924942
  57.4339124  68.8932954  33.4969537  57.4983556  69.3553361  34.3327709
  56.7250048  68.2630319  33.6251847  71.7588514  65.6887659  27.6893798
  71.0052222  65.1195057  27.5337803  71.8936055  65.6550324  28.6364433
  57.1487142  70.5601062  23.3648518  57.0132816  71.4052597  23.7933365
  57.6896954  70.7620339  22.6014451  50.6016539  68.0776500  23.9376443
  51.1141060  68.8719750  24.0882007  51.2539252  67.3802790  23.8710044
  52.4111424  71.1942256  26.0199196  52.5878052  72.1160221  25.8320180
  53.2068257  70.8800675  26.4493576  53.5342739  72.7120430  32.0209538
  54.0850164  72.5837493  31.2486532  52.6954215  73.0115319  31.6704431
  60.8736856  71.4627428  35.5230261  60.8555331  72.2836309  35.0310530
  61.7956776  71.3381503  35.7480402  60.4979605  54.0831623  31.8947411
  60.1543875  54.9733265  31.8186522  60.8658568  53.8933281  31.0316996
  60.4629888  64.0740235  20.4019846  59.9476511  64.8444839  20.6408234
  60.1907196  63.4005371  21.0252908  58.0476999  58.9189935  25.4605084
  57.1918595  58.5296786  25.2810723  58.4603951  58.9981896  24.6004870
  59.5776146  56.4536279  29.8596644  59.0740941  56.4166414  29.0464450
  59.8706752  57.3629021  29.9193301  65.4364162  66.8272589  22.3373020
  64.6593605  66.4883749  21.8928182  66.1155643  66.8325212  21.6627985
  60.2516191  61.9467327  22.2279627  59.9466327  62.2613476  23.0789770
  61.2046633  62.0248747  22.2706960  58.6962623  68.1057550  23.8772581
  58.1683984  67.3710310  23.5645819  58.1950126  68.8832226  23.6312550
  63.6755469  66.3006570  28.9939628  63.0179143  66.9905832  29.0819756
  64.4795868  66.6903002  29.3373614  62.4860928  64.6550943  27.0443569
  62.9992809  65.2880935  27.5465279  63.1362152  64.0552139  26.6786929
  53.7550938  60.7981677  20.2575078  52.9188250  61.1356364  20.5784353
  53.6155707  60.6630657  19.3202215  55.7304018  55.6418465  24.9654262
  55.0768431  55.3267482  24.3410877  55.6884492  55.0194206  25.6914085
  56.8415223  65.9237760  16.8807554  55.9342285  65.6927014  17.0798703
  57.3386255  65.1275379  17.0681536  59.7483302  74.6335267  19.8004240
  59.0745001  74.9366964  20.4089198  60.1349124  75.4364348  19.4509698
  59.7476806  63.5291814  24.4204590  60.4948625  64.0413212  24.1111712
  60.0168396  63.2075867  25.2808984  58.0203456  66.0250355  21.4031544
  57.1114676  65.7409388  21.5004014  58.0498540  66.4449434  20.5434851
  63.2522724  69.6356945  25.1722712  62.7985051  68.7947854  25.2287902
  62.6216691  70.2718343  25.5097492  62.1955643  60.5648931  26.4023379
  61.4578400  60.0526317  26.7333622  62.4482417  60.1249312  25.5906656
  61.6955663  71.4733441  26.1072530  61.9878638  72.0338498  25.3884896
  62.2054284  71.7662002  26.8625689  62.2967271  53.3425183  26.9965149
  62.6026148  52.4822546  26.7091064  63.0219876  53.9342803  26.7964143
  57.7179544  67.5659099  18.7419623  57.2798974  66.8494958  18.2825260
  58.4589985  67.7935214  18.1804714  56.6589288  72.2513792  27.1965983
  56.6165467  72.4774639  26.2674515  57.5751987  72.0177167  27.3451784
  65.8352659  65.8416296  24.7995942  65.6970558  66.0317892  23.8717131
  65.4788878  66.6035679  25.2563993  65.8622039  67.9092823  29.8107213
  66.2958545  67.8168112  30.6590267  66.5753619  67.8850323  29.1727229
  54.7755089  69.1276821  26.9927946  55.5695688  68.6327142  26.7910521
  54.0646782  68.5994685  26.6295652  59.5949934  71.5094917  31.3440314
  59.6486956  72.0785853  32.1118030  58.7264715  71.6796802  30.9794351
  51.0837853  63.2719903  23.0687699  50.1535441  63.2104359  23.2857661
  51.1795325  62.7495856  22.2724340  66.7237588  67.9516523  32.3440098
  66.9173478  68.8562334  32.5899373  66.6238206  67.4923943  33.1778683
  57.3526365  69.7005843  30.6725783  57.2137451  69.3324628  31.5451721
  56.5640961  70.2153483  30.5009741  57.9474517  74.8014940  22.0151320
  58.1226273  74.3302983  22.8296942  57.2607305  75.4280706  22.2432580
  58.9031580  69.0787446  28.0614621  58.5681413  69.0388216  28.9572271
  58.4035526  68.4132162  27.5885031  61.8390772  66.4243480  18.3351681
  61.2219943  65.6990309  18.2384733  61.3707260  67.1852841  17.9918755
  63.4944904  71.1342389  35.9957461  63.4357450  70.4501609  35.3288044
  63.8964422  71.8761379  35.5438087  52.5135602  77.9504303  28.7891180
  52.7532201  78.5822827  29.4670198  51.6704799  77.5992343  29.0756539
  53.6289318  60.6428905  17.4572985  52.7518784  60.5217706  17.0935231
  54.1047071  59.8514983  17.2051873  63.4962311  69.0981973  34.2271441
  62.6089090  68.7607894  34.3497839  64.0660862  68.3665004  34.4640206
  45.1491458  65.4306064  27.5514492  45.8362498  65.1167794  26.9635507
  44.9939587  66.3347429  27.2781743  57.0263464  73.7583425  31.1932684
  56.9533636  74.5638397  31.7051988  56.5840857  73.9575391  30.3680705
  56.8153244  72.9955195  24.7035505  56.0320766  73.5376875  24.7973730
  57.5145989  73.5129175  25.1029747  67.9779651  64.5090190  28.9888002
  67.9669528  65.3914905  28.6181935  67.1097031  64.1561741  28.7942539
  59.4862148  73.6570259  33.3490842  60.1990120  74.2917724  33.2766744
  58.9952176  73.7534125  32.5330844  61.2079675  67.5621512  24.9208134
  60.2735953  67.6822974  24.7512838  61.3856343  66.6593979  24.6568144
  64.5952226  63.4038831  25.4558168  65.0612678  64.2366823  25.3818471
  65.0459727  62.9383813  26.1603427  54.5374061  71.4064703  34.1696413
  55.2383521  72.0401186  34.3225807  54.0669176  71.7479434  33.4092053
  62.6628457  69.7482652  22.4544320  62.9388301  69.6339247  23.3638194
  61.7932956  69.3500137  22.4156493  62.5668889  55.7719418  29.4949070
  61.6531969  56.0023645  29.6631277  62.9961990  55.8557862  30.3463102
  62.3375347  63.9609310  31.9948964  61.6846797  64.2085217  31.3401416
  62.7155727  63.1473448  31.6611441  59.2982521  73.9969003  26.0977134
  59.4804916  73.1790659  26.5604886  60.1215507  74.2136695  25.6602024
  59.6324687  72.9237188  23.3592182  60.1612453  72.4129643  22.7462344
  59.8952906  72.6079719  24.2237715  52.9880435  73.9752305  26.1189958
  52.3190810  74.4598433  25.6353998  52.8493304  74.2221525  27.0333337
  57.1285703  76.0096049  32.7172617  57.6804011  76.1727670  33.4821702
  57.4691897  76.6000486  32.0452642  61.9796577  70.8357306  38.5721271
  62.5236481  71.4487264  38.0776226  61.3983422  71.3936884  39.0888284
  48.3568012  62.2370760  22.8985890  48.6521453  61.3281438  22.8452944
  47.4556047  62.2158499  22.5766893  60.2654090  73.9578024  29.7036299
  60.1405230  73.1567764  29.1947244  60.9233182  74.4524217  29.2150269
  62.3288999  71.7587044  31.3315849  61.3819334  71.6392395  31.2594176
  62.6771772  70.8709542  31.4142110  50.0855853  59.9184858  23.0225216
  49.7568559  59.0382237  22.8400322  50.4395224  59.8632526  23.9101605
  59.3335432  71.5539760  27.5320201  59.1860395  70.6256468  27.7127771
  60.1588926  71.5759851  27.0477276  53.1997676  60.2057827  23.3900693
  53.5393749  60.7343749  22.6679302  53.6469797  60.5438234  24.1659260
  62.9369554  72.3768319  28.6185074  63.8616101  72.1711180  28.4809525
  62.7684857  72.1284720  29.5274415  55.1865824  58.7032449  21.5893986
  55.9074186  59.0813702  21.0857703  54.5631128  59.4221326  21.6928964
  59.3296946  59.4077598  22.5252318  59.5460561  60.2902236  22.2241147
  58.8491014  59.0163811  21.7957960  62.7264870  72.8953987  23.9747165
  62.9001748  72.3300409  23.2221018  63.2193761  73.6954881  23.7926655
  55.3329447  58.2380239  24.4191523  55.4545358  57.3096886  24.6182410
  55.0431489  58.2518925  23.5069838  58.2020637  55.9235150  27.5558243
  58.2242334  55.9874483  26.6010222  58.6188696  55.0839659  27.7498749
  68.5804261  65.6590409  25.5937465  69.0235407  64.9097735  25.1956588
  67.7030772  65.6500546  25.2111197  63.7140043  72.2120751  21.0744064
  64.4090947  72.8327444  21.2931378  64.0563193  71.3616102  21.3496442
  65.6131466  69.6620456  22.6031394  66.1382790  70.0007729  21.8780714
  65.5253818  68.7267472  22.4194529  57.2751514  73.5754530  34.7321271
  57.5838641  73.3303677  35.6043971  58.0726996  73.7801169  34.2440141
  57.2972127  75.7292440  26.9626648  56.8577117  75.2368818  27.6559504
  58.0480243  75.1865407  26.7218723  49.7764466  71.9203981  26.9651276
  50.6022485  71.6207752  26.5849919  49.4258518  71.1511603  27.4141064
  54.7445999  71.2730449  29.0348949  54.1226008  70.6101154  28.7351177
  55.4150866  71.2991581  28.3522597  65.3025372  70.2953360  37.9082592
  64.5120916  70.2777499  37.3687092  65.0658726  70.8341654  38.6631629
  65.4223247  67.1445826  35.2215321  65.4721252  66.9795834  36.1630844
  65.3137170  66.2773085  34.8313202  54.3059506  69.8234372  22.5107410
  54.4547626  70.5069837  21.8574083  55.1125949  69.8039462  23.0256866
  66.9241444  69.5642768  35.4657342  66.6326252  69.9272749  36.3020803
  66.3113575  68.8509776  35.2870675  68.1237126  67.1295648  27.9859913
  68.9584017  67.5685452  28.1497473  68.2596255  66.6534301  27.1668158
  65.1728632  64.6875383  33.9337400  65.6482754  64.8803029  33.1256252
  64.2494197  64.7434568  33.6880784  52.0612139  65.8499550  23.5168479
  51.8158181  64.9461880  23.7148689  52.2308053  65.8516700  22.5747957
  51.3307786  61.5827907  21.0154640  50.6377031  61.6572262  20.3594676
  51.0859538  60.8188251  21.5376157  60.0021443  53.1423509  28.4194131
  60.2823196  52.4746698  29.0454557  60.7872050  53.3352604  27.9068795
  57.8054911  72.3182503  19.9819157  57.2328878  72.9372690  19.5289629
  58.3787705  72.8681864  20.5159079  63.8730301  61.5641143  32.1665706
  64.8247724  61.6639240  32.1877930  63.7033751  60.7719411  32.6763790
  61.8944680  58.6496726  32.3525107  61.2994613  58.9301739  31.6571596
  61.6094377  59.1390627  33.1241848  61.0252171  72.6019653  21.1127740
  61.9582844  72.5365214  21.3160615  60.9375384  73.4375920  20.6542272
  63.6540188  71.9185523  18.0731687  63.5753819  71.5845387  18.9667445
  64.4749854  72.4107291  18.0723159  66.3518379  64.7847262  31.2808006
  66.3194699  63.8463263  31.4667690  66.9619002  64.8631299  30.5473831
  58.1901710  63.6543315  17.3235210  59.1360814  63.5249523  17.3923628
  57.8115955  62.9157977  17.8004638  66.5012867  61.5758306  31.3266289
  65.9851916  60.7916762  31.1396218  67.3852816  61.2477022  31.4912808
  64.1623594  55.3199321  27.2862102  63.9648415  55.0114410  28.1705434
  64.7723300  56.0460960  27.4160031  72.1694929  65.8463269  30.4214042
  72.8998317  65.5848557  30.9821746  71.5601874  65.1091991  30.4616110
  70.2510226  63.9871132  31.0188494  69.5243389  63.8527097  30.4104985
  69.8357513  64.2947960  31.8245212  56.3744627  61.5793292  17.2590095
  55.4676082  61.2826404  17.3352809  56.6520608  61.2823110  16.3924381
  57.9906692  56.1230181  23.4134336  57.1807421  55.7777266  23.7889582
  58.6791109  55.8137725  24.0021948  59.9197241  55.2008228  25.0358633
  60.4728279  55.6203682  25.6948656  60.1567327  54.2743976  25.0781589
  55.1443411  58.4380227  17.4002074  56.0062575  58.7635125  17.6597892
  55.3293756  57.6511723  16.8875140  63.2976048  57.3108753  24.5437297
  62.7174717  57.9693557  24.1615350  63.0311981  56.4886098  24.1324715
  61.7479614  56.7113811  26.7458617  62.2479393  56.8230346  25.9372936
  62.3915222  56.4074864  27.3859426  62.0800926  59.4708844  23.5993645
  61.1926781  59.7558494  23.3813840  62.4954915  59.3102607  22.7520922
  65.4315462  59.4955365  27.3147985  66.2075852  59.9851817  27.5872601
  64.7063596  59.9213419  27.7719854  67.8688021  60.2082984  28.3721925
  68.4632511  59.9678720  27.6615234  67.9414604  59.4890115  28.9995462
  50.0885176  74.0516595  28.6865090  49.9539644  73.2916996  28.1203088
  49.6717239  74.7757495  28.2193879  61.2244139  69.2353518  17.6941665
  61.9279989  69.4403521  18.3099321  60.5006788  69.8030280  17.9590749
  62.0541950  64.9863380  23.8143936  61.9977151  65.4431931  22.9751568
  62.6070292  64.2254064  23.6366778  65.8646756  60.7753112  24.6394055
  65.6083690  60.3749747  25.4702263  65.2399624  61.4896906  24.5144194
  70.1759093  63.5149185  27.1465346  69.6158651  63.5842374  27.9196909
  69.5702597  63.3390169  26.4264843  53.2454302  74.9485912  28.8983533
  53.1286686  75.8931344  28.7962223  52.4246748  74.6459474  29.2869332
  63.1330837  69.6736048  19.7440125  63.9676441  69.2417246  19.5617600
  62.9715180  69.5018061  20.6717020  62.7876729  66.1768161  21.1096465
  62.7325533  66.0112432  20.1684909  62.1622784  66.8844194  21.2658654
  56.0972854  55.6776270  20.6881783  56.0851524  56.6218110  20.8450054
  56.9896276  55.4946415  20.3941244  54.2708816  75.6014174  32.1139461
  55.1736063  75.6337784  32.4305956  54.0446186  74.6714625  32.1285797
  56.0262418  74.3545160  28.7749540  55.0758049  74.3547022  28.6613912
  56.3294905  73.6077895  28.2585574  59.9124974  52.2719047  24.9427720
  59.1457370  51.7177533  25.0884402  60.3235679  52.3440915  25.8041872
  68.5704818  80.1433127  29.7756827  68.2323330  80.0274192  28.8877362
  69.4394586  79.7424292  29.7557833  64.4291634  81.9968603  25.7653718
  63.8656499  81.9058540  24.9970006  64.3144029  81.1768508  26.2456210
  69.0524601  81.2967979  35.7343032  69.0413242  80.9020777  34.8623536
  69.2145241  80.5634051  36.3276804  61.9756066  83.4919795  28.6037938
  62.7677358  83.1510620  28.1884238  62.2152716  83.6014770  29.5240092
  66.6988069  81.4581939  31.2723576  67.2951641  81.2337961  30.5580539
  66.7563041  80.7166684  31.8749024  71.3156380  77.9157153  26.9148510
  72.1019470  77.4976576  26.5638927  71.5795085  78.8203245  27.0830159
  68.3340927  80.2759627  25.0144831  67.9699134  79.7490248  25.7257753
  69.1908043  79.8858096  24.8411317  74.2390228  71.5653960  32.2776097
  73.9073553  72.4349371  32.0537312  73.6435841  71.2490244  32.9570128
  64.1834229  80.2180303  27.7108715  63.2584725  80.0856517  27.9186406
  64.4318642  80.9974522  28.2078657  74.1318891  76.2849046  29.3569447
  73.2235768  76.2164455  29.0628208  74.0806487  76.7620991  30.1851273
  61.5443040  79.8613576  28.5452504  61.6735421  80.1148055  29.4591915
  60.8640491  80.4541284  28.2257159  68.2059757  77.7038692  37.3004345
  67.4293091  78.2632612  37.2907209  68.8450320  78.1895475  37.8219215
  75.9980538  74.4865485  31.1347321  75.3554918  74.7798018  30.4887116
  75.4935466  74.3718405  31.9400518  66.4606129  80.5124145  36.8622312
  67.2020814  81.0509189  36.5857135  65.7543115  81.1390434  37.0193863
  68.2892539  77.5925892  32.8328030  69.1353734  78.0165306  32.9762679
  68.2291177  76.9359517  33.5266593  71.4391984  75.2530261  34.4909204
  71.1952916  76.0072321  33.9543479  71.7151915  75.6315608  35.3256451
  70.9956676  74.4086694  30.0723041  70.1341155  74.7067947  30.3639779
  71.0219111  74.6257093  29.1404074  64.7042326  82.5000366  29.4176610
  65.2743684  82.9287634  28.7794095  65.2950438  82.2182950  30.1160796
  66.7487131  79.0752037  23.2886412  67.4511175  79.5273080  23.7560339
  66.4167760  78.4335855  23.9166305  65.1967493  77.6663793  37.6637622
  64.5666154  78.3480074  37.8973019  65.0903581  77.5546875  36.7190760
  60.4912465  77.3335589  28.5903546  59.7011519  77.5893118  28.1143656
  60.9823713  78.1483927  28.6955586  62.4427211  77.6980169  25.5487023
  61.6458374  77.8098863  26.0670518  62.2152803  78.0366821  24.6827913
  58.7750168  77.5866080  31.0218537  59.0258207  78.4713090  31.2876113
  59.3109717  77.4070681  30.2493628  64.4748236  71.9684559  40.0262873
  64.0815181  71.4150758  40.7010517  65.2914376  72.2795138  40.4169390
  61.4410293  83.4068417  23.9376443  61.9534814  84.2011668  24.0882007
  62.0933006  82.7094708  23.8710044  67.3916197  73.3842438  37.6183129
  68.1325910  73.9849591  37.5387592  67.6234120  72.6420076  37.0601172
  62.5357535  78.5698805  35.8961359  62.4211050  77.6684063  36.1968458
  61.6802052  78.8162502  35.5446176  71.3373360  69.4123541  31.8947411
  70.9937629  70.3025183  31.8186522  71.7052322  69.2225199  31.0316996
  59.4059210  81.7357072  24.7136013  60.2434432  82.1454080  24.4969721
  59.5837478  80.7956514  24.6836207  68.8870753  74.2481853  25.4605084
  68.0312350  73.8588703  25.2810723  69.2997705  74.3273814  24.6004870
  70.4169900  71.7828196  29.8596644  69.9134696  71.7458331  29.0464450
  70.7100507  72.6920939  29.9193301  66.6612786  71.8666926  28.8662826
  67.5265783  71.6709735  28.5068715  66.7290295  71.6377278  29.7932183
  64.2675105  74.0969134  26.2379193  64.8418857  73.8744315  25.5052386
  64.8546087  74.1657828  26.9907794  66.5697773  70.9710383  24.9654262
  65.9162185  70.6559400  24.3410877  66.5278247  70.3486123  25.6914085
  69.8035513  77.4592316  29.2901910  68.8858074  77.6807263  29.1323598
  70.2195657  77.5338627  28.4313617  73.0349398  75.8940848  26.4023379
  72.2972155  75.3818235  26.7333622  73.2876171  75.4541230  25.5906656
  73.1361025  68.6717100  26.9965149  73.4419902  67.8114464  26.7091064
  73.8613630  69.2634721  26.7964143  59.4285381  79.0747787  25.3846747
  59.2309781  78.4817148  24.6597813  58.8732045  78.7699997  26.1022685
  67.4082105  78.9670893  27.5041340  67.4630715  78.0144730  27.4283816
  66.5973307  79.1230332  27.9882638  65.3474465  77.5847953  25.2631719
  64.5342330  77.8842124  25.6696911  65.8433459  77.1903642  25.9806201
  70.9448677  78.0489778  34.0946612  71.2998064  78.2761251  34.9541078
  71.5920808  78.3808154  33.4723868  64.8388540  75.1566309  30.8792954
  65.4787919  75.0155068  30.1815917  64.0066070  74.8700822  30.5031556
  61.9231607  78.6011821  23.0687699  60.9929195  78.5396276  23.2857661
  62.0189079  78.0787774  22.2724340  61.8417156  75.1266634  25.6565940
  62.1023973  76.0411967  25.5475101  62.6634328  74.6591076  25.8062553
  63.3142081  76.5404391  32.8264765  63.9865135  76.3321753  32.1777414
  62.4871868  76.3426477  32.3869997  69.2167653  73.1666332  34.8430426
  68.5695569  73.8656281  34.7494902  69.9868669  73.6002476  35.2106674
  63.7169579  79.8146994  33.5867202  63.5789377  79.0827233  34.1878741
  64.6274502  79.7255894  33.3051390  66.3451879  79.5266953  33.0750882
  67.0551498  78.8860145  33.0337500  66.3021188  79.7779848  33.9977062
  65.0580813  76.5132171  34.8946521  64.5218170  76.0622909  35.5468117
  64.4697522  76.6478080  34.1516986  55.9885212  80.7597982  27.5514492
  56.6756252  80.4459712  26.9635507  55.8333341  81.6639347  27.2781743
  60.7919935  75.6488179  31.9799516  60.7078123  75.0413848  31.2449926
  59.9702641  76.1397197  31.9809012  70.9643648  74.1341742  27.3469711
  71.4612348  73.3811705  27.0270781  70.1930630  74.1706059  26.7812920
  67.5478617  76.2759125  27.0741395  67.1776405  75.7230166  27.7622301
  68.0437710  75.6717259  26.5216395  73.4062643  71.1011336  29.4949070
  72.4925723  71.3315563  29.6631277  73.8355745  71.1849780  30.3463102
  69.2256675  80.0321039  38.4815001  68.5497312  79.9315168  39.1517376
  70.0484309  79.8760252  38.9450998  60.9735534  86.2692975  31.1027516
  61.5588971  85.5236663  31.2355420  60.7760372  86.5796932  31.9864180
  55.5653189  78.8398575  29.8231959  55.6037288  78.3062166  30.6169077
  55.0593481  78.3133781  29.2042936  62.9443951  73.6863116  33.3194501
  63.0085277  74.5477947  32.9071899  62.8811071  73.0737118  32.5866860
  62.4196223  75.7586249  36.9667536  63.0468262  75.3763326  37.5805060
  61.5624142  75.5400450  37.3323228  59.1961766  77.5662678  22.8985890
  59.4915207  76.6573356  22.8452944  58.2949802  77.5450417  22.5766893
  62.7256013  75.6418674  28.8813439  62.0042599  76.2554642  28.7420912
  63.5149269  76.1776439  28.8030085  65.5282327  72.9773101  35.1554091
  66.0516728  73.2235397  35.9180400  65.3094660  73.8093136  34.7357228
  60.9249608  75.2476775  23.0225216  60.5962314  74.3674154  22.8400322
  61.2788978  75.1924444  23.9101605  64.0391431  75.5349745  23.3900693
  64.3787503  76.0635666  22.6679302  64.4863551  75.8730151  24.1659260
  66.7334872  73.9186796  32.8403761  66.3931692  73.1194609  33.2424441
  66.0273878  74.2188507  32.2680595  67.3851344  71.0036108  31.2931084
  68.2077413  70.5296586  31.1709975  67.6289407  71.7826592  31.7929771
  66.0259578  74.0324367  21.5893986  66.7467941  74.4105619  21.0857703
  65.4024882  74.7513243  21.6928964  70.1690701  74.7369516  22.5252318
  70.3854315  75.6194154  22.2241147  69.6884768  74.3455729  21.7957960
  64.9089922  77.6955229  29.1023063  64.7634503  78.0095532  29.9947345
  64.4315126  78.3140129  28.5493962  66.7686305  74.6857777  29.1503953
  66.7547874  73.7898870  28.8136251  67.4858733  74.6928441  29.7842239
  68.6212436  75.1195117  31.1957080  68.3630214  76.0412188  31.1941410
  68.0897476  74.7225552  31.8857544  59.3835584  80.2360573  32.0410724
  58.8389053  81.0120381  32.1730999  60.2614934  80.5831378  31.8829846
  66.1723201  73.5672157  24.4191523  66.2939112  72.6388803  24.6182410
  65.8825243  73.5810843  23.5069838  69.0414392  71.2527068  27.5558243
  69.0636088  71.3166401  26.6010222  69.4582451  70.4131576  27.7498749
  60.1701606  79.3630470  34.9340881  59.4283342  79.5113105  35.5205511
  59.8494351  79.6238735  34.0707630  58.8166825  85.1682225  27.9240209
  57.9798733  84.7404399  27.7424211  58.7890470  85.3614668  28.8611000
  65.6564281  75.0804155  38.6281455  65.7052436  75.9566277  38.2459225
  66.1986795  74.5381548  38.0553099  67.8863569  75.8335527  35.3827814
  67.0166879  76.1269093  35.1110402  68.1223049  76.4175972  36.1035078
  62.9005893  81.1791467  23.5168479  62.6551935  80.2753797  23.7148689
  63.0701808  81.1808618  22.5747957  70.5902603  72.0515144  32.8993234
  71.1084547  72.7876171  32.5739723  70.2357736  72.3579137  33.7339993
  62.1701541  76.9119825  21.0154640  61.4770786  76.9864180  20.3594676
  61.9253292  76.1480169  21.5376157  70.8415197  68.4715426  28.4194131
  71.1216951  67.8038615  29.0454557  71.6265804  68.6644522  27.9068795
  72.7338435  73.9788644  32.3525107  72.1388367  74.2593656  31.6571596
  72.4488132  74.4682545  33.1241848  75.0017349  70.6491239  27.2862102
  74.8042170  70.3406327  28.1705434  75.6117054  71.3752878  27.4160031
  58.1316322  78.2291573  27.7089141  57.8119106  77.3756881  27.4163515
  57.5849750  78.4440151  28.4647109  61.9096229  80.9454014  31.4258648
  62.1282239  81.8771122  31.4446682  62.3222003  80.5861988  32.2113452
  68.8300447  71.4522099  23.4134336  68.0201175  71.1069184  23.7889582
  69.5184864  71.1429643  24.0021948  70.7590995  70.5300146  25.0358633
  71.3122034  70.9495599  25.6948656  70.9961082  69.6035894  25.0781589
  66.7824094  76.5187220  40.8161397  66.6820821  77.4681577  40.7473488
  66.5645637  76.1905458  39.9437467  58.0004582  81.8494484  29.6782263
  57.3068053  81.4348437  29.1652217  58.7477573  81.8915021  29.0815682
  74.1369802  72.6400671  24.5437297  73.5568471  73.2985475  24.1615350
  73.8705735  71.8178016  24.1324715  72.5873369  72.0405729  26.7458617
  73.0873147  72.1522263  25.9372936  73.2308977  71.7366782  27.3859426
  66.6455365  79.9484358  39.6326458  66.1622446  80.7484719  39.8390347
  66.7316304  79.9592303  38.6793902  59.9141324  81.7812738  27.5548278
  59.8912012  81.8800425  26.6030161  60.2241961  82.6277889  27.8765444
  62.5728702  83.8388893  31.6694892  63.5271956  83.8072835  31.6024824
  62.3741226  83.3779517  32.4845118  63.1628084  82.4090009  34.2365690
  63.9820973  82.9034088  34.2600527  63.4364892  81.4921977  34.2083257
  72.9194680  74.8000761  23.5993645  72.0320535  75.0850412  23.3813840
  73.3348669  74.6394525  22.7520922  76.2709217  74.8247282  27.3147985
  77.0469607  75.3143735  27.5872601  75.5457351  75.2505337  27.7719854
  58.4162998  76.7428143  34.9357887  59.0621862  76.2327097  35.4245112
  58.2080150  77.4796825  35.5101312  66.9366609  71.0068188  20.6881783
  66.9245279  71.9510028  20.8450054  67.8290031  70.8238333  20.3941244
  70.7518728  67.6010964  24.9427720  69.9851124  67.0469451  25.0884402
  71.1629433  67.6732833  25.8041872  62.7560489  73.8895760  39.0332901
  63.6191951  73.5332565  39.2436226  62.1825900  73.5509655  39.7208305
  26.2574356   2.2010998  24.2194166  25.8138210   1.4147376  23.9015071
  26.9191569   2.3890148  23.5538057  28.3555594   2.4813798  22.2475568
  28.3374069   3.3022679  21.7555837  29.2775514   2.3567873  22.4725709
  24.8128648  -0.0042073  23.0899076  25.3456985  -0.7653785  22.8598384
  24.2842729  -0.2968421  23.8323230  34.2056326  -1.0297107  19.0685405
  34.3992216  -0.1251296  19.3144680  34.1056944  -1.4889688  19.9023990
  29.2671435  -0.8790364  24.6426286  29.1156941  -1.1079813  23.7256369
  29.2576114   0.0780237  24.6557631  30.9763641   2.1528758  22.7202768
  30.9176188   1.4687978  22.0533351  31.3783160   2.8947748  22.2683394
  30.9781049   0.1168342  20.9516747  30.0907827  -0.2205736  21.0743146
  31.5479600  -0.6148627  21.1885513  26.9680886   4.6756629  20.0736149
  27.6808858   5.3104093  20.0012051  26.4770914   4.7720495  19.2576151
  25.8681658  -4.2784509  25.2060307  25.1922295  -4.3790380  25.8762683
  26.6909292  -4.4345296  25.6696305  24.6104441   7.0282418  19.4417923
  25.1622749   7.1914040  20.2067009  24.9510634   7.6186856  18.7697948
  29.4615315   1.8543676  25.2966578  30.0055219   2.4673634  24.8021533
  28.8802160   2.4123254  25.8133591  24.7570252   4.5940900  21.4566578
  25.0657379   4.3490046  22.3289277  25.5545734   4.7987538  20.9685448
  32.7844110   1.3139730  24.6327899  31.9939653   1.2963869  24.0932398
  32.5477464   1.8528023  25.3876936  32.9041985  -1.8367804  21.9460628
  32.9539990  -2.0017797  22.8876150  32.7955908  -2.7040545  21.5558508
  34.4060182   0.5829138  22.1902649  34.1144990   0.9459118  23.0266110
  33.7932313  -0.1303854  22.0115981  25.5559140  -1.2752569  25.5081173
  26.4762149  -1.0973970  25.7021220  25.5208723  -2.2196524  25.3560873
  27.5841374  -0.4996558  27.1595334  28.4532534  -0.3255905  26.7981969
  27.1048125   0.3197859  27.0371064  39.2433850  11.2092068  16.5640609
  39.8812260  11.0898816  15.8603949  39.1254693  12.1572912  16.6228561
  36.0523556  11.1619496  16.5002134  35.7142067  11.0460561  15.6122668
  36.9213324  10.7610662  16.4803140  36.5343339  12.3154348  22.4588339
  36.5231980  11.9207146  21.5868843  36.6963978  11.5820421  23.0522111
  29.4574804  14.5106164  15.3283245  30.2496095  14.1696989  14.9129544
  29.6971454  14.6201140  16.2485398  37.4909930  16.6825941   7.8013489
  36.8397910  17.2680021   7.4147503  38.2854293  17.2132135   7.8608527
  33.2550600  15.0991460  21.4067523  32.9640466  16.0037091  21.2914189
  33.8907584  15.1407988  22.1211593  34.1806807  12.4768309  17.9968883
  34.7770379  12.2524331  17.2825846  34.2381778  11.7353054  18.5994331
  38.7975118   8.9343522  13.6393817  39.5838207   8.5162945  13.2884234
  39.0613822   9.8389614  13.8075465  44.1983545   8.8718755  14.5426795
  44.9308717   8.3017972  14.7764625  43.4422901   8.4840356  14.9833301
  35.8159665  11.2945997  11.7390138  35.4517872  10.7676618  12.4503059
  36.6726781  10.9044466  11.5656623  41.7208966   2.5840330  19.0021404
  41.3892290   3.4535740  18.7782619  41.1254579   2.2676614  19.6815434
  38.2140485  14.7852876  18.4017317  37.9141208  15.6877914  18.2933124
  37.8691545  14.5185059  19.2538470  31.6652967  11.2366672  14.4354021
  30.7403463  11.1042886  14.6431713  31.9137380  12.0160892  14.9323964
  41.6137629   7.3035416  16.0814754  40.7054506   7.2350824  15.7873515
  41.5625225   7.7807361  16.9096580  29.0261778  10.8799946  15.2697810
  29.1554159  11.1334425  16.1837222  28.3459229  11.4727654  14.9502465
  33.1961265  21.5497196  11.3688284  33.1185295  22.5005021  11.4476765
  32.5922909  21.2043068  12.0263211  35.6878495   8.7225061  24.0249651
  34.9111829   9.2818981  24.0152516  36.3269058   9.2081844  24.5464521
  43.4799275   5.5051854  17.8592628  42.8373656   5.7984387  17.2132423
  42.9754204   5.3904774  18.6645825  33.9424867  11.5310515  23.5867618
  34.6839551  12.0695559  23.3102442  33.2361852  12.1576803  23.7439170
  39.4180207  13.6739655  22.1839780  39.8263563  13.2322066  21.4394412
  38.6957468  13.0992283  22.4373973  35.7711277   8.6112262  19.5573337
  36.6172472   9.0351675  19.7007986  35.7109914   7.9545886  20.2511900
  39.7409021  14.2340846  15.9392069  39.1117884  14.3986560  15.2368137
  39.3534683  14.6482455  16.7103033  43.6198253  15.1695284  13.2936432
  42.9349291  15.5494185  12.7433466  43.7042103  15.7790610  14.0268380
  38.9210722   6.2716630  21.2154510  38.6771654   7.0258691  20.6788786
  39.1970653   6.6501978  22.0501757  40.8749185  12.8155243  19.8931776
  41.0866080  13.4587002  19.2166157  40.8278933  11.9817559  19.4253706
  38.4775414   5.4273063  16.7968348  37.6159893   5.7254317  17.0885086
  38.5037848   5.6443462  15.8649381  35.2936983  13.9715254  13.2042154
  35.7575329  14.2502957  12.4146776  35.0293781  13.0698698  13.0215244
  32.1861064  13.5186735  16.1421917  32.7562421  13.9474004  15.5039402
  32.7769176  13.2369320  16.8406103  32.6786231   8.6850163  24.3882928
  32.0484891   9.3666444  24.6218325  32.5722319   8.5733244  23.4436067
  41.9895013  15.6927198  18.0654133  42.8112456  15.2907385  17.7836815
  41.9857416  15.5895432  19.0170249  35.7551616  15.2411241  20.2214844
  35.8196049  15.7031649  21.0573016  35.0462540  14.6108606  20.3497154
  26.2568906   8.6052449  17.7463843  26.5076945   9.4899459  18.0121419
  26.7928455   8.4257051  16.9738935  50.0801006  12.0365947  14.4139105
  49.3264714  11.4673345  14.2583109  50.2148547  12.0028611  15.3609739
  35.4699634  16.9079349  10.0893824  35.3345309  17.7530885  10.5178672
  36.0109446  17.1098626   9.3259758  31.9566973   2.9870929  26.7508179
  31.5633919   2.4337127  27.4255824  32.7733114   3.2981507  27.1414697
  30.7323916  17.5420543  12.7444502  30.9090544  18.4638508  12.5565486
  31.5280749  17.2278962  13.1738882  34.8734934   4.4028808  24.3428436
  35.6144648   5.0035961  24.2632898  35.1052857   3.6606446  23.7846479
  30.0176272   9.5885175  22.6206666  29.9029788   8.6870432  22.9213765
  29.1620790   9.8348872  22.2691482  37.0968110  17.5302915  24.2194166
  36.6531964  16.7439294  23.9015071  37.7585324  17.7182066  23.5538057
  31.8555231  19.0598717  18.7454845  32.4062657  18.9315780  17.9731839
  31.0166707  19.3593606  18.3949738  39.1949348  17.8105715  22.2475568
  39.1767824  18.6314596  21.7555837  40.1169268  17.6859790  22.4725709
  35.6522402  15.3249845  23.0899076  36.1850739  14.5638133  22.8598384
  35.1236484  15.0323497  23.8323230  38.8192097   0.4309911  18.6192718
  38.4756367   1.3211552  18.5431828  39.1871060   0.2411568  17.7562303
  37.8988638   2.8014566  16.5841951  37.3953433   2.7644701  15.7709756
  38.1919245   3.7107309  16.6438608  43.7576654  13.1750876   9.0618326
  42.9806097  12.8362036   8.6173488  44.4368135  13.1803500   8.3873291
  37.0175115  14.4535837  10.6017888  36.4896477  13.7188597  10.2891125
  36.5162618  15.2310514  10.3557856  41.9967961  12.6484858  15.7184934
  41.3391636  13.3384119  15.8065063  42.8008360  13.0381290  16.0618921
  40.8073420  11.0029230  13.7688876  41.3205302  11.6359222  14.2710586
  41.4574644  10.4030426  13.4032236  38.0695794  20.9813555   6.5249547
  37.3957493  21.2845251   7.1334505  38.4561616  21.7842635   6.1755004
  37.2854251   8.4778686  16.0147216  36.3676812   8.6993633  15.8568905
  37.7014394   8.5524996  15.1558924  38.0689299   9.8770102  11.1449897
  38.8161118  10.3891499  10.8357019  38.3380888   9.5554154  12.0054290
  41.5735216  15.9835232  11.8968019  41.1197543  15.1426142  11.9533209
  40.9429183  16.6196630  12.2342799  40.5168136   6.9127218  13.1268686
  39.7790893   6.4004604  13.4578929  40.7694909   6.4727599  12.3151963
  40.0168155  17.8211729  12.8317837  40.3091130  18.3816786  12.1130202
  40.5266776  18.1140290  13.5870996  34.8900843   9.9857263  14.2286646
  34.9449453   9.0331099  14.1529123  34.0792045  10.1416702  14.7127945
  38.4267414   9.0676147  20.8191919  38.7816802   9.2947620  21.6786385
  39.0739546   9.3994524  20.1969174  44.1565151  12.1894583  11.5241248
  44.0183050  12.3796179  10.5962437  43.8001370  12.9513966  11.9809299
  32.3207277   6.1752678  17.6038260  32.9606657   6.0341437  16.9061224
  31.4884808   5.8887192  17.2276862  44.1834531  14.2571110  16.5352520
  44.6171038  14.1646399  17.3835574  44.8966112  14.2328611  15.8972536
  33.0967581  15.4755109  13.7173253  33.8908180  14.9805429  13.5155828
  32.3859274  14.9472972  13.3540958  37.9162426  17.8573204  18.0685620
  37.9699448  18.4264140  18.8363336  37.0477207  18.0275089  17.7039657
  30.7960819   7.5590760  19.5510072  31.4683873   7.3508123  18.9022720
  29.9690606   7.3612846  19.1115304  45.0450081  14.2994811  19.0685405
  45.2385971  15.2040621  19.3144680  44.9450699  13.8402230  19.9023990
  36.6986391   4.1852701  21.5675732  36.0514306   4.8842651  21.4740209
  37.4687407   4.6188845  21.9351981  40.1065189  14.4501553  24.6426286
  39.9550696  14.2212105  23.7256369  40.0969869  15.4072155  24.6557631
  36.8750526  12.0233466  19.6272552  37.8042586  12.1744626  19.4541519
  36.4541556  12.1117487  18.7721199  35.6738857  16.0484131  17.3971090
  35.5349943  15.6802915  18.2697028  34.8853454  16.5631770  17.2255048
  36.2687009  21.1493227   8.7396626  36.4438765  20.6781270   9.5542249
  35.5819797  21.7758993   8.9677887  37.2244073  15.4265733  14.7859928
  36.8893905  15.3866503  15.6817577  36.7248018  14.7610449  14.3130338
  31.1988317  10.8333363  20.3112509  31.0608114  10.1013602  20.9124048
  32.1093240  10.7442263  20.0296696  33.8270617  10.5453323  19.7996188
  34.5370236   9.9046515  19.7582807  33.7839925  10.7966218  20.7222369
  41.8157396  17.4820676  22.7202768  41.7569942  16.7979896  22.0533351
  42.2176914  18.2239666  22.2683394  32.5399551   7.5318541  21.6191828
  32.0036908   7.0809279  22.2713424  31.9516260   7.6664449  20.8762292
  30.8348095  24.2982590  15.5136486  31.0744693  24.9301114  16.1915505
  29.9917291  23.9470630  15.8001846  41.8174803  15.4460260  20.9516747
  40.9301582  15.1086182  21.0743146  42.3873354  14.7143291  21.1885513
  28.2738672   6.6674548  18.7044822  28.1896861   6.0600218  17.9695232
  27.4521379   7.1583567  18.7054319  35.3475957  20.1061712  17.9177990
  35.2746128  20.9116684  18.4297295  34.9053350  20.3053678  17.0926012
  35.1365736  19.3433482  11.4280812  34.3533258  19.8855163  11.5219036
  35.8358481  19.8607462  11.8275053  46.2992144  10.8568477  15.7133309
  46.2882020  11.7393193  15.3427242  45.4309523  10.5040028  15.5187846
  37.8074640  20.0048546  20.0736149  38.5202612  20.6396011  20.0012051
  37.3164669  20.1012412  19.2576151  39.5292167  13.9099799  11.6453441
  38.5948446  14.0301261  11.4758145  39.7068835  13.0072266  11.3813451
  42.9164718   9.7517118  12.1803475  43.3825170  10.5845110  12.1063778
  43.3672219   9.2862100  12.8848733  32.8586554  17.7542990  20.8941720
  33.5596013  18.3879473  21.0471114  32.3881669  18.0957721  20.1337359
  40.9840949  16.0960940   9.1789627  41.2600793  15.9817534  10.0883501
  40.1145448  15.6978424   9.1401800  40.8881381   2.1197705  16.2194376
  39.9744461   2.3501932  16.3876583  41.3174482   2.2036149  17.0708409
  40.6587840  10.3087597  18.7194270  40.0059290  10.5563505  18.0646723
  41.0368219   9.4951735  18.3856748  37.6195013  20.3447290  12.8222441
  37.8017408  19.5268946  13.2850193  38.4427999  20.5614983  12.3847331
  37.9537179  19.2715476  10.0837489  38.4824945  18.7607930   9.4707651
  38.2165398  18.9558006  10.9483022  36.7075413  11.0507408  25.2060307
  36.0316050  10.9501538  25.8762683  37.5303046  10.8946622  25.6696305
  28.4554272  17.2879345  17.8272823  29.0407708  16.5423033  17.9600727
  28.2579110  17.5983302  18.7109486  31.3092927  20.3230592  12.8435265
  30.6403302  20.8076720  12.3599305  31.1705797  20.5699813  13.7578644
  35.4498195  22.3574336  19.4417923  36.0016503  22.5205957  20.2067009
  35.7904389  22.9478774  18.7697948  30.4262689   4.7049486  20.0439808
  30.4904015   5.5664316  19.6317206  30.3629809   4.0923487  19.3112167
  29.9014961   6.7772618  23.6912842  30.5287000   6.3949695  24.3050367
  29.0442880   6.5586820  24.0568535  40.3009070  17.1835593  25.2966578
  40.8448974  17.7965552  24.8021533  39.7195915  17.7415172  25.8133591
  38.5866583  20.3056311  16.4281606  38.4617722  19.5046051  15.9192551
  39.2445674  20.8002505  15.9395575  40.6501491  18.1065331  18.0561156
  39.7031827  17.9870683  17.9839482  40.9984264  17.2187829  18.1387417
  33.0101064   3.9959470  21.8799397  33.5335466   4.2421767  22.6425707
  32.7913398   4.8279505  21.4602535  37.6547924  17.9018048  14.2565508
  37.5072887  16.9734755  14.4373078  38.4801418  17.9238138  13.7722583
  41.2582046  18.7246606  15.3430381  42.1828594  18.5189468  15.2054832
  41.0897350  18.4763007  16.2519722  34.2153610   4.9373165  19.5649068
  33.8750430   4.1380978  19.9669748  33.5092616   5.2374876  18.9925901
  34.8670081   2.0222478  18.0176391  35.6896151   1.5482956  17.8955281
  35.1108145   2.8012962  18.5175077  32.3908660   8.7141598  15.8268370
  32.2453241   9.0281902  16.7192651  31.9133864   9.3326499  15.2739268
  34.2505043   5.7044146  15.8749259  34.2366612   4.8085240  15.5381557
  34.9677471   5.7114810  16.5087545  36.1031174   6.1381487  17.9202387
  35.8448952   7.0598557  17.9186717  35.5716214   5.7411921  18.6102851
  41.0477362  19.2432274  10.6992472  41.2214240  18.6778696   9.9466324
  41.5406254  20.0433169  10.5171962  26.8654322  11.2546943  18.7656031
  26.3207790  12.0306751  18.8976305  27.7433672  11.6017747  18.6075152
  46.9016754  12.0068697  12.3182772  47.3447900  11.2576022  11.9201895
  46.0243264  11.9978833  11.9356504  42.0352535  18.5599038   7.7989370
  42.7303440  19.1805731   8.0176685  42.3775685  17.7094389   8.0741748
  27.6520344  10.3816839  21.6586188  26.9102080  10.5299474  22.2450818
  27.3313088  10.6425105  20.7952937  43.9343958  16.0098744   9.3276701
  44.4595282  16.3486016   8.6026021  43.8466311  15.0745759   9.1439836
  35.5964007  19.9232817  21.4566578  35.9051133  19.6781964  22.3289277
  36.3939489  20.1279456  20.9685448  35.6184619  22.0770727  13.6871954
  35.1789609  21.5847106  14.3804811  36.3692736  21.5343695  13.4464029
  28.0976958  18.2682268  13.6896582  28.9234978  17.9686040  13.3095226
  27.7471010  17.4989890  14.1386371  33.0658491  17.6208736  15.7594256
  32.4438500  16.9579441  15.4596484  33.7363358  17.6469868  15.0767904
  26.2985563  16.1868594  14.6485516  25.4617471  15.7590769  14.4669517
  26.2709208  16.3801038  15.5856307  33.1383018   6.0990524  25.3526762
  33.1871174   6.9752647  24.9704532  33.6805533   5.5567917  24.7798405
  43.6237864  16.6431647  24.6327899  42.8333408  16.6255786  24.0932398
  43.3871219  17.1819941  25.3876936  43.7435739  13.4924114  21.9460628
  43.7933744  13.3274121  22.8876150  43.6349663  12.6251373  21.5558508
  41.0339502   9.4755042  23.2619934  41.9349364   9.3361507  22.9703932
  41.1087476   9.6409497  24.2018112  35.3682307   6.8521896  22.1073121
  34.4985616   7.1455463  21.8355709  35.6041787   7.4362341  22.8280384
  45.2453936  15.9121055  22.1902649  44.9538744  16.2751036  23.0266110
  44.6326067  15.1988064  22.0115981  46.4449618  13.4773935  14.7105219
  47.2796510  13.9163739  14.8742780  46.5808747  13.0012588  13.8913465
  43.4941124  11.0353670  20.6582707  43.9695246  11.2281316  19.8501558
  42.5706690  11.0912856  20.4126091  38.0721341   3.0701513  19.6238541
  38.5903285   3.8062540  19.2985030  37.7176474   3.3765507  20.4585300
  42.1942793   7.9119430  18.8911013  43.1460216   8.0117528  18.9123237
  42.0246244   7.1197698  19.4009097  40.2157173   4.9975013  19.0770414
  39.6207105   5.2780026  18.3816902  39.9306869   5.4868914  19.8487155
  41.9752680  18.2663810   4.7976994  41.8966311  17.9323674   5.6912752
  42.7962347  18.7585578   4.7968466  44.6730871  11.1325550  18.0053312
  44.6407191  10.1941550  18.1912996  45.2831495  11.2109586  17.2719137
  44.8225360   7.9236593  18.0511596  44.3064408   7.1395050  17.8641524
  45.7065308   7.5955310  18.2158115  42.4836086   1.6677609  14.0107408
  42.2860908   1.3592697  14.8950740  43.0935792   2.3939248  14.1405338
  50.4907421  12.1941556  17.1459349  51.2210809  11.9326845  17.7067052
  49.8814366  11.4570278  17.1861417  48.5722718  10.3349419  17.7433800
  47.8455882  10.2005384  17.1350292  48.1570005  10.6426248  18.5490518
  36.3952894  14.0539349  25.5081173  37.3155904  14.2317948  25.7021220
  36.3602477  13.1095394  25.3560873  29.3914967  11.9640383  18.1503955
  29.6100977  12.8957491  18.1691988  29.8040741  11.6048358  18.9358758
  34.2642832   7.5373589  27.5406703  34.1639559   8.4867946  27.4718795
  34.0464374   7.2091828  26.6682774  25.4823319  12.8680854  16.4027570
  24.7886791  12.4534807  15.8897524  26.2296310  12.9101390  15.8060988
  34.1274102  10.9670728  26.3571765  33.6441184  11.7671088  26.5635654
  34.2135041  10.9778673  25.4039209  30.0547440  14.8575263  18.3940199
  31.0090693  14.8259205  18.3270130  29.8559963  14.3965886  19.2090425
  30.6446822  13.4276379  20.9610997  31.4639711  13.9220457  20.9845834
  30.9183630  12.5108347  20.9328564  43.7527954   5.8433652  14.0393291
  44.5288344   6.3330104  14.3117908  43.0276088   6.2691706  14.4965161
  46.1900513   6.5561271  15.0967232  46.7845004   6.3157007  14.3860540
  46.2627097   5.8368402  15.7240768  28.4097669  20.3994882  15.4110397
  28.2752137  19.6395283  14.8448395  27.9929731  21.1235782  14.9439186
  40.3754442  11.3341667  10.5389242  40.3189643  11.7910218   9.6996875
  40.9282784  10.5732352  10.3612085  44.1859248   7.1231399  11.3639362
  43.9296182   6.7228035  12.1947569  43.5612116   7.8375193  11.2389501
  48.4971586   9.8627472  13.8710653  47.9371144   9.9320661  14.6442215
  47.8915089   9.6868457  13.1510149  31.5666794  21.2964199  15.6228839
  31.4499179  22.2409632  15.5207530  30.7459241  20.9937761  16.0114639
  41.4543329  16.0214335   6.4685432  42.2888933  15.5895533   6.2862907
  41.2927672  15.8496349   7.3962327  25.8981736   7.7614513  21.6603194
  26.5440600   7.2513467  22.1490419  25.6898887   8.4983194  22.2346619
  38.4235128  14.8295360  27.1595334  39.2926288  15.0036012  26.7981969
  37.9441880  15.6489777  27.0371064  32.5921309  21.9492461  18.8384768
  33.4948555  21.9816071  19.1551263  32.3658679  21.0192912  18.8531104
  34.3474911  20.7023448  15.4994846  33.3970542  20.7025309  15.3859219
  34.6507397  19.9556182  14.9830881  30.2379227   4.9082130  25.7578208
  31.1010689   4.5518935  25.9681532  29.6644638   4.5696025  26.4453612
  50.0827604  26.5383986  16.5640609  50.7206014  26.4190733  15.8603949
  49.9648447  27.4864830  16.6228561  46.8917310  26.4911414  16.5002134
  46.5535822  26.3752479  15.6122668  47.7607079  26.0902579  16.4803140
  42.7504126  28.3446891  12.4899024  42.1868991  28.2536827  11.7215312
  42.6356521  27.5246795  12.9701517  47.3737093  27.6446266  22.4588339
  47.3625734  27.2499064  21.5868843  47.5357733  26.9112338  23.0522111
  40.2968558  29.8398082  15.3283245  41.0889850  29.4988907  14.9129544
  40.5365208  29.9493057  16.2485398  48.3303685  32.0117858   7.8013489
  47.6791665  32.5971939   7.4147503  49.1248048  32.5424053   7.8608527
  42.2559312  29.1006995   8.2000624  43.0290188  28.5535982   8.0613500
  42.6084711  29.9651245   8.4115085  44.0944355  30.4283378  21.4067523
  43.8034221  31.3329009  21.2914189  44.7301339  30.4699905  22.1211593
  45.0200561  27.8060226  17.9968883  45.6164134  27.5816249  17.2825846
  45.0775533  27.0644972  18.5994331  44.5925590  25.2599662   5.8319074
  44.8451110  24.7381183   5.0702537  43.6550149  25.0965807   5.9345757
  49.6368873  24.2635440  13.6393817  50.4231962  23.8454863  13.2884234
  49.9007577  25.1681532  13.8075465  49.8078950  29.7008290   8.3382474
  49.1724783  29.7742917   9.0503378  49.4776356  30.2901889   7.6601553
  55.0377300  24.2010673  14.5426795  55.7702472  23.6309890  14.7764625
  54.2816655  23.8132274  14.9833301  44.3121879  27.1627767   8.0343449
  44.1958137  26.4872671   8.7024533  44.4224138  26.6760141   7.2175602
  46.6553419  26.6237915  11.7390138  46.2911627  26.0968536  12.4503059
  47.5120535  26.2336384  11.5656623  52.5602720  17.9132247  19.0021404
  52.2286045  18.7827658  18.7782619  51.9648333  17.5968531  19.6815434
  46.2958906  21.6527814   6.7351486  46.4633309  22.5208051   7.1021957
  46.1056076  21.8155096   5.8112776  49.0534240  30.1144793  18.4017317
  48.7534963  31.0169832  18.2933124  48.7085299  29.8476976  19.2538470
  42.5046721  26.5658590  14.4354021  41.5797218  26.4334804  14.6431713
  42.7531134  27.3452809  14.9323964  52.4531383  22.6327333  16.0814754
  51.5448261  22.5642742  15.7873515  52.4018979  23.1099278  16.9096580
  46.2748127  24.1085472   7.7198153  46.1547753  24.5542523   8.5583633
  45.5800716  24.4570789   7.1611691  39.8655532  26.2091864  15.2697810
  39.9947913  26.4626343  16.1837222  39.1852983  26.8019572  14.9502465
  44.0355019  36.8789114  11.3688284  43.9579049  37.8296939  11.4476765
  43.4316663  36.5334986  12.0263211  46.5272249  24.0516979  24.0249651
  45.7505583  24.6110899  24.0152516  47.1662812  24.5373762  24.5464521
  54.3193030  20.8343772  17.8592628  53.6767410  21.1276305  17.2132423
  53.8147958  20.7196692  18.6645825  51.9733193  24.5806945   8.5478487
  52.8851050  24.8134332   8.3726185  51.4642841  25.1643989   7.9853566
  44.7818621  26.8602432  23.5867618  45.5233306  27.3987476  23.3102442
  44.0755607  27.4868721  23.7439170  50.2573961  29.0031573  22.1839780
  50.6657317  28.5613983  21.4394412  49.5351223  28.4284200  22.4373973
  46.6105031  23.9404180  19.5573337  47.4566226  24.3643593  19.7007986
  46.5503669  23.2837804  20.2511900  50.5802776  29.5632763  15.9392069
  49.9511638  29.7278478  15.2368137  50.1928438  29.9774373  16.7103033
  54.4592008  30.4987201  13.2936432  53.7743046  30.8786103  12.7433466
  54.5435857  31.1082528  14.0268380  49.7604477  21.6008548  21.2154510
  49.5165408  22.3550608  20.6788786  50.0364407  21.9793896  22.0501757
  51.7142939  28.1447160  19.8931776  51.9259835  28.7878920  19.2166157
  51.6672688  27.3109477  19.4253706  49.3169168  20.7564981  16.7968348
  48.4553647  21.0546234  17.0885086  49.3431603  20.9735380  15.8649381
  46.1330738  29.3007171  13.2042154  46.5969083  29.5794874  12.4146776
  45.8687536  28.3990616  13.0215244  43.0254819  28.8478653  16.1421917
  43.5956176  29.2765921  15.5039402  43.6162931  28.5661238  16.8406103
  45.0699624  25.4230324  10.0131719  45.7723667  25.8751368  10.4805645
  44.7380252  24.7814143  10.6411612  38.8124958  23.6813877  15.3148853
  38.0224012  23.9371405  14.8388963  39.3036205  24.4962214  15.4200893
  52.8288767  31.0219116  18.0654133  53.6506211  30.6199303  17.7836815
  52.8251170  30.9187350  19.0170249  40.7639703  24.0458456  12.2732329
  39.9670866  24.1577150  12.7915825  40.5365295  24.3845108  11.4073220
  46.5945371  30.5703159  20.2214844  46.6589803  31.0323566  21.0573016
  45.8856295  29.9400524  20.3497154  37.0962661  23.9344367  17.7463843
  37.3470699  24.8191377  18.0121419  37.6322209  23.7548969  16.9738935
  60.9194760  27.3657864  14.4139105  60.1658469  26.7965262  14.2583109
  61.0542301  27.3320529  15.3609739  46.3093388  32.2371266  10.0893824
  46.1739063  33.0822802  10.5178672  46.8503201  32.4390544   9.3259758
  42.7960728  18.3162846  26.7508179  42.4027674  17.7629045  27.4255824
  43.6126868  18.6273425  27.1414697  39.7622786  29.7546705  10.6621749
  40.2747306  30.5489955  10.8127314  40.4145499  29.0572995  10.5955351
  41.5717670  32.8712461  12.7444502  41.7484299  33.7930426  12.5565486
  42.3674504  32.5570880  13.1738882  45.7128689  19.7320725  24.3428436
  46.4538402  20.3327879  24.2632898  45.9446612  18.9898363  23.7846479
  40.8570027  24.9177093  22.6206666  40.7423542  24.0162350  22.9213765
  40.0014545  25.1640789  22.2691482  47.9361865  32.8594833  24.2194166
  47.4925719  32.0731212  23.9015071  48.5979078  33.0473984  23.5538057
  42.6948986  34.3890635  18.7454845  43.2456411  34.2607698  17.9731839
  41.8560462  34.6885524  18.3949738  50.0343103  33.1397633  22.2475568
  50.0161578  33.9606514  21.7555837  50.9563023  33.0151708  22.4725709
  46.4916157  30.6541762  23.0899076  47.0244494  29.8930051  22.8598384
  45.9630238  30.3615414  23.8323230  49.6585852  15.7601828  18.6192718
  49.3150121  16.6503470  18.5431828  50.0264815  15.5703486  17.7562303
  37.7271703  28.0835359  11.4381320  38.5646925  28.4932367  11.2215027
  37.9049970  27.1434801  11.4081514  49.6236135  25.7510439   7.1265153
  49.1082758  26.5215044   7.3653540  49.3513443  25.0775576   7.7498214
  47.2083246  20.5960140  12.1850391  46.3524842  20.2066991  12.0056030
  47.6210197  20.6752101  11.3250177  48.7382392  18.1306484  16.5841951
  48.2347188  18.0936619  15.7709756  49.0312999  19.0399226  16.6438608
  44.9825278  18.2145213  15.5908133  45.8478275  18.0188022  15.2314022
  45.0502787  17.9855565  16.5177489  54.5970409  28.5042794   9.0618326
  53.8199852  28.1653954   8.6173488  55.2761890  28.5095417   8.3873291
  49.4122438  23.6237532   8.9524934  49.1072573  23.9383681   9.8035077
  50.3652880  23.7018951   8.9952267  47.8568870  29.7827755  10.6017888
  47.3290231  29.0480514  10.2891125  47.3556372  30.5602431  10.3557856
  52.8361716  27.9776775  15.7184934  52.1785390  28.6676037  15.8065063
  53.6402115  28.3673207  16.0618921  42.5887597  20.4447421  12.9624499
  43.1631349  20.2222603  12.2297692  43.1758580  20.5136116  13.7153101
  51.6467174  26.3321148  13.7688876  52.1599056  26.9651140  14.2710586
  52.2968398  25.7322344  13.4032236  42.9157184  22.4751882   6.9820385
  42.0794497  22.8126569   7.3029659  42.7761954  22.3400862   6.0447522
  44.8910265  17.3188670  11.6899569  44.2374677  17.0037687  11.0656184
  44.8490739  16.6964411  12.4159392  46.0021470  27.6007965   3.6052861
  45.0948532  27.3697219   3.8044010  46.4992502  26.8045584   3.7926842
  48.9089549  36.3105472   6.5249547  48.2351247  36.6137169   7.1334505
  49.2955371  37.1134553   6.1755004  48.1248005  23.8070604  16.0147216
  47.2070567  24.0285551  15.8568905  48.5408149  23.8816914  15.1558924
  48.9083053  25.2062019  11.1449897  49.6554872  25.7183417  10.8357019
  49.1774643  24.8846072  12.0054290  47.1809703  27.7020560   8.1276851
  46.2720923  27.4179593   8.2249321  47.2104787  28.1219639   7.2680158
  52.4128971  31.3127150  11.8968019  51.9591298  30.4718059  11.9533209
  51.7822937  31.9488548  12.2342799  51.3561890  22.2419136  13.1268686
  50.6184647  21.7296522  13.4578929  51.6088664  21.8019517  12.3151963
  50.8561910  33.1503646  12.8317837  51.1484884  33.7108703  12.1130202
  51.3660530  33.4432207  13.5870996  51.4573518  15.0195388  13.7210455
  51.7632394  14.1592751  13.4336370  52.1826122  15.6113008  13.5209449
  37.7497874  25.4226074  12.1092053  37.5522273  24.8295435  11.3843120
  37.1944538  25.1178284  12.8267992  45.7294597  25.3149181  14.2286646
  45.7843207  24.3623017  14.1529123  44.9185799  25.4708620  14.7127945
  46.8785791  29.2429304   5.4664930  46.4405221  28.5265163   5.0070567
  47.6196232  29.4705419   4.9050021  43.6686957  23.9326240  11.9877025
  42.8554823  24.2320411  12.3942217  44.1645951  23.5381929  12.7051507
  45.8195535  33.9283997  13.9211290  45.7771714  34.1544844  12.9919822
  46.7358234  33.6947372  14.0697091  49.2661169  24.3968065  20.8191919
  49.6210557  24.6239538  21.6786385  49.9133300  24.7286442  20.1969174
  54.9958906  27.5186501  11.5241248  54.8576804  27.7088097  10.5962437
  54.6395125  28.2805884  11.9809299  43.1601032  21.5044596  17.6038260
  43.8000411  21.3633355  16.9061224  42.3278563  21.2179109  17.2276862
  55.0228285  29.5863028  16.5352520  55.4564792  29.4938317  17.3835574
  55.7359866  29.5620528  15.8972536  43.9361336  30.8047026  13.7173253
  44.7301934  30.3097346  13.5155828  43.2253028  30.2764889  13.3540958
  48.7556180  33.1865122  18.0685620  48.8093203  33.7556058  18.8363336
  47.8870962  33.3567007  17.7039657  40.2444099  24.9490108   9.7933005
  39.3141687  24.8874564  10.0102967  40.3401571  24.4266061   8.9969647
  40.1629648  21.4744921  12.3811247  40.4236466  22.3890254  12.2720407
  40.9846821  21.0069363  12.5307860  41.6354574  22.8882678  19.5510072
  42.3077627  22.6800040  18.9022720  40.8084360  22.6904764  19.1115304
  55.8843835  29.6286728  19.0685405  56.0779725  30.5332539  19.3144680
  55.7844453  29.1694147  19.9023990  47.5380146  19.5144619  21.5675732
  46.8908061  20.2134569  21.4740209  48.3081161  19.9480763  21.9351981
  50.9458944  29.7793471  24.6426286  50.7944450  29.5504023  23.7256369
  50.9363623  30.7364073  24.6557631  47.7144280  27.3525384  19.6272552
  48.6436340  27.5036543  19.4541519  47.2935310  27.4409405  18.7721199
  46.5132612  31.3776048  17.3971090  46.3743698  31.0094833  18.2697028
  45.7247208  31.8923688  17.2255048  47.1080764  36.4785145   8.7396626
  47.2832520  36.0073188   9.5542249  46.4213552  37.1050911   8.9677887
  48.0637827  30.7557651  14.7859928  47.7287660  30.7158421  15.6817577
  47.5641773  30.0902367  14.3130338  42.0382071  26.1625281  20.3112509
  41.9001869  25.4305520  20.9124048  42.9486994  26.0734181  20.0296696
  50.9997019  28.1013685   5.0596987  50.3826189  27.3760513   4.9630040
  50.5313507  28.8623046   4.7164061  44.6664372  25.8745240  19.7996188
  45.3763990  25.2338433  19.7582807  44.6233680  26.1258135  20.7222369
  52.6551150  32.8112594  22.7202768  52.5963696  32.1271814  22.0533351
  53.0570669  33.5531584  22.2683394  43.3793306  22.8610458  21.6191828
  42.8430663  22.4101197  22.2713424  42.7910014  22.9956367  20.8762292
  41.6741849  39.6274508  15.5136486  41.9138447  40.2593032  16.1915505
  40.8311046  39.2762548  15.8001846  42.7895565  22.3199110   4.1818291
  41.9125031  22.1987910   3.8180538  43.2653318  21.5285188   3.9297180
  52.6568558  30.7752178  20.9516747  51.7695336  30.4378099  21.0743146
  53.2267109  30.0435209  21.1885513  34.3097705  27.1076269  14.2759799
  34.9968745  26.7937999  13.6880814  34.1545833  28.0117634  14.0027050
  39.1132427  21.9966466  18.7044822  39.0290616  21.3892135  17.9695232
  38.2915133  22.4875484  18.7054319  46.1869711  35.4353630  17.9177990
  46.1139882  36.2408601  18.4297295  45.7447104  35.6345596  17.0926012
  45.9759491  34.6725400  11.4280812  45.1927013  35.2147080  11.5219036
  46.6752236  35.1899380  11.8275053  49.2856141  20.4820029  14.0715017
  49.7824840  19.7289992  13.7516088  48.5143122  20.5184346  13.5058227
  57.1385898  26.1860395  15.7133309  57.1275774  27.0685110  15.3427242
  56.2703278  25.8331946  15.5187846  48.6468395  35.3340464  20.0736149
  49.3596367  35.9687929  20.0012051  48.1558423  35.4304330  19.2576151
  50.3685921  29.2391717  11.6453441  49.4342200  29.3593179  11.4758145
  50.5462590  28.3364183  11.3813451  45.8691109  22.6237412  13.7986702
  45.4988897  22.0708453  14.4867608  46.3650202  22.0195546  13.2461702
  53.7558473  25.0809036  12.1803475  54.2218925  25.9137028  12.1063778
  54.2065973  24.6154018  12.8848733  43.6980308  33.0834907  20.8941720
  44.3989768  33.7171390  21.0471114  43.2275423  33.4249639  20.1337359
  51.8234704  31.4252857   9.1789627  52.0994548  31.3109452  10.0883501
  50.9539203  31.0270342   9.1401800  51.7275136  17.4489623  16.2194376
  50.8138215  17.6793850  16.3876583  52.1568237  17.5328067  17.0708409
  51.4981594  25.6379515  18.7194270  50.8453044  25.8855422  18.0646723
  51.8761974  24.8243653  18.3856748  48.4588768  35.6739208  12.8222441
  48.6411162  34.8560864  13.2850193  49.2821754  35.8906900  12.3847331
  48.7930933  34.6007393  10.0837489  49.3218700  34.0899848   9.4707651
  49.0559153  34.2849923  10.9483022  47.5469167  26.3799326  25.2060307
  46.8709804  26.2793455  25.8762683  48.3696801  26.2238540  25.6696305
  39.2948026  32.6171263  17.8272823  39.8801463  31.8714950  17.9600727
  39.0972865  32.9275219  18.7109486  42.1486681  35.6522510  12.8435265
  41.4797057  36.1368638  12.3599305  42.0099551  35.8991730  13.7578644
  33.8865681  25.1876863  16.5477266  33.9249780  24.6540453  17.3414384
  33.3805974  24.6612068  15.9288243  46.2891950  37.6866253  19.4417923
  46.8410258  37.8497875  20.2067009  46.6298143  38.2770691  18.7697948
  41.2656443  20.0341403  20.0439808  41.3297770  20.8956234  19.6317206
  41.2023563  19.4215405  19.3112167  51.1402824  32.5127511  25.2966578
  51.6842728  33.1257469  24.8021533  50.5589669  33.0707089  25.8133591
  37.5174258  23.9140965   9.6231197  37.8127700  23.0051643   9.5698251
  36.6162294  23.8928704   9.3012199  49.4260337  35.6348229  16.4281606
  49.3011477  34.8337969  15.9192551  50.0839428  36.1294422  15.9395575
  41.0468505  21.9896961  15.6058746  40.3255091  22.6032929  15.4666219
  41.8361761  22.5254726  15.5275392  51.4895246  33.4357249  18.0561156
  50.5425581  33.3162600  17.9839482  51.8378019  32.5479747  18.1387417
  43.8494819  19.3251388  21.8799397  44.3729221  19.5713684  22.6425707
  43.6307152  20.1571423  21.4602535  39.2462100  21.5955063   9.7470522
  38.9174806  20.7152441   9.5645628  39.6001471  21.5402731  10.6346912
  48.4941679  33.2309965  14.2565508  48.3466641  32.3026673  14.4373078
  49.3195172  33.2530056  13.7722583  42.3603923  21.8828032  10.1146000
  42.6999996  22.4113954   9.3924608  42.8076044  22.2208438  10.8904567
  52.0975801  34.0538524  15.3430381  53.0222348  33.8481385  15.2054832
  51.9291104  33.8054925  16.2519722  45.0547364  20.2665083  19.5649068
  44.7144184  19.4672896  19.9669748  44.3486370  20.5666794  18.9925901
  45.7063836  17.3514395  18.0176391  46.5289905  16.8774874  17.8955281
  45.9501899  18.1304879  18.5175077  44.3472070  20.3802654   8.3139293
  45.0680433  20.7583907   7.8103010  43.7237374  21.0991531   8.4174271
  48.4903193  21.0847803   9.2497625  48.7066808  21.9672441   8.9486453
  48.0097260  20.6934016   8.5203267  43.2302415  24.0433516  15.8268370
  43.0846995  24.3573819  16.7192651  42.7527618  24.6618416  15.2739268
  45.0898797  21.0336064  15.8749259  45.0760366  20.1377157  15.5381557
  45.8071226  21.0406728  16.5087545  46.9424928  21.4673404  17.9202387
  46.6842706  22.3890475  17.9186717  46.4109969  21.0703839  18.6102851
  51.8871117  34.5724191  10.6992472  52.0607994  34.0070614   9.9466324
  52.3800008  35.3725086  10.5171962  37.7048077  26.5838861  18.7656031
  37.1601545  27.3598668  18.8976305  38.5827427  26.9309665  18.6075152
  44.4935693  19.9150444  11.1436829  44.6151605  18.9867091  11.3427717
  44.2037736  19.9289130  10.2315145  47.3626884  17.6005355  14.2803549
  47.3848581  17.6644688  13.3255529  47.7794943  16.7609863  14.4744055
  57.7410508  27.3360614  12.3182772  58.1841654  26.5867940  11.9201895
  56.8637018  27.3270751  11.9356504  52.8746289  33.8890956   7.7989370
  53.5697194  34.5097649   8.0176685  53.2169440  33.0386307   8.0741748
  38.4914099  25.7108757  21.6586188  37.7495835  25.8591392  22.2450818
  38.1706843  25.9717022  20.7952937  54.7737713  31.3390661   9.3276701
  55.2989037  31.6777934   8.6026021  54.6860065  30.4037677   9.1439836
  46.4357761  35.2524735  21.4566578  46.7444888  35.0073882  22.3289277
  47.2333243  35.4571373  20.9685448  46.4578373  37.4062645  13.6871954
  46.0183364  36.9139023  14.3804811  47.2086490  36.8635612  13.4464029
  38.9370712  33.5974186  13.6896582  39.7628732  33.2977957  13.3095226
  38.5864764  32.8281808  14.1386371  43.9052245  32.9500654  15.7594256
  43.2832255  32.2871359  15.4596484  44.5757112  32.9761786  15.0767904
  37.1379317  31.5160512  14.6485516  36.3011226  31.0882686  14.4669517
  37.1102963  31.7092955  15.5856307  54.4631619  31.9723565  24.6327899
  53.6727162  31.9547704  24.0932398  54.2264973  32.5111859  25.3876936
  54.5829494  28.8216031  21.9460628  54.6327499  28.6566039  22.8876150
  54.4743417  27.9543290  21.5558508  43.4665752  31.5004577   9.2352716
  43.6153873  32.1840041   8.5819389  44.2732196  31.4809667   9.7502172
  51.8733256  24.8046959  23.2619934  52.7743119  24.6653424  22.9703932
  51.9481231  24.9701414  24.2018112  46.2076061  22.1813814  22.1073121
  45.3379371  22.4747380  21.8355709  46.4435542  22.7654259  22.8280384
  56.0847690  31.2412973  22.1902649  55.7932499  31.6042953  23.0266110
  55.4719822  30.5279981  22.0115981  57.2843373  28.8065853  14.7105219
  58.1190264  29.2455657  14.8742780  57.4202502  28.3304506  13.8913465
  54.3334879  26.3645588  20.6582707  54.8089000  26.5573234  19.8501558
  53.4100444  26.4204773  20.4126091  41.2218385  27.5269755  10.2413785
  40.9764427  26.6232085  10.4393996  41.3914300  27.5286905   9.2993263
  48.9115095  18.3993431  19.6238541  49.4297039  19.1354458  19.2985030
  48.5570228  18.7057424  20.4585300  40.4914033  23.2598112   7.7399947
  39.7983278  23.3342467   7.0839983  40.2465785  22.4958456   8.2621464
  49.1627689  14.8193714  15.1439438  49.4429443  14.1516903  15.7699864
  49.9478296  15.0122809  14.6314101  46.9661158  33.9952708   6.7064464
  46.3935125  34.6142895   6.2534936  47.5393952  34.5452069   7.2404386
  53.0336548  23.2411348  18.8911013  53.9853971  23.3409445  18.9123237
  52.8639998  22.4489616  19.4009097  51.0550927  20.3266931  19.0770414
  50.4600859  20.6071944  18.3816902  50.7700624  20.8160832  19.8487155
  50.1858418  34.2789858   7.8373046  51.1189091  34.2135419   8.0405922
  50.0981630  35.1146125   7.3787579  52.8146434  33.5955728   4.7976994
  52.7360066  33.2615592   5.6912752  53.6356101  34.0877496   4.7968466
  55.5124626  26.4617467  18.0053312  55.4800946  25.5233468  18.1912996
  56.1225249  26.5401504  17.2719137  47.3507956  25.3313520   4.0480516
  48.2967061  25.2019728   4.1168934  46.9722201  24.5928182   4.5249945
  55.6619114  23.2528511  18.0511596  55.1458163  22.4686967  17.8641524
  56.5459063  22.9247227  18.2158115  53.3229841  16.9969526  14.0107408
  53.1254662  16.6884614  14.8950740  53.9329547  17.7231165  14.1405338
  61.3301175  27.5233474  17.1459349  62.0604564  27.2618762  17.7067052
  60.7208121  26.7862196  17.1861417  59.4116472  25.6641337  17.7433800
  58.6849636  25.5297302  17.1350292  58.9963759  25.9718165  18.5490518
  47.2346649  29.3831266  25.5081173  48.1549658  29.5609865  25.7021220
  47.1996232  28.4387312  25.3560873  45.5350874  23.2563497   3.9835402
  44.6282329  22.9596609   4.0598115  45.8126855  22.9593315   3.1169688
  36.4528814  24.5769860  14.4334448  36.1331598  23.7235168  14.1408822
  35.9062242  24.7918438  15.1892415  40.2308721  27.2932301  18.1503955
  40.4494731  28.2249409  18.1691988  40.6434495  26.9340275  18.9358758
  47.1512939  17.8000386  10.1379643  46.3413668  17.4547471  10.5134889
  47.8397356  17.4907930  10.7267254  49.0803488  16.8778433  11.7603940
  49.6334526  17.2973887  12.4193963  49.3173574  15.9514181  11.8026896
  44.3049658  20.1150432   4.1247381  45.1668822  20.4405330   4.3843198
  44.4900002  19.3281928   3.6120447  36.3217074  28.1972772  16.4027570
  35.6280545  27.7826724  15.8897524  37.0690065  28.2393308  15.8060988
  52.4582295  18.9878958  11.2682604  51.8780964  19.6463762  10.8860656
  52.1918227  18.1656303  10.8570021  50.9085861  18.3884016  13.4703924
  51.4085639  18.5000551  12.6618243  51.5521469  18.0845069  14.1104733
  44.9667857  26.2962646  26.3571765  44.4834939  27.0963006  26.5635654
  45.0528796  26.3070591  25.4039209  38.2353816  28.1291025  14.2793584
  38.2124505  28.2278713  13.3275468  38.5454453  28.9756176  14.6010751
  40.8941194  30.1867180  18.3940199  41.8484448  30.1551123  18.3270130
  40.6953718  29.7257804  19.2090425  41.4840576  28.7568296  20.9610997
  42.3033465  29.2512375  20.9845834  41.7577384  27.8400265  20.9328564
  51.2407173  21.1479049  10.3238952  50.3533028  21.4328699  10.1059147
  51.6561162  20.9872812   9.4766229  54.5921709  21.1725570  14.0393291
  55.3682099  21.6622022  14.3117908  53.8669843  21.5983624  14.4965161
  57.0294267  21.8853189  15.0967232  57.6238758  21.6448925  14.3860540
  57.1020851  21.1660319  15.7240768  39.2491423  35.7286800  15.4110397
  39.1145891  34.9687201  14.8448395  38.8323485  36.4527700  14.9439186
  50.3850386  30.9123723   4.4186972  51.0886236  31.1173726   5.0344628
  49.6613035  31.4800485   4.6836056  51.2148196  26.6633585  10.5389242
  51.1583398  27.1202136   9.6996875  51.7676539  25.9024269  10.3612085
  55.0253002  22.4523317  11.3639362  54.7689937  22.0519952  12.1947569
  54.4005870  23.1667110  11.2389501  59.3365340  25.1919390  13.8710653
  58.7764898  25.2612579  14.6442215  58.7308844  25.0160374  13.1510149
  42.4060549  36.6256117  15.6228839  42.2892933  37.5701549  15.5207530
  41.5852995  36.3229678  16.0114639  52.2937084  31.3506253   6.4685432
  53.1282687  30.9187451   6.2862907  52.1321426  31.1788266   7.3962327
  51.9482976  27.8538366   7.8341771  51.8931779  27.6882637   6.8930216
  51.3229031  28.5614399   7.9903961  36.7375491  23.0906430  21.6603194
  37.3834354  22.5805384  22.1490419  36.5292642  23.8275112  22.2346619
  49.2628883  30.1587278  27.1595334  50.1320043  30.3327930  26.7981969
  48.7835634  30.9781695  27.0371064  45.2579101  17.3546475   7.4127090
  45.2457771  18.2988315   7.5695361  46.1502523  17.1716620   7.1186551
  43.4315063  37.2784379  18.8384768  44.3342310  37.3107989  19.1551263
  43.2052433  36.3484830  18.8531104  45.1868665  36.0315365  15.4994846
  44.2364296  36.0317227  15.3859219  45.4901151  35.2848100  14.9830881
  49.0731221  13.9489252  11.6673027  48.3063616  13.3947738  11.8129709
  49.4841926  14.0211120  12.5287178  60.9221359  41.8675904  16.5640609
  61.5599769  41.7482651  15.8603949  60.8042202  42.8156748  16.6228561
  57.7311065  41.8203332  16.5002134  57.3929576  41.7044397  15.6122668
  58.6000833  41.4194497  16.4803140  53.5897881  43.6738808  12.4899024
  53.0262746  43.5828745  11.7215312  53.4750276  42.8538713  12.9701517
  58.2130848  42.9738184  22.4588339  58.2019489  42.5790982  21.5868843
  58.3751487  42.2404256  23.0522111  51.1362313  45.1690000  15.3283245
  51.9283604  44.8280824  14.9129544  51.3758963  45.2784975  16.2485398
  59.1697439  47.3409776   7.8013489  58.5185419  47.9263856   7.4147503
  59.9641802  47.8715971   7.8608527  53.0953066  44.4298913   8.2000624
  53.8683942  43.8827900   8.0613500  53.4478465  45.2943162   8.4115085
  54.9338109  45.7575295  21.4067523  54.6427975  46.6620926  21.2914189
  55.5695093  45.7991823  22.1211593  55.8594316  43.1352144  17.9968883
  56.4557888  42.9108166  17.2825846  55.9169287  42.3936889  18.5994331
  55.4319344  40.5891579   5.8319074  55.6844865  40.0673100   5.0702537
  54.4943903  40.4257725   5.9345757  60.4762627  39.5927358  13.6393817
  61.2625716  39.1746781  13.2884234  60.7401331  40.4973450  13.8075465
  60.6472704  45.0300208   8.3382474  60.0118537  45.1034834   9.0503378
  60.3170111  45.6193807   7.6601553  65.8771054  39.5302591  14.5426795
  66.6096226  38.9601808  14.7764625  65.1210410  39.1424191  14.9833301
  55.1515633  42.4919685   8.0343449  55.0351891  41.8164589   8.7024533
  55.2617893  42.0052059   7.2175602  57.4947174  41.9529832  11.7390138
  57.1305381  41.4260453  12.4503059  58.3514290  41.5628301  11.5656623
  63.3996475  33.2424165  19.0021404  63.0679799  34.1119576  18.7782619
  62.8042088  32.9260449  19.6815434  57.1352661  36.9819732   6.7351486
  57.3027063  37.8499968   7.1021957  56.9449830  37.1447014   5.8112776
  59.8927994  45.4436711  18.4017317  59.5928717  46.3461750  18.2933124
  59.5479054  45.1768894  19.2538470  53.3440476  41.8950508  14.4354021
  52.4190972  41.7626722  14.6431713  53.5924889  42.6744727  14.9323964
  63.2925138  37.9619251  16.0814754  62.3842015  37.8934659  15.7873515
  63.2412734  38.4391196  16.9096580  57.1141882  39.4377389   7.7198153
  56.9941507  39.8834440   8.5583633  56.4194470  39.7862707   7.1611691
  50.7049287  41.5383781  15.2697810  50.8341668  41.7918260  16.1837222
  50.0246738  42.1311489  14.9502465  54.8748774  52.2081031  11.3688284
  54.7972804  53.1588856  11.4476765  54.2710418  51.8626904  12.0263211
  57.3666004  39.3808897  24.0249651  56.5899338  39.9402817  24.0152516
  58.0056567  39.8665680  24.5464521  65.1586784  36.1635689  17.8592628
  64.5161165  36.4568223  17.2132423  64.6541713  36.0488610  18.6645825
  62.8126948  39.9098863   8.5478487  63.7244804  40.1426249   8.3726185
  62.3036595  40.4935907   7.9853566  55.6212376  42.1894350  23.5867618
  56.3627060  42.7279394  23.3102442  54.9149361  42.8160639  23.7439170
  61.0967716  44.3323490  22.1839780  61.5051072  43.8905901  21.4394412
  60.3744977  43.7576118  22.4373973  57.4498786  39.2696097  19.5573337
  58.2959981  39.6935511  19.7007986  57.3897423  38.6129722  20.2511900
  61.4196530  44.8924681  15.9392069  60.7905393  45.0570395  15.2368137
  61.0322192  45.3066291  16.7103033  65.2985762  45.8279119  13.2936432
  64.6136800  46.2078020  12.7433466  65.3829611  46.4374446  14.0268380
  60.5998231  36.9300466  21.2154510  60.3559163  37.6842526  20.6788786
  60.8758162  37.3085813  22.0501757  62.5536694  43.4739078  19.8931776
  62.7653589  44.1170838  19.2166157  62.5066442  42.6401395  19.4253706
  60.1562923  36.0856899  16.7968348  59.2947402  36.3838152  17.0885086
  60.1825357  36.3027298  15.8649381  56.9724492  44.6299089  13.2042154
  57.4362838  44.9086792  12.4146776  56.7081290  43.7282534  13.0215244
  53.8648573  44.1770571  16.1421917  54.4349930  44.6057839  15.5039402
  54.4556685  43.8953155  16.8406103  55.9093378  40.7522242  10.0131719
  56.6117422  41.2043285  10.4805645  55.5774007  40.1106060  10.6411612
  54.3573740  39.3433998  24.3882928  53.7272400  40.0250279  24.6218325
  54.2509828  39.2317080  23.4436067  49.6518712  39.0105794  15.3148853
  48.8617766  39.2663323  14.8388963  50.1429960  39.8254132  15.4200893
  63.6682522  46.3511033  18.0654133  64.4899965  45.9491221  17.7836815
  63.6644925  46.2479268  19.0170249  51.6033458  39.3750373  12.2732329
  50.8064621  39.4869068  12.7915825  51.3759050  39.7137026  11.4073220
  57.4339125  45.8995077  20.2214844  57.4983558  46.3615484  21.0573016
  56.7250049  45.2692442  20.3497154  47.9356415  39.2636285  17.7463843
  48.1864454  40.1483295  18.0121419  48.4715964  39.0840886  16.9738935
  71.7588515  42.6949782  14.4139105  71.0052223  42.1257180  14.2583109
  71.8936056  42.6612446  15.3609739  57.1487143  47.5663184  10.0893824
  57.0132818  48.4114720  10.5178672  57.6896955  47.7682462   9.3259758
  53.6354482  33.6454764  26.7508179  53.2421428  33.0920963  27.4255824
  54.4520623  33.9565342  27.1414697  50.6016540  45.0838622  10.6621749
  51.1141061  45.8781872  10.8127314  51.2539253  44.3864913  10.5955351
  52.4111425  48.2004378  12.7444502  52.5878053  49.1222343  12.5565486
  53.2068258  47.8862798  13.1738882  56.5522443  35.0612643  24.3428436
  57.2932157  35.6619796  24.2632898  56.7840366  34.3190281  23.7846479
  51.6963781  40.2469010  22.6206666  51.5817297  39.3454268  22.9213765
  50.8408299  40.4932707  22.2691482  58.7755619  48.1886751  24.2194166
  58.3319473  47.4023129  23.9015071  59.4372833  48.3765901  23.5538057
  53.5342740  49.7182552  18.7454845  54.0850166  49.5899616  17.9731839
  52.6954216  50.0177441  18.3949738  60.8736857  48.4689551  22.2475568
  60.8555333  49.2898432  21.7555837  61.7956777  48.3443626  22.4725709
  57.3309911  45.9833680  23.0899076  57.8638248  45.2221968  22.8598384
  56.8023993  45.6907332  23.8323230  60.4979606  31.0893746  18.6192718
  60.1543876  31.9795388  18.5431828  60.8658569  30.8995404  17.7562303
  48.5665457  43.4127277  11.4381320  49.4040679  43.8224285  11.2215027
  48.7443725  42.4726719  11.4081514  60.4629889  41.0802357   7.1265153
  59.9476513  41.8506962   7.3653540  60.1907198  40.4067493   7.7498214
  58.0477000  35.9252058  12.1850391  57.1918596  35.5358908  12.0056030
  58.4603952  36.0044019  11.3250177  59.5776147  33.4598401  16.5841951
  59.0740942  33.4228536  15.7709756  59.8706754  34.3691144  16.6438608
  55.8219033  33.5437131  15.5908133  56.6872029  33.3479940  15.2314022
  55.8896542  33.3147483  16.5177489  65.4364163  43.8334712   9.0618326
  64.6593606  43.4945871   8.6173488  66.1155644  43.8387335   8.3873291
  60.2516192  38.9529449   8.9524934  59.9466328  39.2675598   9.8035077
  61.2046634  39.0310869   8.9952267  58.6962624  45.1119673  10.6017888
  58.1683986  44.3772432  10.2891125  58.1950127  45.8894349  10.3557856
  63.6755470  43.3068693  15.7184934  63.0179145  43.9967954  15.8065063
  64.4795869  43.6965125  16.0618921  53.4281352  35.7739339  12.9624499
  54.0025104  35.5514520  12.2297692  54.0152334  35.8428033  13.7153101
  62.4860929  41.6613066  13.7688876  62.9992811  42.2943058  14.2710586
  63.1362153  41.0614261  13.4032236  53.7550939  37.8043800   6.9820385
  52.9188251  38.1418486   7.3029659  53.6155709  37.6692780   6.0447522
  55.7304019  32.6480588  11.6899569  55.0768432  32.3329605  11.0656184
  55.6884494  32.0256328  12.4159392  56.8415224  42.9299883   3.6052861
  55.9342286  42.6989136   3.8044010  57.3386256  42.1337502   3.7926842
  59.7483303  51.6397390   6.5249547  59.0745002  51.9429087   7.1334505
  60.1349125  52.4426470   6.1755004  58.9641760  39.1362521  16.0147216
  58.0464321  39.3577468  15.8568905  59.3801903  39.2108832  15.1558924
  59.7476808  40.5353937  11.1449897  60.4948627  41.0475334  10.8357019
  60.0168397  40.2137990  12.0054290  58.0203458  43.0312478   8.1276851
  57.1114677  42.7471511   8.2249321  58.0498542  43.4511556   7.2680158
  63.2522725  46.6419067  11.8968019  62.7985052  45.8009977  11.9533209
  62.6216692  47.2780466  12.2342799  62.1955645  37.5711053  13.1268686
  61.4578402  37.0588439  13.4578929  62.4482418  37.1311435  12.3151963
  61.6955664  48.4795564  12.8317837  61.9878639  49.0400621  12.1130202
  62.2054285  48.7724125  13.5870996  62.2967272  30.3487305  13.7210455
  62.6026149  29.4884669  13.4336370  63.0219877  30.9404925  13.5209449
  48.5891628  40.7517992  12.1092053  48.3916028  40.1587353  11.3843120
  48.0338292  40.4470202  12.8267992  56.5688352  40.6441098  14.2286646
  56.6236962  39.6914935  14.1529123  55.7579554  40.8000537  14.7127945
  57.7179546  44.5721221   5.4664930  57.2798975  43.8557080   5.0070567
  58.4589986  44.7997336   4.9050021  54.5080712  39.2618158  11.9877025
  53.6948577  39.5612329  12.3942217  55.0039706  38.8673847  12.7051507
  56.6589290  49.2575915  13.9211290  56.6165468  49.4836761  12.9919822
  57.5751988  49.0239290  14.0697091  60.1054923  39.7259983  20.8191919
  60.4604311  39.9531456  21.6786385  60.7527055  40.0578359  20.1969174
  65.8352660  42.8478418  11.5241248  65.6970559  43.0380014  10.5962437
  65.4788879  43.6097801  11.9809299  53.9994786  36.8336514  17.6038260
  54.6394166  36.6925273  16.9061224  53.1672317  36.5471027  17.2276862
  65.8622040  44.9154945  16.5352520  66.2958547  44.8230235  17.3835574
  66.5753621  44.8912446  15.8972536  54.7755090  46.1338944  13.7173253
  55.5695689  45.6389264  13.5155828  54.0646783  45.6056807  13.3540958
  59.5949935  48.5157040  18.0685620  59.6486957  49.0847976  18.8363336
  58.7264716  48.6858925  17.7039657  51.0837854  40.2782026   9.7933005
  50.1535442  40.2166481  10.0102967  51.1795326  39.7557978   8.9969647
  51.0023403  36.8036839  12.3811247  51.2630220  37.7182172  12.2720407
  51.8240575  36.3361281  12.5307860  52.4748328  38.2174596  19.5510072
  53.1471382  38.0091958  18.9022720  51.6478115  38.0196682  19.1115304
  66.7237590  44.9578646  19.0685405  66.9173480  45.8624457  19.3144680
  66.6238208  44.4986065  19.9023990  58.3773900  34.8436537  21.5675732
  57.7301815  35.5426486  21.4740209  59.1474916  35.2772681  21.9351981
  61.7852698  45.1085389  24.6426286  61.6338205  44.8795941  23.7256369
  61.7757378  46.0655990  24.6557631  58.5538035  42.6817302  19.6272552
  59.4830095  42.8328461  19.4541519  58.1329065  42.7701322  18.7721199
  57.3526366  46.7067966  17.3971090  57.2137452  46.3386750  18.2697028
  56.5640963  47.2215605  17.2255048  57.9474518  51.8077062   8.7396626
  58.1226274  51.3365106   9.5542249  57.2607306  52.4342829   8.9677887
  58.9031582  46.0849569  14.7859928  58.5681414  46.0450339  15.6817577
  58.4035527  45.4194285  14.3130338  52.8775825  41.4917199  20.3112509
  52.7395623  40.7597438  20.9124048  53.7880749  41.4026099  20.0296696
  61.8390773  43.4305603   5.0596987  61.2219944  42.7052431   4.9630040
  61.3707262  44.1914963   4.7164061  55.5058126  41.2037158  19.7996188
  56.2157745  40.5630350  19.7582807  55.4627434  41.4550053  20.7222369
  63.4944905  48.1404511  22.7202768  63.4357451  47.4563731  22.0533351
  63.8964423  48.8823501  22.2683394  54.2187060  38.1902376  21.6191828
  53.6824417  37.7393114  22.2713424  53.6303769  38.3248285  20.8762292
  52.5135604  54.9566425  15.5136486  52.7532202  55.5884949  16.1915505
  51.6704800  54.6054465  15.8001846  53.6289319  37.6491027   4.1818291
  52.7518785  37.5279828   3.8180538  54.1047072  36.8577106   3.9297180
  63.4962312  46.1044095  20.9516747  62.6089091  45.7670017  21.0743146
  64.0660863  45.3727127  21.1885513  45.1491459  42.4368187  14.2759799
  45.8362499  42.1229917  13.6880814  44.9939588  43.3409552  14.0027050
  49.9526181  37.3258384  18.7044822  49.8684370  36.7184053  17.9695232
  49.1308888  37.8167402  18.7054319  57.0263465  50.7645548  17.9177990
  56.9533637  51.5700519  18.4297295  56.5840859  50.9637513  17.0926012
  56.8153245  50.0017318  11.4280812  56.0320767  50.5438998  11.5219036
  57.5145990  50.5191297  11.8275053  60.1249895  35.8111947  14.0715017
  60.6218595  35.0581909  13.7516088  59.3536877  35.8476264  13.5058227
  67.9779653  41.5152313  15.7133309  67.9669529  42.3977028  15.3427242
  67.1097032  41.1623863  15.5187846  59.4862149  50.6632382  20.0736149
  60.1990121  51.2979847  20.0012051  58.9952178  50.7596248  19.2576151
  61.2079676  44.5683634  11.6453441  60.2735955  44.6885097  11.4758145
  61.3856344  43.6656101  11.3813451  56.7084864  37.9529330  13.7986702
  56.3382652  37.4000371  14.4867608  57.2043956  37.3487464  13.2461702
  64.5952227  40.4100954  12.1803475  65.0612679  41.2428945  12.1063778
  65.0459728  39.9445935  12.8848733  54.5374063  48.4126825  20.8941720
  55.2383522  49.0463308  21.0471114  54.0669178  48.7541557  20.1337359
  62.6628458  46.7544775   9.1789627  62.9388302  46.6401370  10.0883501
  61.7932957  46.3562260   9.1401800  62.5668890  32.7781541  16.2194376
  61.6531970  33.0085767  16.3876583  62.9961991  32.8619985  17.0708409
  62.3375349  40.9671433  18.7194270  61.6846799  41.2147340  18.0646723
  62.7155728  40.1535571  18.3856748  59.2982522  51.0031126  12.8222441
  59.4804917  50.1852782  13.2850193  60.1215508  51.2198818  12.3847331
  59.6324688  49.9299311  10.0837489  60.1612454  49.4191765   9.4707651
  59.8952907  49.6141841  10.9483022  58.3862922  41.7091244  25.2060307
  57.7103559  41.6085373  25.8762683  59.2090555  41.5530457  25.6696305
  50.1341781  47.9463180  17.8272823  50.7195217  47.2006868  17.9600727
  49.9366619  48.2567137  18.7109486  52.9880436  50.9814428  12.8435265
  52.3190811  51.4660555  12.3599305  52.8493306  51.2283648  13.7578644
  44.7259435  40.5168780  16.5477266  44.7643535  39.9832371  17.3414384
  44.2199728  39.9903986  15.9288243  57.1285704  53.0158171  19.4417923
  57.6804012  53.1789793  20.2067009  57.4691898  53.6062609  18.7697948
  52.1050198  35.3633321  20.0439808  52.1691524  36.2248152  19.6317206
  52.0417318  34.7507323  19.3112167  51.5802470  37.4356453  23.6912842
  52.2074509  37.0533531  24.3050367  50.7230389  37.2170655  24.0568535
  61.9796579  47.8419429  25.2966578  62.5236483  48.4549387  24.8021533
  61.3983424  48.3999007  25.8133591  48.3568013  39.2432883   9.6231197
  48.6521454  38.3343561   9.5698251  47.4556049  39.2220622   9.3012199
  60.2654092  50.9640147  16.4281606  60.1405231  50.1629886  15.9192551
  60.9233183  51.4586340  15.9395575  51.8862260  37.3188879  15.6058746
  51.1648846  37.9324847  15.4666219  52.6755516  37.8546644  15.5275392
  62.3289000  48.7649167  18.0561156  61.3819336  48.6454518  17.9839482
  62.6771773  47.8771665  18.1387417  54.6888573  34.6543306  21.8799397
  55.2122975  34.9005602  22.6425707  54.4700907  35.4863340  21.4602535
  50.0855855  36.9246980   9.7470522  49.7568561  36.0444359   9.5645628
  50.4395225  36.8694649  10.6346912  59.3335433  48.5601883  14.2565508
  59.1860396  47.6318590  14.4373078  60.1588927  48.5821974  13.7722583
  53.1997678  37.2119950  10.1146000  53.5393750  37.7405871   9.3924608
  53.6469798  37.5500356  10.8904567  62.9369555  49.3830442  15.3430381
  63.8616103  49.1773303  15.2054832  62.7684859  49.1346843  16.2519722
  55.8941118  35.5957001  19.5649068  55.5537939  34.7964814  19.9669748
  55.1880125  35.8958712  18.9925901  56.5457590  32.6806313  18.0176391
  57.3683660  32.2066791  17.8955281  56.7895654  33.4596797  18.5175077
  55.1865825  35.7094572   8.3139293  55.9074187  36.0875824   7.8103010
  54.5631129  36.4283448   8.4174271  59.3296948  36.4139721   9.2497625
  59.5460562  37.2964358   8.9486453  58.8491015  36.0225934   8.5203267
  54.0696169  39.3725434  15.8268370  53.9240750  39.6865737  16.7192651
  53.5921373  39.9910334  15.2739268  55.9292552  36.3627982  15.8749259
  55.9154121  35.4669075  15.5381557  56.6464980  36.3698646  16.5087545
  57.7818683  36.7965322  17.9202387  57.5236460  37.7182393  17.9186717
  57.2503723  36.3995757  18.6102851  62.7264871  49.9016109  10.6992472
  62.9001749  49.3362532   9.9466324  63.2193763  50.7017004  10.5171962
  48.5441831  41.9130778  18.7656031  47.9995299  42.6890586  18.8976305
  49.4221181  42.2601583  18.6075152  55.3329448  35.2442362  11.1436829
  55.4545359  34.3159008  11.3427717  55.0431490  35.2581048  10.2315145
  58.2020638  32.9297273  14.2803549  58.2242335  32.9936606  13.3255529
  58.6188697  32.0901781  14.4744055  68.5804263  42.6652532  12.3182772
  69.0235409  41.9159857  11.9201895  67.7030773  42.6562668  11.9356504
  63.7140044  49.2182874   7.7989370  64.4090949  49.8389566   8.0176685
  64.0563194  48.3678225   8.0741748  49.3307853  41.0400674  21.6586188
  48.5889589  41.1883310  22.2450818  49.0100597  41.3008940  20.7952937
  65.6131467  46.6682579   9.3276701  66.1382791  47.0069852   8.6026021
  65.5253820  45.7329594   9.1439836  57.2751516  50.5816653  21.4566578
  57.5838642  50.3365799  22.3289277  58.0726998  50.7863291  20.9685448
  57.2972128  52.7354562  13.6871954  56.8577118  52.2430941  14.3804811
  58.0480245  52.1927530  13.4464029  49.7764467  48.9266103  13.6896582
  50.6022487  48.6269875  13.3095226  49.4258519  48.1573726  14.1386371
  54.7446000  48.2792571  15.7594256  54.1226009  47.6163276  15.4596484
  55.4150867  48.3053703  15.0767904  47.9773072  46.8452430  14.6485516
  47.1404980  46.4174604  14.4669517  47.9496717  47.0384873  15.5856307
  54.8170527  36.7574359  25.3526762  54.8658683  37.6336482  24.9704532
  55.3593042  36.2151752  24.7798405  65.3025373  47.3015483  24.6327899
  64.5120917  47.2839622  24.0932398  65.0658728  47.8403776  25.3876936
  65.4223248  44.1507949  21.9460628  65.4721253  43.9857957  22.8876150
  65.3137171  43.2835208  21.5558508  54.3059507  46.8296495   9.2352716
  54.4547627  47.5131959   8.5819389  55.1125950  46.8101585   9.7502172
  62.7127011  40.1338877  23.2619934  63.6136873  39.9945342  22.9703932
  62.7874985  40.2993332  24.2018112  57.0469816  37.5105732  22.1073121
  56.1773125  37.8039298  21.8355709  57.2829296  38.0946177  22.8280384
  66.9241445  46.5704891  22.1902649  66.6326253  46.9334871  23.0266110
  66.3113576  45.8571899  22.0115981  68.1237127  44.1357770  14.7105219
  68.9584019  44.5747574  14.8742780  68.2596256  43.6596424  13.8913465
  65.1728633  41.6937505  20.6582707  65.6482755  41.8865152  19.8501558
  64.2494199  41.7496691  20.4126091  52.0612140  42.8561672  10.2413785
  51.8158182  41.9524002  10.4393996  52.2308054  42.8578823   9.2993263
  59.7508850  33.7285349  19.6238541  60.2690794  34.4646376  19.2985030
  59.3963982  34.0349342  20.4585300  51.3307787  38.5890030   7.7399947
  50.6377032  38.6634385   7.0839983  51.0859539  37.8250374   8.2621464
  60.0021444  30.1485631  15.1439438  60.2823198  29.4808820  15.7699864
  60.7872051  30.3414727  14.6314101  57.8054912  49.3244625   6.7064464
  57.2328879  49.9434812   6.2534936  58.3787706  49.8743987   7.2404386
  63.8730302  38.5703265  18.8911013  64.8247725  38.6701363  18.9123237
  63.7033753  37.7781534  19.4009097  61.8944682  35.6558849  19.0770414
  61.2994614  35.9363861  18.3816902  61.6094378  36.1452749  19.8487155
  61.0252172  49.6081775   7.8373046  61.9582845  49.5427337   8.0405922
  60.9375385  50.4438042   7.3787579  63.6540189  48.9247646   4.7976994
  63.5753820  48.5907509   5.6912752  64.4749856  49.4169414   4.7968466
  66.3518380  41.7909385  18.0053312  66.3194700  40.8525386  18.1912996
  66.9619004  41.8693422  17.2719137  58.1901711  40.6605438   4.0480516
  59.1360816  40.5311646   4.1168934  57.8115956  39.9220100   4.5249945
  66.5012868  38.5820428  18.0511596  65.9851917  37.7978885  17.8641524
  67.3852817  38.2539145  18.2158115  64.1623595  32.3261444  14.0107408
  63.9648417  32.0176532  14.8950740  64.7723301  33.0523083  14.1405338
  72.1694930  42.8525392  17.1459349  72.8998318  42.5910680  17.7067052
  71.5601875  42.1154114  17.1861417  70.2510227  40.9933254  17.7433800
  69.5243391  40.8589219  17.1350292  69.8357514  41.3010083  18.5490518
  58.0740403  44.7123184  25.5081173  58.9943413  44.8901783  25.7021220
  58.0389986  43.7679229  25.3560873  56.3744628  38.5855414   3.9835402
  55.4676083  38.2888527   4.0598115  56.6520609  38.2885232   3.1169688
  47.2922568  39.9061778  14.4334448  46.9725353  39.0527086  14.1408822
  46.7455997  40.1210356  15.1892415  51.0702476  42.6224219  18.1503955
  51.2888486  43.5541327  18.1691988  51.4828250  42.2632193  18.9358758
  57.9906694  33.1292304  10.1379643  57.1807422  32.7839389  10.5134889
  58.6791111  32.8199848  10.7267254  59.9197242  32.2070351  11.7603940
  60.4728281  32.6265804  12.4193963  60.1567328  31.2806099  11.8026896
  55.9430341  38.1957425  27.5406703  55.8427068  39.1451781  27.4718795
  55.7251883  37.8675663  26.6682774  55.1443413  35.4442350   4.1247381
  56.0062577  35.7697248   4.3843198  55.3293757  34.6573845   3.6120447
  47.1610828  43.5264689  16.4027570  46.4674300  43.1118642  15.8897524
  47.9083819  43.5685226  15.8060988  63.2976049  34.3170876  11.2682604
  62.7174718  34.9755680  10.8860656  63.0311982  33.4948221  10.8570021
  61.7479615  33.7175934  13.4703924  62.2479394  33.8292468  12.6618243
  62.3915223  33.4136987  14.1104733  55.8061611  41.6254563  26.3571765
  55.3228693  42.4254923  26.5635654  55.8922550  41.6362508  25.4039209
  49.0747571  43.4582943  14.2793584  49.0518259  43.5570630  13.3275468
  49.3848207  44.3048094  14.6010751  51.7334949  45.5159098  18.3940199
  52.6878202  45.4843040  18.3270130  51.5347472  45.0549722  19.2090425
  52.3234331  44.0860214  20.9610997  53.1427220  44.5804293  20.9845834
  52.5971139  43.1692182  20.9328564  62.0800927  36.4770966  10.3238952
  61.1926782  36.7620617  10.1059147  62.4954916  36.3164730   9.4766229
  65.4315463  36.5017487  14.0393291  66.2075853  36.9913940  14.3117908
  64.7063597  36.9275542  14.4965161  67.8688022  37.2145107  15.0967232
  68.4632513  36.9740843  14.3860540  67.9414606  36.4952237  15.7240768
  50.0885178  51.0578718  15.4110397  49.9539646  50.2979118  14.8448395
  49.6717240  51.7819617  14.9439186  61.2244141  46.2415641   4.4186972
  61.9279991  46.4465644   5.0344628  60.5006789  46.8092403   4.6836056
  62.0541951  41.9925502  10.5389242  61.9977152  42.4494054   9.6996875
  62.6070293  41.2316187  10.3612085  65.8646757  37.7815234  11.3639362
  65.6083691  37.3811870  12.1947569  65.2399625  38.4959028  11.2389501
  70.1759095  40.5211307  13.8710653  69.6158653  40.5904497  14.6442215
  69.5702598  40.3452292  13.1510149  53.2454303  51.9548035  15.6228839
  53.1286688  52.8993467  15.5207530  52.4246750  51.6521596  16.0114639
  63.1330838  46.6798170   6.4685432  63.9676442  46.2479369   6.2862907
  62.9715181  46.5080184   7.3962327  62.7876730  43.1830284   7.8341771
  62.7325534  43.0174555   6.8930216  62.1622785  43.8906316   7.9903961
  47.5769245  38.4198348  21.6603194  48.2228109  37.9097302  22.1490419
  47.3686396  39.1567030  22.2346619  60.1022637  45.4879195  27.1595334
  60.9713797  45.6619848  26.7981969  59.6229389  46.3073612  27.0371064
  56.0972856  32.6838393   7.4127090  56.0851525  33.6280233   7.5695361
  56.9896278  32.5008538   7.1186551  54.2708818  52.6076296  18.8384768
  55.1736064  52.6399907  19.1551263  54.0446188  51.6776747  18.8531104
  56.0262420  51.3607283  15.4994846  55.0758051  51.3609145  15.3859219
  56.3294906  50.6140018  14.9830881  59.9124975  29.2781169  11.6673027
  59.1457371  28.7239656  11.8129709  60.3235680  29.3503038  12.5287178
  51.9166736  35.5665965  25.7578208  52.7798198  35.2102770  25.9681532
  51.3432147  35.2279860  26.4453612  71.7615113  57.1967821  16.5640609
  72.3993523  57.0774569  15.8603949  71.6435956  58.1448665  16.6228561
  68.5704819  57.1495249  16.5002134  68.2323331  57.0336314  15.6122668
  69.4394588  56.7486415  16.4803140  64.4291635  59.0030726  12.4899024
  63.8656500  58.9120663  11.7215312  64.3144030  58.1830630  12.9701517
  69.0524602  58.3030101  22.4588339  69.0413243  57.9082899  21.5868843
  69.2145242  57.5696174  23.0522111  61.9756067  60.4981918  15.3283245
  62.7677359  60.1572742  14.9129544  62.2152717  60.6076893  16.2485398
  65.7731864  61.0867213  21.4067523  65.4821729  61.9912844  21.2914189
  66.4088848  61.1283741  22.1211593  66.6988070  58.4644062  17.9968883
  67.2951643  58.2400084  17.2825846  66.7563042  57.7228807  18.5994331
  71.3156382  54.9219275  13.6393817  72.1019471  54.5038698  13.2884234
  71.5795086  55.8265367  13.8075465  76.7164809  54.8594508  14.5426795
  77.4489981  54.2893725  14.7764625  75.9604164  54.4716109  14.9833301
  68.3340928  57.2821750  11.7390138  67.9699136  56.7552371  12.4503059
  69.1908044  56.8920219  11.5656623  74.2390229  48.5716083  19.0021404
  73.9073554  49.4411494  18.7782619  73.6435842  48.2552367  19.6815434
  70.7321749  60.7728629  18.4017317  70.4322472  61.6753667  18.2933124
  70.3872808  60.5060812  19.2538470  74.1318892  53.2911169  16.0814754
  73.2235770  53.2226577  15.7873515  74.0806488  53.7683114  16.9096580
  61.5443041  56.8675699  15.2697810  61.6735422  57.1210178  16.1837222
  60.8640492  57.4603407  14.9502465  68.2059758  54.7100814  24.0249651
  67.4293092  55.2694734  24.0152516  68.8450321  55.1957597  24.5464521
  75.9980539  51.4927607  17.8592628  75.3554919  51.7860140  17.2132423
  75.4935467  51.3780527  18.6645825  66.4606130  57.5186268  23.5867618
  67.2020815  58.0571312  23.3102442  65.7543116  58.1452556  23.7439170
  71.9361470  59.6615408  22.1839780  72.3444826  59.2197819  21.4394412
  71.2138732  59.0868036  22.4373973  68.2892540  54.5988015  19.5573337
  69.1353735  55.0227428  19.7007986  68.2291178  53.9421639  20.2511900
  72.2590285  60.2216599  15.9392069  71.6299147  60.3862313  15.2368137
  71.8715947  60.6358208  16.7103033  71.4391985  52.2592383  21.2154510
  71.1952917  53.0134444  20.6788786  71.7151916  52.6377731  22.0501757
  73.3930448  58.8030996  19.8931776  73.6047344  59.4462756  19.2166157
  73.3460197  57.9693312  19.4253706  70.9956677  51.4148816  16.7968348
  70.1341156  51.7130070  17.0885086  71.0219112  51.6319215  15.8649381
  67.8118247  59.9591007  13.2042154  68.2756592  60.2378710  12.4146776
  67.5475045  59.0574451  13.0215244  64.7042328  59.5062488  16.1421917
  65.2743685  59.9349757  15.5039402  65.2950440  59.2245073  16.8406103
  66.7487133  56.0814159  10.0131719  67.4511176  56.5335203  10.4805645
  66.4167761  55.4397978  10.6411612  65.1967494  54.6725916  24.3882928
  64.5666155  55.3542197  24.6218325  65.0903582  54.5608997  23.4436067
  60.4912467  54.3397712  15.3148853  59.7011521  54.5955240  14.8388963
  60.9823714  55.1546050  15.4200893  74.5076276  61.6802951  18.0654133
  75.3293720  61.2783138  17.7836815  74.5038679  61.5771185  19.0170249
  62.4427212  54.7042291  12.2732329  61.6458375  54.8160985  12.7915825
  62.2152804  55.0428943  11.4073220  68.2732880  61.2286994  20.2214844
  68.3377312  61.6907402  21.0573016  67.5643804  60.5984359  20.3497154
  58.7750170  54.5928202  17.7463843  59.0258208  55.4775212  18.0121419
  59.3109718  54.4132804  16.9738935  64.4748237  48.9746682  26.7508179
  64.0815183  48.4212880  27.4255824  65.2914377  49.2857260  27.1414697
  61.4410295  60.4130540  10.6621749  61.9534815  61.2073790  10.8127314
  62.0933008  59.7156830  10.5955351  67.3916198  50.3904561  24.3428436
  68.1325911  50.9911714  24.2632898  67.6234121  49.6482199  23.7846479
  62.5357536  55.5760928  22.6206666  62.4211051  54.6746185  22.9213765
  61.6802054  55.8224625  22.2691482  69.6149374  63.5178668  24.2194166
  69.1713228  62.7315047  23.9015071  70.2766587  63.7057819  23.5538057
  64.3736495  65.0474470  18.7454845  64.9243920  64.9191533  17.9731839
  63.5347971  65.3469359  18.3949738  71.7130612  63.7981468  22.2475568
  71.6949087  64.6190349  21.7555837  72.6350532  63.6735543  22.4725709
  68.1703666  61.3125598  23.0899076  68.7032003  60.5513886  22.8598384
  67.6417747  61.0199250  23.8323230  71.3373361  46.4185664  18.6192718
  70.9937630  47.3087305  18.5431828  71.7052323  46.2287321  17.7562303
  59.4059211  58.7419194  11.4381320  60.2434433  59.1516203  11.2215027
  59.5837479  57.8018636  11.4081514  68.8870755  51.2543976  12.1850391
  68.0312351  50.8650826  12.0056030  69.2997706  51.3335936  11.3250177
  70.4169901  48.7890319  16.5841951  69.9134697  48.7520454  15.7709756
  70.7100508  49.6983062  16.6438608  66.6612787  48.8729049  15.5908133
  67.5265784  48.6771857  15.2314022  66.7290296  48.6439400  16.5177489
  74.5149225  58.6360611  15.7184934  73.8572899  59.3259872  15.8065063
  75.3189624  59.0257043  16.0618921  64.2675106  51.1031257  12.9624499
  64.8418858  50.8806438  12.2297692  64.8546089  51.1719951  13.7153101
  73.3254683  56.9904983  13.7688876  73.8386565  57.6234975  14.2710586
  73.9755907  56.3906179  13.4032236  66.5697774  47.9772505  11.6899569
  65.9162186  47.6621523  11.0656184  66.5278248  47.3548246  12.4159392
  69.8035514  54.4654439  16.0147216  68.8858076  54.6869386  15.8568905
  70.2195658  54.5400749  15.1558924  73.0349399  52.9002971  13.1268686
  72.2972156  52.3880357  13.4578929  73.2876173  52.4603353  12.3151963
  73.1361027  45.6779223  13.7210455  73.4419903  44.8176586  13.4336370
  73.8613631  46.2696843  13.5209449  59.4285383  56.0809909  12.1092053
  59.2309782  55.4879270  11.3843120  58.8732047  55.7762120  12.8267992
  67.4082106  55.9733016  14.2286646  67.4630716  55.0206852  14.1529123
  66.5973308  56.1292455  14.7127945  65.3474466  54.5910076  11.9877025
  64.5342332  54.8904246  12.3942217  65.8433460  54.1965764  12.7051507
  70.9448678  55.0551900  20.8191919  71.2998066  55.2823373  21.6786385
  71.5920809  55.3870277  20.1969174  64.8388541  52.1628431  17.6038260
  65.4787920  52.0217190  16.9061224  64.0066072  51.8762945  17.2276862
  65.6148845  61.4630862  13.7173253  66.4089443  60.9681182  13.5155828
  64.9040537  60.9348725  13.3540958  70.4343689  63.8448957  18.0685620
  70.4880712  64.4139894  18.8363336  69.5658471  64.0150842  17.7039657
  61.9231608  55.6073943   9.7933005  60.9929196  55.5458399  10.0102967
  62.0189080  55.0849896   8.9969647  61.8417157  52.1328756  12.3811247
  62.1023975  53.0474089  12.2720407  62.6634330  51.6653199  12.5307860
  63.3142083  53.5466513  19.5510072  63.9865136  53.3383876  18.9022720
  62.4871869  53.3488599  19.1115304  77.5631344  60.2870564  19.0685405
  77.7567234  61.1916374  19.3144680  77.4631962  59.8277983  19.9023990
  69.2167655  50.1728454  21.5675732  68.5695570  50.8718404  21.4740209
  69.9868670  50.6064598  21.9351981  72.6246453  60.4377306  24.6426286
  72.4731959  60.2087858  23.7256369  72.6151132  61.3947908  24.6557631
  69.3931789  58.0109219  19.6272552  70.3223849  58.1620379  19.4541519
  68.9722819  58.0993240  18.7721199  68.1920121  62.0359884  17.3971090
  68.0531207  61.6678668  18.2697028  67.4034717  62.5507523  17.2255048
  69.7425336  61.4141486  14.7859928  69.4075169  61.3742256  15.6817577
  69.2429282  60.7486202  14.3130338  63.7169580  56.8209116  20.3112509
  63.5789378  56.0889355  20.9124048  64.6274503  56.7318016  20.0296696
  66.3451881  56.5329076  19.7996188  67.0551499  55.8922268  19.7582807
  66.3021189  56.7841971  20.7222369  74.3338659  63.4696429  22.7202768
  74.2751205  62.7855649  22.0533351  74.7358178  64.2115419  22.2683394
  65.0580815  53.5194294  21.6191828  64.5218172  53.0685032  22.2713424
  64.4697523  53.6540202  20.8762292  74.3356067  61.4336013  20.9516747
  73.4482845  61.0961935  21.0743146  74.9054618  60.7019044  21.1885513
  55.9885214  57.7660105  14.2759799  56.6756254  57.4521835  13.6880814
  55.8333342  58.6701469  14.0027050  60.7919936  52.6550301  18.7044822
  60.7078125  52.0475971  17.9695232  59.9702642  53.1459320  18.7054319
  67.8657220  66.0937465  17.9177990  67.7927391  66.8992437  18.4297295
  67.4234613  66.2929431  17.0926012  70.9643650  51.1403865  14.0715017
  71.4612349  50.3873827  13.7516088  70.1930631  51.1768181  13.5058227
  78.8173407  56.8444230  15.7133309  78.8063283  57.7268946  15.3427242
  77.9490787  56.4915781  15.5187846  70.3255904  65.9924299  20.0736149
  71.0383876  66.6271764  20.0012051  69.8345932  66.0888165  19.2576151
  67.5478618  53.2821248  13.7986702  67.1776406  52.7292288  14.4867608
  68.0437711  52.6779381  13.2461702  65.3767817  63.7418743  20.8941720
  66.0777277  64.3755226  21.0471114  64.9062932  64.0833474  20.1337359
  73.4062645  48.1073458  16.2194376  72.4925724  48.3377685  16.3876583
  73.8355746  48.1911902  17.0708409  73.1769103  56.2963350  18.7194270
  72.5240553  56.5439258  18.0646723  73.5549483  55.4827488  18.3856748
  69.2256676  57.0383161  25.2060307  68.5497313  56.9377291  25.8762683
  70.0484310  56.8822375  25.6696305  60.9735535  63.2755098  17.8272823
  61.5588972  62.5298786  17.9600727  60.7760374  63.5859055  18.7109486
  55.5653190  55.8460698  16.5477266  55.6037289  55.3124289  17.3414384
  55.0593483  55.3195904  15.9288243  67.9679459  68.3450089  19.4417923
  68.5197767  68.5081710  20.2067009  68.3085652  68.9354527  18.7697948
  62.9443952  50.6925239  20.0439808  63.0085279  51.5540069  19.6317206
  62.8811072  50.0799240  19.3112167  62.4196225  52.7648371  23.6912842
  63.0468263  52.3825448  24.3050367  61.5624144  52.5462573  24.0568535
  72.8190333  63.1711346  25.2966578  73.3630237  63.7841305  24.8021533
  72.2377178  63.7290925  25.8133591  59.1961767  54.5724800   9.6231197
  59.4915208  53.6635479   9.5698251  58.2949803  54.5512540   9.3012199
  62.7256014  52.6480797  15.6058746  62.0042600  53.2616765  15.4666219
  63.5149270  53.1838562  15.5275392  73.1682755  64.0941084  18.0561156
  72.2213090  63.9746436  17.9839482  73.5165528  63.2063582  18.1387417
  65.5282328  49.9835223  21.8799397  66.0516730  50.2297520  22.6425707
  65.3094661  50.8155258  21.4602535  60.9249609  52.2538898   9.7470522
  60.5962315  51.3736277   9.5645628  61.2788980  52.1986567  10.6346912
  64.0391432  52.5411868  10.1146000  64.3787505  53.0697789   9.3924608
  64.4863553  52.8792274  10.8904567  66.7334873  50.9248918  19.5649068
  66.3931693  50.1256731  19.9669748  66.0273879  51.2250629  18.9925901
  67.3851345  48.0098231  18.0176391  68.2077414  47.5358709  17.8955281
  67.6289408  48.7888715  18.5175077  66.0259579  51.0386489   8.3139293
  66.7467942  51.4167742   7.8103010  65.4024883  51.7575366   8.4174271
  70.1690702  51.7431638   9.2497625  70.3854317  52.6256276   8.9486453
  69.6884769  51.3517852   8.5203267  64.9089924  54.7017351  15.8268370
  64.7634504  55.0157655  16.7192651  64.4315127  55.3202252  15.2739268
  66.7686306  51.6919899  15.8749259  66.7547875  50.7960993  15.5381557
  67.4858735  51.6990563  16.5087545  68.6212437  52.1257240  17.9202387
  68.3630215  53.0474310  17.9186717  68.0897478  51.7287674  18.6102851
  59.3835586  57.2422696  18.7656031  58.8389054  58.0182504  18.8976305
  60.2614936  57.5893500  18.6075152  66.1723202  50.5734280  11.1436829
  66.2939114  49.6450926  11.3427717  65.8825245  50.5872966  10.2315145
  69.0414393  48.2589190  14.2803549  69.0636090  48.3228523  13.3255529
  69.4582452  47.4193699  14.4744055  60.1701608  56.3692592  21.6586188
  59.4283344  56.5175227  22.2450818  59.8494352  56.6300858  20.7952937
  68.1145270  65.9108570  21.4566578  68.4232397  65.6657717  22.3289277
  68.9120752  66.1155209  20.9685448  60.6158221  64.2558021  13.6896582
  61.4416241  63.9561793  13.3095226  60.2652273  63.4865643  14.1386371
  65.5839754  63.6084489  15.7594256  64.9619764  62.9455194  15.4596484
  66.2544621  63.6345621  15.0767904  58.8166826  62.1744347  14.6485516
  57.9798735  61.7466522  14.4669517  58.7890472  62.3676791  15.5856307
  65.6564282  52.0866277  25.3526762  65.7052437  52.9628400  24.9704532
  66.1986796  51.5443670  24.7798405  76.1419128  62.6307400  24.6327899
  75.3514671  62.6131539  24.0932398  75.9052482  63.1695694  25.3876936
  76.2617003  59.4799867  21.9460628  76.3115008  59.3149874  22.8876150
  76.1530926  58.6127126  21.5558508  73.5520765  55.4630795  23.2619934
  74.4530628  55.3237260  22.9703932  73.6268740  55.6285250  24.2018112
  67.8863570  52.8397650  22.1073121  67.0166880  53.1331216  21.8355709
  68.1223051  53.4238095  22.8280384  77.7635199  61.8996808  22.1902649
  77.4720008  62.2626789  23.0266110  77.1507331  61.1863817  22.0115981
  76.0122388  57.0229423  20.6582707  76.4876509  57.2157069  19.8501558
  75.0887953  57.0788609  20.4126091  62.9005894  58.1853590  10.2413785
  62.6551936  57.2815920  10.4393996  63.0701809  58.1870741   9.2993263
  70.5902604  49.0577266  19.6238541  71.1084548  49.7938293  19.2985030
  70.2357737  49.3641260  20.4585300  62.1701542  53.9181948   7.7399947
  61.4770787  53.9926303   7.0839983  61.9253294  53.1542291   8.2621464
  70.8415198  45.4777549  15.1439438  71.1216952  44.8100738  15.7699864
  71.6265805  45.6706645  14.6314101  74.7124057  53.8995183  18.8911013
  75.6641480  53.9993281  18.9123237  74.5427507  53.1073452  19.4009097
  72.7338436  50.9850766  19.0770414  72.1388368  51.2655779  18.3816902
  72.4488133  51.4744667  19.8487155  77.1912134  57.1201303  18.0053312
  77.1588455  56.1817303  18.1912996  77.8012758  57.1985339  17.2719137
  77.3406623  53.9112346  18.0511596  76.8245672  53.1270803  17.8641524
  78.2246572  53.5831063  18.2158115  75.0017350  47.6553362  14.0107408
  74.8042171  47.3468450  14.8950740  75.6117055  48.3815001  14.1405338
  81.0903981  56.3225172  17.7433800  80.3637145  56.1881137  17.1350292
  80.6751268  56.6302001  18.5490518  68.9134158  60.0415102  25.5081173
  69.8337167  60.2193701  25.7021220  68.8783741  59.0971147  25.3560873
  58.1316323  55.2353695  14.4334448  57.8119107  54.3819004  14.1408822
  57.5849751  55.4502274  15.1892415  61.9096230  57.9516136  18.1503955
  62.1282240  58.8833244  18.1691988  62.3222004  57.5924111  18.9358758
  68.8300448  48.4584222  10.1379643  68.0201177  48.1131307  10.5134889
  69.5184865  48.1491765  10.7267254  70.7590997  47.5362269  11.7603940
  71.3122035  47.9557722  12.4193963  70.9961083  46.6098017  11.8026896
  66.7824096  53.5249342  27.5406703  66.6820823  54.4743699  27.4718795
  66.5645638  53.1967581  26.6682774  58.0004583  58.8556607  16.4027570
  57.3068054  58.4410560  15.8897524  58.7477574  58.8977143  15.8060988
  74.1369804  49.6462794  11.2682604  73.5568473  50.3047598  10.8860656
  73.8705736  48.8240138  10.8570021  72.5873370  49.0467851  13.4703924
  73.0873148  49.1584386  12.6618243  73.2308978  48.7428904  14.1104733
  66.6455366  56.9546481  26.3571765  66.1622448  57.7546841  26.5635654
  66.7316305  56.9654426  25.4039209  59.9141325  58.7874861  14.2793584
  59.8912014  58.8862548  13.3275468  60.2241962  59.6340011  14.6010751
  62.5728703  60.8451016  18.3940199  63.5271957  60.8134958  18.3270130
  62.3741227  60.3841639  19.2090425  63.1628085  59.4152132  20.9610997
  63.9820974  59.9096210  20.9845834  63.4364893  58.4984100  20.9328564
  72.9194682  51.8062884  10.3238952  72.0320537  52.0912535  10.1059147
  73.3348671  51.6456647   9.4766229  76.2709218  51.8309405  14.0393291
  77.0469608  52.3205858  14.3117908  75.5457352  52.2567459  14.4965161
  78.7081776  52.5437024  15.0967232  79.3026267  52.3032760  14.3860540
  78.7808360  51.8244155  15.7240768  60.9278932  66.3870635  15.4110397
  60.7933400  65.6271036  14.8448395  60.5110994  67.1111535  14.9439186
  64.0848058  67.2839952  15.6228839  63.9680442  68.2285385  15.5207530
  63.2640504  66.9813514  16.0114639  58.4163000  53.7490266  21.6603194
  59.0621863  53.2389220  22.1490419  58.2080151  54.4858947  22.2346619
  70.9416392  60.8171113  27.1595334  71.8107551  60.9911765  26.7981969
  70.4623143  61.6365530  27.0371064  66.9366610  48.0130310   7.4127090
  66.9245280  48.9572150   7.5695361  67.8290032  47.8300456   7.1186551
  65.1102572  67.9368214  18.8384768  66.0129819  67.9691824  19.1551263
  64.8839942  67.0068665  18.8531104  70.7518730  44.6073087  11.6673027
  69.9851125  44.0531574  11.8129709  71.1629435  44.6794956  12.5287178
  62.7560491  50.8957883  25.7578208  63.6191952  50.5394688  25.9681532
  62.1825901  50.5571778  26.4453612  79.0453513  70.0392732  24.0249651
  78.2686847  70.5986652  24.0152516  79.6844076  70.5249515  24.5464521
  76.0361249  70.0017834  24.3882928  75.4059909  70.6834114  24.6218325
  75.9297337  69.8900915  23.4436067  75.3141991  64.3038599  26.7508179
  74.9208937  63.7504798  27.4255824  76.1308132  64.6149178  27.1414697
  78.2309952  65.7196478  24.3428436  78.9719666  66.3203632  24.2632898
  78.4627875  64.9774116  23.7846479  73.3751290  70.9052846  22.6206666
  73.2604806  70.0038103  22.9213765  72.5195808  71.1516542  22.2691482
  80.0561409  65.5020372  21.5675732  79.4089324  66.2010322  21.4740209
  80.8262425  65.9356516  21.9351981  75.8974569  68.8486211  21.6191828
  75.3611926  68.3976950  22.2713424  75.3091278  68.9832120  20.8762292
  71.6313690  67.9842219  18.7044822  71.5471879  67.3767889  17.9695232
  70.8096397  68.4751237  18.7054319  80.0650431  72.3675079  25.2060307
  79.3891068  72.2669208  25.8762683  80.8878064  72.2114293  25.6696305
  73.7837707  66.0217156  20.0439808  73.8479033  66.8831987  19.6317206
  73.7204827  65.4091158  19.3112167  73.2589979  68.0940289  23.6912842
  73.8862018  67.7117366  24.3050367  72.4017898  67.8754491  24.0568535
  76.3676082  65.3127141  21.8799397  76.8910484  65.5589438  22.6425707
  76.1488416  66.1447176  21.4602535  71.0095362  71.6984510  21.6586188
  70.2677098  71.8467145  22.2450818  70.6888106  71.9592775  20.7952937
  76.4958036  67.4158195  25.3526762  76.5446192  68.2920318  24.9704532
  77.0380551  66.8735588  24.7798405  78.7257325  68.1689567  22.1073121
  77.8560634  68.4623133  21.8355709  78.9616805  68.7530012  22.8280384
  77.6217850  68.8541260  27.5406703  77.5214577  69.8035617  27.4718795
  77.4039392  68.5259499  26.6682774  77.4849120  72.2838399  26.3571765
  77.0016202  73.0838759  26.5635654  77.5710059  72.2946344  25.4039209
  69.2556754  69.0782183  21.6603194  69.9015618  68.5681137  22.1490419
  69.0473905  69.8150865  22.2346619  73.5954245  66.2249800  25.7578208
  74.4585707  65.8686605  25.9681532  73.0219656  65.8863695  26.4453612
  47.9361866   9.8656956  10.9439473  47.4925720   9.0793334  10.6260377
  48.5979080  10.0536106  10.2783364  50.0343104  10.1459756   8.9720874
  50.0161579  10.9668637   8.4801143  50.9563024  10.0213831   9.1971015
  46.4916158   7.6603885   9.8144383  47.0244495   6.8992173   9.5843690
  45.9630239   7.3677537  10.5568537  50.9458945   6.7855594  11.3671592
  50.7944451   6.5566145  10.4501676  50.9363624   7.7426195  11.3802937
  52.6551152   9.8174716   9.4448074  52.5963698   9.1333936   8.7778657
  53.0570670  10.5593706   8.9928700  52.6568559   7.7814300   7.6762054
  51.7695338   7.4440222   7.7988453  53.2267110   7.0497331   7.9130819
  48.6468396  12.3402587   6.7981456  49.3596368  12.9750051   6.7257357
  48.1558424  12.4366453   5.9821458  47.5469168   3.3861449  11.9305614
  46.8709805   3.2855578  12.6007989  48.3696802   3.2300662  12.3941611
  46.2891951  14.6928376   6.1663230  46.8410259  14.8559998   6.9312315
  46.6298145  15.2832814   5.4943255  51.1402826   9.5189634  12.0211884
  51.6842729  10.1319592  11.5266839  50.5589670  10.0769212  12.5378897
  46.4357763  12.2586858   8.1811884  46.7444889  12.0136004   9.0534584
  47.2333245  12.4633496   7.6930755  54.4631620   8.9785688  11.3573206
  53.6727164   8.9609826  10.8177705  54.2264974   9.5173981  12.1122242
  54.5829495   5.8278154   8.6705934  54.6327500   5.6628161   9.6121457
  54.4743418   4.9605413   8.2803815  56.0847692   8.2475095   8.9147956
  55.7932500   8.6105076   9.7511417  55.4719823   7.5342104   8.7361288
  47.2346650   6.3893389  12.2326480  48.1549660   6.5671988  12.4266527
  47.1996233   5.4449434  12.0806179  44.9667858   3.3024768  13.0817072
  44.4834940   4.1025128  13.2880961  45.0528797   3.3132713  12.1284516
  49.2628884   7.1649400  13.8840641  50.1320044   7.3390053  13.5227276
  48.7835636   7.9843817  13.7616370  57.7311066  18.8265454   3.2247440
  57.3929578  18.7106519   2.3367975  58.6000834  18.4256619   3.2048446
  58.2130849  19.9800306   9.1833646  58.2019490  19.5853104   8.3114149
  58.3751489  19.2466379   9.7767417  51.1362314  22.1752122   2.0528552
  51.9283606  21.8342947   1.6374851  51.3758964  22.2847097   2.9730705
  54.9338110  22.7637418   8.1312830  54.6427976  23.6683049   8.0159496
  55.5695095  22.8053946   8.8456899  55.8594317  20.1414266   4.7214189
  56.4557889  19.9170289   4.0071152  55.9169289  19.3999012   5.3239637
  59.8927995  22.4498833   5.1262623  59.5928718  23.3523872   5.0178431
  59.5479055  22.1831017   5.9783776  53.3440477  18.9012630   1.1599328
  52.4190973  18.7688844   1.3677020  53.5924890  19.6806850   1.6569270
  50.7049288  18.5445904   1.9943117  50.8341669  18.7980383   2.9082529
  50.0246739  19.1373612   1.6747772  54.8748775  29.2143154  -1.9066409
  54.7972805  30.1650979  -1.8277928  54.2710419  28.8689026  -1.2491483
  57.3666005  16.3871019  10.7494958  56.5899339  16.9464939  10.7397823
  58.0056568  16.8727802  11.2709828  55.6212377  19.1956473  10.3112925
  56.3627062  19.7341517  10.0347749  54.9149363  19.8222761  10.4684477
  61.0967717  21.3385613   8.9085086  61.5051073  20.8968024   8.1639719
  60.3744978  20.7638241   9.1619279  57.4498787  16.2758220   6.2818643
  58.2959982  16.6997633   6.4253292  57.3897425  15.6191844   6.9757207
  61.4196532  21.8986804   2.6637375  60.7905394  22.0632518   1.9613443
  61.0322194  22.3128413   3.4348339  60.5998232  13.9362588   7.9399817
  60.3559164  14.6904649   7.4034093  60.8758163  14.3147936   8.7747064
  62.5536695  20.4801201   6.6177083  62.7653590  21.1232960   5.9411464
  62.5066443  19.6463517   6.1499013  56.9724493  21.6361212  -0.0712540
  57.4362839  21.9148915  -0.8607917  56.7081292  20.7344656  -0.2539449
  53.8648574  21.1832693   2.8667224  54.4349932  21.6119962   2.2284708
  54.4556686  20.9015278   3.5651409  54.3573741  16.3496121  11.1128235
  53.7272402  17.0312402  11.3463632  54.2509829  16.2379202  10.1681373
  63.6682523  23.3573156   4.7899440  64.4899967  22.9553343   4.5082122
  63.6644926  23.2541390   5.7415556  57.4339126  22.9057199   6.9460150
  57.4983559  23.3677607   7.7818322  56.7250050  22.2754564   7.0742460
  47.9356416  16.2698407   4.4709150  48.1864455  17.1545417   4.7366726
  48.4715965  16.0903009   3.6984242  53.6354484  10.6516887  13.4753486
  53.2421429  10.0983085  14.1501130  54.4520624  10.9627465  13.8660004
  52.4111426  25.2066501  -0.5310191  52.5878055  26.1284466  -0.7189207
  53.2068260  24.8924920  -0.1015811  56.5522445  12.0674766  11.0673743
  57.2932158  12.6681919  10.9878205  56.7840368  11.3252403  10.5091785
  51.6963783  17.2531133   9.3451972  51.5817298  16.3516390   9.6459071
  50.8408300  17.4994830   8.9936789  58.7755620  25.1948873  10.9439473
  58.3319475  24.4085252  10.6260377  59.4372834  25.3828024  10.2783364
  53.5342742  26.7244675   5.4700151  54.0850167  26.5961738   4.6977145
  52.6954218  27.0239564   5.1195044  60.8736859  25.4751673   8.9720874
  60.8555334  26.2960554   8.4801143  61.7956779  25.3505748   9.1971015
  57.3309913  22.9895803   9.8144383  57.8638249  22.2284091   9.5843690
  56.8023994  22.6969454  10.5568537  56.5688353  17.6503221   0.9531953
  56.6236963  16.6977057   0.8774430  55.7579555  17.8062660   1.4373251
  56.6589291  26.2638038   0.6456597  56.6165470  26.4898884  -0.2834871
  57.5751990  26.0301412   0.7942398  60.1054925  16.7322105   7.5437226
  60.4604312  16.9593578   8.4031692  60.7527056  17.0640482   6.9214481
  53.9994788  13.8398636   4.3283567  54.6394167  13.6987395   3.6306530
  53.1672318  13.5533150   3.9522169  54.7755092  23.1401067   0.4418559
  55.5695690  22.6451387   0.2401134  54.0646784  22.6118930   0.0786265
  59.5949936  25.5219162   4.7930927  59.6486958  26.0910098   5.5608643
  58.7264717  25.6921047   4.4284964  52.4748329  15.2236718   6.2755378
  53.1471383  15.0154080   5.6268027  51.6478116  15.0258804   5.8360610
  58.3773901  11.8498659   8.2921039  57.7301817  12.5488609   8.1985515
  59.1474917  12.2834803   8.6597287  61.7852699  22.1147511  11.3671592
  61.6338206  21.8858063  10.4501676  61.7757379  23.0718113  11.3802937
  58.5538036  19.6879424   6.3517859  59.4830096  19.8390584   6.1786826
  58.1329066  19.7763445   5.4966505  57.3526368  23.7130089   4.1216396
  57.2137453  23.3448873   4.9942334  56.5640964  24.2277728   3.9500354
  57.9474520  28.8139185  -4.5358067  58.1226275  28.3427228  -3.7212444
  57.2607308  29.4404951  -4.3076806  58.9031583  23.0911691   1.5105234
  58.5681415  23.0512461   2.4062884  58.4035528  22.4256407   1.0375644
  52.8775827  18.4979321   7.0357815  52.7395625  17.7659560   7.6369354
  53.7880750  18.4088221   6.7542003  55.5058127  18.2099281   6.5241495
  56.2157746  17.5692473   6.4828113  55.4627436  18.4612175   7.4467676
  63.4944906  25.1466634   9.4448074  63.4357452  24.4625854   8.7778657
  63.8964424  25.8885624   8.9928700  54.2187061  15.1964499   8.3437134
  53.6824418  14.7455237   8.9958731  53.6303770  15.3310407   7.6007599
  52.5135605  31.9628548   2.2381793  52.7532203  32.5947072   2.9160812
  51.6704801  31.6116588   2.5247152  63.4962313  23.1106218   7.6762054
  62.6089092  22.7732140   7.7988453  64.0660864  22.3789249   7.9130819
  49.9526183  14.3320506   5.4290129  49.8684371  13.7246176   4.6940539
  49.1308889  14.8229525   5.4299625  57.0263467  27.7707670   4.6423297
  56.9533638  28.5762642   5.1542602  56.5840860  27.9699636   3.8171318
  56.8153246  27.0079440  -1.8473881  56.0320768  27.5501120  -1.7535657
  57.5145992  27.5253420  -1.4479640  59.4862150  27.6694504   6.7981456
  60.1990122  28.3041969   6.7257357  58.9952179  27.7658370   5.9821458
  54.5374064  25.4188948   7.6187027  55.2383523  26.0525431   7.7716421
  54.0669179  25.7603679   6.8582666  59.2982524  28.0093248  -0.4532253
  59.4804918  27.1914904   0.0095500  60.1215510  28.2260941  -0.8907363
  58.3862923  18.7153366  11.9305614  57.7103560  18.6147496  12.6007989
  59.2090557  18.5592580  12.3941611  50.1341782  24.9525303   4.5518129
  50.7195219  24.2068991   4.6846033  49.9366620  25.2629259   5.4354793
  52.9880437  27.9876550  -0.4319428  52.3190812  28.4722678  -0.9155388
  52.8493307  28.2345771   0.4823950  57.1285706  30.0220294   6.1663230
  57.6804014  30.1851915   6.9312315  57.4691899  30.6124732   5.4943255
  52.1050199  12.3695444   6.7685115  52.1691525  13.2310274   6.3562512
  52.0417319  11.7569445   6.0357473  51.5802471  14.4418576  10.4158149
  52.2074510  14.0595653  11.0295673  50.7230390  14.2232778  10.7813841
  61.9796580  24.8481551  12.0211884  62.5236484  25.4611509  11.5266839
  61.3983425  25.4061130  12.5378897  60.2654093  27.9702269   3.1526912
  60.1405232  27.1692009   2.6437858  60.9233184  28.4648463   2.6640882
  62.3289001  25.7711289   4.7806462  61.3819337  25.6516640   4.7084789
  62.6771774  24.8833787   4.8632724  54.6888575  11.6605428   8.6044704
  55.2122977  11.9067725   9.3671013  54.4700908  12.4925463   8.1847841
  59.3335435  25.5664006   0.9810814  59.1860397  24.6380713   1.1618384
  60.1588928  25.5884096   0.4967890  62.9369556  26.3892564   2.0675687
  63.8616104  26.1835426   1.9300138  62.7684860  26.1408965   2.9765029
  55.8941120  12.6019123   6.2894375  55.5537940  11.8026936   6.6915055
  55.1880126  12.9020834   5.7171208  54.0696170  16.3787556   2.5513676
  53.9240751  16.6927859   3.4437958  53.5921374  16.9972457   1.9984575
  57.7818684  13.8027445   4.6447693  57.5236462  14.7244515   4.6432024
  57.2503724  13.4057879   5.3348157  48.5441832  18.9192901   5.4901337
  47.9995301  19.6952709   5.6221612  49.4221182  19.2663705   5.3320459
  49.3307854  18.0462797   8.3831494  48.5889590  18.1945432   8.9696125
  49.0100599  18.3071063   7.5198244  57.2751517  27.5878775   8.1811884
  57.5838643  27.3427922   9.0534584  58.0726999  27.7925414   7.6930755
  57.2972129  29.7416685   0.4117261  56.8577119  29.2493064   1.1050118
  58.0480246  29.1989653   0.1709336  49.7764468  25.9328226   0.4141889
  50.6022488  25.6331998   0.0340532  49.4258520  25.1635848   0.8631678
  54.7446001  25.2854694   2.4839563  54.1226010  24.6225399   2.1841790
  55.4150868  25.3115826   1.8013210  47.9773073  23.8514552   1.3730823
  47.1404981  23.4236727   1.1914824  47.9496718  24.0446996   2.3101614
  54.8170529  13.7636482  12.0772069  54.8658684  14.6398605  11.6949838
  55.3593043  13.2213875  11.5043712  65.3025374  24.3077605  11.3573206
  64.5120918  24.2901744  10.8177705  65.0658729  24.8465899  12.1122242
  65.4223249  21.1570072   8.6705934  65.4721254  20.9920079   9.6121457
  65.3137173  20.2897331   8.2803815  62.7127012  17.1401000   9.9865241
  63.6136875  17.0007465   9.6949239  62.7874986  17.3055455  10.9263418
  57.0469817  14.5167854   8.8318427  56.1773127  14.8101420   8.5601016
  57.2829297  15.1008299   9.5525691  66.9241446  23.5767013   8.9147956
  66.6326255  23.9396994   9.7511417  66.3113578  22.8634021   8.7361288
  58.0740405  21.7185307  12.2326480  58.9943414  21.8963906  12.4266527
  58.0389988  20.7741352  12.0806179  51.0702477  19.6286341   4.8749261
  51.2888487  20.5603449   4.8937295  51.4828251  19.2694316   5.6604065
  55.9430343  15.2019547  14.2652010  55.8427069  16.1513904  14.1964101
  55.7251885  14.8737786  13.3928080  47.1610830  20.5326812   3.1272876
  46.4674301  20.1180765   2.6142831  47.9083821  20.5747348   2.5306295
  55.8061613  18.6316686  13.0817072  55.3228694  19.4317046  13.2880961
  55.8922552  18.6424631  12.1284516  51.7334950  22.5221221   5.1185506
  52.6878204  22.4905163   5.0515437  51.5347474  22.0611844   5.9335731
  52.3234332  21.0922337   7.6856303  53.1427221  21.5866415   7.7091140
  52.5971140  20.1754305   7.6573871  50.0885179  28.0640840   2.1355703
  49.9539647  27.3041241   1.5693701  49.6717241  28.7881740   1.6684492
  53.2454305  28.9610157   2.3474146  53.1286689  29.9055590   2.2452836
  52.4246751  28.6583719   2.7359945  47.5769246  15.4260471   8.3848500
  48.2228110  14.9159425   8.8735725  47.3686398  16.1629152   8.9591926
  60.1022639  22.4941318  13.8840641  60.9713798  22.6681970  13.5227276
  59.6229390  23.3135735  13.7616370  54.2708819  29.6138419   5.5630074
  55.1736066  29.6462029   5.8796569  54.0446189  28.6838870   5.5776410
  56.0262421  28.3669406   2.2240153  55.0758052  28.3671267   2.1104525
  56.3294907  27.6202140   1.7076188  51.9166737  12.5728088  12.4823514
  52.7798199  12.2164892  12.6926839  51.3432148  12.2341982  13.1698919
  68.5704821  34.1557372   3.2247440  68.2323332  34.0398437   2.3367975
  69.4394589  33.7548537   3.2048446  64.4291636  36.0092848  -0.7855669
  63.8656501  35.9182785  -1.5539381  64.3144031  35.1892753  -0.3053176
  69.0524604  35.3092224   9.1833646  69.0413244  34.9145022   8.3114149
  69.2145243  34.5758296   9.7767417  61.9756068  37.5044040   2.0528552
  62.7677360  37.1634865   1.6374851  62.2152718  37.6139015   2.9730705
  65.7731865  38.0929336   8.1312830  65.4821731  38.9974966   8.0159496
  66.4088849  38.1345863   8.8456899  66.6988072  35.4706184   4.7214189
  67.2951644  35.2462207   4.0071152  66.7563043  34.7290930   5.3239637
  70.7321750  37.7790751   5.1262623  70.4322473  38.6815790   5.0178431
  70.3872809  37.5122934   5.9783776  64.1834231  34.2304548   1.1599328
  63.2584728  34.0980762   1.3677020  64.4318645  35.0098767   1.6569270
  61.5443042  33.8737822   1.9943117  61.6735424  34.1272300   2.9082529
  60.8640494  34.4665530   1.6747772  68.2059759  31.7162937  10.7494958
  67.4293093  32.2756857  10.7397823  68.8450322  32.2019720  11.2709828
  66.4606132  34.5248390  10.3112925  67.2020816  35.0633434  10.0347749
  65.7543117  35.1514679  10.4684477  71.9361471  36.6677531   8.9085086
  72.3444827  36.2259941   8.1639719  71.2138733  36.0930158   9.1619279
  68.2892541  31.6050137   6.2818643  69.1353737  32.0289551   6.4253292
  68.2291179  30.9483762   6.9757207  72.2590286  37.2278721   2.6637375
  71.6299148  37.3924435   1.9613443  71.8715948  37.6420331   3.4348339
  71.4391987  29.2654506   7.9399817  71.1952919  30.0196566   7.4034093
  71.7151917  29.6439853   8.7747064  73.3930450  35.8093118   6.6177083
  73.6047345  36.4524878   5.9411464  73.3460198  34.9755435   6.1499013
  67.8118248  36.9653129  -0.0712540  68.2756593  37.2440832  -0.8607917
  67.5475046  36.0636574  -0.2539449  64.7042329  36.5124611   2.8667224
  65.2743686  36.9411879   2.2284708  65.2950441  36.2307196   3.5651409
  65.1967495  31.6788038  11.1128235  64.5666156  32.3604319  11.3463632
  65.0903583  31.5671120  10.1681373  60.4912468  31.3459834   2.0394159
  59.7011522  31.6017363   1.5634270  60.9823715  32.1608172   2.1446200
  74.5076277  38.6865074   4.7899440  75.3293721  38.2845261   4.5082122
  74.5038680  38.5833308   5.7415556  62.4427213  31.7104414  -1.0022364
  61.6458377  31.8223108  -0.4838868  62.2152805  32.0491066  -1.8681474
  68.2732881  38.2349117   6.9460150  68.3377313  38.6969524   7.7818322
  67.5643805  37.6046482   7.0742460  58.7750171  31.5990325   4.4709150
  59.0258209  32.4837335   4.7366726  59.3109719  31.4194926   3.6984242
  64.4748238  25.9808804  13.4753486  64.0815184  25.4275003  14.1501130
  65.2914379  26.2919383  13.8660004  61.4410296  37.4192662  -2.6132944
  61.9534817  38.2135913  -2.4627379  62.0933009  36.7218953  -2.6799343
  67.3916199  27.3966683  11.0673743  68.1325913  27.9973837  10.9878205
  67.6234122  26.6544321  10.5091785  62.5357537  32.5823051   9.3451972
  62.4211052  31.6808308   9.6459071  61.6802055  32.8286747   8.9936789
  69.6149375  40.5240791  10.9439473  69.1713229  39.7377170  10.6260377
  70.2766589  40.7119941  10.2783364  64.3736496  42.0536593   5.4700151
  64.9243921  41.9253656   4.6977145  63.5347972  42.3531482   5.1195044
  71.7130613  40.8043591   8.9720874  71.6949088  41.6252472   8.4801143
  72.6350533  40.6797666   9.1971015  68.1703667  38.3187720   9.8144383
  68.7032004  37.5576009   9.5843690  67.6417748  38.0261372  10.5568537
  59.4059213  35.7481317  -1.8373374  60.2434435  36.1578325  -2.0539666
  59.5837480  34.8080759  -1.8673180  59.4285384  33.0872032  -1.1662640
  59.2309784  32.4941393  -1.8911574  58.8732048  32.7824242  -0.4486701
  67.4082108  32.9795139   0.9531953  67.4630717  32.0268975   0.8774430
  66.5973310  33.1354578   1.4373251  70.9448679  32.0614023   7.5437226
  71.2998067  32.2885496   8.4031692  71.5920810  32.3932400   6.9214481
  64.8388542  29.1690554   4.3283567  65.4787922  29.0279313   3.6306530
  64.0066073  28.8825067   3.9522169  65.6148846  38.4692984   0.4418559
  66.4089445  37.9743304   0.2401134  64.9040539  37.9410847   0.0786265
  70.4343691  40.8511080   4.7930927  70.4880713  41.4202016   5.5608643
  69.5658472  41.0212965   4.4284964  61.8417159  29.1390879  -0.8943446
  62.1023976  30.0536212  -1.0034286  62.6634331  28.6715321  -0.7446834
  63.3142084  30.5528636   6.2755378  63.9865137  30.3445998   5.6268027
  62.4871870  30.3550722   5.8360610  69.2167656  27.1790577   8.2921039
  68.5695571  27.8780527   8.1985515  69.9868671  27.6126721   8.6597287
  72.6246454  37.4439429  11.3671592  72.4731960  37.2149981  10.4501676
  72.6151133  38.4010031  11.3802937  69.3931790  35.0171342   6.3517859
  70.3223850  35.1682501   6.1786826  68.9722820  35.1055363   5.4966505
  68.1920122  39.0422006   4.1216396  68.0531208  38.6740791   4.9942334
  67.4034718  39.5569646   3.9500354  69.7425337  38.4203609   1.5105234
  69.4075170  38.3804379   2.4062884  69.2429283  37.7548325   1.0375644
  63.7169581  33.8271239   7.0357815  63.5789379  33.0951478   7.6369354
  64.6274505  33.7380139   6.7542003  66.3451882  33.5391198   6.5241495
  67.0551500  32.8984390   6.4828113  66.3021190  33.7904093   7.4467676
  74.3338661  40.4758552   9.4448074  74.2751207  39.7917772   8.7778657
  74.7358179  41.2177542   8.9928700  65.0580816  30.5256416   8.3437134
  64.5218173  30.0747155   8.9958731  64.4697524  30.6602325   7.6007599
  74.3356068  38.4398136   7.6762054  73.4482847  38.1024057   7.7988453
  74.9054619  37.7081167   7.9130819  55.9885215  34.7722227   1.0005105
  56.6756255  34.4583957   0.4126121  55.8333344  35.6763592   0.7272357
  60.7919937  29.6612424   5.4290129  60.7078126  29.0538093   4.6940539
  59.9702644  30.1521442   5.4299625  67.8657221  43.0999588   4.6423297
  67.7927393  43.9054559   5.1542602  67.4234614  43.2991554   3.8171318
  70.3255905  42.9986422   6.7981456  71.0383877  43.6333887   6.7257357
  69.8345933  43.0950288   5.9821458  65.3767818  40.7480865   7.6187027
  66.0777278  41.3817348   7.7716421  64.9062933  41.0895597   6.8582666
  69.2256677  34.0445284  11.9305614  68.5497314  33.9439413  12.6007989
  70.0484311  33.8884498  12.3941611  60.9735536  40.2817220   4.5518129
  61.5588973  39.5360908   4.6846033  60.7760375  40.5921177   5.4354793
  55.5653191  32.8522821   3.2722572  55.6037291  32.3186411   4.0659690
  55.0593484  32.3258026   2.6533550  67.9679460  45.3512211   6.1663230
  68.5197768  45.5143833   6.9312315  68.3085654  45.9416649   5.4943255
  62.9443953  27.6987361   6.7685115  63.0085280  28.5602192   6.3562512
  62.8811074  27.0861363   6.0357473  62.4196226  29.7710494  10.4158149
  63.0468265  29.3887571  11.0295673  61.5624145  29.5524696  10.7813841
  72.8190334  40.1773469  12.0211884  73.3630238  40.7903427  11.5266839
  72.2377179  40.7353047  12.5378897  59.1961769  31.5786923  -3.6523496
  59.4915210  30.6697601  -3.7056443  58.2949804  31.5574662  -3.9742494
  62.7256016  29.6542919   2.3304052  62.0042601  30.2678887   2.1911526
  63.5149271  30.1900684   2.2520698  73.1682756  41.1003207   4.7806462
  72.2213091  40.9808558   4.7084789  73.5165529  40.2125705   4.8632724
  65.5282329  26.9897346   8.6044704  66.0516731  27.2359642   9.3671013
  65.3094662  27.8217381   8.1847841  66.7334874  27.9311041   6.2894375
  66.3931695  27.1318854   6.6915055  66.0273881  28.2312752   5.7171208
  64.9089925  31.7079474   2.5513676  64.7634506  32.0219777   3.4437958
  64.4315128  32.3264374   1.9984575  68.6212438  29.1319362   4.6447693
  68.3630216  30.0536433   4.6432024  68.0897479  28.7349797   5.3348157
  59.3835587  34.2484818   5.4901337  58.8389055  35.0244626   5.6221612
  60.2614937  34.5955623   5.3320459  60.1701609  33.3754715   8.3831494
  59.4283345  33.5237350   8.9696125  59.8494353  33.6362980   7.5198244
  68.1145271  42.9170693   8.1811884  68.4232398  42.6719840   9.0534584
  68.9120754  43.1217331   7.6930755  60.6158223  41.2620143   0.4141889
  61.4416242  40.9623915   0.0340532  60.2652275  40.4927766   0.8631678
  65.5839756  40.6146612   2.4839563  64.9619765  39.9517317   2.1841790
  66.2544623  40.6407744   1.8013210  58.8166828  39.1806470   1.3730823
  57.9798736  38.7528644   1.1914824  58.7890473  39.3738913   2.3101614
  65.6564283  29.0928400  12.0772069  65.7052439  29.9690523  11.6949838
  66.1986797  28.5505793  11.5043712  76.1419129  39.6369523  11.3573206
  75.3514673  39.6193662  10.8177705  75.9052483  40.1757817  12.1122242
  76.2617004  36.4861989   8.6705934  76.3115009  36.3211997   9.6121457
  76.1530927  35.6189248   8.2803815  73.5520766  32.4692917   9.9865241
  74.4530629  32.3299382   9.6949239  73.6268741  32.6347372  10.9263418
  67.8863572  29.8459772   8.8318427  67.0166881  30.1393338   8.5601016
  68.1223052  30.4300217   9.5525691  77.7635201  38.9058931   8.9147956
  77.4720009  39.2688911   9.7511417  77.1507332  38.1925939   8.7361288
  62.9005896  35.1915713  -3.0340908  62.6551938  34.2878043  -2.8360698
  63.0701810  35.1932863  -3.9761430  68.9134159  37.0477224  12.2326480
  69.8337169  37.2255823  12.4266527  68.8783742  36.1033270  12.0806179
  58.1316324  32.2415818   1.1579755  57.8119108  31.3881126   0.8654129
  57.5849752  32.4564396   1.9137722  61.9096232  34.9578259   4.8749261
  62.1282241  35.8895367   4.8937295  62.3222006  34.5986233   5.6604065
  66.7824097  30.5311465  14.2652010  66.6820824  31.4805822  14.1964101
  66.5645639  30.2029704  13.3928080  58.0004584  35.8618730   3.1272876
  57.3068056  35.4472682   2.6142831  58.7477575  35.9039266   2.5306295
  66.6455367  33.9608604  13.0817072  66.1622449  34.7608964  13.2880961
  66.7316306  33.9716548  12.1284516  59.9141327  35.7936983   1.0038891
  59.8912015  35.8924671   0.0520774  60.2241963  36.6402134   1.3256057
  62.5728705  37.8513138   5.1185506  63.5271958  37.8197081   5.0515437
  62.3741228  37.3903762   5.9335731  63.1628087  36.4214254   7.6856303
  63.9820976  36.9158333   7.7091140  63.4364894  35.5046223   7.6573871
  60.9278933  43.3932758   2.1355703  60.7933401  42.6333159   1.5693701
  60.5110996  44.1173658   1.6684492  64.0848059  44.2902075   2.3474146
  63.9680443  45.2347507   2.2452836  63.2640505  43.9875636   2.7359945
  58.4163001  30.7552388   8.3848500  59.0621865  30.2451342   8.8735725
  58.2080152  31.4921070   8.9591926  70.9416393  37.8233236  13.8840641
  71.8107553  37.9973888  13.5227276  70.4623145  38.6427653  13.7616370
  65.1102573  44.9430337   5.5630074  66.0129820  44.9753947   5.8796569
  64.8839943  44.0130788   5.5776410  62.7560492  27.9020005  12.4823514
  63.6191953  27.5456810  12.6926839  62.1825903  27.5633900  13.1698919
  79.0453514  47.0454855  10.7494958  78.2686848  47.6048775  10.7397823
  79.6844077  47.5311638  11.2709828  76.0361250  47.0079956  11.1128235
  75.4059911  47.6896237  11.3463632  75.9297338  46.8963038  10.1681373
  75.3141993  41.3100722  13.4753486  74.9208938  40.7566921  14.1501130
  76.1308133  41.6211300  13.8660004  78.2309954  42.7258601  11.0673743
  78.9719667  43.3265754  10.9878205  78.4627877  41.9836239  10.5091785
  73.3751292  47.9114968   9.3451972  73.2604807  47.0100226   9.6459071
  72.5195809  48.1578665   8.9936789  80.0561410  42.5082495   8.2921039
  79.4089326  43.2072444   8.1985515  80.8262426  42.9418639   8.6597287
  75.8974570  45.8548334   8.3437134  75.3611927  45.4039072   8.9958731
  75.3091279  45.9894243   7.6007599  71.6313692  44.9904342   5.4290129
  71.5471880  44.3830011   4.6940539  70.8096398  45.4813360   5.4299625
  80.0650432  49.3737202  11.9305614  79.3891069  49.2731331  12.6007989
  80.8878066  49.2176415  12.3941611  73.7837708  43.0279279   6.7685115
  73.8479034  43.8894110   6.3562512  73.7204828  42.4153281   6.0357473
  73.2589980  45.1002411  10.4158149  73.8862019  44.7179489  11.0295673
  72.4017899  44.8816613  10.7813841  76.3676084  42.3189264   8.6044704
  76.8910485  42.5651560   9.3671013  76.1488417  43.1509298   8.1847841
  71.0095363  48.7046632   8.3831494  70.2677099  48.8529268   8.9696125
  70.6888108  48.9654898   7.5198244  76.4958038  44.4220317  12.0772069
  76.5446193  45.2982440  11.6949838  77.0380552  43.8797710  11.5043712
  78.7257326  45.1751690   8.8318427  77.8560636  45.4685256   8.5601016
  78.9616806  45.7592135   9.5525691  77.6217852  45.8603382  14.2652010
  77.5214578  46.8097739  14.1964101  77.4039394  45.5321621  13.3928080
  77.4849122  49.2900521  13.0817072  77.0016203  50.0900881  13.2880961
  77.5710061  49.3008466  12.1284516  69.2556755  46.0844306   8.3848500
  69.9015619  45.5743260   8.8735725  69.0473907  46.8212988   8.9591926
  73.5954246  43.2311923  12.4823514  74.4585708  42.8748728  12.6926839
  73.0219657  42.8925818  13.1698919   6.7225984  65.6887661  54.2403182
   5.9689692  65.1195059  54.0847186   6.8573525  65.6550326  55.1873817
   0.7990130  65.8416298  51.3505325   0.6608028  66.0317894  50.4226514
   0.4426348  66.6035680  51.8073376   0.8259509  67.9092825  56.3616597
   1.2596016  67.8168114  57.2099651   1.5391090  67.8850325  55.7236613
   1.6875059  67.9516525  58.8949482   1.8810949  68.8562336  59.1408757
   1.5875677  67.4923944  59.7288067   2.9417122  64.5090192  55.5397386
   2.9306998  65.3914907  55.1691319   2.0734501  64.1561743  55.3451923
   3.5441732  65.6590411  52.1446849   3.9872878  64.9097736  51.7465972
   2.6668242  65.6500548  51.7620581   0.5768936  69.6620458  49.1540778
   1.1020260  70.0007731  48.4290098   0.4891289  68.7267474  48.9703913
   3.0874597  67.1295650  54.5369296   3.9221488  67.5685454  54.7006857
   3.2233725  66.6534303  53.7177542   1.3155849  64.7847264  57.8317389
   1.2832169  63.8463265  58.0177073   1.9256473  64.8631301  57.0983214
   1.4650338  61.5758308  57.8775673   0.9489386  60.7916764  57.6905601
   2.3490286  61.2477024  58.0422192   7.1332399  65.8463271  56.9723426
   7.8635788  65.5848559  57.5331129   6.5239345  65.1091993  57.0125494
   5.2147696  63.9871134  57.5697877   4.4880860  63.8527099  56.9614369
   4.7994983  64.2947962  58.3754595   2.8325491  60.2082986  54.9231309
   3.4269982  59.9678722  54.2124617   2.9052075  59.4890116  55.5504845
   5.1396564  63.5149187  53.6974730   4.5796122  63.5842376  54.4706292
   4.5340067  63.3390171  52.9774226   9.2027698  71.5653962  58.8285481
   8.8711023  72.4349373  58.6046696   8.6073312  71.2490246  59.5079511
  10.9618008  74.4865486  57.6856705  10.3192388  74.7798019  57.0396500
  10.4572937  74.3718407  58.4909902   6.3010830  69.4123543  58.4456795
   5.9575100  70.3025185  58.3695905   6.6689793  69.2225201  57.5826380
   5.3807371  71.7828198  56.4106028   4.8772166  71.7458333  55.5973833
   5.6737977  72.6920941  56.4702685   1.5335243  70.9710385  51.5163646
   0.8799656  70.6559402  50.8920261   1.4915717  70.3486125  52.2423469
   8.0998496  68.6717102  53.5474532   8.4057373  67.8114466  53.2600447
   8.8251101  69.2634722  53.3473526   8.3700114  71.1011337  56.0458453
   7.4563194  71.3315564  56.2140660   8.7993215  71.1849782  56.8972486
   2.3488814  71.0036110  57.8440468   3.1714883  70.5296588  57.7219358
   2.5926878  71.7826594  58.3439154   4.0051862  71.2527069  54.1067626
   4.0273559  71.3166402  53.1519606   4.4219921  70.4131578  54.3008132
   5.5540073  72.0515146  59.4502618   6.0722017  72.7876173  59.1249107
   5.1995206  72.3579139  60.2849377   5.8052668  68.4715428  54.9703515
   6.0854421  67.8038617  55.5963941   6.5903275  68.6644524  54.4578178
   9.9654819  70.6491241  53.8371485   9.7679640  70.3406329  54.7214817
  10.5754525  71.3752880  53.9669415   3.7937918  71.4522101  49.9643720
   2.9838646  71.1069186  50.3398966   4.4822334  71.1429645  50.5531331
   5.7228466  70.5300148  51.5868017   6.2759504  70.9495601  52.2458040
   5.9598552  69.6035896  51.6290973   9.1007273  72.6400673  51.0946681
   8.5205942  73.2985477  50.7124733   8.8343206  71.8178017  50.6834098
   7.5510839  72.0405731  53.2968001   8.0510618  72.1522265  52.4882320
   8.1946447  71.7366783  53.9368810  13.6719246  75.5374903  54.9231309
  14.2663736  75.2970639  54.2124617  13.7445829  74.8182034  55.5504845
   5.7156199  67.6010966  51.4937104   4.9488595  67.0469453  51.6393786
   6.1266904  67.6732835  52.3551255   6.7225985  42.6949784  40.9648488
   5.9689694  42.1257182  40.8092493   6.8573527  42.6612448  41.9119123
   0.7990131  42.8478420  38.0750632   0.6608029  43.0380016  37.1471821
   0.4426350  43.6097803  38.5318683   0.8259510  44.9154947  43.0861903
   1.2596017  44.8230236  43.9344957   1.5391091  44.8912448  42.4481919
   1.6875060  44.9578648  45.6194789   1.8810950  45.8624458  45.8654064
   1.5875678  44.4986067  46.4533374   2.9417123  41.5152314  42.2642693
   2.9306999  42.3977030  41.8936626   2.0734503  41.1623865  42.0697230
   3.5441733  42.6652534  38.8692155   3.9872879  41.9159859  38.4711279
   2.6668243  42.6562670  38.4865887   0.5768938  46.6682581  35.8786085
   1.1020262  47.0069854  35.1535405   0.4891290  45.7329596  35.6949219
   0.3860719  44.1507951  48.4970011   0.4358724  43.9857958  49.4385534
   0.2774642  43.2835210  48.1067892   1.8878916  46.5704892  48.7412033
   1.5963724  46.9334873  49.5775494   1.2751047  45.8571901  48.5625365
   3.0874598  44.1357772  41.2614603   3.9221489  44.5747576  41.4252163
   3.2233727  43.6596425  40.4422849   1.3155851  41.7909387  44.5562696
   1.2832171  40.8525387  44.7422380   1.9256474  41.8693423  43.8228521
   1.4650339  38.5820430  44.6020979   0.9489388  37.7978887  44.4150908
   2.3490288  38.2539147  44.7667499   7.1332400  42.8525394  43.6968733
   7.8635789  42.5910682  44.2576436   6.5239346  42.1154116  43.7370801
   5.2147698  40.9933256  44.2943184   4.4880861  40.8589221  43.6859676
   4.7994984  41.3010085  45.0999902   2.8325492  37.2145108  41.6476616
   3.4269983  36.9740844  40.9369924   2.9052076  36.4952239  42.2750152
   5.1396565  40.5211309  40.4220037   4.5796123  40.5904499  41.1951599
   4.5340069  40.3452294  39.7019533   6.7252584  57.1967823  43.1149992
   7.3630994  57.0774571  42.4113333   6.6073427  58.1448667  43.1737945
   3.5342290  57.1495251  43.0511517   3.1960801  57.0336316  42.1632052
   4.4032058  56.7486416  43.0312523   4.0162073  58.3030103  49.0097723
   4.0050714  57.9082901  48.1378226   4.1782712  57.5696176  49.6031494
   4.9728664  62.6701695  34.3522873   4.3216644  63.2555776  33.9656887
   5.7673027  63.2007890  34.4117911   0.7369334  61.0867215  47.9576907
   0.4459200  61.9912846  47.8423573   1.3726318  61.1283742  48.6720976
   1.6625541  58.4644063  44.5478266   2.2589113  58.2400086  43.8335229
   1.7200512  57.7228809  45.1503714   1.2350569  55.9183499  32.3828457
   1.4876090  55.3965020  31.6211920   0.2975128  55.7549644  32.4855141
   6.2793852  54.9219277  40.1903201   7.0656941  54.5038700  39.8393618
   6.5432556  55.8265369  40.3584849   6.4503929  60.3592127  34.8891857
   5.8149762  60.4326754  35.6012762   6.1201336  60.9485726  34.2110937
  11.6802279  54.8594510  41.0936179  12.4127451  54.2893727  41.3274009
  10.9241635  54.4716111  41.5342685   0.9546858  57.8211605  34.5852832
   0.8383116  57.1456508  35.2533917   1.0649118  57.3343979  33.7684985
   3.2978399  57.2821752  38.2899522   2.9336606  56.7552373  39.0012443
   4.1545515  56.8920221  38.1166007   9.2027700  48.5716084  45.5530788
   8.8711024  49.4411495  45.3292003   8.6073313  48.2552368  46.2324818
   2.9383886  52.3111651  33.2860870   3.1058288  53.1791888  33.6531341
   2.7481055  52.4738933  32.3622159   5.6959219  60.7728630  44.9526700
   5.3959942  61.6753669  44.8442508   5.3510279  60.5060814  45.8047853
   9.0956363  53.2911171  42.6324138   8.1873240  53.2226579  42.3382899
   9.0443959  53.7683115  43.4605963   2.9173107  54.7669309  34.2707537
   2.7972732  55.2126360  35.1093017   2.2225695  55.1154627  33.7121075
   3.1697229  54.7100816  50.5759035   2.3930563  55.2694736  50.5661900
   3.8087792  55.1957599  51.0973905  10.9618009  51.4927609  44.4102012
  10.3192390  51.7860142  43.7641806  10.4572938  51.3780529  45.2155208
   8.6158173  55.2390782  35.0987871   9.5276029  55.4718169  34.9235568
   8.1067820  55.8227826  34.5362949   1.4243601  57.5186269  50.1377002
   2.1658285  58.0571313  49.8611826   0.7180586  58.1452558  50.2948554
   6.8998941  59.6615410  48.7349163   7.3082297  59.2197820  47.9903796
   6.1776202  59.0868037  48.9883356   3.2530011  54.5988017  46.1082720
   4.0991206  55.0227430  46.2517369   3.1928648  53.9421641  46.8021284
   7.2227755  60.2216601  42.4901452   6.5936618  60.3862315  41.7877520
   6.8353417  60.6358210  43.2612416  11.1016987  61.1571038  39.8445816
  10.4168025  61.5369940  39.2942849  11.1860837  61.7666365  40.5777764
   6.4029456  52.2592385  47.7663894   6.1590388  53.0134446  47.2298170
   6.6789387  52.6377733  48.6011141   8.3567919  58.8030997  46.4441160
   8.5684814  59.4462757  45.7675541   8.3097667  57.9693314  45.9763090
   5.9594148  51.4148818  43.3477732   5.0978627  51.7130072  43.6394469
   5.9856582  51.6319217  42.4158764   2.7755717  59.9591009  39.7551537
   3.2394063  60.2378712  38.9656160   2.5112515  59.0574453  39.5724628
   1.7124603  56.0814161  36.5641103   2.4148647  56.5335205  37.0315029
   1.3805232  55.4397980  37.1920996   9.4713747  61.6802953  44.6163517
  10.2931190  61.2783140  44.3346199   9.4676150  61.5771187  45.5679633
   3.2370350  61.2286996  46.7724227   3.3014783  61.6907403  47.6082399
   2.5281274  60.5984361  46.9006537  17.5619740  58.0241701  40.9648488
  16.8083448  57.4549099  40.8092493  17.6967281  57.9904366  41.9119123
   2.9518368  62.8955104  36.6403208   2.8164043  63.7406639  37.0688056
   3.4928180  63.0974381  35.8769142   2.3553668  50.3904563  50.8937820
   3.0963382  50.9911716  50.8142282   2.5871591  49.6482200  50.3355862
   4.5786844  63.5178670  50.7703550   4.1350698  62.7315049  50.4524454
   5.2404058  63.7057821  50.1047441   6.6768082  63.7981470  48.7984951
   6.6586558  64.6190351  48.3065220   7.5988002  63.6735545  49.0235092
   3.1341136  61.3125600  49.6408460   3.6669473  60.5513888  49.4107768
   2.6055218  61.0199251  50.3832614   6.3010831  46.4185666  45.1702101
   5.9575101  47.3087307  45.0941212   6.6689794  46.2287323  44.3071686
   6.2661114  56.4094277  33.6774536   5.7507738  57.1798881  33.9162924
   5.9938423  55.7359413  34.3007598   3.8508225  51.2543977  38.7359775
   2.9949822  50.8650828  38.5565413   4.2635177  51.3335938  37.8759560
   5.3807372  48.7890321  43.1351335   4.8772167  48.7520456  42.3219140
   5.6737979  49.6983063  43.1947991   1.6250258  48.8729050  42.1417516
   2.4903254  48.6771859  41.7823406   1.6927767  48.6439402  43.0686873
  11.2395388  59.1626631  35.6127710  10.4624831  58.8237791  35.1682872
  11.9186869  59.1679254  34.9382675   6.0547417  54.2821369  35.5034318
   5.7497553  54.5967518  36.3544461   7.0077859  54.3602789  35.5461651
   4.4993849  60.4411592  37.1527272   3.9715211  59.7064352  36.8400509
   3.9981352  61.2186268  36.9067240   9.4786695  58.6360613  42.2694318
   8.8210370  59.3259874  42.3574446  10.2827094  59.0257044  42.6128304
   8.2892154  56.9904985  40.3198260   8.8024036  57.6234977  40.8219969
   8.9393378  56.3906181  39.9541620   1.5335244  47.9772507  38.2408952
   0.8799657  47.6621524  37.6165567   1.4915719  47.3548248  38.9668775
   2.6446449  58.2591802  30.1562245   1.7373511  58.0281056  30.3553394
   3.1417481  57.4629422  30.3436226   5.5514528  66.9689309  33.0758931
   4.8776227  67.2721006  33.6843889   5.9380350  67.7718390  32.7264388
   4.7672985  54.4654441  42.5656600   3.8495546  54.6869388  42.4078288
   5.1833128  54.5400751  41.7068307   5.5508033  55.8645856  37.6959280
   6.2979852  56.3767254  37.3866402   5.8199622  55.5429909  38.5563674
   3.8234683  58.3604397  34.6786235   2.9145902  58.0763430  34.7758704
   3.8529767  58.7803476  33.8189542   9.0553950  61.9710987  38.4477402
   8.6016277  61.1301897  38.5042593   8.4247917  62.6072385  38.7852182
   7.9986870  52.9002973  39.6778070   7.2609627  52.3880359  40.0088312
   8.2513643  52.4603354  38.8661347   7.4986889  63.8087483  39.3827220
   7.7909864  64.3692540  38.6639586   8.0085510  64.1016044  40.1380379
   8.0998497  45.6779225  40.2719839   8.4057374  44.8176588  39.9845754
   8.8251102  46.2696845  40.0718833   2.3719577  55.9733018  40.7796030
   2.4268187  55.0206854  40.7038507   1.5610779  56.1292457  41.2637328
   3.5210771  59.9013141  32.0174313   3.0830201  59.1849000  31.5579951
   4.2621211  60.1289256  31.4559405   2.4620515  64.5867834  40.4720674
   2.4196693  64.8128681  39.5429206   3.3783213  64.3531209  40.6206475
   5.9086148  55.0551902  47.3701303   6.2635536  55.2823375  48.2295769
   6.5558280  55.3870279  46.7478558  11.6383885  58.1770338  38.0750632
  11.5001784  58.3671934  37.1471821  11.2820104  58.9389721  38.5318683
  11.6653265  60.2446865  43.0861903  12.0989772  60.1522154  43.9344957
  12.3784846  60.2204365  42.4481919   5.3981160  63.8448959  44.6195004
   5.4518182  64.4139895  45.3872720   4.5295941  64.0150844  44.2549041
  12.5268815  60.2870566  45.6194789  12.7204705  61.1916376  45.8654064
  12.4269433  59.8277985  46.4533374   4.1805125  50.1728456  48.1185116
   3.5333040  50.8718406  48.0249592   4.9506141  50.6064600  48.4861364
   7.5883923  60.4377308  51.1935669   7.4369430  60.2087860  50.2765753
   7.5788603  61.3947910  51.2067014   4.3569260  58.0109221  46.1781936
   5.2861320  58.1620381  46.0050903   3.9360290  58.0993242  45.3230582
   3.1557591  62.0359885  43.9480473   3.0168677  61.6678670  44.8206411
   2.3672188  62.5507525  43.7764431   3.7505743  67.1368982  35.2906010
   3.9257499  66.6657025  36.1051633   3.0638531  67.7634748  35.5187271
   4.7062807  61.4141488  41.3369311   4.3712639  61.3742258  42.2326961
   4.2066752  60.7486204  40.8639721   7.6421998  58.7597522  31.6106371
   7.0251169  58.0344351  31.5139424   7.1738487  59.5206883  31.2673445
   1.3089351  56.5329077  46.3505572   2.0188970  55.8922270  46.3092190
   1.2658659  56.7841972  47.2731753   9.2976130  63.4696431  49.2712151
   9.2388676  62.7855651  48.6042734   9.6995648  64.2115421  48.8192777
   9.2993537  61.4336015  47.5026131   8.4120316  61.0961937  47.6252530
   9.8692088  60.7019046  47.7394896   2.8294691  66.0937467  44.4687374
   2.7564862  66.8992439  44.9806679   2.3872084  66.2929433  43.6435395
   2.6184470  65.3309237  37.9790196   1.8351992  65.8730917  38.0728420
   3.3177215  65.8483217  38.3784437   5.9281120  51.1403867  40.6224401
   6.4249820  50.3873829  40.3025471   5.1568102  51.1768183  40.0567610
  13.7810878  56.8444232  42.2642693  13.7700754  57.7268948  41.8936626
  12.9128257  56.4915783  42.0697230   5.2893374  65.9924301  46.6245533
   6.0021346  66.6271766  46.5521434   4.7983403  66.0888167  45.8085535
   7.0110901  59.8975554  38.1962824   6.0767180  60.0177016  38.0267529
   7.1887569  58.9948021  37.9322834   2.5116089  53.2821250  40.3496086
   2.1413877  52.7292290  41.0376991   3.0075181  52.6779383  39.7971086
  10.3983452  55.7392873  38.7312859  10.8643905  56.5720865  38.6573161
  10.8490953  55.2737855  39.4358117   8.4659683  62.0836694  35.7299011
   8.7419527  61.9693289  36.6392885   7.5964182  61.6854179  35.6911184
   8.3700115  48.1073460  42.7703760   7.4563195  48.3377687  42.9385967
   8.7993217  48.1911904  43.6217792   8.1406574  56.2963352  45.2703654
   7.4878024  56.5439259  44.6156107   8.5186953  55.4827490  44.9366131
   5.1013747  66.3323045  39.3731824   5.2836142  65.5144701  39.8359577
   5.9246733  66.5490737  38.9356714   5.4355913  65.2591230  36.6346873
   5.9643679  64.7483685  36.0217035   5.6984133  64.9433761  37.4992406
   4.1894147  57.0383163  51.7569691   3.5134784  56.9377292  52.4272066
   5.0121780  56.8822377  52.2205688   2.9316929  68.3450091  45.9927307
   3.4835237  68.5081712  46.7576392   3.2723123  68.9354528  45.3207332
   7.7827804  63.1711348  51.8475961   8.3267708  63.7841306  51.3530916
   7.2014649  63.7290926  52.3642974   6.0685317  66.2932066  42.9790989
   5.9436456  65.4921806  42.4701935   6.7264408  66.7878259  42.4904959
   8.1320225  64.0941086  44.6070539   7.1850561  63.9746437  44.5348866
   8.4802998  63.2063584  44.6896801   0.4919798  49.9835225  48.4308781
   1.0154200  50.2297522  49.1935090   0.2732132  50.8155260  48.0111918
   5.1366658  63.8893802  40.8074891   4.9891621  62.9610510  40.9882461
   5.9620152  63.9113893  40.3231967   8.7400780  64.7122361  41.8939764
   9.6647328  64.5065222  41.7564215   8.5716084  64.4638762  42.8029106
   1.6972344  50.9248920  46.1158452   1.3569164  50.1256733  46.5179132
   0.9911350  51.2250631  45.5435285   2.3488815  48.0098233  44.5685775
   3.1714885  47.5358711  44.4464665   2.5926879  48.7888716  45.0684461
   0.9897050  51.0386491  34.8648676   1.7105412  51.4167744  34.3612393
   0.3662354  51.7575368  34.9683654   5.1328173  51.7431640  35.8007009
   5.3491787  52.6256278  35.4995837   4.6522240  51.3517853  35.0712651
   1.7323777  51.6919901  42.4258643   1.7185346  50.7960995  42.0890941
   2.4496205  51.6990565  43.0596929   3.5849908  52.1257241  44.4711770
   3.3267686  53.0474312  44.4696101   3.0534948  51.7287676  45.1612234
   8.5296096  65.2308029  37.2501856   8.7032974  64.6654451  36.4975708
   9.0224988  66.0308923  37.0681346   1.1360673  50.5734282  37.6946213
   1.2576584  49.6450928  37.8937100   0.8462715  50.5872967  36.7824528
   4.0051863  48.2589192  40.8312933   4.0273560  48.3228525  39.8764912
   4.4219922  47.4193701  41.0253439  14.3835488  57.9944452  38.8692155
  14.8266634  57.2451777  38.4711279  13.5061998  57.9854588  38.4865887
   9.5171269  64.5474793  34.3498754  10.2122174  65.1681486  34.5686069
   9.8594419  63.6970144  34.6251132  11.4162692  61.9974499  35.8786085
  11.9414016  62.3361771  35.1535405  11.3285045  61.0621514  35.6949219
   3.0782741  65.9108572  48.0075961   3.3869867  65.6657719  48.8798661
   3.8758223  66.1155211  47.5194832   3.1003353  68.0646482  40.2381338
   2.6608343  67.5722860  40.9314195   3.8511470  67.5219449  39.9973413
   0.6201752  52.0866279  51.9036146   0.6689908  52.9628402  51.5213915
   1.1624267  51.5443672  51.3307789  11.1056598  62.6307402  51.1837283
  10.3152142  62.6131541  50.6441782  10.8689953  63.1695696  51.9386319
  11.2254473  59.4799869  48.4970011  11.2752478  59.3149876  49.4385534
  11.1168397  58.6127128  48.1067892   8.5158236  55.4630797  49.8129318
   9.4168098  55.3237261  49.5213316   8.5906210  55.6285251  50.7527495
   2.8501041  52.8397651  48.6582504   1.9804350  53.1331217  48.3865093
   3.0860521  53.4238096  49.3789768  12.7272670  61.8996810  48.7412033
  12.4357478  62.2626791  49.5775494  12.1144801  61.1863818  48.5625365
  13.9268352  59.4649690  41.2614603  14.7615244  59.9039494  41.4252163
  14.0627481  58.9888343  40.4422849  10.9759858  57.0229425  47.2092091
  11.4513980  57.2157071  46.4010942  10.0525424  57.0788610  46.9635474
   5.5540075  49.0577268  46.1747925   6.0722019  49.7938295  45.8494413
   5.1995208  49.3641262  47.0094684   5.8052669  45.4777551  41.6948821
   6.0854423  44.8100740  42.3209248   6.5903276  45.6706646  41.1823485
   3.6086137  64.6536545  33.2573848   3.0360104  65.2726732  32.8044319
   4.1818931  65.2035906  33.7913769   9.6761527  53.8995185  45.4420396
  10.6278950  53.9993282  45.4632620   9.5064978  53.1073453  45.9518481
   7.6975907  50.9850768  45.6279797   7.1025839  51.2655781  44.9326286
   7.4125603  51.4744669  46.3996538   6.8283397  64.9373695  34.3882430
   7.7614070  64.8719256  34.5915305   6.7406610  65.7729962  33.9296962
   9.4571414  64.2539565  31.3486377   9.3785045  63.9199429  32.2422135
  10.2781081  64.7461333  31.3477850  12.1549605  57.1201304  44.5562696
  12.1225925  56.1817305  44.7422380  12.7650229  57.1985341  43.8228521
   3.9932936  55.9897357  30.5989900   4.9392041  55.8603566  30.6678318
   3.6147181  55.2512019  31.0759328  12.3044094  53.9112348  44.6020979
  11.7883142  53.1270805  44.4150908  13.1884042  53.5831064  44.7667499
   9.9654820  47.6553363  40.5616792   9.7679642  47.3468452  41.4460124
  10.5754526  48.3815002  40.6914722  17.9726155  58.1817311  43.6968733
  18.7029543  57.9202599  44.2576436  17.3633100  57.4446033  43.7370801
  16.0541452  56.3225174  44.2943184  15.3274616  56.1881139  43.6859676
  15.6388739  56.6302002  45.0999902   3.8771628  60.0415104  52.0590557
   4.7974638  60.2193703  52.2530604   3.8421211  59.0971149  51.9070256
   2.1775853  53.9147334  30.5344785   1.2707308  53.6180447  30.6107499
   2.4551834  53.6177152  29.6679071   3.7937919  48.4584224  36.6889027
   2.9838647  48.1131308  37.0644273   4.4822336  48.1491767  37.2776638
   5.7228467  47.5362270  38.3113323   6.2759506  47.9557724  38.9703346
   5.9598553  46.6098018  38.3536279   1.7461566  53.5249344  54.0916087
   1.6458293  54.4743701  54.0228178   1.5283108  53.1967583  53.2192157
   0.9474638  50.7734269  30.6756764   1.8093802  51.0989167  30.9352582
   1.1324982  49.9865765  30.1629830   9.1007274  49.6462795  37.8191987
   8.5205943  50.3047600  37.4370040   8.8343207  48.8240140  37.4079405
   7.5510841  49.0467853  40.0213308   8.0510619  49.1584388  39.2127627
   8.1946448  48.7428906  40.6614116   1.6092836  56.9546483  52.9081149
   1.1259918  57.7546843  53.1145038   1.6953775  56.9654428  51.9548593
   7.8832152  51.8062886  36.8748336   6.9958007  52.0912536  36.6568530
   8.2986141  51.6456649  36.0275613  11.2346688  51.8309407  40.5902675
  12.0107078  52.3205859  40.8627292  10.5094822  52.2567461  41.0474544
  13.6719247  52.5437026  41.6476616  14.2663738  52.3032762  40.9369924
  13.7445831  51.8244157  42.2750152   7.0275366  61.5707561  30.9696356
   7.7311216  61.7757563  31.5854011   6.3038014  62.1384322  31.2345439
   7.8573176  57.3217422  37.0898626   7.8008377  57.7785973  36.2506258
   8.4101518  56.5608106  36.9121469  11.6677982  53.1107154  37.9148745
  11.4114916  52.7103789  38.7456953  11.0430850  53.8250948  37.7898885
  15.9790320  55.8503227  40.4220037  15.4189878  55.9196416  41.1951599
  15.3733823  55.6744212  39.7019533   8.9362063  62.0090090  33.0194816
   9.7707667  61.5771288  32.8372291   8.7746406  61.8372103  33.9471710
   8.5907955  58.5122203  34.3851155   8.5356759  58.3466474  33.4439599
   7.9654011  59.2198236  34.5413345   5.9053862  60.8171115  53.7104718
   6.7745022  60.9911767  53.3491353   5.4260614  61.6365532  53.5880447
   1.9004081  48.0130312  33.9636473   1.8882751  48.9572152  34.1204744
   2.7927503  47.8300457  33.6695935   1.8293645  66.6899202  42.0504230
   0.8789276  66.6901064  41.9368602   2.1326131  65.9431937  41.5340265
   5.7156200  44.6073089  38.2182410   4.9488596  44.0531575  38.3639093
   6.1266905  44.6794957  39.0796562  17.5646338  72.5259741  43.1149992
  18.2024748  72.4066488  42.4113333  17.4467181  73.4740585  43.1737945
  14.3736044  72.4787169  43.0511517  14.0354556  72.3628234  42.1632052
  15.2425813  72.0778334  43.0312523  10.2322860  74.3322645  39.0408408
   9.6687725  74.2412582  38.2724696  10.1175255  73.5122550  39.5210901
  14.8555827  73.6322021  49.0097723  14.8444468  73.2374819  48.1378226
  15.0176467  72.8988093  49.6031494  12.5019295  73.7935981  44.5478266
  13.0982868  73.5692003  43.8335229  12.5594267  73.0520726  45.1503714
  12.0744324  71.2475416  32.3828457  12.3269844  70.7256938  31.6211920
  11.1368883  71.0841562  32.4855141  17.1187607  70.2511195  40.1903201
  17.9050696  69.8330618  39.8393618  17.3826311  71.1557287  40.3584849
  17.2897684  75.6884045  34.8891857  16.6543517  75.7618672  35.6012762
  16.9595090  76.2777644  34.2110937  22.5196034  70.1886428  41.0936179
  23.2521206  69.6185645  41.3274009  21.7635389  69.8008028  41.5342685
  11.7940613  73.1503522  34.5852832  11.6776871  72.4748426  35.2533917
  11.9042872  72.6635896  33.7684985  14.1372153  72.6113669  38.2899522
  13.7730361  72.0844290  39.0012443  14.9939269  72.2212138  38.1166007
  20.0421454  63.9008002  45.5530788  19.7104779  64.7703413  45.3292003
  19.4467067  63.5844286  46.2324818  13.7777640  67.6403569  33.2860870
  13.9452043  68.5083805  33.6531341  13.5874810  67.8030851  32.3622159
   9.9865455  72.5534345  40.9863405   9.0615952  72.4210559  41.1941097
  10.2349868  73.3328564  41.4833347  19.9350117  68.6203088  42.6324138
  19.0266995  68.5518497  42.3382899  19.8837713  69.0975033  43.4605963
  13.7566861  70.0961227  34.2707537  13.6366487  70.5418277  35.1093017
  13.0619450  70.4446544  33.7121075   7.3474266  72.1967618  41.8207194
   7.4766647  72.4502097  42.7346606   6.6671717  72.7895326  41.5011849
  14.0090983  70.0392734  50.5759035  13.2324317  70.5986654  50.5661900
  14.6481546  70.5249517  51.0973905  21.8011764  66.8219527  44.4102012
  21.1586144  67.1152060  43.7641806  21.2966692  66.7072447  45.2155208
  19.4551927  70.5682700  35.0987871  20.3669784  70.8010087  34.9235568
  18.9461575  71.1519744  34.5362949  12.2637356  72.8478187  50.1377002
  13.0052040  73.3863231  49.8611826  11.5574341  73.4744476  50.2948554
  17.7392695  74.9907328  48.7349163  18.1476051  74.5489738  47.9903796
  17.0169957  74.4159955  48.9883356  14.0923765  69.9279934  46.1082720
  14.9384960  70.3519348  46.2517369  14.0322403  69.2713559  46.8021284
  18.0621510  75.5508518  42.4901452  17.4330372  75.7154232  41.7877520
  17.6747172  75.9650128  43.2612416  21.9410742  76.4862956  39.8445816
  21.2561780  76.8661857  39.2942849  22.0254591  77.0958283  40.5777764
  17.2423211  67.5884303  47.7663894  16.9984142  68.3426363  47.2298170
  17.5183141  67.9669650  48.6011141  19.1961673  74.1322915  46.4441160
  19.4078569  74.7754675  45.7675541  19.1491422  73.2985232  45.9763090
  16.7987902  66.7440736  43.3477732  15.9372381  67.0421989  43.6394469
  16.8250337  66.9611135  42.4158764  13.6149472  75.2882926  39.7551537
  14.0787817  75.5670629  38.9656160  13.3506270  74.3866371  39.5724628
  12.5518358  71.4106079  36.5641103  13.2542401  71.8627122  37.0315029
  12.2198986  70.7689898  37.1920996  10.9998719  70.0017835  50.9392312
  10.3697380  70.6834116  51.1727709  10.8934807  69.8900917  49.9945450
   6.2943692  69.6689631  41.8658236   5.5042746  69.9247160  41.3898347
   6.7854939  70.4837969  41.9710277  20.3107501  77.0094871  44.6163517
  21.1324945  76.6075058  44.3346199  20.3069904  76.9063105  45.5679633
   8.2458437  70.0334211  38.8241713   7.4489600  70.1452905  39.3425209
   8.0184029  70.3720863  37.9582603   4.5781395  69.9220122  44.2973227
   4.8289433  70.8067132  44.5630803   5.1140943  69.7424723  43.5248319
  28.4013494  73.3533619  40.9648488  27.6477203  72.7841017  40.8092493
  28.5361036  73.3196283  41.9119123  10.2779462  64.3038601  53.3017563
   9.8846408  63.7504800  53.9765207  11.0945602  64.6149180  53.6924081
  13.1947423  65.7196480  50.8937820  13.9357136  66.3203633  50.8142282
  13.4265346  64.9774118  50.3355862   8.3388761  70.9052848  49.1716049
   8.2242276  70.0038105  49.4723148   7.4833279  71.1516544  48.8200866
  17.1404586  61.7477583  45.1702101  16.7968855  62.6379225  45.0941212
  17.5083549  61.5579241  44.3071686  17.1054869  71.7386194  33.6774536
  16.5901492  72.5090799  33.9162924  16.8332177  71.0651330  34.3007598
  14.6901980  66.5835895  38.7359775  13.8343576  66.1942745  38.5565413
  15.1028931  66.6627856  37.8759560  16.2201126  64.1182238  43.1351335
  15.7165922  64.0812373  42.3219140  16.5131733  65.0274981  43.1947991
  12.4644012  64.2020968  42.1417516  13.3297009  64.0063777  41.7823406
  12.5321521  63.9731320  43.0686873  22.0789143  74.4918549  35.6127710
  21.3018586  74.1529708  35.1682872  22.7580624  74.4971172  34.9382675
  16.8941172  69.6113286  35.5034318  16.5891307  69.9259436  36.3544461
  17.8471614  69.6894706  35.5461651  20.3180450  73.9652530  42.2694318
  19.6604124  74.6551792  42.3574446  21.1220849  74.3548962  42.6128304
  10.0706331  66.4323176  39.5133883  10.6450083  66.2098357  38.7807076
  10.6577314  66.5011870  40.2662484  19.1285908  72.3196903  40.3198260
  19.6417790  72.9526895  40.8219969  19.7787132  71.7198098  39.9541620
  10.3975918  68.4627637  33.5329768   9.5613231  68.8002324  33.8539043
  10.2580688  68.3276617  32.5956905  12.3728999  63.3064425  38.2408952
  11.7193411  62.9913442  37.6165567  12.3309473  62.6840165  38.9668775
  13.4840204  73.5883720  30.1562245  12.5767266  73.3572973  30.3553394
  13.9811236  72.7921339  30.3436226  15.6066739  69.7946358  42.5656600
  14.6889301  70.0161305  42.4078288  16.0226883  69.8692669  41.7068307
  16.3901787  71.1937774  37.6959280  17.1373606  71.7059171  37.3866402
  16.6593377  70.8721827  38.5563674  14.6628437  73.6896315  34.6786235
  13.7539657  73.4055348  34.7758704  14.6923521  74.1095393  33.8189542
  19.8947705  77.3002904  38.4477402  19.4410032  76.4593814  38.5042593
  19.2641671  77.9364303  38.7852182  18.8380624  68.2294890  39.6778070
  18.1003381  67.7172277  40.0088312  19.0907398  67.7895272  38.8661347
  18.9392252  61.0071142  40.2719839  19.2451128  60.1468506  39.9845754
  19.6644856  61.5988763  40.0718833   5.2316608  71.4101829  38.6601437
   5.0341007  70.8171190  37.9352503   4.6763272  71.1054039  39.3777376
  13.2113331  71.3024935  40.7796030  13.2661941  70.3498772  40.7038507
  12.4004533  71.4584375  41.2637328  14.3604525  75.2305058  32.0174313
  13.9223955  74.5140917  31.5579951  15.1014966  75.4581173  31.4559405
  11.1505691  69.9201995  38.5386409  10.3373557  70.2196166  38.9451601
  11.6464685  69.5257684  39.2560891  16.7479903  70.3843820  47.3701303
  17.1029291  70.6115293  48.2295769  17.3952034  70.7162196  46.7478558
  22.4777640  73.5062256  38.0750632  22.3395538  73.6963852  37.1471821
  22.1213859  74.2681638  38.5318683  10.6419766  67.4920351  44.1547644
  11.2819145  67.3509110  43.4570607   9.8097297  67.2054864  43.7786246
  22.5047019  75.5738783  43.0861903  22.9383526  75.4814072  43.9344957
  23.2178600  75.5496283  42.4481919   7.7262833  70.9365863  36.3442389
   6.7960421  70.8750318  36.5612351   7.8220305  70.4141816  35.5479030
   7.6448382  67.4620676  38.9320631   7.9055200  68.3766009  38.8229791
   8.4665555  66.9945118  39.0817243   9.1173308  68.8758433  46.1019455
   9.7896361  68.6675795  45.4532104   8.2903094  68.6780519  45.6624687
  23.3662569  75.6162483  45.6194789  23.5598459  76.5208294  45.8654064
  23.2663187  75.1569902  46.4533374  15.0198880  65.5020374  48.1185116
  14.3726795  66.2010323  48.0249592  15.7899895  65.9356518  48.4861364
  18.4277678  75.7669226  51.1935669  18.2763184  75.5379778  50.2765753
  18.4182357  76.7239827  51.2067014  15.1963014  73.3401139  46.1781936
  16.1255074  73.4912298  46.0050903  14.7754044  73.4285159  45.3230582
   9.5200805  72.1501036  46.8621892   9.3820603  71.4181275  47.4633431
  10.4305728  72.0609936  46.5806080  18.4815753  74.0889440  31.6106371
  17.8644923  73.3636268  31.5139424  18.0132241  74.8498800  31.2673445
  12.1483106  71.8620995  46.3505572  12.8582724  71.2214187  46.3092190
  12.1052414  72.1133890  47.2731753  10.8612040  68.8486213  48.1701211
  10.3249397  68.3976951  48.8222808  10.2728748  68.9832122  47.4271676
  10.2714299  68.3074864  30.7327675   9.3943765  68.1863665  30.3689922
  10.7472052  67.5160943  30.4806564  20.1387292  76.7627932  47.5026131
  19.2514070  76.4253854  47.6252530  20.7085843  76.0310964  47.7394896
   6.5951161  67.9842221  45.2554206   6.5109350  67.3767890  44.5204616
   5.7733867  68.4751239  45.2563702  16.7674875  66.4695784  40.6224401
  17.2643574  65.7165747  40.3025471  15.9961856  66.5060101  40.0567610
  24.6204632  72.1736150  42.2642693  24.6094508  73.0560865  41.8936626
  23.7522012  71.8207701  42.0697230  17.8504655  75.2267471  38.1962824
  16.9160934  75.3468934  38.0267529  18.0281324  74.3239938  37.9322834
  13.3509844  68.6113167  40.3496086  12.9807631  68.0584208  41.0376991
  13.8468936  68.0071301  39.7971086  21.2377207  71.0684791  38.7312859
  21.7037659  71.9012782  38.6573161  21.6884707  70.6029772  39.4358117
  19.3053438  77.4128612  35.7299011  19.5813282  77.2985207  36.6392885
  18.4357937  77.0146097  35.6911184  19.2093870  63.4365378  42.7703760
  18.2956949  63.6669605  42.9385967  19.6386971  63.5203822  43.6217792
  18.9800328  71.6255270  45.2703654  18.3271778  71.8731177  44.6156107
  19.3580708  70.8119408  44.9366131  15.0287901  72.3675081  51.7569691
  14.3528538  72.2669210  52.4272066  15.8515535  72.2114295  52.2205688
   1.3684415  71.1752618  43.0986649   1.4068514  70.6416208  43.8923767
   0.8624708  70.6487823  42.4797627   8.7475177  66.0217158  46.5949192
   8.8116504  66.8831989  46.1826589   8.6842297  65.4091160  45.8621550
   8.2227450  68.0940291  50.2422226   8.8499489  67.7117368  50.8559750
   7.3655369  67.8754493  50.6077918   4.9992992  69.9016720  36.1740581
   5.2946434  68.9927398  36.1207634   4.0981028  69.8804459  35.8521583
   8.5287239  67.9772716  42.1568129   7.8073825  68.5908684  42.0175603
   9.3180495  68.5130481  42.0784775  11.3313553  65.3127143  48.4308781
  11.8547955  65.5589439  49.1935090  11.1125886  66.1447178  48.0111918
   6.7280834  67.5830817  36.2979906   6.3993540  66.7028196  36.1155012
   7.0820205  67.5278486  37.1856295   9.8422657  67.8703787  36.6655384
  10.1818730  68.3989708  35.9433992  10.2894778  68.2084193  37.4413950
  12.5366098  66.2540838  46.1158452  12.1962918  65.4548651  46.5179132
  11.8305104  66.5542549  45.5435285  13.1882570  63.3390150  44.5685775
  14.0108639  62.8650628  44.4464665  13.4320633  64.1180634  45.0684461
  11.8290804  66.3678409  34.8648676  12.5499167  66.7459662  34.3612393
  11.2056108  67.0867286  34.9683654  15.9721927  67.0723558  35.8007009
  16.1885542  67.9548196  35.4995837  15.4915994  66.6809771  35.0712651
  10.7121149  70.0309271  42.3777753  10.5665729  70.3449574  43.2702035
  10.2346352  70.6494171  41.8248652  12.5717531  67.0211819  42.4258643
  12.5579100  66.1252912  42.0890941  13.2889960  67.0282483  43.0596929
  14.4243662  67.4549159  44.4711770  14.1661440  68.3766230  44.4696101
  13.8928703  67.0579594  45.1612234  11.9754427  65.9026199  37.6946213
  12.0970339  64.9742845  37.8937100  11.6856470  65.9164885  36.7824528
  14.8445618  63.5881110  40.8312933  14.8667315  63.6520443  39.8764912
  15.2613677  62.7485618  41.0253439  25.2229242  73.3236369  38.8692155
  25.6660388  72.5743694  38.4711279  24.3455752  73.3146506  38.4865887
   5.9732833  71.6984512  48.2095571   5.2314569  71.8467147  48.7960202
   5.6525577  71.9592777  47.3462321  22.2556447  77.3266416  35.8786085
  22.7807771  77.6653689  35.1535405  22.1678799  76.3913432  35.6949219
  11.4595507  67.4158197  51.9036146  11.5083662  68.2920319  51.5213915
  12.0018021  66.8735590  51.3307789  21.9450353  77.9599320  51.1837283
  21.1545896  77.9423459  50.6441782  21.7083707  78.4987614  51.9386319
  22.0648228  74.8091786  48.4970011  22.1146233  74.6441794  49.4385534
  21.9562151  73.9419045  48.1067892  19.3551990  70.7922714  49.8129318
  20.2561853  70.6529179  49.5213316  19.4299965  70.9577169  50.7527495
  13.6894795  68.1689569  48.6582504  12.8198105  68.4623135  48.3865093
  13.9254276  68.7530014  49.3789768  23.5666425  77.2288728  48.7412033
  23.2751233  77.5918708  49.5775494  22.9538556  76.5155736  48.5625365
  24.7662107  74.7941607  41.2614603  25.6008998  75.2331412  41.4252163
  24.9021236  74.3180261  40.4422849  21.8153613  72.3521342  47.2092091
  22.2907734  72.5448989  46.4010942  20.8919178  72.4080528  46.9635474
   8.7037119  73.5145510  36.7923169   8.4583161  72.6107840  36.9903379
   8.8733034  73.5162660  35.8502647  16.3933829  64.3869186  46.1747925
  16.9115773  65.1230213  45.8494413  16.0388962  64.6933179  47.0094684
   7.9732767  69.2473867  34.2909330   7.2802012  69.3218222  33.6349366
   7.7284519  68.4834211  34.8130847  16.6446423  60.8069468  41.6948821
  16.9248177  60.1392657  42.3209248  17.4297030  60.9998564  41.1823485
  20.5155282  69.2287102  45.4420396  21.4672705  69.3285200  45.4632620
  20.3458732  68.4365371  45.9518481  18.5369661  66.3142686  45.6279797
  17.9419593  66.5947698  44.9326286  18.2519358  66.8036587  46.3996538
  22.9943360  72.4493222  44.5562696  22.9619680  71.5109223  44.7422380
  23.6043983  72.5277259  43.8228521  14.8326690  71.3189275  30.5989900
  15.7785795  71.1895483  30.6678318  14.4540935  70.5803937  31.0759328
  23.1437848  69.2404266  44.6020979  22.6276897  68.4562722  44.4150908
  24.0277797  68.9122982  44.7667499  20.8048575  62.9845281  40.5616792
  20.6073396  62.6760369  41.4460124  21.4148281  63.7106920  40.6914722
  28.8119909  73.5109229  43.6968733  29.5423298  73.2494517  44.2576436
  28.2026855  72.7737951  43.7370801  26.8935207  71.6517092  44.2943184
  26.1668370  71.5173056  43.6859676  26.4782493  71.9593920  45.0999902
  14.7165383  75.3707021  52.0590557  15.6368392  75.5485620  52.2530604
  14.6814966  74.4263067  51.9070256  13.0169608  69.2439251  30.5344785
  12.1101063  68.9472364  30.6107499  13.2945589  68.9469070  29.6679071
   3.9347548  70.5645615  40.9843832   3.6150332  69.7110923  40.6918206
   3.3880976  70.7794193  41.7401799  14.6331673  63.7876141  36.6889027
  13.8232402  63.4423226  37.0644273  15.3216090  63.4783685  37.2776638
  16.5622222  62.8654188  38.3113323  17.1153260  63.2849641  38.9703346
  16.7992308  61.9389936  38.3536279  12.5855321  68.8541262  54.0916087
  12.4852048  69.8035619  54.0228178  12.3676863  68.5259501  53.2192157
  11.7868392  66.1026187  30.6756764  12.6487556  66.4281085  30.9352582
  11.9718736  65.3157683  30.1629830  19.9401029  64.9754713  37.8191987
  19.3599698  65.6339517  37.4370040  19.6736961  64.1532058  37.4079405
  18.3904595  64.3759771  40.0213308  18.8904373  64.4876305  39.2127627
  19.0340203  64.0720824  40.6614116  12.4486591  72.2838400  52.9081149
  11.9653673  73.0838761  53.1145038  12.5347530  72.2946345  51.9548593
  18.7225907  67.1354804  36.8748336  17.8351762  67.4204454  36.6568530
  19.1379896  66.9748567  36.0275613  22.0740443  67.1601325  40.5902675
  22.8500833  67.6497777  40.8627292  21.3488577  67.5859379  41.0474544
  24.5113001  67.8728944  41.6476616  25.1057492  67.6324680  40.9369924
  24.5839585  67.1536074  42.2750152  18.6966930  72.6509339  37.0898626
  18.6402132  73.1077891  36.2506258  19.2495273  71.8900024  36.9121469
  22.5071736  68.4399071  37.9148745  22.2508671  68.0395707  38.7456953
  21.8824604  69.1542865  37.7898885  26.8184074  71.1795145  40.4220037
  26.2583632  71.2488334  41.1951599  26.2127578  71.0036129  39.7019533
  19.7755818  77.3382007  33.0194816  20.6101421  76.9063206  32.8372291
  19.6140160  77.1664021  33.9471710  19.4301710  73.8414121  34.3851155
  19.3750514  73.6758392  33.4439599  18.8047765  74.5490154  34.5413345
   4.2194225  69.0782185  48.2112577   4.8653088  68.5681139  48.6999802
   4.0111376  69.8150867  48.7856003  16.7447617  76.1463033  53.7104718
  17.6138777  76.3203685  53.3491353  16.2654368  76.9657449  53.5880447
  12.7397835  63.3422230  33.9636473  12.7276505  64.2864070  34.1204744
  13.6321257  63.1592375  33.6695935  16.5549955  59.9365006  38.2182410
  15.7882350  59.3823493  38.3639093  16.9660660  60.0086875  39.0796562
   8.5591716  66.2249802  52.3087591   9.4223177  65.8686607  52.5190916
   7.9857126  65.8863697  52.9962996  30.8815209  79.2299920  45.5530788
  30.5498533  80.0995331  45.3292003  30.2860822  78.9136204  46.2324818
  32.6405518  82.1511444  44.4102012  31.9979899  82.4443977  43.7641806
  32.1360447  82.0364365  45.2155208  27.9798340  77.0769501  45.1702101
  27.6362610  77.9671143  45.0941212  28.3477303  76.8871158  44.3071686
  27.0594881  79.4474156  43.1351335  26.5559676  79.4104291  42.3219140
  27.3525488  80.3566899  43.1947991  23.2122753  78.6356343  38.2408952
  22.5587166  78.3205360  37.6165567  23.1703228  78.0132083  38.9668775
  29.7786006  76.3363060  40.2719839  30.0844883  75.4760423  39.9845754
  30.5038611  76.9280680  40.0718833  30.0487624  78.7657295  42.7703760
  29.1350704  78.9961522  42.9385967  30.4780725  78.8495740  43.6217792
  24.0276324  78.6682068  44.5685775  24.8502394  78.1942546  44.4464665
  24.2714388  79.4472552  45.0684461  25.6839372  78.9173027  40.8312933
  25.7061069  78.9812360  39.8764912  26.1007431  78.0777536  41.0253439
  27.2327584  79.7161104  46.1747925  27.7509528  80.4522131  45.8494413
  26.8782716  80.0225097  47.0094684  27.4840178  76.1361386  41.6948821
  27.7641932  75.4684575  42.3209248  28.2690785  76.3290482  41.1823485
  31.6442329  78.3137199  40.5616792  31.4467151  78.0052287  41.4460124
  32.2542035  79.0398838  40.6914722  25.4725428  79.1168059  36.6889027
  24.6626156  78.7715144  37.0644273  26.1609845  78.8075603  37.2776638
  27.4015976  78.1946106  38.3113323  27.9547015  78.6141559  38.9703346
  27.6386062  77.2681854  38.3536279  30.7794783  80.3046631  37.8191987
  30.1993452  80.9631435  37.4370040  30.5130716  79.4823975  37.4079405
  29.2298350  79.7051689  40.0213308  29.7298128  79.8168223  39.2127627
  29.8733957  79.4012741  40.6614116  35.3506756  83.2020861  41.6476616
  35.9451247  82.9616597  40.9369924  35.4233340  82.4827992  42.2750152
  27.3943709  75.2656924  38.2182410  26.6276105  74.7115411  38.3639093
  27.8054414  75.3378793  39.0796562   6.7225987  19.7011906  27.6893795
   5.9689695  19.1319304  27.5337800   6.8573528  19.6674571  28.6364430
   0.7990132  19.8540543  24.7995938   0.6608031  20.0442139  23.8717128
   0.4426351  20.6159926  25.2563990   0.8259512  21.9217070  29.8107210
   1.2596018  21.8292359  30.6590264   1.5391092  21.8974570  29.1727226
   1.6875061  21.9640770  32.3440095   1.8810951  22.8686581  32.5899370
   1.5875679  21.5048190  33.1778680   2.9417124  18.5214437  28.9887999
   2.9307001  19.4039152  28.6181932   2.0734504  18.1685988  28.7942536
   3.5441734  19.6714656  25.5937462   3.9872880  18.9221982  25.1956585
   2.6668245  19.6624793  25.2111194   0.5768939  23.6744703  22.6031391
   1.1020263  24.0131976  21.8780711   0.4891291  22.7391719  22.4194526
   0.3860720  21.1570073  35.2215318   0.4358725  20.9920081  36.1630841
   0.2774643  20.2897332  34.8313199   1.8878917  23.5767015  35.4657339
   1.5963725  23.9396996  36.3020800   1.2751048  22.8634023  35.2870671
   3.0874599  21.1419895  27.9859910   3.9221490  21.5809699  28.1497470
   3.2233728  20.6658548  27.1668155   1.3155852  18.7971509  31.2808003
   1.2832172  17.8587510  31.4667686   1.9256475  18.8755546  30.5473827
   1.4650340  15.5882553  31.3266286   0.9489389  14.8041009  31.1396215
   2.3490289  15.2601269  31.4912805   7.1332402  19.8587516  30.4214039
   7.8635790  19.5972804  30.9821743   6.5239347  19.1216238  30.4616107
   5.2147699  17.9995379  31.0188491   4.4880862  17.8651344  30.4104982
   4.7994986  18.3072207  31.8245209   2.8325494  14.2207231  28.3721922
   3.4269985  13.9802967  27.6615230   2.9052077  13.5014362  28.9995458
   5.1396566  17.5273432  27.1465343   4.5796124  17.5966621  27.9196905
   4.5340070  17.3514416  26.4264840   6.7252585  34.2029946  29.8395299
   7.3630995  34.0836693  29.1358639   6.6073428  35.1510790  29.8983251
   3.5342291  34.1557374  29.7756824   3.1960803  34.0398439  28.8877359
   4.4032059  33.7548539  29.7557830   4.0162074  35.3092226  35.7343029
   4.0050715  34.9145024  34.8623533   4.1782714  34.5758298  36.3276801
   4.9728666  39.6763818  21.0768180   4.3216645  40.2617898  20.6902193
   5.7673028  40.2070013  21.1363217   0.7369335  38.0929337  34.6822213
   0.4459201  38.9974968  34.5668880   1.3726320  38.1345865  35.3966283
   1.6625542  35.4706186  31.2723573   2.2589114  35.2462208  30.5580536
   1.7200514  34.7290931  31.8749021   1.2350571  32.9245621  19.1073764
   1.4876091  32.4027143  18.3457227   0.2975130  32.7611767  19.2100448
   6.2793853  31.9281400  26.9148507   7.0656943  31.5100823  26.5638924
   6.5432558  32.8327492  27.0830156   6.4503931  37.3654250  21.6137164
   5.8149764  37.4388876  22.3258069   6.1201337  37.9547849  20.9356243
  11.6802281  31.8656633  27.8181486  12.4127452  31.2955850  28.0519315
  10.9241636  31.4778233  28.2587991   0.9546859  34.8273727  21.3098139
   0.8383117  34.1518631  21.9779223   1.0649119  34.3406101  20.4930292
   3.2978400  34.2883874  25.0144828   2.9336607  33.7614495  25.7257750
   4.1545516  33.8982343  24.8411314   9.2027701  25.5778207  32.2776094
   8.8711026  26.4473618  32.0537309   8.6073314  25.2614491  32.9570125
   2.9383887  29.3173774  20.0106177   3.1058290  30.1854010  20.3776648
   2.7481056  29.4801056  19.0867466   5.6959220  37.7790753  31.6772007
   5.3959943  38.6815792  31.5687814   5.3510280  37.5122936  32.5293160
   9.0956364  30.2973293  29.3569444   8.1873242  30.2288702  29.0628205
   9.0443960  30.7745238  30.1851270   2.9173108  31.7731432  20.9952843
   2.7972733  32.2188482  21.8338324   2.2225696  32.1216749  20.4366382
   3.1697230  31.7162939  37.3004342   2.3930564  32.2756859  37.2907206
   3.8087793  32.2019722  37.8219212  10.9618011  28.4989731  31.1347318
  10.3192391  28.7922265  30.4887113  10.4572939  28.3842652  31.9400515
   8.6158174  32.2452905  21.8233178   9.5276030  32.4780291  21.6480875
   8.1067821  32.8289949  21.2608256   1.4243602  34.5248392  36.8622309
   2.1658287  35.0633436  36.5857132   0.7180588  35.1514681  37.0193860
   6.8998942  36.6677533  35.4594470   7.3082298  36.2259943  34.7149102
   6.1776203  36.0930160  35.7128663   3.2530012  31.6050139  32.8328027
   4.0991207  32.0289553  32.9762676   3.1928650  30.9483764  33.5266590
   7.2227757  37.2278723  29.2146759   6.5936619  37.3924437  28.5122827
   6.8353419  37.6420333  29.9857723  11.1016988  38.1633161  26.5691123
  10.4168027  38.5432062  26.0188156  11.1860838  38.7728488  27.3023071
   6.4029457  29.2654508  34.4909201   6.1590389  30.0196568  33.9543476
   6.6789388  29.6439855  35.3256448   8.3567920  35.8093120  33.1686466
   8.5684815  36.4524880  32.4920847   8.3097668  34.9755437  32.7008396
   5.9594149  28.4210941  30.0723038   5.0978628  28.7192194  30.3639776
   5.9856584  28.6381340  29.1404071   2.7755718  36.9653131  26.4796844
   3.2394064  37.2440834  25.6901467   2.5112517  36.0636576  26.2969935
   1.7124605  33.0876284  23.2886409   2.4148648  33.5397327  23.7560336
   1.3805233  32.4460102  23.9166302   9.4713748  38.6865075  31.3408824
  10.2931192  38.2845263  31.0591505   9.4676151  38.5833310  32.2924939
   3.2370351  38.2349119  33.4969534   3.3014784  38.6969526  34.3327706
   2.5281275  37.6046484  33.6251844  17.5619741  35.0303824  27.6893795
  16.8083449  34.4611222  27.5337800  17.6967282  34.9966488  28.6364430
   2.9518369  39.9017226  23.3648514   2.8164044  40.7468762  23.7933362
   3.4928182  40.1036504  22.6014448   2.3553670  27.3966685  37.6183126
   3.0963383  27.9973838  37.5387589   2.5871593  26.6544323  37.0601169
   4.5786846  40.5240793  37.4948857   4.1350700  39.7377171  37.1769761
   5.2404059  40.7119943  36.8292747   6.6768084  40.8043593  35.5230258
   6.6586559  41.6252474  35.0310527   7.5988004  40.6797668  35.7480399
   3.1341138  38.3187722  36.3653766   3.6669475  37.5576010  36.1353074
   2.6055219  38.0261374  37.1077921   6.3010833  23.4247788  31.8947408
   5.9575102  24.3149430  31.8186518   6.6689795  23.2349446  31.0316993
   6.2661115  33.4156399  20.4019843   5.7507739  34.1861004  20.6408230
   5.9938424  32.7421535  21.0252904   3.8508226  28.2606100  25.4605081
   2.9949823  27.8712950  25.2810720   4.2635178  28.3398061  24.6004867
   5.3807373  25.7952443  29.8596641   4.8772169  25.7582578  29.0464446
   5.6737980  26.7045186  29.9193298   1.6250259  25.8791173  28.8662823
   2.4903256  25.6833982  28.5068712   1.6927768  25.6501525  29.7932180
  11.2395390  36.1688754  22.3373016  10.4624832  35.8299913  21.8928179
  11.9186871  36.1741377  21.6627982   6.0547419  31.2883491  22.2279624
   5.7497554  31.6029640  23.0789767   7.0077861  31.3664911  22.2706957
   4.4993850  37.4473715  23.8772578   3.9715212  36.7126474  23.5645816
   3.9981353  38.2248391  23.6312547   9.4786696  35.6422735  28.9939624
   8.8210371  36.3321996  29.0819753  10.2827096  36.0319167  29.3373611
   8.2892155  33.9967108  27.0443566   8.8024037  34.6297100  27.5465276
   8.9393379  33.3968303  26.6786926   1.5335246  24.9834630  24.9654259
   0.8799658  24.6683647  24.3410874   1.4915720  24.3610370  25.6914082
   2.6446451  35.2653925  16.8807551   1.7373512  35.0343178  17.0798700
   3.1417483  34.4691544  17.0681533   5.5514529  43.9751432  19.8004237
   4.8776228  44.2783129  20.4089195   5.9380351  44.7780512  19.4509694
   4.7672986  31.4716563  29.2901907   3.8495547  31.6931510  29.1323595
   5.1833130  31.5462874  28.4313614   5.5508034  32.8707979  24.4204587
   6.2979853  33.3829376  24.1111709   5.8199623  32.5492032  25.2808981
   3.8234684  35.3666520  21.4031541   2.9145903  35.0825553  21.5004011
   3.8529768  35.7865598  20.5434848   9.0553951  38.9773109  25.1722709
   8.6016279  38.1364019  25.2287899   8.4247918  39.6134508  25.5097489
   7.9986871  29.9065095  26.4023376   7.2609628  29.3942481  26.7333619
   8.2513645  29.4665477  25.5906653   7.4986891  40.8149606  26.1072527
   7.7909865  41.3754663  25.3884893   8.0085511  41.1078167  26.8625686
   8.0998498  22.6841347  26.9965146   8.4057375  21.8238711  26.7091061
   8.8251103  23.2758967  26.7964139   2.3719578  32.9795140  27.5041337
   2.4268188  32.0268977  27.4283813   1.5610780  33.1354579  27.9882635
   3.5210772  36.9075263  18.7419620   3.0830202  36.1911122  18.2825257
   4.2621213  37.1351378  18.1804711   2.4620516  41.5929957  27.1965980
   2.4196695  41.8190803  26.2674512   3.3783215  41.3593332  27.3451781
   5.9086150  32.0614025  34.0946609   6.2635537  32.2885498  34.9541075
   6.5558281  32.3932401  33.4723865  11.6383887  35.1832460  24.7995938
  11.5001785  35.3734056  23.8717128  11.2820105  35.9451843  25.2563990
  11.6653266  37.2508987  29.8107210  12.0989773  37.1584277  30.6590264
  12.3784847  37.2266488  29.1727226   5.3981161  40.8511082  31.3440311
   5.4518183  41.4202018  32.1118026   4.5295943  41.0212967  30.9794348
  12.5268816  37.2932688  32.3440095  12.7204706  38.1978499  32.5899370
  12.4269434  36.8340107  33.1778680   4.1805127  27.1790579  34.8430423
   3.5333042  27.8780528  34.7494899   4.9506142  27.6126723  35.2106671
   7.5883924  37.4439431  37.9180976   7.4369431  37.2149983  37.0011060
   7.5788604  38.4010032  37.9312321   4.3569261  35.0171344  32.9027242
   5.2861321  35.1682503  32.7296210   3.9360291  35.1055364  32.0475889
   3.1557593  39.0422008  30.6725780   3.0168678  38.6740792  31.5451718
   2.3672189  39.5569647  30.5009738   3.7505745  44.1431104  22.0151317
   3.9257500  43.6719148  22.8296939   3.0638533  44.7696871  22.2432577
   4.7062808  38.4203611  28.0614618   4.3712640  38.3804381  28.9572268
   4.2066753  37.7548327  27.5885028   7.6421999  35.7659645  18.3351677
   7.0251170  35.0406473  18.2384730   7.1738488  36.5269005  17.9918752
   1.3089352  33.5391200  33.0750879   2.0188971  32.8984392  33.0337497
   1.2658661  33.7904095  33.9977059   9.2976131  40.4758553  35.9957458
   9.2388677  39.7917774  35.3288041   9.6995650  41.2177543  35.5438084
   9.2993538  38.4398137  34.2271437   8.4120317  38.1024059  34.3497836
   9.8692089  37.7081169  34.4640203   2.8294692  43.0999590  31.1932681
   2.7564863  43.9054561  31.7051985   2.3872085  43.2991556  30.3680702
   2.6184471  42.3371360  24.7035502   1.8351993  42.8793040  24.7973727
   3.3177217  42.8545339  25.1029743   5.9281122  28.1465989  27.3469708
   6.4249821  27.3935952  27.0270778   5.1568103  28.1830306  26.7812917
  13.7810879  33.8506355  28.9887999  13.7700755  34.7331070  28.6181932
  12.9128258  33.4977906  28.7942536   5.2893375  42.9986424  33.3490839
   6.0021348  43.6333889  33.2766741   4.7983404  43.0950290  32.5330841
   7.0110902  36.9037676  24.9208131   6.0767181  37.0239139  24.7512835
   7.1887571  36.0010143  24.6568141   2.5116090  30.2883372  27.0741392
   2.1413878  29.7354413  27.7622298   3.0075183  29.6841506  26.5216392
  10.3983454  32.7454996  25.4558165  10.8643906  33.5782987  25.3818468
  10.8490954  32.2799977  26.1603424   8.4659685  39.0898817  22.4544317
   8.7419529  38.9755412  23.3638191   7.5964183  38.6916302  22.4156490
   8.3700116  25.1135583  29.4949067   7.4563196  25.3439810  29.6631273
   8.7993218  25.1974027  30.3463099   8.1406575  33.3025475  31.9948961
   7.4878025  33.5501382  31.3401413   8.5186955  32.4889613  31.6611438
   5.1013749  43.3385168  26.0977131   5.2836143  42.5206824  26.5604883
   5.9246735  43.5552860  25.6602021   5.4355914  42.2653353  23.3592179
   5.9643681  41.7545808  22.7462341   5.6984134  41.9495883  24.2237712
   4.1894148  34.0445286  38.4814998   3.5134785  33.9439415  39.1517373
   5.0121782  33.8884499  38.9450995   2.9316931  45.3512213  32.7172614
   3.4835239  45.5143835  33.4821699   3.2723124  45.9416651  32.0452638
   7.7827805  40.1773471  38.5721268   8.3267709  40.7903429  38.0776223
   7.2014650  40.7353049  39.0888281   6.0685318  43.2994189  29.7036296
   5.9436457  42.4983929  29.1947241   6.7264409  43.7940382  29.2150266
   8.1320226  41.1003209  31.3315846   7.1850562  40.9808560  31.2594173
   8.4802999  40.2125707  31.4142107   0.4919800  26.9897348  35.1554088
   1.0154202  27.2359644  35.9180397   0.2732133  27.8217382  34.7357225
   5.1366660  40.8955925  27.5320198   4.9891622  39.9672632  27.7127768
   5.9620153  40.9176016  27.0477273   8.7400782  41.7184484  28.6185071
   9.6647329  41.5127345  28.4809522   8.5716085  41.4700885  29.5274412
   1.6972345  27.9311043  32.8403758   1.3569165  27.1318856  33.2424438
   0.9911351  28.2312754  32.2680591   2.3488817  25.0160355  31.2931081
   3.1714886  24.5420833  31.1709972   2.5926880  25.7950839  31.7929768
   0.9897051  28.0448614  21.5893983   1.7105414  28.4229866  21.0857700
   0.3662355  28.7637490  21.6928961   5.1328174  28.7493763  22.5252315
   5.3491788  29.6318401  22.2241143   4.6522241  28.3579976  21.7957957
   1.7323778  28.6982024  29.1503949   1.7185347  27.8023117  28.8136247
   2.4496206  28.7052688  29.7842236   3.5849909  29.1319364  31.1957077
   3.3267687  30.0536435  31.1941407   3.0534949  28.7349799  31.8857541
   8.5296098  42.2370151  23.9747162   8.7032975  41.6716574  23.2221015
   9.0224989  43.0371046  23.7926652   1.1360674  27.5796404  24.4191520
   1.2576585  26.6513050  24.6182407   0.8462717  27.5935090  23.5069835
   4.0051865  25.2651315  27.5558239   4.0273561  25.3290648  26.6010219
   4.4219924  24.4255823  27.7498746  14.3835489  35.0006574  25.5937462
  14.8266635  34.2513899  25.1956585  13.5061999  34.9916710  25.2111194
   9.5171270  41.5536916  21.0744061  10.2122175  42.1743608  21.2931375
   9.8594420  40.7032267  21.3496438  11.4162693  39.0036621  22.6031391
  11.9414017  39.3423894  21.8780711  11.3285046  38.0683636  22.4194526
   3.0782742  42.9170695  34.7321268   3.3869868  42.6719842  35.6043968
   3.8758224  43.1217333  34.2440138   3.1003354  45.0708604  26.9626645
   2.6608344  44.5784983  27.6559501   3.8511471  44.5281572  26.7218720
   0.6201754  29.0928401  38.6281452   0.6689909  29.9690524  38.2459222
   1.1624268  28.5505795  38.0553095  11.1056599  39.6369525  37.9082589
  10.3152143  39.6193664  37.3687089  10.8689954  40.1757818  38.6631626
  11.2254474  36.4861991  35.2215318  11.2752479  36.3211999  36.1630841
  11.1168398  35.6189250  34.8313199   8.5158237  32.4692919  36.5374625
   9.4168100  32.3299384  36.2458622   8.5906211  32.6347374  37.4772802
   2.8501042  29.8459774  35.3827811   1.9804352  30.1393340  35.1110399
   3.0860523  30.4300219  36.1035075  13.9268354  36.4711812  27.9859910
  14.7615245  36.9101616  28.1497470  14.0627482  35.9950466  27.1668155
  10.9759860  34.0291547  33.9337397  11.4513981  34.2219194  33.1256249
  10.0525425  34.0850733  33.6880781   5.5540076  26.0639391  32.8993231
   6.0722020  26.8000418  32.5739720   5.1995209  26.3703384  33.7339990
   5.8052670  22.4839673  28.4194128   6.0854424  21.8162862  29.0454554
   6.5903277  22.6768769  27.9068792   3.6086139  41.6598667  19.9819154
   3.0360106  42.2788854  19.5289626   4.1818932  42.2098029  20.5159076
   9.6761529  30.9057307  32.1665703  10.6278951  31.0055405  32.1877927
   9.5064979  30.1135576  32.6763787   7.6975908  27.9912891  32.3525104
   7.1025840  28.2717903  31.6571593   7.4125605  28.4806791  33.1241845
   6.8283398  41.9435817  21.1127736   7.7614072  41.8781379  21.3160612
   6.7406611  42.7792084  20.6542269   9.4571415  41.2601688  18.0731684
   9.3785047  40.9261551  18.9667442  10.2781082  41.7523456  18.0723156
  12.1549606  34.1263427  31.2808003  12.1225926  33.1879428  31.4667686
  12.7650230  34.2047464  30.5473827   3.9932937  32.9959480  17.3235207
   4.9392042  32.8665688  17.3923625   3.6147182  32.2574142  17.8004635
  12.3044095  30.9174470  31.3266286  11.7883143  30.1332927  31.1396215
  13.1884043  30.5893187  31.4912805   9.9654822  24.6615486  27.2862098
   9.7679643  24.3530574  28.1705430  10.5754527  25.3877125  27.4160028
  17.9726156  35.1879434  30.4214039  18.7029545  34.9264722  30.9821743
  17.3633102  34.4508156  30.4616107  16.0541453  33.3287296  31.0188491
  15.3274617  33.1943261  30.4104982  15.6388740  33.6364125  31.8245209
   3.8771630  37.0477226  38.7835864   4.7974639  37.2255825  38.9775910
   3.8421213  36.1033271  38.6315563   2.1775854  30.9209456  17.2590092
   1.2707310  30.6242569  17.3352805   2.4551835  30.6239274  16.3924378
   3.7937920  25.4646346  23.4134333   2.9838648  25.1193431  23.7889579
   4.4822337  25.1553890  24.0021945   5.7228468  24.5424393  25.0358630
   6.2759507  24.9619846  25.6948653   5.9598555  23.6160141  25.0781586
   1.7461568  30.5311467  40.8161394   1.6458294  31.4805824  40.7473485
   1.5283110  30.2029705  39.9437464   0.9474639  27.7796392  17.4002071
   1.8093803  28.1051290  17.6597888   1.1324983  26.9927888  16.8875137
   9.1007275  26.6524918  24.5437294   8.5205944  27.3109722  24.1615346
   8.8343208  25.8302263  24.1324712   7.5510842  26.0529976  26.7458614
   8.0510620  26.1646510  25.9372933   8.1946450  25.7491029  27.3859423
   1.6092838  33.9608605  39.6326455   1.1259919  34.7608966  39.8390344
   1.6953777  33.9716550  38.6793899   7.8832153  28.8125008  23.5993642
   6.9958008  29.0974659  23.3813837   8.2986143  28.6518772  22.7520919
  11.2346690  28.8371529  27.3147982  12.0107080  29.3267982  27.5872598
  10.5094824  29.2629584  27.7719851  13.6719248  29.5499149  28.3721922
  14.2663739  29.3094885  27.6615230  13.7445832  28.8306279  28.9995458
   7.0275367  38.5769683  17.6941662   7.7311217  38.7819686  18.3099318
   6.3038016  39.1446445  17.9590746   7.8573177  34.3279544  23.8143932
   7.8008379  34.7848096  22.9751565   8.4101520  33.5670229  23.6366775
  11.6677983  30.1169276  24.6394052  11.4114917  29.7165912  25.4702260
  11.0430851  30.8313070  24.5144191  15.9790321  32.8565349  27.1465343
  15.4189879  32.9258539  27.9196905  15.3733824  32.6806334  26.4264840
   8.9362064  39.0152212  19.7440122   9.7707668  38.5833411  19.5617597
   8.7746407  38.8434226  20.6717017   8.5907956  35.5184326  21.1096462
   8.5356760  35.3528597  20.1684906   7.9654012  36.2260359  21.2658651
   5.9053864  37.8233237  40.4350024   6.7745023  37.9973890  40.0736659
   5.4260615  38.6427654  40.3125754   1.9004082  25.0192435  20.6881780
   1.8882752  25.9634275  20.8450051   2.7927504  24.8362580  20.3941241
   1.8293646  43.6961325  28.7749537   0.8789277  43.6963187  28.6613909
   2.1326132  42.9494060  28.2585571   5.7156201  21.6135211  24.9427717
   4.9488597  21.0593698  25.0884399   6.1266906  21.6857080  25.8041868
  17.5646339  49.5321863  29.8395299  18.2024749  49.4128611  29.1358639
  17.4467182  50.4802707  29.8983251  14.3736046  49.4849292  29.7756824
  14.0354557  49.3690356  28.8877359  15.2425814  49.0840457  29.7557830
  10.2322861  51.3384768  25.7653715   9.6687727  51.2474705  24.9970003
  10.1175256  50.5184672  26.2456207  14.8555829  50.6384143  35.7343029
  14.8444469  50.2436942  34.8623533  15.0176468  49.9050216  36.3276801
   7.7787293  52.8335960  28.6037935   8.5708585  52.4926784  28.1884235
   8.0183943  52.9430935  29.5240089  15.8122420  55.0055736  21.0768180
  15.1610400  55.5909816  20.6902193  16.6066783  55.5361931  21.1363217
   9.7378047  52.0944873  21.4755314  10.5108923  51.5473860  21.3368190
  10.0903446  52.9589122  21.6869775  11.5763090  53.4221255  34.6822213
  11.2852956  54.3266886  34.5668880  12.2120074  53.4637783  35.3966283
  12.5019297  50.7998104  31.2723573  13.0982869  50.5754126  30.5580536
  12.5594268  50.0582849  31.8749021  12.0744325  48.2537539  19.1073764
  12.3269846  47.7319060  18.3457227  11.1368884  48.0903684  19.2100448
  17.1187608  47.2573317  26.9148507  17.9050697  46.8392740  26.5638924
  17.3826312  48.1619409  27.0830156  17.2897685  52.6946168  21.6137164
  16.6543518  52.7680794  22.3258069  16.9595092  53.2839766  20.9356243
  11.7940614  50.1565645  21.3098139  11.6776872  49.4810548  21.9779223
  11.9042874  49.6698019  20.4930292  14.1372155  49.6175792  25.0144828
  13.7730362  49.0906413  25.7257750  14.9939271  49.2274261  24.8411314
  13.7777642  44.6465692  20.0106177  13.9452044  45.5145928  20.3776648
  13.5874811  44.8092973  19.0867466  16.5352975  53.1082671  31.6772007
  16.2353698  54.0107709  31.5687814  16.1904034  52.8414854  32.5293160
   9.9865456  49.5596467  27.7108711   9.0615953  49.4272682  27.9186403
  10.2349870  50.3390687  28.2078654  19.9350119  45.6265211  29.3569444
  19.0266996  45.5580619  29.0628205  19.8837714  46.1037156  30.1851270
  13.7566863  47.1023349  20.9952843  13.6366488  47.5480400  21.8338324
  13.0619451  47.4508667  20.4366382   7.3474267  49.2029741  28.5452501
   7.4766649  49.4564220  29.4591912   6.6671719  49.7957449  28.2257156
  11.5173755  59.8726991  24.6442975  11.4397784  60.8234816  24.7231455
  10.9135398  59.5272863  25.3017901  19.4551929  47.5744822  21.8233178
  20.3669785  47.8072209  21.6480875  18.9461576  48.1581867  21.2608256
  12.2637357  49.8540310  36.8622309  13.0052041  50.3925354  36.5857132
  11.5574342  50.4806598  37.0193860  17.7392696  51.9969450  35.4594470
  18.1476052  51.5551861  34.7149102  17.0169958  51.4222078  35.7128663
  14.0923766  46.9342057  32.8328027  14.9384962  47.3581471  32.9762676
  14.0322404  46.2775681  33.5266590  18.0621511  52.5570641  29.2146759
  17.4330373  52.7216355  28.5122827  17.6747173  52.9712250  29.9857723
  19.1961675  51.1385038  33.1686466  19.4078570  51.7816798  32.4920847
  19.1491423  50.3047354  32.7008396  16.7987904  43.7502858  30.0723038
  15.9372383  44.0484112  30.3639776  16.8250338  43.9673257  29.1404071
  13.6149473  52.2945049  26.4796844  14.0787818  52.5732752  25.6901467
  13.3506271  51.3928493  26.2969935  10.5073554  51.8416530  29.4176607
  11.0774911  52.2703799  28.7794092  11.0981666  51.5599115  30.1160793
  12.5518359  48.4168201  23.2886409  13.2542402  48.8689245  23.7560336
  12.2198987  47.7752020  23.9166302  10.9998721  47.0079958  37.6637619
  10.3697381  47.6896239  37.8973015  10.8934808  46.8963040  36.7190757
   6.2943693  46.6751754  28.5903543   5.5042747  46.9309282  28.1143653
   6.7854940  47.4900092  28.6955583  20.3107503  54.0156993  31.3408824
  21.1324946  53.6137180  31.0591505  20.3069905  53.9125227  32.2924939
   8.2458438  47.0396333  25.5487019   7.4489602  47.1515027  26.0670515
   8.0184031  47.3782985  24.6827910  14.0764106  53.5641036  33.4969534
  14.1408538  54.0261444  34.3327706  13.3675030  52.9338401  33.6251844
   4.5781396  46.9282244  31.0218534   4.8289434  47.8129254  31.2876110
   5.1140944  46.7486846  30.2493625  13.7912124  55.2309144  23.3648514
  13.6557798  56.0760680  23.7933362  14.3321936  55.4328422  22.6014448
  10.2779463  41.3100724  40.0262870   9.8846409  40.7566922  40.7010514
  11.0945604  41.6211302  40.4169387   7.2441521  52.7484582  23.9376440
   7.7566042  53.5427832  24.0882004   7.8964234  52.0510872  23.8710041
   9.0536406  55.8650338  26.0199193   9.2303034  56.7868303  25.8320177
   9.8493239  55.5508757  26.4493572   8.3388762  47.9114970  35.8961356
   8.2242277  47.0100227  36.1968455   7.4833280  48.1578667  35.5446172
  15.4180600  55.8532710  37.4948857  14.9744454  55.0669089  37.1769761
  16.0797814  56.0411861  36.8292747  10.1767721  57.3828512  32.0209535
  10.7275146  57.2545575  31.2486529   9.3379197  57.6823401  31.6704428
  17.5161838  56.1335510  35.5230258  17.4980313  56.9544391  35.0310527
  18.4381758  56.0089586  35.7480399  13.9734892  53.6479640  36.3653766
  14.5063229  52.8867928  36.1353074  13.4448973  53.3553292  37.1077921
   5.2090438  51.0773236  24.7136010   6.0465660  51.4870245  24.4969718
   5.3868705  50.1372678  24.6836204  17.1054870  48.7448317  20.4019843
  16.5901493  49.5152922  20.6408230  16.8332178  48.0713453  21.0252904
  14.6901981  43.5898018  25.4605081  13.8343577  43.2004868  25.2810720
  15.1028933  43.6689978  24.6004867  16.2201128  41.1244361  29.8596641
  15.7165923  41.0874496  29.0464446  16.5131734  42.0337104  29.9193298
  12.4644013  41.2083091  28.8662823  13.3297010  41.0125899  28.5068712
  12.5321522  40.9793442  29.7932180  16.8941173  46.6175409  22.2279624
  16.5891309  46.9321558  23.0789767  17.8471615  46.6956829  22.2706957
  15.3387605  52.7765632  23.8772578  14.8108966  52.0418392  23.5645816
  14.8375108  53.5540309  23.6312547  10.0706333  43.4385299  26.2379190
  10.6450084  43.2160480  25.5052383  10.6577315  43.5073993  26.9907791
  10.3975920  45.4689760  20.2575075   9.5613232  45.8064446  20.5784350
  10.2580689  45.3338739  19.3202212  12.3729000  40.3126547  24.9654259
  11.7193413  39.9975565  24.3410874  12.3309474  39.6902288  25.6914082
  13.4840205  50.5945843  16.8807551  12.5767267  50.3635096  17.0798700
  13.9811237  49.7983462  17.0681533  16.3908284  59.3043350  19.8004237
  15.7169983  59.6075046  20.4089195  16.7774106  60.1072430  19.4509694
  15.6066741  46.8008481  29.2901907  14.6889302  47.0223428  29.1323595
  16.0226884  46.8754791  28.4313614  16.3901788  48.1999897  24.4204587
  17.1373607  48.7121294  24.1111709  16.6593378  47.8783949  25.2808981
  14.6628439  50.6958437  21.4031541  13.7539658  50.4117470  21.5004011
  14.6923522  51.1157516  20.5434848  19.8947706  54.3065027  25.1722709
  19.4410033  53.4655937  25.2287899  19.2641673  54.9426425  25.5097489
  18.8380626  45.2357013  26.4023376  18.1003382  44.7234399  26.7333619
  19.0907399  44.7957395  25.5906653  18.3380645  56.1441524  26.1072527
  18.6303620  56.7046581  25.3884893  18.8479266  56.4370085  26.8625686
  18.9392253  38.0133265  26.9965146  19.2451130  37.1530628  26.7091061
  19.6644858  38.6050885  26.7964139   5.2316609  48.4163952  25.3846744
   5.0341009  47.8233312  24.6597810   4.6763273  48.1116162  26.1022682
  13.2113333  48.3087058  27.5041337  13.2661942  47.3560894  27.4283813
  12.4004535  48.4646497  27.9882635  14.3604526  52.2367181  18.7419620
  13.9223956  51.5203040  18.2825257  15.1014967  52.4643296  18.1804711
  11.1505692  46.9264118  25.2631716  10.3373558  47.2258288  25.6696908
  11.6464687  46.5319807  25.9806198  13.3014270  56.9221875  27.1965980
  13.2590449  57.1482721  26.2674512  14.2176969  56.6885249  27.3451781
  10.6419767  44.4982473  30.8792950  11.2819147  44.3571232  30.1815914
   9.8097298  44.2116987  30.5031552  11.4180071  53.7984904  26.9927943
  12.2120670  53.3035224  26.7910518  10.7071764  53.2702767  26.6295648
  16.2374916  56.1802999  31.3440311  16.2911938  56.7493936  32.1118026
  15.3689697  56.3504884  30.9794348   7.7262835  47.9427985  23.0687696
   6.7960423  47.8812441  23.2857658   7.8220307  47.4203938  22.2724337
   7.6448384  44.4682798  25.6565937   7.9055201  45.3828132  25.5475098
   8.4665556  44.0007241  25.8062550   9.1173309  45.8820555  32.8264762
   9.7896362  45.6737918  32.1777411   8.2903096  45.6842641  32.3869994
  23.3662570  52.6224606  32.3440095  23.5598460  53.5270416  32.5899370
  23.2663188  52.1632025  33.1778680  15.0198881  42.5082496  34.8430423
  14.3726796  43.2072446  34.7494899  15.7899896  42.9418640  35.2106671
  18.4277679  52.7731349  37.9180976  18.2763185  52.5441900  37.0011060
  18.4182358  53.7301950  37.9312321  15.1963015  50.3463261  32.9027242
  16.1255075  50.4974421  32.7296210  14.7754045  50.4347282  32.0475889
  13.9951347  54.3713926  30.6725780  13.8562433  54.0032710  31.5451718
  13.2065943  54.8861565  30.5009738  14.5899499  59.4723022  22.0151317
  14.7651255  59.0011065  22.8296939  13.9032287  60.0988788  22.2432577
  15.5456562  53.7495528  28.0614618  15.2106395  53.7096298  28.9572268
  15.0460508  53.0840244  27.5885028   9.5200806  49.1563158  33.5867199
   9.3820604  48.4243397  34.1878738  10.4305730  49.0672059  33.3051387
  18.4815754  51.0951563  18.3351677  17.8644925  50.3698391  18.2384730
  18.0132242  51.8560923  17.9918752  12.1483107  48.8683118  33.0750879
  12.8582725  48.2276310  33.0337497  12.1052415  49.1196013  33.9977059
  20.1369886  55.8050471  35.9957458  20.0782432  55.1209691  35.3288041
  20.5389404  56.5469461  35.5438084  10.8612041  45.8548336  34.8946518
  10.3249398  45.4039074  35.5468114  10.2728749  45.9894244  34.1516982
   9.1560584  62.6212385  28.7891177   9.3957183  63.2530909  29.4670195
   8.3129781  62.2700425  29.0756536  10.2714300  45.3136987  17.4572982
   9.3943766  45.1925788  17.0935228  10.7472053  44.5223065  17.2051870
  20.1387293  53.7690055  34.2271437  19.2514072  53.4315977  34.3497836
  20.7085844  53.0373086  34.4640203   1.7916440  50.1014147  27.5514489
   2.4787480  49.7875877  26.9635504   1.6364569  51.0055511  27.2781740
   6.5951162  44.9904343  31.9799513   6.5109351  44.3830013  31.2449923
   5.7733869  45.4813362  31.9809009  13.6688446  58.4291507  31.1932681
  13.5958618  59.2346479  31.7051985  13.2265839  58.6283473  30.3680702
  13.4578226  57.6663277  24.7035502  12.6745748  58.2084958  24.7973727
  14.1570971  58.1837257  25.1029743  16.7674876  43.4757907  27.3469708
  17.2643576  42.7227869  27.0270778  15.9961858  43.5122224  26.7812917
  16.1287130  58.3278341  33.3490839  16.8415102  58.9625806  33.2766741
  15.6377158  58.4242207  32.5330841  17.8504657  52.2329594  24.9208131
  16.9160935  52.3531057  24.7512835  18.0281325  51.3302061  24.6568141
  13.3509845  45.6175290  27.0741392  12.9807632  45.0646330  27.7622298
  13.8468937  45.0133423  26.5216392  11.1799043  56.0772785  34.1696410
  11.8808503  56.7109268  34.3225804  10.7094158  56.4187516  33.4092049
  19.3053439  54.4190735  22.4544317  19.5813283  54.3047329  23.3638191
  18.4357938  54.0208220  22.4156490  18.9800329  48.6317392  31.9948961
  18.3271780  48.8793300  31.3401413  19.3580709  47.8181531  31.6611438
  15.9407503  58.6677086  26.0977131  16.1229898  57.8498741  26.5604883
  16.7640489  58.8844778  25.6602021  16.2749669  57.5945271  23.3592179
  16.8037435  57.0837725  22.7462341  16.5377888  57.2787801  24.2237712
   6.7766761  55.6109140  31.1027513   7.3620198  54.8652828  31.2355417
   6.5791600  55.9213097  31.9864177   9.6305417  58.6460387  26.1189955
   8.9615792  59.1306515  25.6353995   9.4918286  58.8929608  27.0333334
   1.3684416  48.1814740  29.8231956   1.4068516  47.6478331  30.6169074
   0.8624709  47.6549946  29.2042933  13.7710685  60.6804131  32.7172614
  14.3228993  60.8435752  33.4821699  14.1116879  61.2708569  32.0452638
   8.7475178  43.0279281  33.3194498   8.8116505  43.8894112  32.9071896
   8.6842299  42.4153282  32.5866857   8.2227451  45.1002413  36.9667533
   8.8499490  44.7179490  37.5805057   7.3655370  44.8816615  37.3323225
  18.6221560  55.5065388  38.5721268  19.1661463  56.1195347  38.0776223
  18.0408404  56.0644967  39.0888281   4.9992994  46.9078842  22.8985887
   5.2946435  45.9989521  22.8452941   4.0981029  46.8866582  22.5766890
  16.9079072  58.6286106  29.7036296  16.7830212  57.8275846  29.1947241
  17.5658164  59.1232300  29.2150266   8.5287241  44.9834839  28.8813436
   7.8073826  45.5970807  28.7420909   9.3180496  45.5192604  28.8030082
  18.9713981  56.4295126  31.3315846  18.0244316  56.3100478  31.2594173
  19.3196754  55.5417624  31.4142107  11.3313554  42.3189265  35.1554088
  11.8547956  42.5651562  35.9180397  11.1125887  43.1509300  34.7357225
   6.7280835  44.5892940  23.0225213   6.3993541  43.7090319  22.8400318
   7.0820206  44.5340609  23.9101602  15.9760414  56.2247843  27.5320198
  15.8285377  55.2964550  27.7127768  16.8013908  56.2467933  27.0477273
   9.8422658  44.8765910  23.3900690  10.1818731  45.4051831  22.6679299
  10.2894779  45.2146316  24.1659257  12.5366099  43.2602960  32.8403758
  12.1962920  42.4610774  33.2424438  11.8305106  43.5604671  32.2680591
  13.1882571  40.3452273  31.2931081  14.0108640  39.8712751  31.1709972
  13.4320635  41.1242757  31.7929768  11.8290806  43.3740531  21.5893983
  12.5499168  43.7521784  21.0857700  11.2056110  44.0929408  21.6928961
  15.9721928  44.0785680  22.5252315  16.1885543  44.9610318  22.2241143
  15.4915996  43.6871894  21.7957957  10.7121150  47.0371394  29.1023060
  10.5665731  47.3511697  29.9947341  10.2346353  47.6556294  28.5493959
  12.5717533  44.0273942  29.1503949  12.5579101  43.1315035  28.8136247
  13.2889961  44.0344605  29.7842236  14.4243663  44.4611282  31.1957077
  14.1661441  45.3828352  31.1941407  13.8928704  44.0641716  31.8857541
  19.3689852  57.5662069  23.9747162  19.5426730  57.0008491  23.2221015
  19.8618743  58.3662964  23.7926652   5.1866812  49.5776738  32.0410721
   4.6420280  50.3536546  32.1730995   6.0646162  49.9247542  31.8829843
  11.9754429  42.9088322  24.4191520  12.0970340  41.9804968  24.6182407
  11.6856471  42.9227008  23.5069835  14.8445619  40.5943232  27.5558239
  14.8667316  40.6582565  26.6010219  15.2613678  39.7547741  27.7498746
  20.3565025  56.8828833  21.0744061  21.0515929  57.5035526  21.2931375
  20.6988175  56.0324184  21.3496438   5.9732834  48.7046634  34.9340878
   5.2314570  48.8529270  35.5205508   5.6525578  48.9654900  34.0707627
  13.9176497  58.2462612  34.7321268  14.2263623  58.0011759  35.6043968
  14.7151979  58.4509251  34.2440138  13.9397109  60.4000522  26.9626645
  13.5002099  59.9076901  27.6559501  14.6905226  59.8573490  26.7218720
   6.4189448  56.5912063  26.9651273   7.2447467  56.2915835  26.5849916
   6.0683500  55.8219685  27.4141061  11.3870981  55.9438531  29.0348946
  10.7650990  55.2809236  28.7351174  12.0575848  55.9699663  28.3522594
   4.6198053  54.5098389  27.9240206   3.7829961  54.0820564  27.7424207
   4.5921698  54.7030833  28.8610997  11.4595508  44.4220319  38.6281452
  11.5083664  45.2982442  38.2459222  12.0018022  43.8797712  38.0553095
  21.9450354  54.9661442  37.9082589  21.1545898  54.9485581  37.3687089
  21.7083708  55.5049736  38.6631626  22.0648229  51.8153909  35.2215318
  22.1146234  51.6503916  36.1630841  21.9562152  50.9481168  34.8313199
  10.9484488  54.4942454  22.5107407  11.0972608  55.1777919  21.8574079
  11.7550931  54.4747545  23.0256862  13.6894797  45.1751692  35.3827811
  12.8198106  45.4685258  35.1110399  13.9254277  45.7592137  36.1035075
  23.5666426  54.2350850  35.4657339  23.2751234  54.5980831  36.3020800
  22.9538557  53.5217859  35.2870671  21.8153614  49.3583465  33.9337397
  22.2907736  49.5511111  33.1256249  20.8919179  49.4142651  33.6880781
   8.7037121  50.5207632  23.5168476   8.4583163  49.6169962  23.7148686
   8.8733035  50.5224783  22.5747954  16.3933830  41.3931308  32.8993231
  16.9115774  42.1292335  32.5739720  16.0388963  41.6995302  33.7339990
   7.9732768  46.2535990  21.0154637   7.2802013  46.3280345  20.3594673
   7.7284520  45.4896333  21.5376154  16.6446425  37.8131591  28.4194128
  16.9248178  37.1454780  29.0454554  17.4297032  38.0060687  27.9068792
  14.4479893  56.9890585  19.9819154  13.8753860  57.6080772  19.5289626
  15.0212687  57.5389947  20.5159076  18.5369662  43.3204808  32.3525104
  17.9419595  43.6009821  31.6571593  18.2519359  43.8098709  33.1241845
  17.6677153  57.2727735  21.1127736  18.6007826  57.2073297  21.3160612
  17.5800366  58.1084002  20.6542269  20.2965170  56.5893605  18.0731684
  20.2178801  56.2553469  18.9667442  21.1174836  57.0815373  18.0723156
  14.8326692  48.3251398  17.3235207  15.7785796  48.1957606  17.3923625
  14.4540937  47.5866060  17.8004635  14.7165384  52.3769144  38.7835864
  15.6368394  52.5547743  38.9775910  14.6814967  51.4325189  38.6315563
  13.0169609  46.2501374  17.2590092  12.1101064  45.9534487  17.3352805
  13.2945590  45.9531192  16.3924378   3.9347549  47.5707737  27.7089138
   3.6150334  46.7173046  27.4163512   3.3880977  47.7856316  28.4647106
   7.7127457  50.2870178  31.4258645   7.9313467  51.2187286  31.4446679
   8.1253231  49.9278153  32.2113449  14.6331675  40.7938264  23.4134333
  13.8232403  40.4485349  23.7889579  15.3216091  40.4845808  24.0021945
  16.5622223  39.8716311  25.0358630  17.1153261  40.2911764  25.6948653
  16.7992309  38.9452059  25.0781586  12.5855322  45.8603384  40.8161394
  12.4852049  46.8097741  40.7473485  12.3676864  45.5321623  39.9437464
  11.7868393  43.1088309  17.4002071  12.6487557  43.4343208  17.6597888
  11.9718738  42.3219805  16.8875137   3.8035809  51.1910649  29.6782260
   3.1099281  50.7764602  29.1652214   4.5508800  51.2331185  29.0815679
  19.9401030  41.9816836  24.5437294  19.3599699  42.6401640  24.1615346
  19.6736963  41.1594180  24.1324712  18.3904596  41.3821893  26.7458614
  18.8904375  41.4938428  25.9372933  19.0340204  41.0782946  27.3859423
  12.4486592  49.2900523  39.6326455  11.9653674  50.0900883  39.8390344
  12.5347531  49.3008468  38.6793899   5.7172552  51.1228903  27.5548275
   5.6943240  51.2216590  26.6030158   6.0273188  51.9694054  27.8765441
   8.3759930  53.1805058  31.6694889   9.3303183  53.1489000  31.6024821
   8.1772453  52.7195682  32.4845115   8.9659312  51.7506174  34.2365687
   9.7852201  52.2450252  34.2600524   9.2396119  50.8338142  34.2083254
  18.7225908  44.1416926  23.5993642  17.8351763  44.4266577  23.3813837
  19.1379897  43.9810690  22.7520919   6.7310158  58.7224677  28.6865087
   6.5964626  57.9625078  28.1203085   6.3142221  59.4465577  28.2193876
  17.8669121  53.9061601  17.6941662  18.5704972  54.1111603  18.3099318
  17.1431770  54.4738363  17.9590746   9.8879284  59.6193994  28.8983530
   9.7711668  60.5639427  28.7962220   9.0671731  59.3167556  29.2869329
  19.7755819  54.3444130  19.7440122  20.6101423  53.9125328  19.5617597
  19.6140162  54.1726144  20.6717017  19.4301711  50.8476243  21.1096462
  19.3750515  50.6820515  20.1684906  18.8047766  51.5552276  21.2658651
   4.2194226  46.0844308  34.9357884   4.8653090  45.5743262  35.4245109
   4.0111377  46.8212989  35.5101309  16.7447618  53.1525155  40.4350024
  17.6138778  53.3265807  40.0736659  16.2654370  53.9719572  40.3125754
  12.7397836  40.3484352  20.6881780  12.7276506  41.2926192  20.8450051
  13.6321258  40.1654498  20.3941241  10.9133798  60.2722256  32.1139458
  11.8161045  60.3045866  32.4305953  10.6871168  59.3422707  32.1285794
  12.6687400  59.0253243  28.7749537  11.7183031  59.0255104  28.6613909
  12.9719887  58.2785977  28.2585571  16.5549956  36.9427129  24.9427717
  15.7882352  36.3885616  25.0884399  16.9660661  37.0148998  25.8041868
   8.5591717  43.2311925  39.0332898   9.4223179  42.8748730  39.2436223
   7.9857128  42.8925820  39.7208302  28.4040094  64.8613781  29.8395299
  29.0418504  64.7420528  29.1358639  28.2860937  65.8094625  29.8983251
  25.2129800  64.8141209  29.7756824  24.8748312  64.6982274  28.8877359
  26.0819568  64.4132374  29.7557830  21.0716616  66.6676686  25.7653715
  20.5081481  66.5766623  24.9970003  20.9569011  65.8476590  26.2456207
  25.6949583  65.9676061  35.7343029  25.6838224  65.5728859  34.8623533
  25.8570223  65.2342134  36.3276801  18.6181048  68.1627877  28.6037935
  19.4102340  67.8218702  28.1884235  18.8577698  68.2722852  29.5240089
  26.6516175  70.3347653  21.0768180  26.0004154  70.9201734  20.6902193
  27.4460537  70.8653848  21.1363217  20.5771802  67.4236790  21.4755314
  21.3502678  66.8765778  21.3368190  20.9297201  68.2881040  21.6869775
  22.4156844  68.7513173  34.6822213  22.1246710  69.6558804  34.5668880
  23.0513829  68.7929700  35.3966283  23.3413051  66.1290021  31.2723573
  23.9376623  65.9046044  30.5580536  23.3988023  65.3874767  31.8749021
  22.9138080  63.5829457  19.1073764  23.1663600  63.0610978  18.3457227
  21.9762639  63.4195602  19.2100448  27.9581362  62.5865235  26.9148507
  28.7444452  62.1684658  26.5638924  28.2220067  63.4911327  27.0830156
  28.1291440  68.0238085  21.6137164  27.4937273  68.0972712  22.3258069
  27.7988846  68.6131684  20.9356243  33.3589790  62.5240468  27.8181486
  34.0914961  61.9539685  28.0519315  32.6029145  62.1362069  28.2587991
  22.6334368  65.4857563  21.3098139  22.5170626  64.8102466  21.9779223
  22.7436628  64.9989936  20.4930292  24.9765909  64.9467710  25.0144828
  24.6124116  64.4198331  25.7257750  25.8333025  64.5566179  24.8411314
  30.8815210  56.2362042  32.2776094  30.5498535  57.1057453  32.0537309
  30.2860823  55.9198326  32.9570125  24.6171396  59.9757609  20.0106177
  24.7845799  60.8437846  20.3776648  24.4268565  60.1384891  19.0867466
  27.3746729  68.4374588  31.6772007  27.0747452  69.3399627  31.5687814
  27.0297789  68.1706771  32.5293160  20.8259211  64.8888385  27.7108711
  19.9009707  64.7564599  27.9186403  21.0743624  65.6682604  28.2078654
  30.7743873  60.9557128  29.3569444  29.8660751  60.8872537  29.0628205
  30.7231469  61.4329073  30.1851270  24.5960617  62.4315267  20.9952843
  24.4760242  62.8772318  21.8338324  23.9013205  62.7800585  20.4366382
  18.1868022  64.5321659  28.5452501  18.3160403  64.7856138  29.4591912
  17.5065473  65.1249367  28.2257156  22.3567509  75.2018909  24.6442975
  22.2791539  76.1526734  24.7231455  21.7529153  74.8564781  25.3017901
  24.8484739  62.3746774  37.3004342  24.0718073  62.9340694  37.2907206
  25.4875302  62.8603557  37.8219212  32.6405520  59.1573567  31.1347318
  31.9979900  59.4506100  30.4887113  32.1360448  59.0426487  31.9400515
  30.2945683  62.9036740  21.8233178  31.2063539  63.1364127  21.6480875
  29.7855330  63.4873784  21.2608256  23.1031111  65.1832227  36.8622309
  23.8445796  65.7217271  36.5857132  22.3968097  65.8098516  37.0193860
  28.5786451  67.3261368  35.4594470  28.9869807  66.8843778  34.7149102
  27.8563712  66.7513995  35.7128663  24.9317521  62.2633975  32.8328027
  25.7778716  62.6873388  32.9762676  24.8716159  61.6067599  33.5266590
  28.9015266  67.8862558  29.2146759  28.2724128  68.0508273  28.5122827
  28.5140928  68.3004168  29.9857723  32.7804497  68.8216996  26.5691123
  32.0955536  69.2015898  26.0188156  32.8648347  69.4312323  27.3023071
  28.0816966  59.9238343  34.4909201  27.8377898  60.6780404  33.9543476
  28.3576897  60.3023691  35.3256448  30.0355429  66.4676955  33.1686466
  30.2472324  67.1108715  32.4920847  29.9885177  65.6339272  32.7008396
  27.6381658  59.0794776  30.0723038  26.7766137  59.3776030  30.3639776
  27.6644093  59.2965175  29.1404071  24.4543227  67.6236967  26.4796844
  24.9181573  67.9024670  25.6901467  24.1900026  66.7220411  26.2969935
  21.3467308  67.1708448  29.4176607  21.9168666  67.5995716  28.7794092
  21.9375420  66.8891033  30.1160793  23.3912113  63.7460119  23.2886409
  24.0936157  64.1981163  23.7560336  23.0592742  63.1043938  23.9166302
  21.8392475  62.3371876  37.6637619  21.2091136  63.0188156  37.8973015
  21.7328563  62.2254957  36.7190757  17.1337447  62.0043672  28.5903543
  16.3436501  62.2601200  28.1143653  17.6248695  62.8192009  28.6955583
  31.1501257  69.3448911  31.3408824  31.9718701  68.9429098  31.0591505
  31.1463660  69.2417145  32.2924939  19.0852193  62.3688251  25.5487019
  18.2883356  62.4806945  26.0670515  18.8577785  62.7074903  24.6827910
  24.9157860  68.8932954  33.4969534  24.9802293  69.3553361  34.3327706
  24.2068784  68.2630319  33.6251844  15.4175150  62.2574162  31.0218534
  15.6683189  63.1421172  31.2876110  15.9534699  62.0778764  30.2493625
  39.2407250  65.6887659  27.6893795  38.4870958  65.1195057  27.5337800
  39.3754791  65.6550324  28.6364430  24.6305878  70.5601062  23.3648514
  24.4951553  71.4052597  23.7933362  25.1715691  70.7620339  22.6014448
  21.1173218  56.6392641  40.0262870  20.7240163  56.0858840  40.7010514
  21.9339358  56.9503220  40.4169387  18.0835275  68.0776500  23.9376440
  18.5959796  68.8719750  24.0882004  18.7357988  67.3802790  23.8710041
  19.8930160  71.1942256  26.0199193  20.0696789  72.1160221  25.8320177
  20.6886994  70.8800675  26.4493572  24.0341179  58.0550521  37.6183126
  24.7750892  58.6557674  37.5387589  24.2659102  57.3128158  37.0601169
  19.1782517  63.2406888  35.8961356  19.0636032  62.3392145  36.1968455
  18.3227034  63.4870585  35.5446172  26.2574354  71.1824628  37.4948857
  25.8138209  70.3961007  37.1769761  26.9191568  71.3703779  36.8292747
  21.0161476  72.7120430  32.0209535  21.5668901  72.5837493  31.2486529
  20.1772952  73.0115319  31.6704428  28.3555593  71.4627428  35.5230258
  28.3374068  72.2836309  35.0310527  29.2775513  71.3381503  35.7480399
  24.8128647  68.9771557  36.3653766  25.3456983  68.2159846  36.1353074
  24.2842728  68.6845209  37.1077921  16.0484192  66.4065154  24.7136010
  16.8859414  66.8162162  24.4969718  16.2262460  65.4664596  24.6836204
  27.9448624  64.0740235  20.4019843  27.4295248  64.8444839  20.6408230
  27.6725933  63.4005371  21.0252904  25.5295735  58.9189935  25.4605081
  24.6737332  58.5296786  25.2810720  25.9422687  58.9981896  24.6004867
  27.0594882  56.4536279  29.8596641  26.5559678  56.4166414  29.0464446
  27.3525489  57.3629021  29.9193298  32.9182899  66.8272589  22.3373016
  32.1412341  66.4883749  21.8928179  33.5974379  66.8325212  21.6627982
  27.7334928  61.9467327  22.2279624  27.4285063  62.2613476  23.0789767
  28.6865370  62.0248747  22.2706957  26.1781359  68.1057550  23.8772578
  25.6502721  67.3710310  23.5645816  25.6768862  68.8832226  23.6312547
  31.1574205  66.3006570  28.9939624  30.4997880  66.9905832  29.0819753
  31.9614605  66.6903002  29.3373611  20.9100087  58.7677216  26.2379190
  21.4843839  58.5452398  25.5052383  21.4971069  58.8365911  26.9907791
  29.9679664  64.6550943  27.0443566  30.4811546  65.2880935  27.5465276
  30.6180888  64.0552139  26.6786926  21.2369674  60.7981677  20.2575075
  20.4006986  61.1356364  20.5784350  21.0974444  60.6630657  19.3202212
  24.3233960  65.9237760  16.8807551  23.4161021  65.6927014  17.0798700
  24.8204992  65.1275379  17.0681533  27.2302038  74.6335267  19.8004237
  26.5563737  74.9366964  20.4089195  27.6167860  75.4364348  19.4509694
  26.4460495  62.1300399  29.2901907  25.5283056  62.3515346  29.1323595
  26.8620639  62.2046709  28.4313614  27.2295543  63.5291814  24.4204587
  27.9767362  64.0413212  24.1111709  27.4987132  63.2075867  25.2808981
  25.5022193  66.0250355  21.4031541  24.5933412  65.7409388  21.5004011
  25.5317277  66.4449434  20.5434848  30.7341460  69.6356945  25.1722709
  30.2803788  68.7947854  25.2287899  30.1035427  70.2718343  25.5097489
  29.6774380  60.5648931  26.4023376  28.9397137  60.0526317  26.7333619
  29.9301154  60.1249312  25.5906653  29.1774400  71.4733441  26.1072527
  29.4697374  72.0338498  25.3884893  29.6873020  71.7662002  26.8625686
  29.7786007  53.3425183  26.9965146  30.0844884  52.4822546  26.7091061
  30.5038612  53.9342803  26.7964139  16.0710363  63.7455869  25.3846744
  15.8734763  63.1525230  24.6597810  15.5157027  63.4408079  26.1022682
  24.0507087  63.6378976  27.5041337  24.1055697  62.6852812  27.4283813
  23.2398289  63.7938415  27.9882635  25.1998281  67.5659099  18.7419620
  24.7617711  66.8494958  18.2825257  25.9408722  67.7935214  18.1804711
  21.9899447  62.2556035  25.2631716  21.1767313  62.5550206  25.6696908
  22.4858441  61.8611724  25.9806198  24.1408025  72.2513792  27.1965980
  24.0984204  72.4774639  26.2674512  25.0570724  72.0177167  27.3451781
  27.5873659  62.7197860  34.0946609  27.9423046  62.9469333  34.9541075
  28.2345790  63.0516237  33.4723865  33.3171396  65.8416296  24.7995938
  33.1789294  66.0317892  23.8717128  32.9607614  66.6035679  25.2563990
  21.4813522  59.8274391  30.8792950  22.1212901  59.6863150  30.1815914
  20.6491052  59.5408904  30.5031552  33.3440775  67.9092823  29.8107210
  33.7777282  67.8168112  30.6590264  34.0572356  67.8850323  29.1727226
  22.2573826  69.1276821  26.9927943  23.0514424  68.6327142  26.7910518
  21.5465518  68.5994685  26.6295648  27.0768670  71.5094917  31.3440311
  27.1305692  72.0785853  32.1118026  26.2083451  71.6796802  30.9794348
  18.5656589  63.2719903  23.0687696  17.6354177  63.2104359  23.2857658
  18.6614061  62.7495856  22.2724337  18.4842138  59.7974716  25.6565937
  18.7448955  60.7120049  25.5475098  19.3059310  59.3299159  25.8062550
  19.9567063  61.2112473  32.8264762  20.6290117  61.0029835  32.1777411
  19.1296850  61.0134559  32.3869994  34.2056325  67.9516523  32.3440095
  34.3992215  68.8562334  32.5899370  34.1056943  67.4923943  33.1778680
  25.8592636  57.8374414  34.8430423  25.2120551  58.5364364  34.7494899
  26.6293651  58.2710558  35.2106671  29.2671433  68.1023266  37.9180976
  29.1156940  67.8733818  37.0011060  29.2576113  69.0593868  37.9312321
  26.0356770  65.6755179  32.9027242  26.9648830  65.8266339  32.7296210
  25.6147800  65.7639200  32.0475889  24.8345102  69.7005843  30.6725780
  24.6956187  69.3324628  31.5451718  24.0459698  70.2153483  30.5009738
  25.4293254  74.8014940  22.0151317  25.6045009  74.3302983  22.8296939
  24.7426042  75.4280706  22.2432577  26.3850317  69.0787446  28.0614618
  26.0500149  69.0388216  28.9572268  25.8854262  68.4132162  27.5885028
  20.3594561  64.4855076  33.5867199  20.2214359  63.7535315  34.1878738
  21.2699484  64.3963976  33.3051387  29.3209508  66.4243480  18.3351677
  28.7038679  65.6990309  18.2384730  28.8525997  67.1852841  17.9918752
  22.9876861  64.1975035  33.0750879  23.6976480  63.5568228  33.0337497
  22.9446170  64.4487930  33.9977059  30.9763640  71.1342389  35.9957458
  30.9176186  70.4501609  35.3288041  31.3783158  71.8761379  35.5438084
  21.7005795  61.1840253  34.8946518  21.1643152  60.7330992  35.5468114
  21.1122504  61.3186162  34.1516982  21.1108054  60.6428905  17.4572982
  20.2337521  60.5217706  17.0935228  21.5865807  59.8514983  17.2051870
  30.9781047  69.0981973  34.2271437  30.0907826  68.7607894  34.3497836
  31.5479598  68.3665004  34.4640203  12.6310194  65.4306064  27.5514489
  13.3181234  65.1167794  26.9635504  12.4758323  66.3347429  27.2781740
  17.4344917  60.3196261  31.9799513  17.3503105  59.7121931  31.2449923
  16.6127623  60.8105279  31.9809009  24.5082201  73.7583425  31.1932681
  24.4352372  74.5638397  31.7051985  24.0659594  73.9575391  30.3680702
  24.2971980  72.9955195  24.7035502  23.5139502  73.5376875  24.7973727
  24.9964726  73.5129175  25.1029743  27.6068630  58.8049825  27.3469708
  28.1037330  58.0519787  27.0270778  26.8355612  58.8414141  26.7812917
  35.4598388  64.5090190  28.9887999  35.4488264  65.3914905  28.6181932
  34.5915767  64.1561741  28.7942536  26.9680884  73.6570259  33.3490839
  27.6808856  74.2917724  33.2766741  26.4770913  73.7534125  32.5330841
  28.6898411  67.5621512  24.9208131  27.7554690  67.6822974  24.7512835
  28.8675080  66.6593979  24.6568141  24.1903599  60.9467208  27.0741392
  23.8201387  60.3938248  27.7622298  24.6862692  60.3425341  26.5216392
  32.0770963  63.4038831  25.4558165  32.5431415  64.2366823  25.3818468
  32.5278463  62.9383813  26.1603424  22.0192798  71.4064703  34.1696410
  22.7202257  72.0401186  34.3225804  21.5487913  71.7479434  33.4092049
  30.1447194  69.7482652  22.4544317  30.4207038  69.6339247  23.3638191
  29.2751692  69.3500137  22.4156490  30.0487625  55.7719418  29.4949067
  29.1350705  56.0023645  29.6631273  30.4780727  55.8557862  30.3463099
  29.8194084  63.9609310  31.9948961  29.1665534  64.2085217  31.3401413
  30.1974464  63.1473448  31.6611438  26.7801258  73.9969003  26.0977131
  26.9623652  73.1790659  26.5604883  27.6034244  74.2136695  25.6602021
  27.1143423  72.9237188  23.3592179  27.6431190  72.4129643  22.7462341
  27.3771643  72.6079719  24.2237712  25.8681657  64.7029121  38.4814998
  25.1922294  64.6023250  39.1517373  26.6909291  64.5468335  38.9450995
  17.6160516  70.9401058  31.1027513  18.2013953  70.1944746  31.2355417
  17.4185354  71.2505014  31.9864177  20.4699171  73.9752305  26.1189955
  19.8009546  74.4598433  25.6353995  20.3312041  74.2221525  27.0333334
  12.2078171  63.5106658  29.8231956  12.2462270  62.9770248  30.6169074
  11.7018463  62.9841863  29.2042933  24.6104440  76.0096049  32.7172614
  25.1622748  76.1727670  33.4821699  24.9510633  76.6000486  32.0452638
  19.5868933  58.3571198  33.3194498  19.6510259  59.2186029  32.9071896
  19.5236053  57.7445200  32.5866857  19.0621205  60.4294331  36.9667533
  19.6893244  60.0471408  37.5805057  18.2049124  60.2108533  37.3323225
  29.4615314  70.8357306  38.5721268  30.0055218  71.4487264  38.0776223
  28.8802159  71.3936884  39.0888281  15.8386748  62.2370760  22.8985887
  16.1340189  61.3281438  22.8452941  14.9374784  62.2158499  22.5766890
  27.7472827  73.9578024  29.7036296  27.6223966  73.1567764  29.1947241
  28.4051918  74.4524217  29.2150266  19.3680995  60.3126757  28.8813436
  18.6467581  60.9262724  28.7420909  20.1574251  60.8484521  28.8030082
  29.8107735  71.7587044  31.3315846  28.8638071  71.6392395  31.2594173
  30.1590508  70.8709542  31.4142107  22.1707309  57.6481183  35.1554088
  22.6941711  57.8943480  35.9180397  21.9519642  58.4801218  34.7357225
  17.5674590  59.9184858  23.0225213  17.2387296  59.0382237  22.8400318
  17.9213960  59.8632526  23.9101602  26.8154169  71.5539760  27.5320198
  26.6679131  70.6256468  27.7127768  27.6407662  71.5759851  27.0477273
  20.6816413  60.2057827  23.3900690  21.0212485  60.7343749  22.6679299
  21.1288533  60.5438234  24.1659257  30.4188290  72.3768319  28.6185071
  31.3434838  72.1711180  28.4809522  30.2503594  72.1284720  29.5274412
  23.3759854  58.5894878  32.8403758  23.0356674  57.7902691  33.2424438
  22.6698860  58.8896589  32.2680591  22.6684560  58.7032449  21.5893983
  23.3892923  59.0813702  21.0857700  22.0449864  59.4221326  21.6928961
  26.8115683  59.4077598  22.5252315  27.0279297  60.2902236  22.2241143
  26.3309750  59.0163811  21.7957957  21.5514904  62.3663311  29.1023060
  21.4059485  62.6803614  29.9947341  21.0740108  62.9848212  28.5493959
  25.2637418  59.7903199  31.1957077  25.0055196  60.7120270  31.1941407
  24.7322458  59.3933634  31.8857541  30.2083607  72.8953987  23.9747162
  30.3820484  72.3300409  23.2221015  30.7012498  73.6954881  23.7926652
  16.0260566  64.9068656  32.0410721  15.4814035  65.6828464  32.1730995
  16.9039916  65.2539460  31.8829843  22.8148183  58.2380239  24.4191520
  22.9364094  57.3096886  24.6182407  22.5250226  58.2518925  23.5069835
  36.0622998  65.6590409  25.5937462  36.5054144  64.9097735  25.1956585
  35.1849508  65.6500546  25.2111194  31.1958779  72.2120751  21.0744061
  31.8909684  72.8327444  21.2931375  31.5381929  71.3616102  21.3496438
  16.8126588  64.0338552  34.9340878  16.0708324  64.1821187  35.5205508
  16.4919333  64.2946817  34.0707627  33.0950202  69.6620456  22.6031391
  33.6201526  70.0007729  21.8780711  33.0072555  68.7267472  22.4194526
  24.7570251  73.5754530  34.7321268  25.0657377  73.3303677  35.6043968
  25.5545733  73.7801169  34.2440138  24.7790863  75.7292440  26.9626645
  24.3395853  75.2368818  27.6559501  25.5298980  75.1865407  26.7218720
  17.2583202  71.9203981  26.9651273  18.0841222  71.6207752  26.5849916
  16.9077254  71.1511603  27.4141061  22.2264735  71.2730449  29.0348946
  21.6044744  70.6101154  28.7351174  22.8969602  71.2991581  28.3522594
  15.4591807  69.8390307  27.9240206  14.6223715  69.4112481  27.7424207
  15.4315453  70.0322750  28.8610997  22.2989263  59.7512237  38.6281452
  22.3477418  60.6274360  38.2459222  22.8411777  59.2089630  38.0553095
  32.7844108  70.2953360  37.9082589  31.9939652  70.2777499  37.3687089
  32.5477463  70.8341654  38.6631626  32.9041983  67.1445826  35.2215318
  32.9539988  66.9795834  36.1630841  32.7955907  66.2773085  34.8313199
  21.7878242  69.8234372  22.5107407  21.9366362  70.5069837  21.8574079
  22.5944686  69.8039462  23.0256862  30.1945746  63.1276754  36.5374625
  31.0955609  62.9883219  36.2458622  30.2693720  63.2931209  37.4772802
  24.5288551  60.5043609  35.3827811  23.6591861  60.7977175  35.1110399
  24.7648032  61.0884054  36.1035075  34.4060180  69.5642768  35.4657339
  34.1144989  69.9272749  36.3020800  33.7932312  68.8509776  35.2870671
  35.6055863  67.1295648  27.9859910  36.4402754  67.5685452  28.1497470
  35.7414991  66.6534301  27.1668155  32.6547368  64.6875383  33.9337397
  33.1301490  64.8803029  33.1256249  31.7312934  64.7434568  33.6880781
  19.5430875  65.8499550  23.5168476  19.2976917  64.9461880  23.7148686
  19.7126790  65.8516700  22.5747954  27.2327585  56.7223226  32.8993231
  27.7509529  57.4584253  32.5739720  26.8782718  57.0287219  33.7339990
  18.8126523  61.5827907  21.0154637  18.1195768  61.6572262  20.3594673
  18.5678275  60.8188251  21.5376154  27.4840179  53.1423509  28.4194128
  27.7641933  52.4746698  29.0454554  28.2690786  53.3352604  27.9068792
  25.2873648  72.3182503  19.9819154  24.7147615  72.9372690  19.5289626
  25.8606441  72.8681864  20.5159076  31.3549037  61.5641143  32.1665703
  32.3066460  61.6639240  32.1877927  31.1852488  60.7719411  32.6763787
  29.3763417  58.6496726  32.3525104  28.7813349  58.9301739  31.6571593
  29.0913114  59.1390627  33.1241845  28.5070907  72.6019653  21.1127736
  29.4401581  72.5365214  21.3160612  28.4194120  73.4375920  20.6542269
  31.1358924  71.9185523  18.0731684  31.0572556  71.5845387  18.9667442
  31.9568591  72.4107291  18.0723156  33.8337115  64.7847262  31.2808003
  33.8013435  63.8463263  31.4667686  34.4437739  64.8631299  30.5473827
  25.6720446  63.6543315  17.3235207  26.6179551  63.5249523  17.3923625
  25.2934691  62.9157977  17.8004635  33.9831604  61.5758306  31.3266286
  33.4670652  60.7916762  31.1396215  34.8671552  61.2477022  31.4912805
  31.6442331  55.3199321  27.2862098  31.4467152  55.0114410  28.1705430
  32.2542036  56.0460960  27.4160028  39.6513665  65.8463269  30.4214039
  40.3817054  65.5848557  30.9821743  39.0420611  65.1091991  30.4616107
  37.7328962  63.9871132  31.0188491  37.0062126  63.8527097  30.4104982
  37.3176249  64.2947960  31.8245209  25.5559139  67.7061061  38.7835864
  26.4762148  67.8839660  38.9775910  25.5208722  66.7617107  38.6315563
  23.8563363  61.5793292  17.2590092  22.9494819  61.2826404  17.3352805
  24.1339344  61.2823110  16.3924378  14.7741304  62.8999655  27.7089138
  14.4544088  62.0464963  27.4163512  14.2274732  63.1148233  28.4647106
  18.5521211  65.6162096  31.4258645  18.7707221  66.5479204  31.4446679
  18.9646985  65.2570071  32.2113449  25.4725429  56.1230181  23.4134333
  24.6626157  55.7777266  23.7889579  26.1609846  55.8137725  24.0021945
  27.4015977  55.2008228  25.0358630  27.9547016  55.6203682  25.6948653
  27.6386064  54.2743976  25.0781586  23.4249077  61.1895302  40.8161394
  23.3245803  62.1389659  40.7473485  23.2070619  60.8613541  39.9437464
  22.6262148  58.4380227  17.4002071  23.4881312  58.7635125  17.6597888
  22.8112492  57.6511723  16.8875137  14.6429564  66.5202567  29.6782260
  13.9493035  66.1056519  29.1652214  15.3902555  66.5623103  29.0815679
  30.7794784  57.3108753  24.5437294  30.1993453  57.9693557  24.1615346
  30.5130717  56.4886098  24.1324712  29.2298351  56.7113811  26.7458614
  29.7298129  56.8230346  25.9372933  29.8733959  56.4074864  27.3859423
  23.2880347  64.6192441  39.6326455  22.8047428  65.4192801  39.8390344
  23.3741286  64.6300386  38.6793899  16.5566306  66.4520820  27.5548275
  16.5336994  66.5508508  26.6030158  16.8666943  67.2985971  27.8765441
  19.2153684  68.5096975  31.6694889  20.1696938  68.4780918  31.6024821
  19.0166208  68.0487599  32.4845115  19.8053066  67.0798091  34.2365687
  20.6245955  67.5742170  34.2600524  20.0789874  66.1630060  34.2083254
  29.5619662  59.4708844  23.5993642  28.6745517  59.7558494  23.3813837
  29.9773651  59.3102607  22.7520919  32.9134199  59.4955365  27.3147982
  33.6894589  59.9851817  27.5872598  32.1882333  59.9213419  27.7719851
  35.3506757  60.2082984  28.3721922  35.9451248  59.9678720  27.6615230
  35.4233341  59.4890115  28.9995458  17.5703913  74.0516595  28.6865087
  17.4358381  73.2916996  28.1203085  17.1535975  74.7757495  28.2193876
  28.7062876  69.2353518  17.6941662  29.4098726  69.4403521  18.3099318
  27.9825525  69.8030280  17.9590746  29.5360686  64.9863380  23.8143932
  29.4795888  65.4431931  22.9751565  30.0889029  64.2254064  23.6366775
  33.3465492  60.7753112  24.6394052  33.0902426  60.3749747  25.4702260
  32.7218360  61.4896906  24.5144191  37.6577830  63.5149185  27.1465343
  37.0977388  63.5842374  27.9196905  37.0521333  63.3390169  26.4264840
  20.7273039  74.9485912  28.8983530  20.6105423  75.8931344  28.7962220
  19.9065485  74.6459474  29.2869329  30.6149573  69.6736048  19.7440122
  31.4495177  69.2417246  19.5617597  30.4533916  69.5018061  20.6717017
  30.2695465  66.1768161  21.1096462  30.2144269  66.0112432  20.1684906
  29.6441521  66.8844194  21.2658651  15.0587980  61.4136225  34.9357884
  15.7046844  60.9035179  35.4245109  14.8505132  62.1504907  35.5101309
  27.5841373  68.4817073  40.4350024  28.4532532  68.6557725  40.0736659
  27.1048124  69.3011490  40.3125754  23.5791591  55.6776270  20.6881780
  23.5670261  56.6218110  20.8450051  24.4715013  55.4946415  20.3941241
  21.7527553  75.6014174  32.1139458  22.6554800  75.6337784  32.4305953
  21.5264923  74.6714625  32.1285794  23.5081155  74.3545160  28.7749537
  22.5576786  74.3547022  28.6613909  23.8113641  73.6077895  28.2585571
  27.3943710  52.2719047  24.9427717  26.6276106  51.7177533  25.0884399
  27.8054415  52.3440915  25.8041868  19.3985471  58.5603842  39.0332898
  20.2616933  58.2040647  39.2436223  18.8250882  58.2217737  39.7208302
  39.2433848  80.1905699  29.8395299  39.8812258  80.0712446  29.1358639
  39.1254691  81.1386543  29.8983251  36.0523555  80.1433127  29.7756824
  35.7142066  80.0274192  28.8877359  36.9213323  79.7424292  29.7557830
  31.9110370  81.9968603  25.7653715  31.3475235  81.9058540  24.9970003
  31.7962765  81.1768508  26.2456207  36.5343338  81.2967979  35.7343029
  36.5231978  80.9020777  34.8623533  36.6963977  80.5634051  36.3276801
  34.1806806  81.4581939  31.2723573  34.7770378  81.2337961  30.5580536
  34.2381777  80.7166684  31.8749021  33.7531834  78.9121374  19.1073764
  34.0057355  78.3902896  18.3457227  32.8156393  78.7487520  19.2100448
  38.7975117  77.9157153  26.9148507  39.5838206  77.4976576  26.5638924
  39.0613821  78.8203245  27.0830156  38.9685194  83.3530003  21.6137164
  38.3331027  83.4264629  22.3258069  38.6382601  83.9423602  20.9356243
  44.1983544  77.8532386  27.8181486  44.9308716  77.2831603  28.0519315
  43.4422900  77.4653986  28.2587991  33.4728123  80.8149480  21.3098139
  33.3564381  80.1394384  21.9779223  33.5830383  80.3281854  20.4930292
  35.8159664  80.2759627  25.0144828  35.4517871  79.7490248  25.7257750
  36.6726780  79.8858096  24.8411314  41.7208964  71.5653960  32.2776094
  41.3892289  72.4349371  32.0537309  41.1254578  71.2490244  32.9570125
  35.4565151  75.3049527  20.0106177  35.6239553  76.1729763  20.3776648
  35.2662320  75.4676809  19.0867466  31.6652965  80.2180303  27.7108711
  30.7403462  80.0856517  27.9186403  31.9137379  80.9974522  28.2078654
  41.6137628  76.2849046  29.3569444  40.7054505  76.2164455  29.0628205
  41.5625223  76.7620991  30.1851270  35.4354372  77.7607185  20.9952843
  35.3153997  78.2064235  21.8338324  34.7406960  78.1092502  20.4366382
  29.0261776  79.8613576  28.5452501  29.1554158  80.1148055  29.4591912
  28.3459228  80.4541284  28.2257156  35.6878493  77.7038692  37.3004342
  34.9111828  78.2632612  37.2907206  36.3269057  78.1895475  37.8219212
  43.4799274  74.4865485  31.1347318  42.8373654  74.7798018  30.4887113
  42.9754203  74.3718405  31.9400515  41.1339438  78.2328658  21.8233178
  42.0457294  78.4656044  21.6480875  40.6249085  78.8165702  21.2608256
  33.9424866  80.5124145  36.8622309  34.6839550  81.0509189  36.5857132
  33.2361851  81.1390434  37.0193860  39.4180205  82.6553286  35.4594470
  39.8263561  82.2135696  34.7149102  38.6957467  82.0805913  35.7128663
  35.7711275  77.5925892  32.8328027  36.6172471  78.0165306  32.9762676
  35.7109913  76.9359517  33.5266590  39.7409020  83.2154476  29.2146759
  39.1117882  83.3800190  28.5122827  39.3534682  83.6296086  29.9857723
  43.6198252  84.1508914  26.5691123  42.9349290  84.5307815  26.0188156
  43.7042101  84.7604241  27.3023071  38.9210721  75.2530261  34.4909201
  38.6771653  76.0072321  33.9543476  39.1970651  75.6315608  35.3256448
  40.8749184  81.7968873  33.1686466  41.0866079  82.4400633  32.4920847
  40.8278932  80.9631190  32.7008396  38.4775412  74.4086694  30.0723038
  37.6159892  74.7067947  30.3639776  38.5037847  74.6257093  29.1404071
  35.2936982  82.9528884  26.4796844  35.7575327  83.2316587  25.6901467
  35.0293780  82.0512329  26.2969935  34.2305868  79.0752037  23.2886409
  34.9329911  79.5273080  23.7560336  33.8986496  78.4335855  23.9166302
  32.6786229  77.6663793  37.6637619  32.0484890  78.3480074  37.8973015
  32.5722317  77.5546875  36.7190757  27.9731202  77.3335589  28.5903543
  27.1830256  77.5893118  28.1143653  28.4642449  78.1483927  28.6955583
  41.9895011  84.6740828  31.3408824  42.8112455  84.2721016  31.0591505
  41.9857414  84.5709063  32.2924939  29.9245947  77.6980169  25.5487019
  29.1277111  77.8098863  26.0670515  29.6971540  78.0366821  24.6827910
  26.2568905  77.5866080  31.0218534  26.5076943  78.4713090  31.2876110
  26.7928453  77.4070681  30.2493625  50.0801005  81.0179577  27.6893795
  49.3264713  80.4486975  27.5337800  50.2148546  80.9842241  28.6364430
  31.9566972  71.9684559  40.0262870  31.5633918  71.4150758  40.7010514
  32.7733113  72.2795138  40.4169387  34.8734933  73.3842438  37.6183126
  35.6144647  73.9849591  37.5387589  35.1052856  72.6420076  37.0601169
  30.0176271  78.5698805  35.8961356  29.9029786  77.6684063  36.1968455
  29.1620789  78.8162502  35.5446172  38.8192096  69.4123541  31.8947408
  38.4756366  70.3025183  31.8186518  39.1871059  69.2225199  31.0316993
  38.7842379  79.4032152  20.4019843  38.2689002  80.1736757  20.6408230
  38.5119687  78.7297288  21.0252904  36.3689490  74.2481853  25.4605081
  35.5131086  73.8588703  25.2810720  36.7816442  74.3273814  24.6004867
  37.8988637  71.7828196  29.8596641  37.3953432  71.7458331  29.0464446
  38.1919243  72.6920939  29.9193298  34.1431522  71.8666926  28.8662823
  35.0084519  71.6709735  28.5068712  34.2109031  71.6377278  29.7932180
  43.7576653  82.1564507  22.3373016  42.9806096  81.8175666  21.8928179
  44.4368134  82.1617130  21.6627982  38.5728682  77.2759244  22.2279624
  38.2678818  77.5905394  23.0789767  39.5259124  77.3540664  22.2706957
  41.9967960  81.6298488  28.9939624  41.3391634  82.3197750  29.0819753
  42.8008359  82.0194920  29.3373611  31.7493842  74.0969134  26.2379190
  32.3237593  73.8744315  25.5052383  32.3364824  74.1657828  26.9907791
  40.8073419  79.9842861  27.0443566  41.3205300  80.6172853  27.5465276
  41.4574643  79.3844056  26.6786926  32.0763429  76.1273595  20.2575075
  31.2400741  76.4648281  20.5784350  31.9368198  75.9922575  19.3202212
  34.0516509  70.9710383  24.9654259  33.3980922  70.6559400  24.3410874
  34.0096983  70.3486123  25.6914082  35.1627714  81.2529678  16.8807551
  34.2554776  81.0218931  17.0798700  35.6598746  80.4567297  17.0681533
  37.2854250  77.4592316  29.2901907  36.3676811  77.6807263  29.1323595
  37.7014393  77.5338627  28.4313614  38.0689297  78.8583732  24.4204587
  38.8161116  79.3705129  24.1111709  38.3380887  78.5367785  25.2808981
  36.3415948  81.3542273  21.4031541  35.4327167  81.0701306  21.5004011
  36.3711031  81.7741351  20.5434848  41.5735215  84.9648862  25.1722709
  41.1197542  84.1239772  25.2287899  40.9429182  85.6010261  25.5097489
  40.5168134  75.8940848  26.4023376  39.7790891  75.3818235  26.7333619
  40.7694908  75.4541230  25.5906653  40.6179762  68.6717100  26.9965146
  40.9238639  67.8114464  26.7091061  41.3432367  69.2634721  26.7964139
  26.9104118  79.0747787  25.3846744  26.7128518  78.4817148  24.6597810
  26.3550782  78.7699997  26.1022682  34.8900842  78.9670893  27.5041337
  34.9449451  78.0144730  27.4283813  34.0792044  79.1230332  27.9882635
  36.0392035  82.8951016  18.7419620  35.6011465  82.1786875  18.2825257
  36.7802476  83.1227131  18.1804711  32.8293201  77.5847953  25.2631716
  32.0161067  77.8842124  25.6696908  33.3252196  77.1903642  25.9806198
  38.4267413  78.0489778  34.0946609  38.7816801  78.2761251  34.9541075
  39.0739544  78.3808154  33.4723865  44.1565150  81.1708213  24.7995938
  44.0183049  81.3609809  23.8717128  43.8001369  81.9327596  25.2563990
  32.3207276  75.1566309  30.8792950  32.9606656  75.0155068  30.1815914
  31.4884807  74.8700822  30.5031552  44.1834530  83.2384740  29.8107210
  44.6171036  83.1460030  30.6590264  44.8966110  83.2142241  29.1727226
  29.4050344  78.6011821  23.0687696  28.4747932  78.5396276  23.2857658
  29.5007816  78.0787774  22.2724337  29.3235893  75.1266634  25.6565937
  29.5842710  76.0411967  25.5475098  30.1453065  74.6591076  25.8062550
  30.7960818  76.5404391  32.8264762  31.4683871  76.3321753  32.1777411
  29.9690605  76.3426477  32.3869994  45.0450079  83.2808441  32.3440095
  45.2385969  84.1854252  32.5899370  44.9450697  82.8215860  33.1778680
  36.6986390  73.1666332  34.8430423  36.0514305  73.8656281  34.7494899
  37.4687405  73.6002476  35.2106671  40.1065188  83.4315184  37.9180976
  39.9550694  83.2025736  37.0011060  40.0969867  84.3885785  37.9312321
  36.8750524  81.0047097  32.9027242  37.8042584  81.1558256  32.7296210
  36.4541554  81.0931117  32.0475889  31.1988315  79.8146994  33.5867199
  31.0608113  79.0827233  34.1878738  32.1093239  79.7255894  33.3051387
  40.1603263  81.7535398  18.3351677  39.5432434  81.0282226  18.2384730
  39.6919751  82.5144758  17.9918752  33.8270616  79.5266953  33.0750879
  34.5370234  78.8860145  33.0337497  33.7839924  79.7779848  33.9977059
  32.5399550  76.5132171  34.8946518  32.0036907  76.0622909  35.5468114
  31.9516258  76.6478080  34.1516982  31.9501809  75.9720822  17.4572982
  31.0731275  75.8509623  17.0935228  32.4259562  75.1806901  17.2051870
  41.8174802  84.4273890  34.2271437  40.9301581  84.0899812  34.3497836
  42.3873353  83.6956922  34.4640203  28.2738671  75.6488179  31.9799513
  28.1896860  75.0413848  31.2449923  27.4521378  76.1397197  31.9809009
  38.4462385  74.1341742  27.3469708  38.9431085  73.3811705  27.0270778
  37.6749366  74.1706059  26.7812917  46.2992142  79.8382108  28.9887999
  46.2882019  80.7206823  28.6181932  45.4309522  79.4853659  28.7942536
  39.5292166  82.8913429  24.9208131  38.5948444  83.0114892  24.7512835
  39.7068834  81.9885896  24.6568141  35.0297354  76.2759125  27.0741392
  34.6595141  75.7230166  27.7622298  35.5256446  75.6717259  26.5216392
  42.9164717  78.7330749  25.4558165  43.3825169  79.5658740  25.3818468
  43.3672218  78.2675730  26.1603424  40.9840948  85.0774570  22.4544317
  41.2600792  84.9631165  23.3638191  40.1145447  84.6792055  22.4156490
  40.8881380  71.1011336  29.4949067  39.9744460  71.3315563  29.6631273
  41.3174481  71.1849780  30.3463099  40.6587838  79.2901228  31.9948961
  40.0059289  79.5377135  31.3401413  41.0368218  78.4765366  31.6611438
  36.7075411  80.0321039  38.4814998  36.0316048  79.9315168  39.1517373
  37.5303045  79.8760252  38.9450995  23.0471925  78.8398575  29.8231956
  23.0856025  78.3062166  30.6169074  22.5412218  78.3133781  29.2042933
  30.4262687  73.6863116  33.3194498  30.4904014  74.5477947  32.9071896
  30.3629808  73.0737118  32.5866857  29.9014960  75.7586249  36.9667533
  30.5286999  75.3763326  37.5805057  29.0442879  75.5400450  37.3323225
  26.6780503  77.5662678  22.8985887  26.9733944  76.6573356  22.8452941
  25.7768538  77.5450417  22.5766890  30.2074750  75.6418674  28.8813436
  29.4861335  76.2554642  28.7420909  30.9968005  76.1776439  28.8030082
  33.0101063  72.9773101  35.1554088  33.5335465  73.2235397  35.9180397
  32.7913396  73.8093136  34.7357225  28.4068344  75.2476775  23.0225213
  28.0781050  74.3674154  22.8400318  28.7607715  75.1924444  23.9101602
  31.5210167  75.5349745  23.3900690  31.8606240  76.0635666  22.6679299
  31.9682288  75.8730151  24.1659257  34.2153608  73.9186796  32.8403758
  33.8750429  73.1194609  33.2424438  33.5092615  74.2188507  32.2680591
  34.8670080  71.0036108  31.2931081  35.6896149  70.5296586  31.1709972
  35.1108144  71.7826592  31.7929768  33.5078315  74.0324367  21.5893983
  34.2286677  74.4105619  21.0857700  32.8843619  74.7513243  21.6928961
  37.6509437  74.7369516  22.5252315  37.8673052  75.6194154  22.2241143
  37.1703505  74.3455729  21.7957957  32.3908659  77.6955229  29.1023060
  32.2453240  78.0095532  29.9947341  31.9133862  78.3140129  28.5493959
  34.2505042  74.6857777  29.1503949  34.2366610  73.7898870  28.8136247
  34.9677470  74.6928441  29.7842236  36.1031172  75.1195117  31.1957077
  35.8448950  76.0412188  31.1941407  35.5716213  74.7225552  31.8857541
  33.6541938  73.5672157  24.4191520  33.7757849  72.6388803  24.6182407
  33.3643980  73.5810843  23.5069835  36.5233128  71.2527068  27.5558239
  36.5454825  71.3166401  26.6010219  36.9401187  70.4131576  27.7498746
  46.9016752  80.9882327  25.5937462  47.3447898  80.2389652  25.1956585
  46.0243263  80.9792463  25.2111194  27.6520343  79.3630470  34.9340878
  26.9102079  79.5113105  35.5205508  27.3313087  79.6238735  34.0707627
  43.9343957  84.9912374  22.6031391  44.4595281  85.3299647  21.8780711
  43.8466309  84.0559389  22.4194526  33.1383017  75.0804155  38.6281452
  33.1871173  75.9566277  38.2459222  33.6805531  74.5381548  38.0553095
  43.6237863  85.6245278  37.9082589  42.8333407  85.6069417  37.3687089
  43.3871217  86.1633571  38.6631626  43.7435738  82.4737744  35.2215318
  43.7933743  82.3087752  36.1630841  43.6349661  81.6065003  34.8313199
  41.0339500  78.4568672  36.5374625  41.9349363  78.3175137  36.2458622
  41.1087475  78.6223127  37.4772802  35.3682306  75.8335527  35.3827811
  34.4985615  76.1269093  35.1110399  35.6041786  76.4175972  36.1035075
  45.2453935  84.8934686  35.4657339  44.9538743  85.2564666  36.3020800
  44.6326066  84.1801694  35.2870671  46.4449617  82.4587565  27.9859910
  47.2796508  82.8977370  28.1497470  46.5808746  81.9826219  27.1668155
  43.4941123  80.0167300  33.9337397  43.9695245  80.2094947  33.1256249
  42.5706688  80.0726486  33.6880781  30.3824630  81.1791467  23.5168476
  30.1370672  80.2753797  23.7148686  30.5520544  81.1808618  22.5747954
  38.0721339  72.0515144  32.8993231  38.5903283  72.7876171  32.5739720
  37.7176472  72.3579137  33.7339990  29.6520277  76.9119825  21.0154637
  28.9589522  76.9864180  20.3594673  29.4072029  76.1480169  21.5376154
  38.3233934  68.4715426  28.4194128  38.6035687  67.8038615  29.0454554
  39.1084541  68.6644522  27.9068792  42.1942792  76.8933060  32.1665703
  43.1460215  76.9931158  32.1877927  42.0246242  76.1011329  32.6763787
  40.2157171  73.9788644  32.3525104  39.6207104  74.2593656  31.6571593
  39.9306868  74.4682545  33.1241845  44.6730870  80.1139180  31.2808003
  44.6407190  79.1755181  31.4667686  45.2831493  80.1923217  30.5473827
  36.5114201  78.9835233  17.3235207  37.4573305  78.8541441  17.3923625
  36.1328446  78.2449895  17.8004635  44.8225358  76.9050223  31.3266286
  44.3064407  76.1208680  31.1396215  45.7065307  76.5768940  31.4912805
  42.4836085  70.6491239  27.2862098  42.2860906  70.3406327  28.1705430
  43.0935791  71.3752878  27.4160028  50.4907420  81.1755187  30.4214039
  51.2210808  80.9140475  30.9821743  49.8814365  80.4383909  30.4616107
  48.5722717  79.3163049  31.0188491  47.8455880  79.1819014  30.4104982
  48.1570004  79.6239878  31.8245209  36.3952893  83.0352979  38.7835864
  37.3155903  83.2131578  38.9775910  36.3602476  82.0909025  38.6315563
  34.6957118  76.9085209  17.2590092  33.7888573  76.6118322  17.3352805
  34.9733099  76.6115028  16.3924378  25.6135058  78.2291573  27.7089138
  25.2937843  77.3756881  27.4163512  25.0668486  78.4440151  28.4647106
  36.3119184  71.4522099  23.4134333  35.5019912  71.1069184  23.7889579
  37.0003600  71.1429643  24.0021945  38.2409732  70.5300146  25.0358630
  38.7940770  70.9495599  25.6948653  38.4779818  69.6035894  25.0781586
  34.2642831  76.5187220  40.8161394  34.1639558  77.4681577  40.7473485
  34.0464373  76.1905458  39.9437464  33.4655902  73.7672145  17.4002071
  34.3275066  74.0927043  17.6597888  33.6506247  72.9803641  16.8875137
  41.6188539  72.6400671  24.5437294  41.0387208  73.2985475  24.1615346
  41.3524472  71.8178016  24.1324712  40.0692105  72.0405729  26.7458614
  40.5691884  72.1522263  25.9372933  40.7127713  71.7366782  27.3859423
  34.1274101  79.9484358  39.6326455  33.6441183  80.7484719  39.8390344
  34.2135040  79.9592303  38.6793899  40.4013417  74.8000761  23.5993642
  39.5139272  75.0850412  23.3813837  40.8167406  74.6394525  22.7520919
  43.7527953  74.8247282  27.3147982  44.5288343  75.3143735  27.5872598
  43.0276087  75.2505337  27.7719851  46.1900512  75.5374902  28.3721922
  46.7845002  75.2970638  27.6615230  46.2627095  74.8182032  28.9995458
  40.3754441  80.3155297  23.8143932  40.3189642  80.7723849  22.9751565
  40.9282783  79.5545982  23.6366775  44.1859247  76.1045029  24.6394052
  43.9296181  75.7041665  25.4702260  43.5612115  76.8188823  24.5144191
  48.4971584  78.8441103  27.1465343  47.9371142  78.9134292  27.9196905
  47.8915088  78.6682087  26.4264840  41.4543328  85.0027965  19.7440122
  42.2888932  84.5709164  19.5617597  41.2927671  84.8309979  20.6717017
  41.1089220  81.5060079  21.1096462  41.0538024  81.3404350  20.1684906
  40.4835275  82.2136112  21.2658651  25.8981735  76.7428143  34.9357884
  26.5440599  76.2327097  35.4245109  25.6898886  77.4796825  35.5101309
  38.4235127  83.8108991  40.4350024  39.2926287  83.9849643  40.0736659
  37.9441879  84.6303407  40.3125754  34.4185345  71.0068188  20.6881780
  34.4064015  71.9510028  20.8450051  35.3108767  70.8238333  20.3941241
  38.2337465  67.6010964  24.9427717  37.4669861  67.0469451  25.0884399
  38.6448170  67.6732833  25.8041868  30.2379226  73.8895760  39.0332898
  31.1010687  73.5332565  39.2436223  29.6644637  73.5509655  39.7208302
  52.5602719  86.8945878  32.2776094  52.2286044  87.7641289  32.0537309
  51.9648332  86.5782162  32.9570125  54.3193029  89.8157402  31.1347318
  53.6767409  90.1089935  30.4887113  53.8147957  89.7010323  31.9400515
  49.6585851  84.7415459  31.8947408  49.3150120  85.6317100  31.8186518
  50.0264813  84.5517116  31.0316993  48.7382391  87.1120114  29.8596641
  48.2347187  87.0750249  29.0464446  49.0312998  88.0212857  29.9193298
  44.8910264  86.3002301  24.9654259  44.2374676  85.9851318  24.3410874
  44.8490738  85.6778041  25.6914082  51.4573516  84.0009018  26.9965146
  51.7632393  83.1406381  26.7091061  52.1826121  84.5926638  26.7964139
  51.7275134  86.4303253  29.4949067  50.8138214  86.6607480  29.6631273
  52.1568236  86.5141697  30.3463099  45.7063835  86.3328026  31.2931081
  46.5289904  85.8588504  31.1709972  45.9501898  87.1118510  31.7929768
  47.3626883  86.5818985  27.5558239  47.3848579  86.6458318  26.6010219
  47.7794942  85.7423494  27.7498746  48.9115094  87.3807062  32.8993231
  49.4297038  88.1168088  32.5739720  48.5570227  87.6871055  33.7339990
  49.1627688  83.8007344  28.4194128  49.4429442  83.1330533  29.0454554
  49.9478295  83.9936440  27.9068792  53.3229840  85.9783157  27.2862098
  53.1254661  85.6698245  28.1705430  53.9329545  86.7044796  27.4160028
  47.1512938  86.7814017  23.4134333  46.3413666  86.4361102  23.7889579
  47.8397355  86.4721561  24.0021945  49.0803486  85.8592064  25.0358630
  49.6334525  86.2787517  25.6948653  49.3173573  84.9327812  25.0781586
  52.4582293  87.9692589  24.5437294  51.8780962  88.6277393  24.1615346
  52.1918226  87.1469933  24.1324712  50.9085860  87.3697646  26.7458614
  51.4085638  87.4814181  25.9372933  51.5521468  87.0658699  27.3859423
  49.0731219  82.9302882  24.9427717  48.3063615  82.3761369  25.0884399
  49.4841924  83.0024751  25.8041868   4.5786847  17.5302915  24.2194163
   4.1350701  16.7439294  23.9015068   5.2404060  17.7182066  23.5538054
   6.6768085  17.8105715  22.2475564   6.6586560  18.6314596  21.7555834
   7.5988005  17.6859790  22.4725706   3.1341139  15.3249845  23.0899073
   3.6669476  14.5638133  22.8598381   2.6055220  15.0323497  23.8323227
  12.5268817  14.2994811  19.0685402  12.7204707  15.2040621  19.3144677
  12.4269435  13.8402230  19.9023987   7.5883926  14.4501553  24.6426283
   7.4369432  14.2212105  23.7256366   7.5788605  15.4072155  24.6557628
   9.2976132  17.4820676  22.7202764   9.2388679  16.7979896  22.0533347
   9.6995651  18.2239666  22.2683390   9.2993540  15.4460260  20.9516744
   8.4120318  15.1086182  21.0743143   9.8692091  14.7143291  21.1885510
   5.2893377  20.0048546  20.0736146   6.0021349  20.6396011  20.0012047
   4.7983405  20.1012412  19.2576148   4.1894149  11.0507408  25.2060304
   3.5134786  10.9501538  25.8762679   5.0121783  10.8946622  25.6696301
   2.9316932  22.3574336  19.4417920   3.4835240  22.5205957  20.2067005
   3.2723125  22.9478774  18.7697945   7.7827806  17.1835593  25.2966575
   8.3267710  17.7965552  24.8021529   7.2014651  17.7415172  25.8133588
   3.0782743  19.9232817  21.4566575   3.3869870  19.6781964  22.3289274
   3.8758225  20.1279456  20.9685445  11.1056601  16.6431647  24.6327896
  10.3152144  16.6255786  24.0932395  10.8689955  17.1819941  25.3876933
  11.2254476  13.4924114  21.9460624  11.2752481  13.3274121  22.8876147
  11.1168399  12.6251373  21.5558505  12.7272673  15.9121055  22.1902646
  12.4357481  16.2751036  23.0266107  12.1144804  15.1988064  22.0115978
   3.8771631  14.0539349  25.5081170   4.7974640  14.2317948  25.7021217
   3.8421214  13.1095394  25.3560870   5.9053865  14.8295360  27.1595331
   6.7745025  15.0036012  26.7981966   5.4260616  15.6489777  27.0371060
  17.5646341  26.5383986  16.5640606  18.2024751  26.4190733  15.8603946
  17.4467184  27.4864830  16.6228558  14.3736047  26.4911414  16.5002130
  14.0354558  26.3752479  15.6122665  15.2425815  26.0902579  16.4803137
  14.8555830  27.6446266  22.4588336  14.8444471  27.2499064  21.5868840
  15.0176469  26.9112338  23.0522107   7.7787295  29.8398082  15.3283242
   8.5708586  29.4988907  14.9129541   8.0183945  29.9493057  16.2485395
  15.8122421  32.0117858   7.8013486  15.1610401  32.5971939   7.4147500
  16.6066784  32.5424053   7.8608524  11.5763091  30.4283378  21.4067520
  11.2852957  31.3329009  21.2914186  12.2120075  30.4699905  22.1211590
  12.5019298  27.8060226  17.9968880  13.0982870  27.5816249  17.2825843
  12.5594269  27.0644972  18.5994327  17.1187609  24.2635440  13.6393814
  17.9050698  23.8454863  13.2884231  17.3826313  25.1681532  13.8075462
  22.5196036  24.2010673  14.5426792  23.2521208  23.6309890  14.7764622
  21.7635392  23.8132274  14.9833298  14.1372156  26.6237915  11.7390135
  13.7730363  26.0968536  12.4503056  14.9939272  26.2336384  11.5656620
  20.0421457  17.9132247  19.0021401  19.7104781  18.7827658  18.7782616
  19.4467070  17.5968531  19.6815431  16.5352976  30.1144793  18.4017314
  16.2353699  31.0169832  18.2933121  16.1904036  29.8476976  19.2538467
   9.9865458  26.5658590  14.4354018   9.0615954  26.4334804  14.6431710
  10.2349871  27.3452809  14.9323960  19.9350120  22.6327333  16.0814751
  19.0266997  22.5642742  15.7873512  19.8837716  23.1099278  16.9096576
   7.3474269  26.2091864  15.2697807   7.4766650  26.4626343  16.1837219
   6.6671720  26.8019572  14.9502462  11.5173756  36.8789114  11.3688281
  11.4397786  37.8296939  11.4476762  10.9135400  36.5334986  12.0263208
  14.0090986  24.0516979  24.0249648  13.2324320  24.6110899  24.0152513
  14.6481549  24.5373762  24.5464518  21.8011766  20.8343772  17.8592625
  21.1586147  21.1276305  17.2132419  21.2966695  20.7196692  18.6645822
  12.2637358  26.8602432  23.5867615  13.0052042  27.3987476  23.3102439
  11.5574343  27.4868721  23.7439167  17.7392698  29.0031573  22.1839777
  18.1476054  28.5613983  21.4394409  17.0169959  28.4284200  22.4373970
  14.0923768  23.9404180  19.5573334  14.9384963  24.3643593  19.7007983
  14.0322405  23.2837804  20.2511897  18.0621512  29.5632763  15.9392066
  17.4330375  29.7278478  15.2368133  17.6747174  29.9774373  16.7103030
  21.9410744  30.4987201  13.2936429  21.2561782  30.8786103  12.7433463
  22.0254594  31.1082528  14.0268377  17.2423213  21.6008548  21.2154507
  16.9984145  22.3550608  20.6788783  17.5183144  21.9793896  22.0501754
  19.1961676  28.1447160  19.8931773  19.4078571  28.7878920  19.2166154
  19.1491424  27.3109477  19.4253703  16.7987905  20.7564981  16.7968345
  15.9372384  21.0546234  17.0885083  16.8250339  20.9735380  15.8649378
  13.6149474  29.3007171  13.2042151  14.0787820  29.5794874  12.4146773
  13.3506272  28.3990616  13.0215241  10.5073555  28.8478653  16.1421914
  11.0774912  29.2765921  15.5039398  11.0981667  28.5661238  16.8406100
  10.9998722  24.0142080  24.3882925  10.3697382  24.6958361  24.6218322
  10.8934810  23.9025162  23.4436064  20.3107504  31.0219116  18.0654130
  21.1324947  30.6199303  17.7836812  20.3069907  30.9187350  19.0170246
  14.0764107  30.5703159  20.2214841  14.1408540  31.0323566  21.0573013
  13.3675031  29.9400524  20.3497151   4.5781397  23.9344367  17.7463840
   4.8289436  24.8191377  18.0121416   5.1140946  23.7548969  16.9738932
  28.4013497  27.3657864  14.4139102  27.6477205  26.7965262  14.2583106
  28.5361038  27.3320529  15.3609736  13.7912125  32.2371266  10.0893821
  13.6557800  33.0822802  10.5178669  14.3321937  32.4390544   9.3259755
  10.2779465  18.3162846  26.7508176   9.8846410  17.7629045  27.4255821
  11.0945605  18.6273425  27.1414694   9.0536407  32.8712461  12.7444499
   9.2303035  33.7930426  12.5565483   9.8493240  32.5570880  13.1738879
  13.1947425  19.7320725  24.3428433  13.9357139  20.3327879  24.2632895
  13.4265348  18.9898363  23.7846475   8.3388764  24.9177093  22.6206663
   8.2242279  24.0162350  22.9213761   7.4833281  25.1640789  22.2691479
  15.4180601  32.8594833  24.2194163  14.9744455  32.0731212  23.9015068
  16.0797815  33.0473984  23.5538054  10.1767722  34.3890635  18.7454842
  10.7275148  34.2607698  17.9731836   9.3379198  34.6885524  18.3949734
  17.5161839  33.1397633  22.2475564  17.4980315  33.9606514  21.7555834
  18.4381759  33.0151708  22.4725706  13.9734893  30.6541762  23.0899073
  14.5063230  29.8930051  22.8598381  13.4448975  30.3615414  23.8323227
  17.1404588  15.7601828  18.6192715  16.7968858  16.6503470  18.5431825
  17.5083551  15.5703486  17.7562300  16.2201129  18.1306484  16.5841948
  15.7165924  18.0936619  15.7709753  16.5131736  19.0399226  16.6438604
  22.0789145  28.5042794   9.0618323  21.3018588  28.1653954   8.6173485
  22.7580626  28.5095417   8.3873288  15.3387606  29.7827755  10.6017885
  14.8108968  29.0480514  10.2891122  14.8375109  30.5602431  10.3557853
  20.3180452  27.9776775  15.7184931  19.6604127  28.6676037  15.8065060
  21.1220851  28.3673207  16.0618917  19.1285911  26.3321148  13.7688873
  19.6417793  26.9651140  14.2710583  19.7787135  25.7322344  13.4032233
  16.3908285  36.3105472   6.5249544  15.7169984  36.6137169   7.1334502
  16.7774107  37.1134553   6.1755001  15.6066742  23.8070604  16.0147213
  14.6889303  24.0285551  15.8568901  16.0226885  23.8816914  15.1558921
  16.3901790  25.2062019  11.1449894  17.1373609  25.7183417  10.8357016
  16.6593379  24.8846072  12.0054287  19.8947707  31.3127150  11.8968016
  19.4410034  30.4718059  11.9533206  19.2641674  31.9488548  12.2342796
  18.8380627  22.2419136  13.1268683  18.1003384  21.7296522  13.4578926
  19.0907400  21.8019517  12.3151960  18.3380646  33.1503646  12.8317834
  18.6303621  33.7108703  12.1130199  18.8479267  33.4432207  13.5870993
  13.2113334  25.3149181  14.2286643  13.2661944  24.3623017  14.1529120
  12.4004536  25.4708620  14.7127942  13.3014272  33.9283997  13.9211287
  13.2590450  34.1544844  12.9919819  14.2176971  33.6947372  14.0697088
  16.7479905  24.3968065  20.8191916  17.1029293  24.6239538  21.6786382
  17.3952037  24.7286442  20.1969171  22.4777642  27.5186501  11.5241245
  22.3395541  27.7088097  10.5962434  22.1213861  28.2805884  11.9809296
  10.6419769  21.5044596  17.6038257  11.2819148  21.3633355  16.9061220
   9.8097299  21.2179109  17.2276859  22.5047022  29.5863028  16.5352517
  22.9383529  29.4938317  17.3835571  23.2178603  29.5620528  15.8972533
  11.4180072  30.8047026  13.7173250  12.2120671  30.3097346  13.5155825
  10.7071765  30.2764889  13.3540955  16.2374917  33.1865122  18.0685617
  16.2911939  33.7556058  18.8363333  15.3689698  33.3567007  17.7039654
   9.1173310  22.8882678  19.5510068   9.7896364  22.6800040  18.9022717
   8.2903097  22.6904764  19.1115301  15.0198882  19.5144619  21.5675729
  14.3726797  20.2134569  21.4740206  15.7899898  19.9480763  21.9351978
  15.1963017  27.3525384  19.6272549  16.1255077  27.5036543  19.4541516
  14.7754047  27.4409405  18.7721196  13.9951348  31.3776048  17.3971087
  13.8562434  31.0094833  18.2697025  13.2065945  31.8923688  17.2255044
  14.5899500  36.4785145   8.7396623  14.7651256  36.0073188   9.5542246
  13.9032288  37.1050911   8.9677884  15.5456564  30.7557651  14.7859924
  15.2106396  30.7158421  15.6817574  15.0460509  30.0902367  14.3130335
   9.5200808  26.1625281  20.3112506   9.3820605  25.4305520  20.9124045
  10.4305731  26.0734181  20.0296693  12.1483108  25.8745240  19.7996185
  12.8582727  25.2338433  19.7582804  12.1052416  26.1258135  20.7222366
  10.8612042  22.8610458  21.6191825  10.3249399  22.4101197  22.2713421
  10.2728751  22.9956367  20.8762289   9.1560586  39.6274508  15.5136483
   9.3957184  40.2593032  16.1915502   8.3129782  39.2762548  15.8001843
   6.5951163  21.9966466  18.7044819   6.5109352  21.3892135  17.9695229
   5.7733870  22.4875484  18.7054316  13.6688448  35.4353630  17.9177987
  13.5958619  36.2408601  18.4297292  13.2265841  35.6345596  17.0926009
  13.4578227  34.6725400  11.4280809  12.6745749  35.2147080  11.5219033
  14.1570972  35.1899380  11.8275050  24.6204635  26.1860395  15.7133306
  24.6094511  27.0685110  15.3427239  23.7522014  25.8331946  15.5187843
  16.1287131  35.3340464  20.0736146  16.8415103  35.9687929  20.0012047
  15.6377160  35.4304330  19.2576148  17.8504658  29.2391717  11.6453438
  16.9160937  29.3593179  11.4758142  18.0281326  28.3364183  11.3813448
  21.2377209  25.0809036  12.1803472  21.7037662  25.9137028  12.1063774
  21.6884710  24.6154018  12.8848730  11.1799045  33.0834907  20.8941717
  11.8808504  33.7171390  21.0471111  10.7094160  33.4249639  20.1337356
  19.3053440  31.4252857   9.1789624  19.5813284  31.3109452  10.0883498
  18.4357939  31.0270342   9.1401797  19.2093872  17.4489623  16.2194373
  18.2956952  17.6793850  16.3876580  19.6386974  17.5328067  17.0708406
  18.9800331  25.6379515  18.7194267  18.3271781  25.8855422  18.0646720
  19.3580710  24.8243653  18.3856744  15.9407504  35.6739208  12.8222437
  16.1229899  34.8560864  13.2850190  16.7640490  35.8906900  12.3847327
  16.2749670  34.6007393  10.0837486  16.8037436  34.0899848   9.4707648
  16.5377890  34.2849923  10.9483019  15.0287904  26.3799326  25.2060304
  14.3528541  26.2793455  25.8762679  15.8515537  26.2238540  25.6696301
   6.7766763  32.6171263  17.8272819   7.3620199  31.8714950  17.9600724
   6.5791601  32.9275219  18.7109483   9.6305418  35.6522510  12.8435262
   8.9615793  36.1368638  12.3599302   9.4918288  35.8991730  13.7578640
  13.7710686  37.6866253  19.4417920  14.3228994  37.8497875  20.2067005
  14.1116880  38.2770691  18.7697945   8.7475180  20.0341403  20.0439805
   8.8116506  20.8956234  19.6317203   8.6842300  19.4215405  19.3112163
   8.2227452  22.1064536  23.6912839   8.8499491  21.7241613  24.3050364
   7.3655371  21.8878738  24.0568532  16.9079074  35.6348229  16.4281602
  16.7830213  34.8337969  15.9192548  17.5658165  36.1294422  15.9395572
  18.9713982  33.4357249  18.0561152  18.0244318  33.3162600  17.9839479
  19.3196755  32.5479747  18.1387414  11.3313555  19.3251388  21.8799394
  11.8547957  19.5713684  22.6425704  11.1125889  20.1571423  21.4602532
  15.9760415  33.2309965  14.2565505  15.8285378  32.3026673  14.4373075
  16.8013909  33.2530056  13.7722580  19.5794537  34.0538524  15.3430377
  20.5041085  33.8481385  15.2054829  19.4109841  33.8054925  16.2519719
  12.5366101  20.2665083  19.5649065  12.1962921  19.4672896  19.9669745
  11.8305107  20.5666794  18.9925898  13.1882572  17.3514395  18.0176388
  14.0108642  16.8774874  17.8955278  13.4320636  18.1304879  18.5175074
  10.7121151  24.0433516  15.8268367  10.5665732  24.3573819  16.7192648
  10.2346355  24.6618416  15.2739265  12.5717534  21.0336064  15.8749256
  12.5579103  20.1377157  15.5381554  13.2889962  21.0406728  16.5087542
  14.4243665  21.4673404  17.9202384  14.1661443  22.3890475  17.9186714
  13.8928705  21.0703839  18.6102848  19.3689853  34.5724191  10.6992469
  19.5426731  34.0070614   9.9466321  19.8618745  35.3725086  10.5171959
   5.1866813  26.5838861  18.7656028   4.6420281  27.3598668  18.8976302
   6.0646163  26.9309665  18.6075149  25.2229245  27.3360614  12.3182769
  25.6660391  26.5867940  11.9201892  24.3455755  27.3270751  11.9356501
  20.3565026  33.8890956   7.7989367  21.0515931  34.5097649   8.0176682
  20.6988176  33.0386307   8.0741745   5.9732835  25.7108757  21.6586185
   5.2314571  25.8591392  22.2450815   5.6525579  25.9717022  20.7952934
  22.2556449  31.3390661   9.3276698  22.7807773  31.6777934   8.6026018
  22.1678802  30.4037677   9.1439833  13.9176498  35.2524735  21.4566575
  14.2263624  35.0073882  22.3289274  14.7151980  35.4571373  20.9685445
  13.9397110  37.4062645  13.6871951  13.5002100  36.9139023  14.3804808
  14.6905227  36.8635612  13.4464026   6.4189449  33.5974186  13.6896579
   7.2447469  33.2977957  13.3095223   6.0683501  32.8281808  14.1386368
  11.3870982  32.9500654  15.7594253  10.7650991  32.2871359  15.4596481
  12.0575849  32.9761786  15.0767901   4.6198054  31.5160512  14.6485513
   3.7829962  31.0882686  14.4669514   4.5921699  31.7092955  15.5856304
  11.4595509  21.4282442  25.3526759  11.5083665  22.3044565  24.9704528
  12.0018024  20.8859835  24.7798402  13.6894798  22.1813814  22.1073118
  12.8198107  22.4747380  21.8355706  13.9254278  22.7654259  22.8280381
  24.7662109  28.8065853  14.7105216  25.6009001  29.2455657  14.8742777
  24.9021238  28.3304506  13.8913462  16.3933832  18.3993431  19.6238538
  16.9115776  19.1354458  19.2985026  16.0388965  18.7057424  20.4585297
  20.5155284  23.2411348  18.8911010  21.4672707  23.3409445  18.9123234
  20.3458735  22.4489616  19.4009094  18.5369664  20.3266931  19.0770411
  17.9419596  20.6071944  18.3816899  18.2519360  20.8160832  19.8487152
  17.6677154  34.2789858   7.8373043  18.6007827  34.2135419   8.0405919
  17.5800367  35.1146125   7.3787576  20.2965171  33.5955728   4.7976991
  20.2178802  33.2615592   5.6912749  21.1174838  34.0877496   4.7968463
  22.9943362  26.4617467  18.0053309  22.9619682  25.5233468  18.1912993
  23.6043986  26.5401504  17.2719134  23.1437851  23.2528511  18.0511592
  22.6276899  22.4686967  17.8641521  24.0277799  22.9247227  18.2158112
  20.8048577  16.9969526  14.0107405  20.6073399  16.6884614  14.8950737
  21.4148283  17.7231165  14.1405335  28.8119912  27.5233474  17.1459346
  29.5423300  27.2618762  17.7067049  28.2026857  26.7862196  17.1861414
  14.7165385  29.3831266  25.5081170  15.6368395  29.5609865  25.7021217
  14.6814968  28.4387312  25.3560870   7.7127458  27.2932301  18.1503951
   7.9313468  28.2249409  18.1691985   8.1253232  26.9340275  18.9358755
  12.5855323  22.8665507  27.5406700  12.4852050  23.8159864  27.4718791
  12.3676865  22.5383746  26.6682770   3.8035810  28.1972772  16.4027567
   3.1099282  27.7826724  15.8897521   4.5508801  28.2393308  15.8060985
  12.4486593  26.2962646  26.3571762  11.9653675  27.0963006  26.5635651
  12.5347532  26.3070591  25.4039206   8.3759931  30.1867180  18.3940196
   9.3303184  30.1551123  18.3270127   8.1772454  29.7257804  19.2090422
   8.9659313  28.7568296  20.9610993   9.7852202  29.2512375  20.9845831
   9.2396121  27.8400265  20.9328561  22.0740445  21.1725570  14.0393288
  22.8500835  21.6622022  14.3117905  21.3488579  21.5983624  14.4965158
  24.5113004  21.8853189  15.0967229  25.1057495  21.6448925  14.3860537
  24.5839588  21.1660319  15.7240765   6.7310160  35.7286800  15.4110394
   6.5964628  34.9687201  14.8448392   6.3142222  36.4527700  14.9439183
  18.6966933  26.6633585  10.5389239  18.6402134  27.1202136   9.6996872
  19.2495275  25.9024269  10.3612082  22.5071739  22.4523317  11.3639359
  22.2508673  22.0519952  12.1947566  21.8824607  23.1667110  11.2389498
  26.8184077  25.1919390  13.8710650  26.2583635  25.2612579  14.6442212
  26.2127580  25.0160374  13.1510146   9.8879286  36.6256117  15.6228836
   9.7711670  37.5701549  15.5207527   9.0671732  36.3229678  16.0114636
  19.7755820  31.3506253   6.4685429  20.6101424  30.9187451   6.2862904
  19.6140163  31.1788266   7.3962323   4.2194227  23.0906430  21.6603191
   4.8653091  22.5805384  22.1490416   4.0111378  23.8275112  22.2346616
  16.7447619  30.1587278  27.1595331  17.6138779  30.3327930  26.7981966
  16.2654371  30.9781695  27.0371060  10.9133800  37.2784379  18.8384765
  11.8161046  37.3107989  19.1551260  10.6871170  36.3484830  18.8531101
  12.6687402  36.0315365  15.4994843  11.7183033  36.0317227  15.3859216
  12.9719888  35.2848100  14.9830878   8.5591718  20.2374047  25.7578205
   9.4223180  19.8810852  25.9681529   7.9857129  19.8987942  26.4453609
  25.2129801  41.8203332  16.5002130  24.8748313  41.7044397  15.6122665
  26.0819570  41.4194497  16.4803137  21.0716617  43.6738808  12.4899021
  20.5081482  43.5828745  11.7215309  20.9569012  42.8538713  12.9701514
  18.6181049  45.1690000  15.3283242  19.4102341  44.8280824  14.9129541
  18.8577699  45.2784975  16.2485395  26.6516176  47.3409776   7.8013486
  26.0004156  47.9263856   7.4147500  27.4460539  47.8715971   7.8608524
  20.5771803  44.4298913   8.2000621  21.3502679  43.8827900   8.0613496
  20.9297202  45.2943162   8.4115082  23.3413052  43.1352144  17.9968880
  23.9376625  42.9108166  17.2825843  23.3988024  42.3936889  18.5994327
  22.9138081  40.5891579   5.8319071  23.1663601  40.0673100   5.0702534
  21.9762640  40.4257725   5.9345754  28.1291441  45.0300208   8.3382471
  27.4937274  45.1034834   9.0503375  27.7988847  45.6193807   7.6601550
  33.3589791  39.5302591  14.5426792  34.0914963  38.9601808  14.7764622
  32.6029146  39.1424191  14.9833298  22.6334370  42.4919685   8.0343446
  22.5170628  41.8164589   8.7024530  22.7436629  42.0052059   7.2175599
  24.9765910  41.9529832  11.7390135  24.6124118  41.4260453  12.4503056
  25.8333026  41.5628301  11.5656620  30.8815211  33.2424165  19.0021401
  30.5498536  34.1119576  18.7782616  30.2860824  32.9260449  19.6815431
  24.6171397  36.9819732   6.7351483  24.7845800  37.8499968   7.1021954
  24.4268567  37.1447014   5.8112773  27.3746731  45.4436711  18.4017314
  27.0747454  46.3461750  18.2933121  27.0297790  45.1768894  19.2538467
  20.8259212  41.8950508  14.4354018  19.9009709  41.7626722  14.6431710
  21.0743625  42.6744727  14.9323960  24.5960618  39.4377389   7.7198150
  24.4760244  39.8834440   8.5583630  23.9013207  39.7862707   7.1611688
  18.1868023  41.5383781  15.2697807  18.3160404  41.7918260  16.1837219
  17.5065474  42.1311489  14.9502462  22.3567510  52.2081031  11.3688281
  22.2791540  53.1588856  11.4476762  21.7529154  51.8626904  12.0263208
  30.2945684  39.9098863   8.5478484  31.2063541  40.1426249   8.3726182
  29.7855332  40.4935907   7.9853563  28.9015267  44.8924681  15.9392066
  28.2724129  45.0570395  15.2368133  28.5140929  45.3066291  16.7103030
  32.7804499  45.8279119  13.2936429  32.0955537  46.2078020  12.7433463
  32.8648348  46.4374446  14.0268377  24.4543229  44.6299089  13.2042151
  24.9181574  44.9086792  12.4146773  24.1900027  43.7282534  13.0215241
  21.3467310  44.1770571  16.1421914  21.9168667  44.6057839  15.5039398
  21.9375422  43.8953155  16.8406100  23.3912115  40.7522242  10.0131716
  24.0936158  41.2043285  10.4805642  23.0592743  40.1106060  10.6411609
  17.1337449  39.0105794  15.3148849  16.3436503  39.2663323  14.8388960
  17.6248696  39.8254132  15.4200890  31.1501258  46.3511033  18.0654130
  31.9718702  45.9491221  17.7836812  31.1463661  46.2479268  19.0170246
  19.0852194  39.3750373  12.2732326  18.2883357  39.4869068  12.7915822
  18.8577786  39.7137026  11.4073217  15.4175152  39.2636285  17.7463840
  15.6683190  40.1483295  18.0121416  15.9534700  39.0840886  16.9738932
  39.2407251  42.6949782  14.4139102  38.4870960  42.1257180  14.2583106
  39.3754793  42.6612446  15.3609736  24.6305879  47.5663184  10.0893821
  24.4951554  48.4114720  10.5178669  25.1715692  47.7682462   9.3259755
  18.0835277  45.0838622  10.6621746  18.5959797  45.8781872  10.8127311
  18.7357990  44.3864913  10.5955348  19.8930161  48.2004378  12.7444499
  20.0696790  49.1222343  12.5565483  20.6886995  47.8862798  13.1738879
  19.1782518  40.2469010  22.6206663  19.0636033  39.3454268  22.9213761
  18.3227036  40.4932707  22.2691479  21.0161477  49.7182552  18.7454842
  21.5668902  49.5899616  17.9731836  20.1772953  50.0177441  18.3949734
  28.3555594  48.4689551  22.2475564  28.3374069  49.2898432  21.7555834
  29.2775514  48.3443626  22.4725706  27.9798343  31.0893746  18.6192715
  27.6362612  31.9795388  18.5431825  28.3477306  30.8995404  17.7562300
  16.0484194  43.4127277  11.4381317  16.8859416  43.8224285  11.2215024
  16.2262461  42.4726719  11.4081511  27.9448626  41.0802357   7.1265150
  27.4295249  41.8506962   7.3653537  27.6725934  40.4067493   7.7498211
  25.5295737  35.9252058  12.1850388  24.6737333  35.5358908  12.0056027
  25.9422688  36.0044019  11.3250174  27.0594883  33.4598401  16.5841948
  26.5559679  33.4228536  15.7709753  27.3525490  34.3691144  16.6438604
  23.3037769  33.5437131  15.5908130  24.1690766  33.3479940  15.2314019
  23.3715278  33.3147483  16.5177486  32.9182900  43.8334712   9.0618323
  32.1412343  43.4945871   8.6173485  33.5974381  43.8387335   8.3873288
  27.7334929  38.9529449   8.9524931  27.4285064  39.2675598   9.8035074
  28.6865371  39.0310869   8.9952264  26.1781361  45.1119673  10.6017885
  25.6502722  44.3772432  10.2891122  25.6768863  45.8894349  10.3557853
  31.1574207  43.3068693  15.7184931  30.4997881  43.9967954  15.8065060
  31.9614606  43.6965125  16.0618917  20.9100088  35.7739339  12.9624496
  21.4843840  35.5514520  12.2297689  21.4971071  35.8428033  13.7153098
  21.2369675  37.8043800   6.9820382  20.4006988  38.1418486   7.3029656
  21.0974445  37.6692780   6.0447519  23.2122756  32.6480588  11.6899566
  22.5587168  32.3329605  11.0656181  23.1703230  32.0256328  12.4159389
  24.3233961  42.9299883   3.6052858  23.4161023  42.6989136   3.8044007
  24.8204993  42.1337502   3.7926839  27.2302040  51.6397390   6.5249544
  26.5563738  51.9429087   7.1334502  27.6167862  52.4426470   6.1755001
  27.2295544  40.5353937  11.1449894  27.9767363  41.0475334  10.8357016
  27.4987134  40.2137990  12.0054287  25.5022194  43.0312478   8.1276848
  24.5933414  42.7471511   8.2249318  25.5317278  43.4511556   7.2680155
  30.7341462  46.6419067  11.8968016  30.2803789  45.8009977  11.9533206
  30.1035428  47.2780466  12.2342796  29.6774381  37.5711053  13.1268683
  28.9397138  37.0588439  13.4578926  29.9301155  37.1311435  12.3151960
  29.1774401  48.4795564  12.8317834  29.4697375  49.0400621  12.1130199
  29.6873022  48.7724125  13.5870993  29.7786009  30.3487305  13.7210452
  30.0844885  29.4884669  13.4336367  30.5038613  30.9404925  13.5209446
  16.0710365  40.7517992  12.1092050  15.8734764  40.1587353  11.3843117
  15.5157029  40.4470202  12.8267989  24.0507088  40.6441098  14.2286643
  24.1055698  39.6914935  14.1529120  23.2398290  40.8000537  14.7127942
  25.1998282  44.5721221   5.4664927  24.7617712  43.8557080   5.0070564
  25.9408723  44.7997336   4.9050018  21.9899448  39.2618158  11.9877022
  21.1767314  39.5612329  12.3942214  22.4858442  38.8673847  12.7051504
  24.1408026  49.2575915  13.9211287  24.0984205  49.4836761  12.9919819
  25.0570725  49.0239290  14.0697088  33.3171397  42.8478418  11.5241245
  33.1789295  43.0380014  10.5962434  32.9607616  43.6097801  11.9809296
  21.4813523  36.8336514  17.6038257  22.1212902  36.6925273  16.9061220
  20.6491054  36.5471027  17.2276859  33.3440776  44.9154945  16.5352517
  33.7777283  44.8230235  17.3835571  34.0572357  44.8912446  15.8972533
  22.2573827  46.1338944  13.7173250  23.0514425  45.6389264  13.5155825
  21.5465519  45.6056807  13.3540955  27.0768671  48.5157040  18.0685617
  27.1305694  49.0847976  18.8363333  26.2083453  48.6858925  17.7039654
  18.5656590  40.2782026   9.7933002  17.6354178  40.2166481  10.0102964
  18.6614062  39.7557978   8.9969644  18.4842139  36.8036839  12.3811244
  18.7448957  37.7182172  12.2720404  19.3059312  36.3361281  12.5307857
  19.9567065  38.2174596  19.5510068  20.6290118  38.0091958  18.9022717
  19.1296851  38.0196682  19.1115301  34.2056326  44.9578646  19.0685402
  34.3992216  45.8624457  19.3144677  34.1056944  44.4986065  19.9023987
  24.8345103  46.7067966  17.3971087  24.6956189  46.3386750  18.2697025
  24.0459699  47.2215605  17.2255044  25.4293255  51.8077062   8.7396623
  25.6045011  51.3365106   9.5542246  24.7426043  52.4342829   8.9677884
  26.3850318  46.0849569  14.7859924  26.0500151  46.0450339  15.6817574
  25.8854264  45.4194285  14.3130335  20.3594562  41.4917199  20.3112506
  20.2214360  40.7597438  20.9124045  21.2699485  41.4026099  20.0296693
  29.3209510  43.4305603   5.0596984  28.7038680  42.7052431   4.9630037
  28.8525998  44.1914963   4.7164058  19.9954340  54.9566425  15.5136483
  20.2350938  55.5884949  16.1915502  19.1523537  54.6054465  15.8001843
  21.1108056  37.6491027   4.1818288  20.2337522  37.5279828   3.8180535
  21.5865809  36.8577106   3.9297177  12.6310196  42.4368187  14.2759796
  13.3181236  42.1229917  13.6880811  12.4758324  43.3409552  14.0027047
  17.4344918  37.3258384  18.7044819  17.3503107  36.7184053  17.9695229
  16.6127624  37.8167402  18.7054316  24.5082202  50.7645548  17.9177987
  24.4352374  51.5700519  18.4297292  24.0659595  50.9637513  17.0926009
  24.2971982  50.0017318  11.4280809  23.5139504  50.5438998  11.5219033
  24.9964727  50.5191297  11.8275050  27.6068632  35.8111947  14.0715014
  28.1037331  35.0581909  13.7516085  26.8355613  35.8476264  13.5058224
  35.4598389  41.5152313  15.7133306  35.4488265  42.3977028  15.3427239
  34.5915769  41.1623863  15.5187843  26.9680886  50.6632382  20.0736146
  27.6808858  51.2979847  20.0012047  26.4770914  50.7596248  19.2576148
  28.6898412  44.5683634  11.6453438  27.7554691  44.6885097  11.4758142
  28.8675081  43.6656101  11.3813448  24.1903601  37.9529330  13.7986699
  23.8201388  37.4000371  14.4867604  24.6862693  37.3487464  13.2461699
  32.0770964  40.4100954  12.1803472  32.5431416  41.2428945  12.1063774
  32.5278464  39.9445935  12.8848730  22.0192799  48.4126825  20.8941717
  22.7202259  49.0463308  21.0471111  21.5487914  48.7541557  20.1337356
  30.1447195  46.7544775   9.1789624  30.4207039  46.6401370  10.0883498
  29.2751694  46.3562260   9.1401797  30.0487627  32.7781541  16.2194373
  29.1350706  33.0085767  16.3876580  30.4780728  32.8619985  17.0708406
  26.7801259  51.0031126  12.8222437  26.9623653  50.1852782  13.2850190
  27.6034245  51.2198818  12.3847327  27.1143424  49.9299311  10.0837486
  27.6431191  49.4191765   9.4707648  27.3771644  49.6141841  10.9483019
  17.6160517  47.9463180  17.8272819  18.2013954  47.2006868  17.9600724
  17.4185356  48.2567137  18.7109483  20.4699172  50.9814428  12.8435262
  19.8009548  51.4660555  12.3599302  20.3312042  51.2283648  13.7578640
  12.2078172  40.5168780  16.5477263  12.2462271  39.9832371  17.3414381
  11.7018465  39.9903986  15.9288240  24.6104441  53.0158171  19.4417920
  25.1622749  53.1789793  20.2067005  24.9510634  53.6062609  18.7697945
  19.5868934  35.3633321  20.0439805  19.6510261  36.2248152  19.6317203
  19.5236054  34.7507323  19.3112163  19.0621207  37.4356453  23.6912839
  19.6893246  37.0533531  24.3050364  18.2049126  37.2170655  24.0568532
  15.8386749  39.2432883   9.6231194  16.1340191  38.3343561   9.5698248
  14.9374785  39.2220622   9.3012196  27.7472828  50.9640147  16.4281602
  27.6223968  50.1629886  15.9192548  28.4051919  51.4586340  15.9395572
  19.3680996  37.3188879  15.6058743  18.6467582  37.9324847  15.4666216
  20.1574252  37.8546644  15.5275389  29.8107737  48.7649167  18.0561152
  28.8638072  48.6454518  17.9839479  30.1590510  47.8771665  18.1387414
  17.5674591  36.9246980   9.7470519  17.2387297  36.0444359   9.5645625
  17.9213962  36.8694649  10.6346908  26.8154170  48.5601883  14.2565505
  26.6679132  47.6318590  14.4373075  27.6407663  48.5821974  13.7722580
  20.6816414  37.2119950  10.1145997  21.0212487  37.7405871   9.3924605
  21.1288535  37.5500356  10.8904563  30.4188292  49.3830442  15.3430377
  31.3434839  49.1773303  15.2054829  30.2503595  49.1346843  16.2519719
  22.6684561  35.7094572   8.3139290  23.3892924  36.0875824   7.8103006
  22.0449865  36.4283448   8.4174268  26.8115684  36.4139721   9.2497622
  27.0279299  37.2964358   8.9486450  26.3309751  36.0225934   8.5203264
  21.5514906  39.3725434  15.8268367  21.4059486  39.6865737  16.7192648
  21.0740109  39.9910334  15.2739265  23.4111288  36.3627982  15.8749256
  23.3972857  35.4669075  15.5381554  24.1283717  36.3698646  16.5087542
  30.2083608  49.9016109  10.6992469  30.3820485  49.3362532   9.9466321
  30.7012499  50.7017004  10.5171959  16.0260568  41.9130778  18.7656028
  15.4814036  42.6890586  18.8976302  16.9039918  42.2601583  18.6075149
  22.8148184  35.2442362  11.1436826  22.9364096  34.3159008  11.3427714
  22.5250227  35.2581048  10.2315142  25.6839375  32.9297273  14.2803546
  25.7061072  32.9936606  13.3255526  26.1007434  32.0901781  14.4744052
  36.0622999  42.6652532  12.3182769  36.5054145  41.9159857  11.9201892
  35.1849509  42.6562668  11.9356501  31.1958780  49.2182874   7.7989367
  31.8909685  49.8389566   8.0176682  31.5381931  48.3678225   8.0741745
  16.8126590  41.0400674  21.6586185  16.0708326  41.1883310  22.2450815
  16.4919334  41.3008940  20.7952934  33.0950204  46.6682579   9.3276698
  33.6201528  47.0069852   8.6026018  33.0072556  45.7329594   9.1439833
  24.7570252  50.5816653  21.4566575  25.0657379  50.3365799  22.3289274
  25.5545734  50.7863291  20.9685445  24.7790864  52.7354562  13.6871951
  24.3395855  52.2430941  14.3804808  25.5298981  52.1927530  13.4464026
  17.2583203  48.9266103  13.6896579  18.0841223  48.6269875  13.3095223
  16.9077255  48.1573726  14.1386368  22.2264736  48.2792571  15.7594253
  21.6044746  47.6163276  15.4596481  22.8969603  48.3053703  15.0767901
  15.4591808  46.8452430  14.6485513  14.6223717  46.4174604  14.4669514
  15.4315454  47.0384873  15.5856304  21.7878243  46.8296495   9.2352713
  21.9366364  47.5131959   8.5819386  22.5944687  46.8101585   9.7502169
  35.6055864  44.1357770  14.7105216  36.4402755  44.5747574  14.8742777
  35.7414993  43.6596424  13.8913462  19.5430876  42.8561672  10.2413782
  19.2976918  41.9524002  10.4393992  19.7126791  42.8578823   9.2993260
  18.8126524  38.5890030   7.7399944  18.1195769  38.6634385   7.0839980
  18.5678276  37.8250374   8.2621461  27.4840180  30.1485631  15.1439434
  27.7641934  29.4808820  15.7699861  28.2690787  30.3414727  14.6314098
  25.2873649  49.3244625   6.7064461  24.7147616  49.9434812   6.2534933
  25.8606443  49.8743987   7.2404383  28.5070909  49.6081775   7.8373043
  29.4401582  49.5427337   8.0405919  28.4194122  50.4438042   7.3787576
  31.1358925  48.9247646   4.7976991  31.0572557  48.5907509   5.6912749
  31.9568592  49.4169414   4.7968463  33.8337117  41.7909385  18.0053309
  33.8013437  40.8525386  18.1912993  34.4437740  41.8693422  17.2719134
  25.6720447  40.6605438   4.0480513  26.6179552  40.5311646   4.1168931
  25.2934692  39.9220100   4.5249941  33.9831605  38.5820428  18.0511592
  33.4670654  37.7978885  17.8641521  34.8671554  38.2539145  18.2158112
  31.6442332  32.3261444  14.0107405  31.4467153  32.0176532  14.8950737
  32.2542038  33.0523083  14.1405335  39.6513666  42.8525392  17.1459346
  40.3817055  42.5910680  17.7067049  39.0420612  42.1154114  17.1861414
  37.7328964  40.9933254  17.7433797  37.0062127  40.8589219  17.1350289
  37.3176250  41.3010083  18.5490515  23.8563365  38.5855414   3.9835399
  22.9494820  38.2888527   4.0598112  24.1339346  38.2885232   3.1169685
  14.7741305  39.9061778  14.4334445  14.4544089  39.0527086  14.1408819
  14.2274733  40.1210356  15.1892412  18.5521212  42.6224219  18.1503951
  18.7707222  43.5541327  18.1691985  18.9646986  42.2632193  18.9358755
  25.4725430  33.1292304  10.1379640  24.6626159  32.7839389  10.5134886
  26.1609847  32.8199848  10.7267251  27.4015979  32.2070351  11.7603936
  27.9547017  32.6265804  12.4193960  27.6386065  31.2806099  11.8026892
  22.6262149  35.4442350   4.1247378  23.4881313  35.7697248   4.3843195
  22.8112493  34.6573845   3.6120444  14.6429565  43.5264689  16.4027567
  13.9493036  43.1118642  15.8897521  15.3902556  43.5685226  15.8060985
  30.7794786  34.3170876  11.2682601  30.1993455  34.9755680  10.8860653
  30.5130718  33.4948221  10.8570018  29.2298352  33.7175934  13.4703921
  29.7298130  33.8292468  12.6618240  29.8733960  33.4136987  14.1104729
  16.5566307  43.4582943  14.2793581  16.5336996  43.5570630  13.3275464
  16.8666944  44.3048094  14.6010748  19.2153685  45.5159098  18.3940196
  20.1696939  45.4843040  18.3270127  19.0166209  45.0549722  19.2090422
  19.8053067  44.0860214  20.9610993  20.6245956  44.5804293  20.9845831
  20.0789875  43.1692182  20.9328561  29.5619664  36.4770966  10.3238949
  28.6745519  36.7620617  10.1059144  29.9773653  36.3164730   9.4766226
  32.9134200  36.5017487  14.0393288  33.6894590  36.9913940  14.3117905
  32.1882334  36.9275542  14.4965158  35.3506758  37.2145107  15.0967229
  35.9451249  36.9740843  14.3860537  35.4233342  36.4952237  15.7240765
  17.5703914  51.0578718  15.4110394  17.4358382  50.2979118  14.8448392
  17.1535976  51.7819617  14.9439183  28.7062877  46.2415641   4.4186969
  29.4098727  46.4465644   5.0344625  27.9825526  46.8092403   4.6836052
  29.5360687  41.9925502  10.5389239  29.4795889  42.4494054   9.6996872
  30.0889030  41.2316187  10.3612082  33.3465493  37.7815234  11.3639359
  33.0902428  37.3811870  12.1947566  32.7218361  38.4959028  11.2389498
  37.6577831  40.5211307  13.8710650  37.0977389  40.5904497  14.6442212
  37.0521335  40.3452292  13.1510146  20.7273040  51.9548035  15.6228836
  20.6105424  52.8993467  15.5207527  19.9065486  51.6521596  16.0114636
  30.6149575  46.6798170   6.4685429  31.4495178  46.2479369   6.2862904
  30.4533917  46.5080184   7.3962323  30.2695467  43.1830284   7.8341768
  30.2144271  43.0174555   6.8930212  29.6441522  43.8906316   7.9903958
  15.0587982  38.4198348  21.6603191  15.7046845  37.9097302  22.1490416
  14.8505133  39.1567030  22.2346616  23.5791592  32.6838393   7.4127087
  23.5670262  33.6280233   7.5695358  24.4715014  32.5008538   7.1186548
  21.7527554  52.6076296  18.8384765  22.6554801  52.6399907  19.1551260
  21.5264924  51.6776747  18.8531101  23.5081156  51.3607283  15.4994843
  22.5576787  51.3609145  15.3859216  23.8113642  50.6140018  14.9830878
  27.3943712  29.2781169  11.6673024  26.6276107  28.7239656  11.8129706
  27.8054417  29.3503038  12.5287175  19.3985473  35.5665965  25.7578205
  20.2616934  35.2102770  25.9681529  18.8250883  35.2279860  26.4453609
  39.2433850  57.1967821  16.5640606  39.8812260  57.0774569  15.8603946
  39.1254693  58.1448665  16.6228558  36.0523556  57.1495249  16.5002130
  35.7142067  57.0336314  15.6122665  36.9213324  56.7486415  16.4803137
  31.9110372  59.0030726  12.4899021  31.3475237  58.9120663  11.7215309
  31.7962767  58.1830630  12.9701514  36.5343339  58.3030101  22.4588336
  36.5231980  57.9082899  21.5868840  36.6963978  57.5696174  23.0522107
  29.4574804  60.4981918  15.3283242  30.2496095  60.1572742  14.9129541
  29.6971454  60.6076893  16.2485395  37.4909930  62.6701694   7.8013486
  36.8397910  63.2555774   7.4147500  38.2854293  63.2007889   7.8608524
  31.4165557  59.7590831   8.2000621  32.1896433  59.2119818   8.0613496
  31.7690956  60.6235080   8.4115082  33.2550600  61.0867213  21.4067520
  32.9640466  61.9912844  21.2914186  33.8907584  61.1283741  22.1211590
  34.1806807  58.4644062  17.9968880  34.7770379  58.2400084  17.2825843
  34.2381778  57.7228807  18.5994327  33.7531835  55.9183497   5.8319071
  34.0057356  55.3965018   5.0702534  32.8156394  55.7549642   5.9345754
  38.7975118  54.9219275  13.6393814  39.5838207  54.5038698  13.2884231
  39.0613822  55.8265367  13.8075462  38.9685195  60.3592126   8.3382471
  38.3331028  60.4326752   9.0503375  38.6382602  60.9485724   7.6601550
  44.1983545  54.8594508  14.5426792  44.9308717  54.2893725  14.7764622
  43.4422901  54.4716109  14.9833298  33.4728124  57.8211603   8.0343446
  33.3564382  57.1456506   8.7024530  33.5830384  57.3343977   7.2175599
  35.8159665  57.2821750  11.7390135  35.4517872  56.7552371  12.4503056
  36.6726781  56.8920219  11.5656620  35.4565152  52.3111650   6.7351483
  35.6239554  53.1791886   7.1021954  35.2662321  52.4738931   5.8112773
  38.2140485  60.7728629  18.4017314  37.9141208  61.6753667  18.2933121
  37.8691545  60.5060812  19.2538467  31.6652967  57.2242425  14.4354018
  30.7403463  57.0918639  14.6431710  31.9137380  58.0036645  14.9323960
  41.6137629  53.2911169  16.0814751  40.7054506  53.2226577  15.7873512
  41.5625225  53.7683114  16.9096576  35.4354373  54.7669307   7.7198150
  35.3153998  55.2126358   8.5583630  34.7406961  55.1154625   7.1611688
  29.0261778  56.8675699  15.2697807  29.1554159  57.1210178  16.1837219
  28.3459229  57.4603407  14.9502462  33.1961265  67.5372949  11.3688281
  33.1185295  68.4880774  11.4476762  32.5922909  67.1918821  12.0263208
  43.4799275  51.4927607  17.8592625  42.8373656  51.7860140  17.2132419
  42.9754204  51.3780527  18.6645822  41.1339439  55.2390780   8.5478484
  42.0457295  55.4718167   8.3726182  40.6249086  55.8227825   7.9853563
  33.9424867  57.5186268  23.5867615  34.6839551  58.0571312  23.3102439
  33.2361852  58.1452556  23.7439167  39.4180207  59.6615408  22.1839777
  39.8263563  59.2197819  21.4394409  38.6957468  59.0868036  22.4373970
  39.7409021  60.2216599  15.9392066  39.1117884  60.3862313  15.2368133
  39.3534683  60.6358208  16.7103030  43.6198253  61.1571037  13.2936429
  42.9349291  61.5369938  12.7433463  43.7042103  61.7666363  14.0268377
  40.8749185  58.8030996  19.8931773  41.0866080  59.4462756  19.2166154
  40.8278933  57.9693312  19.4253703  38.4775414  51.4148816  16.7968345
  37.6159893  51.7130070  17.0885083  38.5037848  51.6319215  15.8649378
  35.2936983  59.9591007  13.2042151  35.7575329  60.2378710  12.4146773
  35.0293781  59.0574451  13.0215241  32.1861064  59.5062488  16.1421914
  32.7562421  59.9349757  15.5039398  32.7769176  59.2245073  16.8406100
  34.2305869  56.0814159  10.0131716  34.9329913  56.5335203  10.4805642
  33.8986498  55.4397978  10.6411609  32.6786231  54.6725916  24.3882925
  32.0484891  55.3542197  24.6218322  32.5722319  54.5608997  23.4436064
  27.9731203  54.3397712  15.3148849  27.1830257  54.5955240  14.8388960
  28.4642451  55.1546050  15.4200890  41.9895013  61.6802951  18.0654130
  42.8112456  61.2783138  17.7836812  41.9857416  61.5771185  19.0170246
  29.9245949  54.7042291  12.2732326  29.1277112  54.8160985  12.7915822
  29.6971541  55.0428943  11.4073217  35.7551616  61.2286994  20.2214841
  35.8196049  61.6907402  21.0573013  35.0462540  60.5984359  20.3497151
  26.2568906  54.5928202  17.7463840  26.5076945  55.4775212  18.0121416
  26.7928455  54.4132804  16.9738932  50.0801006  58.0241700  14.4139102
  49.3264714  57.4549098  14.2583106  50.2148547  57.9904364  15.3609736
  35.4699634  62.8955102  10.0893821  35.3345309  63.7406638  10.5178669
  36.0109446  63.0974379   9.3259755  28.9229031  60.4130540  10.6621746
  29.4353552  61.2073790  10.8127311  29.5751744  59.7156830  10.5955348
  30.7323916  63.5296296  12.7444499  30.9090544  64.4514261  12.5565483
  31.5280749  63.2154715  13.1738879  30.0176272  55.5760928  22.6206663
  29.9029788  54.6746185  22.9213761  29.1620790  55.8224625  22.2691479
  37.0968110  63.5178668  24.2194163  36.6531964  62.7315047  23.9015068
  37.7585324  63.7057819  23.5538054  31.8555231  65.0474470  18.7454842
  32.4062657  64.9191533  17.9731836  31.0166707  65.3469359  18.3949734
  39.1949348  63.7981468  22.2475564  39.1767824  64.6190349  21.7555834
  40.1169268  63.6735543  22.4725706  35.6522402  61.3125598  23.0899073
  36.1850739  60.5513886  22.8598381  35.1236484  61.0199250  23.8323227
  38.8192097  46.4185664  18.6192715  38.4756367  47.3087305  18.5431825
  39.1871060  46.2287321  17.7562300  26.8877948  58.7419194  11.4381317
  27.7253170  59.1516203  11.2215024  27.0656216  57.8018636  11.4081511
  38.7842380  56.4094275   7.1265150  38.2689004  57.1798879   7.3653537
  38.5119689  55.7359411   7.7498211  36.3689491  51.2543976  12.1850388
  35.5131088  50.8650826  12.0056027  36.7816443  51.3335936  11.3250174
  37.8988638  48.7890319  16.5841948  37.3953433  48.7520454  15.7709753
  38.1919245  49.6983062  16.6438604  34.1431524  48.8729049  15.5908130
  35.0084520  48.6771857  15.2314019  34.2109033  48.6439400  16.5177486
  43.7576654  59.1626629   9.0618323  42.9806097  58.8237789   8.6173485
  44.4368135  59.1679253   8.3873288  38.5728683  54.2821367   8.9524931
  38.2678819  54.5967516   9.8035074  39.5259125  54.3602787   8.9952264
  37.0175115  60.4411590  10.6017885  36.4896477  59.7064350  10.2891122
  36.5162618  61.2186267  10.3557853  41.9967961  58.6360611  15.7184931
  41.3391636  59.3259872  15.8065060  42.8008360  59.0257043  16.0618917
  31.7493843  51.1031257  12.9624496  32.3237595  50.8806438  12.2297689
  32.3364825  51.1719951  13.7153098  40.8073420  56.9904983  13.7688873
  41.3205302  57.6234975  14.2710583  41.4574644  56.3906179  13.4032233
  32.0763430  53.1335718   6.9820382  31.2400742  53.4710404   7.3029656
  31.9368200  52.9984697   6.0447519  34.0516510  47.9772505  11.6899566
  33.3980923  47.6621523  11.0656181  34.0096985  47.3548246  12.4159389
  35.1627715  58.2591801   3.6052858  34.2554777  58.0281054   3.8044007
  35.6598747  57.4629420   3.7926839  38.0695794  66.9689308   6.5249544
  37.3957493  67.2721004   7.1334502  38.4561616  67.7718388   6.1755001
  37.2854251  54.4654439  16.0147213  36.3676812  54.6869386  15.8568901
  37.7014394  54.5400749  15.1558921  38.0689299  55.8645855  11.1449894
  38.8161118  56.3767252  10.8357016  38.3380888  55.5429907  12.0054287
  36.3415949  58.3604395   8.1276848  35.4327168  58.0763428   8.2249318
  36.3711033  58.7803474   7.2680155  41.5735216  61.9710985  11.8968016
  41.1197543  61.1301895  11.9533206  40.9429183  62.6072383  12.2342796
  40.5168136  52.9002971  13.1268683  39.7790893  52.3880357  13.4578926
  40.7694909  52.4603353  12.3151960  40.0168155  63.8087482  12.8317834
  40.3091130  64.3692539  12.1130199  40.5266776  64.1016043  13.5870993
  40.6179763  45.6779223  13.7210452  40.9238640  44.8176586  13.4336367
  41.3432368  46.2696843  13.5209446  26.9104119  56.0809909  12.1092050
  26.7128519  55.4879270  11.3843117  26.3550783  55.7762120  12.8267989
  36.0392037  59.9013139   5.4664927  35.6011467  59.1848998   5.0070564
  36.7802477  60.1289254   4.9050018  32.8293203  54.5910076  11.9877022
  32.0161068  54.8904246  12.3942214  33.3252197  54.1965764  12.7051504
  34.9801781  64.5867833  13.9211287  34.9377959  64.8128679  12.9919819
  35.8964479  64.3531207  14.0697088  44.1565151  58.1770336  11.5241245
  44.0183050  58.3671932  10.5962434  43.8001370  58.9389719  11.9809296
  32.3207277  52.1628431  17.6038257  32.9606657  52.0217190  16.9061220
  31.4884808  51.8762945  17.2276859  44.1834531  60.2446863  16.5352517
  44.6171038  60.1522152  17.3835571  44.8966112  60.2204364  15.8972533
  33.0967581  61.4630862  13.7173250  33.8908180  60.9681182  13.5155825
  32.3859274  60.9348725  13.3540955  37.9162426  63.8448957  18.0685617
  37.9699448  64.4139894  18.8363333  37.0477207  64.0150842  17.7039654
  29.4050345  55.6073943   9.7933002  28.4747933  55.5458399  10.0102964
  29.5007817  55.0849896   8.9969644  29.3235894  52.1328756  12.3811244
  29.5842711  53.0474089  12.2720404  30.1453066  51.6653199  12.5307857
  30.7960819  53.5466513  19.5510068  31.4683873  53.3383876  18.9022717
  29.9690606  53.3488599  19.1115301  45.0450081  60.2870564  19.0685402
  45.2385971  61.1916374  19.3144677  44.9450699  59.8277983  19.9023987
  40.1065189  60.4377306  24.6426283  39.9550696  60.2087858  23.7256366
  40.0969869  61.3947908  24.6557628  36.8750526  58.0109219  19.6272549
  37.8042586  58.1620379  19.4541516  36.4541556  58.0993240  18.7721196
  35.6738857  62.0359884  17.3971087  35.5349943  61.6678668  18.2697025
  34.8853454  62.5507523  17.2255044  36.2687009  67.1368980   8.7396623
  36.4438765  66.6657023   9.5542246  35.5819797  67.7634746   8.9677884
  37.2244073  61.4141486  14.7859924  36.8893905  61.3742256  15.6817574
  36.7248018  60.7486202  14.3130335  31.1988317  56.8209116  20.3112506
  31.0608114  56.0889355  20.9124045  32.1093240  56.7318016  20.0296693
  40.1603264  58.7597521   5.0596984  39.5432435  58.0344349   4.9630037
  39.6919753  59.5206881   4.7164058  33.8270617  56.5329076  19.7996185
  34.5370236  55.8922268  19.7582804  33.7839925  56.7841971  20.7222366
  41.8157396  63.4696429  22.7202764  41.7569942  62.7855649  22.0533347
  42.2176914  64.2115419  22.2683390  32.5399551  53.5194294  21.6191825
  32.0036908  53.0685032  22.2713421  31.9516260  53.6540202  20.8762289
  30.8348095  70.2858343  15.5136483  31.0744693  70.9176867  16.1915502
  29.9917291  69.9346383  15.8001843  31.9501810  52.9782945   4.1818288
  31.0731276  52.8571746   3.8180535  32.4259563  52.1869023   3.9297177
  41.8174803  61.4336013  20.9516744  40.9301582  61.0961935  21.0743143
  42.3873354  60.7019044  21.1885510  23.4703950  57.7660105  14.2759796
  24.1574990  57.4521835  13.6880811  23.3152079  58.6701469  14.0027047
  28.2738672  52.6550301  18.7044819  28.1896861  52.0475971  17.9695229
  27.4521379  53.1459320  18.7054316  35.3475957  66.0937465  17.9177987
  35.2746128  66.8992437  18.4297292  34.9053350  66.2929431  17.0926009
  35.1365736  65.3309235  11.4280809  34.3533258  65.8730916  11.5219033
  35.8358481  65.8483215  11.8275050  38.4462386  51.1403865  14.0715014
  38.9431086  50.3873827  13.7516085  37.6749368  51.1768181  13.5058224
  46.2992144  56.8444230  15.7133306  46.2882020  57.7268946  15.3427239
  45.4309523  56.4915781  15.5187843  37.8074640  65.9924299  20.0736146
  38.5202612  66.6271764  20.0012047  37.3164669  66.0888165  19.2576148
  39.5292167  59.8975552  11.6453438  38.5948446  60.0177014  11.4758142
  39.7068835  58.9948019  11.3813448  35.0297355  53.2821248  13.7986699
  34.6595143  52.7292288  14.4867604  35.5256447  52.6779381  13.2461699
  42.9164718  55.7392871  12.1803472  43.3825170  56.5720863  12.1063774
  43.3672219  55.2737853  12.8848730  32.8586554  63.7418743  20.8941717
  33.5596013  64.3755226  21.0471111  32.3881669  64.0833474  20.1337356
  40.9840949  62.0836693   9.1789624  41.2600793  61.9693287  10.0883498
  40.1145448  61.6854177   9.1401797  40.8881381  48.1073458  16.2194373
  39.9744461  48.3377685  16.3876580  41.3174482  48.1911902  17.0708406
  40.6587840  56.2963350  18.7194267  40.0059290  56.5439258  18.0646720
  41.0368219  55.4827488  18.3856744  37.6195013  66.3323043  12.8222437
  37.8017408  65.5144699  13.2850190  38.4427999  66.5490736  12.3847327
  37.9537179  65.2591229  10.0837486  38.4824945  64.7483683   9.4707648
  38.2165398  64.9433759  10.9483019  36.7075413  57.0383161  25.2060304
  36.0316050  56.9377291  25.8762679  37.5303046  56.8822375  25.6696301
  28.4554272  63.2755098  17.8272819  29.0407708  62.5298786  17.9600724
  28.2579110  63.5859055  18.7109483  31.3092927  66.3106345  12.8435262
  30.6403302  66.7952473  12.3599302  31.1705797  66.5575566  13.7578640
  23.0471926  55.8460698  16.5477263  23.0856026  55.3124289  17.3414381
  22.5412219  55.3195904  15.9288240  35.4498195  68.3450089  19.4417920
  36.0016503  68.5081710  20.2067005  35.7904389  68.9354527  18.7697945
  29.9014961  52.7648371  23.6912839  30.5287000  52.3825448  24.3050364
  29.0442880  52.5462573  24.0568532  40.3009070  63.1711346  25.2966575
  40.8448974  63.7841305  24.8021529  39.7195915  63.7290925  25.8133588
  26.6780504  54.5724800   9.6231194  26.9733945  53.6635479   9.5698248
  25.7768540  54.5512540   9.3012196  38.5866583  66.2932064  16.4281602
  38.4617722  65.4921804  15.9192548  39.2445674  66.7878258  15.9395572
  30.2074751  52.6480797  15.6058743  29.4861337  53.2616765  15.4666216
  30.9968007  53.1838562  15.5275389  40.6501491  64.0941084  18.0561152
  39.7031827  63.9746436  17.9839479  40.9984264  63.2063582  18.1387414
  28.4068346  52.2538898   9.7470519  28.0781052  51.3736277   9.5645625
  28.7607716  52.1986567  10.6346908  37.6547924  63.8893801  14.2565505
  37.5072887  62.9610508  14.4373075  38.4801418  63.9113891  13.7722580
  31.5210169  52.5411868  10.1145997  31.8606241  53.0697789   9.3924605
  31.9682289  52.8792274  10.8904563  41.2582046  64.7122359  15.3430377
  42.1828594  64.5065221  15.2054829  41.0897350  64.4638761  16.2519719
  34.8670081  48.0098231  18.0176388  35.6896151  47.5358709  17.8955278
  35.1108145  48.7888715  18.5175074  33.5078316  51.0386489   8.3139290
  34.2286678  51.4167742   7.8103006  32.8843620  51.7575366   8.4174268
  37.6509439  51.7431638   9.2497622  37.8673053  52.6256276   8.9486450
  37.1703506  51.3517852   8.5203264  32.3908660  54.7017351  15.8268367
  32.2453241  55.0157655  16.7192648  31.9133864  55.3202252  15.2739265
  34.2505043  51.6919899  15.8749256  34.2366612  50.7960993  15.5381554
  34.9677471  51.6990563  16.5087542  41.0477362  65.2308027  10.6992469
  41.2214240  64.6654449   9.9466321  41.5406254  66.0308922  10.5171959
  26.8654322  57.2422696  18.7656028  26.3207790  58.0182504  18.8976302
  27.7433672  57.5893500  18.6075149  33.6541939  50.5734280  11.1436826
  33.7757850  49.6450926  11.3427714  33.3643981  50.5872966  10.2315142
  36.5233129  48.2589190  14.2803546  36.5454826  48.3228523  13.3255526
  36.9401188  47.4193699  14.4744052  46.9016754  57.9944450  12.3182769
  47.3447900  57.2451775  11.9201892  46.0243264  57.9854586  11.9356501
  42.0352535  64.5474791   7.7989367  42.7303440  65.1681484   8.0176682
  42.3775685  63.6970142   8.0741745  27.6520344  56.3692592  21.6586185
  26.9102080  56.5175227  22.2450815  27.3313088  56.6300858  20.7952934
  43.9343958  61.9974497   9.3276698  44.4595282  62.3361769   8.6026018
  43.8466311  61.0621512   9.1439833  35.5964007  65.9108570  21.4566575
  35.9051133  65.6657717  22.3289274  36.3939489  66.1155209  20.9685445
  35.6184619  68.0646480  13.6871951  35.1789609  67.5722859  14.3804808
  36.3692736  67.5219448  13.4464026  28.0976958  64.2558021  13.6896579
  28.9234978  63.9561793  13.3095223  27.7471010  63.4865643  14.1386368
  33.0658491  63.6084489  15.7594253  32.4438500  62.9455194  15.4596481
  33.7363358  63.6345621  15.0767901  26.2985563  62.1744347  14.6485513
  25.4617471  61.7466522  14.4669514  26.2709208  62.3676791  15.5856304
  43.6237864  62.6307400  24.6327896  42.8333408  62.6131539  24.0932395
  43.3871219  63.1695694  25.3876933  43.7435739  59.4799867  21.9460624
  43.7933744  59.3149874  22.8876147  43.6349663  58.6127126  21.5558505
  32.6271998  62.1588412   9.2352713  32.7760118  62.8423877   8.5819386
  33.4338441  62.1393502   9.7502169  45.2453936  61.8996808  22.1902646
  44.9538744  62.2626789  23.0266107  44.6326067  61.1863817  22.0115978
  46.4449618  59.4649688  14.7105216  47.2796510  59.9039492  14.8742777
  46.5808747  58.9888341  13.8913462  43.4941124  57.0229423  20.6582704
  43.9695246  57.2157069  19.8501555  42.5706690  57.0788609  20.4126088
  30.3824631  58.1853590  10.2413782  30.1370673  57.2815920  10.4393992
  30.5520545  58.1870741   9.2993260  29.6520278  53.9181948   7.7399944
  28.9589523  53.9926303   7.0839980  29.4072030  53.1542291   8.2621461
  38.3233935  45.4777549  15.1439434  38.6035689  44.8100738  15.7699861
  39.1084542  45.6706645  14.6314098  36.1267403  64.6536543   6.7064461
  35.5541370  65.2726730   6.2534933  36.7000197  65.2035905   7.2404383
  42.1942793  53.8995183  18.8911010  43.1460216  53.9993281  18.9123234
  42.0246244  53.1073452  19.4009094  39.3464663  64.9373693   7.8373043
  40.2795336  64.8719255   8.0405919  39.2587876  65.7729960   7.3787576
  41.9752680  64.2539563   4.7976991  41.8966311  63.9199427   5.6912749
  42.7962347  64.7461331   4.7968463  44.6730871  57.1201303  18.0053309
  44.6407191  56.1817303  18.1912993  45.2831495  57.1985339  17.2719134
  36.5114202  55.9897356   4.0480513  37.4573307  55.8603564   4.1168931
  36.1328447  55.2512018   4.5249941  44.8225360  53.9112346  18.0511592
  44.3064408  53.1270803  17.8641521  45.7065308  53.5831063  18.2158112
  42.4836086  47.6553362  14.0107405  42.2860908  47.3468450  14.8950737
  43.0935792  48.3815001  14.1405335  50.4907421  58.1817309  17.1459346
  51.2210809  57.9202598  17.7067049  49.8814366  57.4446031  17.1861414
  48.5722718  56.3225172  17.7433797  47.8455882  56.1881137  17.1350289
  48.1570005  56.6302001  18.5490515  36.3952894  60.0415102  25.5081170
  37.3155904  60.2193701  25.7021217  36.3602477  59.0971147  25.3560870
  34.6957119  53.9147332   3.9835399  33.7888574  53.6180445   4.0598112
  34.9733100  53.6177150   3.1169685  25.6135059  55.2353695  14.4334445
  25.2937844  54.3819004  14.1408819  25.0668488  55.4502274  15.1892412
  29.3914967  57.9516136  18.1503951  29.6100977  58.8833244  18.1691985
  29.8040741  57.5924111  18.9358755  36.3119185  48.4584222  10.1379640
  35.5019913  48.1131307  10.5134886  37.0003602  48.1491765  10.7267251
  38.2409733  47.5362269  11.7603936  38.7940772  47.9557722  12.4193960
  38.4779819  46.6098017  11.8026892  34.2642832  53.5249342  27.5406700
  34.1639559  54.4743699  27.4718791  34.0464374  53.1967581  26.6682770
  33.4655904  50.7734267   4.1247378  34.3275068  51.0989166   4.3843195
  33.6506248  49.9865763   3.6120444  25.4823319  58.8556607  16.4027567
  24.7886791  58.4410560  15.8897521  26.2296310  58.8977143  15.8060985
  41.6188540  49.6462794  11.2682601  41.0387209  50.3047598  10.8860653
  41.3524473  48.8240138  10.8570018  40.0692107  49.0467851  13.4703921
  40.5691885  49.1584386  12.6618240  40.7127714  48.7428904  14.1104729
  34.1274102  56.9546481  26.3571762  33.6441184  57.7546841  26.5635651
  34.2135041  56.9654426  25.4039206  27.3960062  58.7874861  14.2793581
  27.3730750  58.8862548  13.3275464  27.7060698  59.6340011  14.6010748
  30.0547440  60.8451016  18.3940196  31.0090693  60.8134958  18.3270127
  29.8559963  60.3841639  19.2090422  30.6446822  59.4152132  20.9610993
  31.4639711  59.9096210  20.9845831  30.9183630  58.4984100  20.9328561
  40.4013418  51.8062884  10.3238949  39.5139273  52.0912535  10.1059144
  40.8167407  51.6456647   9.4766226  43.7527954  51.8309405  14.0393288
  44.5288344  52.3205858  14.3117905  43.0276088  52.2567459  14.4965158
  46.1900513  52.5437024  15.0967229  46.7845004  52.3032760  14.3860537
  46.2627097  51.8244155  15.7240765  28.4097669  66.3870635  15.4110394
  28.2752137  65.6271036  14.8448392  27.9929731  67.1111535  14.9439183
  39.5456632  61.5707559   4.4186969  40.2492482  61.7757561   5.0344625
  38.8219280  62.1384321   4.6836052  40.3754442  57.3217420  10.5389239
  40.3189643  57.7785971   9.6996872  40.9282784  56.5608105  10.3612082
  44.1859248  53.1107152  11.3639359  43.9296182  52.7103788  12.1947566
  43.5612116  53.8250946  11.2389498  48.4971586  55.8503225  13.8710650
  47.9371144  55.9196414  14.6442212  47.8915089  55.6744210  13.1510146
  31.5666794  67.2839952  15.6228836  31.4499179  68.2285385  15.5207527
  30.7459241  66.9813514  16.0114636  41.4543329  62.0090088   6.4685429
  42.2888933  61.5771286   6.2862904  41.2927672  61.8372102   7.3962323
  41.1089221  58.5122201   7.8341768  41.0538025  58.3466473   6.8930212
  40.4835276  59.2198234   7.9903958  25.8981736  53.7490266  21.6603191
  26.5440600  53.2389220  22.1490416  25.6898887  54.4858947  22.2346616
  38.4235128  60.8171113  27.1595331  39.2926288  60.9911765  26.7981966
  37.9441880  61.6365530  27.0371060  34.4185347  48.0130310   7.4127087
  34.4064017  48.9572150   7.5695358  35.3108769  47.8300456   7.1186548
  32.5921309  67.9368214  18.8384765  33.4948555  67.9691824  19.1551260
  32.3658679  67.0068665  18.8531101  34.3474911  66.6899201  15.4994843
  33.3970542  66.6901062  15.3859216  34.6507397  65.9431935  14.9830878
  38.2337466  44.6073087  11.6673024  37.4669862  44.0531574  11.8129706
  38.6448171  44.6794956  12.5287175  50.0827604  72.5259739  16.5640606
  50.7206014  72.4066486  15.8603946  49.9648447  73.4740583  16.6228558
  46.8917310  72.4787167  16.5002130  46.5535822  72.3628232  15.6122665
  47.7607079  72.0778332  16.4803137  42.7504126  74.3322644  12.4899021
  42.1868991  74.2412581  11.7215309  42.6356521  73.5122548  12.9701514
  47.3737093  73.6322019  22.4588336  47.3625734  73.2374817  21.5868840
  47.5357733  72.8988092  23.0522107  40.2968558  75.8273835  15.3283242
  41.0889850  75.4864660  14.9129541  40.5365208  75.9368810  16.2485395
  44.0944355  76.4159131  21.4067520  43.8034221  77.3204762  21.2914186
  44.7301339  76.4575658  22.1211590  45.0200561  73.7935979  17.9968880
  45.6164134  73.5692002  17.2825843  45.0775533  73.0520725  18.5994327
  49.6368873  70.2511193  13.6393814  50.4231962  69.8330616  13.2884231
  49.9007577  71.1557285  13.8075462  55.0377300  70.1886426  14.5426792
  55.7702472  69.6185643  14.7764622  54.2816655  69.8008027  14.9833298
  46.6553419  72.6113668  11.7390135  46.2911627  72.0844289  12.4503056
  47.5120535  72.2212137  11.5656620  52.5602720  63.9008000  19.0021401
  52.2286045  64.7703411  18.7782616  51.9648333  63.5844284  19.6815431
  49.0534240  76.1020546  18.4017314  48.7534963  77.0045585  18.2933121
  48.7085299  75.8352729  19.2538467  42.5046721  72.5534343  14.4354018
  41.5797218  72.4210557  14.6431710  42.7531134  73.3328562  14.9323960
  52.4531383  68.6203086  16.0814751  51.5448261  68.5518495  15.7873512
  52.4018979  69.0975031  16.9096576  39.8655532  72.1967617  15.2697807
  39.9947913  72.4502096  16.1837219  39.1852983  72.7895325  14.9502462
  46.5272249  70.0392732  24.0249648  45.7505583  70.5986652  24.0152513
  47.1662812  70.5249515  24.5464518  54.3193030  66.8219525  17.8592625
  53.6767410  67.1152058  17.2132419  53.8147958  66.7072445  18.6645822
  44.7818621  72.8478185  23.5867615  45.5233306  73.3863229  23.3102439
  44.0755607  73.4744474  23.7439167  50.2573961  74.9907326  22.1839777
  50.6657317  74.5489736  21.4394409  49.5351223  74.4159953  22.4373970
  46.6105031  69.9279933  19.5573334  47.4566226  70.3519346  19.7007983
  46.5503669  69.2713557  20.2511897  50.5802776  75.5508516  15.9392066
  49.9511638  75.7154231  15.2368133  50.1928438  75.9650126  16.7103030
  49.7604477  67.5884301  21.2154507  49.5165408  68.3426361  20.6788783
  50.0364407  67.9669649  22.0501754  51.7142939  74.1322913  19.8931773
  51.9259835  74.7754673  19.2166154  51.6672688  73.2985230  19.4253703
  49.3169168  66.7440734  16.7968345  48.4553647  67.0421988  17.0885083
  49.3431603  66.9611133  15.8649378  46.1330738  75.2882925  13.2042151
  46.5969083  75.5670628  12.4146773  45.8687536  74.3866369  13.0215241
  43.0254819  74.8354406  16.1421914  43.5956176  75.2641674  15.5039398
  43.6162931  74.5536991  16.8406100  45.0699624  71.4106077  10.0131716
  45.7723667  71.8627121  10.4805642  44.7380252  70.7689896  10.6411609
  43.5179985  70.0017834  24.3882925  42.8878646  70.6834114  24.6218322
  43.4116073  69.8900915  23.4436064  38.8124958  69.6689630  15.3148849
  38.0224012  69.9247158  14.8388960  39.3036205  70.4837967  15.4200890
  52.8288767  77.0094869  18.0654130  53.6506211  76.6075056  17.7836812
  52.8251170  76.9063103  19.0170246  40.7639703  70.0334209  12.2732326
  39.9670866  70.1452903  12.7915822  40.5365295  70.3720861  11.4073217
  46.5945371  76.5578912  20.2214841  46.6589803  77.0199319  21.0573013
  45.8856295  75.9276277  20.3497151  37.0962661  69.9220120  17.7463840
  37.3470699  70.8067130  18.0121416  37.6322209  69.7424722  16.9738932
  42.7960728  64.3038599  26.7508176  42.4027674  63.7504798  27.4255821
  43.6126868  64.6149178  27.1414694  39.7622786  75.7422458  10.6621746
  40.2747306  76.5365708  10.8127311  40.4145499  75.0448748  10.5955348
  45.7128689  65.7196478  24.3428433  46.4538402  66.3203632  24.2632895
  45.9446612  64.9774116  23.7846475  40.8570027  70.9052846  22.6206663
  40.7423542  70.0038103  22.9213761  40.0014545  71.1516542  22.2691479
  47.9361865  78.8470586  24.2194163  47.4925719  78.0606965  23.9015068
  48.5979078  79.0349737  23.5538054  42.6948986  80.3766388  18.7454842
  43.2456411  80.2483451  17.9731836  41.8560462  80.6761277  18.3949734
  50.0343103  79.1273386  22.2475564  50.0161578  79.9482267  21.7555834
  50.9563023  79.0027461  22.4725706  46.4916157  76.6417515  23.0899073
  47.0244494  75.8805804  22.8598381  45.9630238  76.3491167  23.8323227
  49.6585852  61.7477581  18.6192715  49.3150121  62.6379223  18.5431825
  50.0264815  61.5579239  17.7562300  37.7271703  74.0711112  11.4381317
  38.5646925  74.4808120  11.2215024  37.9049970  73.1310554  11.4081511
  47.2083246  66.5835893  12.1850388  46.3524842  66.1942744  12.0056027
  47.6210197  66.6627854  11.3250174  48.7382392  64.1182237  16.5841948
  48.2347188  64.0812372  15.7709753  49.0312999  65.0274979  16.6438604
  44.9825278  64.2020966  15.5908130  45.8478275  64.0063775  15.2314019
  45.0502787  63.9731318  16.5177486  52.8361716  73.9652528  15.7184931
  52.1785390  74.6551790  15.8065060  53.6402115  74.3548960  16.0618917
  42.5887597  66.4323174  12.9624496  43.1631349  66.2098356  12.2297689
  43.1758580  66.5011869  13.7153098  51.6467174  72.3196901  13.7688873
  52.1599056  72.9526893  14.2710583  52.2968398  71.7198097  13.4032233
  44.8910265  63.3064423  11.6899566  44.2374677  62.9913440  11.0656181
  44.8490739  62.6840164  12.4159389  48.1248005  69.7946357  16.0147213
  47.2070567  70.0161304  15.8568901  48.5408149  69.8692667  15.1558921
  51.3561890  68.2294889  13.1268683  50.6184647  67.7172275  13.4578926
  51.6088664  67.7895270  12.3151960  51.4573518  61.0071141  13.7210452
  51.7632394  60.1468504  13.4336367  52.1826122  61.5988761  13.5209446
  37.7497874  71.4101827  12.1092050  37.5522273  70.8171188  11.3843117
  37.1944538  71.1054037  12.8267989  45.7294597  71.3024934  14.2286643
  45.7843207  70.3498770  14.1529120  44.9185799  71.4584373  14.7127942
  43.6686957  69.9201993  11.9877022  42.8554823  70.2196164  12.3942214
  44.1645951  69.5257682  12.7051504  49.2661169  70.3843818  20.8191916
  49.6210557  70.6115291  21.6786382  49.9133300  70.7162195  20.1969171
  43.1601032  67.4920349  17.6038257  43.8000411  67.3509108  16.9061220
  42.3278563  67.2054862  17.2276859  43.9361336  76.7922779  13.7173250
  44.7301934  76.2973099  13.5155825  43.2253028  76.2640642  13.3540955
  48.7556180  79.1740875  18.0685617  48.8093203  79.7431811  18.8363333
  47.8870962  79.3442760  17.7039654  40.2444099  70.9365861   9.7933002
  39.3141687  70.8750317  10.0102964  40.3401571  70.4141814   8.9969644
  40.1629648  67.4620674  12.3811244  40.4236466  68.3766007  12.2720404
  40.9846821  66.9945116  12.5307857  41.6354574  68.8758431  19.5510068
  42.3077627  68.6675793  18.9022717  40.8084360  68.6780517  19.1115301
  55.8843835  75.6162481  19.0685402  56.0779725  76.5208292  19.3144677
  55.7844453  75.1569900  19.9023987  50.9458944  75.7669224  24.6426283
  50.7944450  75.5379776  23.7256366  50.9363623  76.7239826  24.6557628
  47.7144280  73.3401137  19.6272549  48.6436340  73.4912297  19.4541516
  47.2935310  73.4285158  18.7721196  46.5132612  77.3651801  17.3971087
  46.3743698  76.9970586  18.2697025  45.7247208  77.8799441  17.2255044
  48.0637827  76.7433404  14.7859924  47.7287660  76.7034174  15.6817574
  47.5641773  76.0778120  14.3130335  42.0382071  72.1501034  20.3112506
  41.9001869  71.4181273  20.9124045  42.9486994  72.0609934  20.0296693
  44.6664372  71.8620993  19.7996185  45.3763990  71.2214186  19.7582804
  44.6233680  72.1133888  20.7222366  52.6551150  78.7988347  22.7202764
  52.5963696  78.1147567  22.0533347  53.0570669  79.5407337  22.2683390
  43.3793306  68.8486211  21.6191825  42.8430663  68.3976950  22.2713421
  42.7910014  68.9832120  20.8762289  52.6568558  76.7627931  20.9516744
  51.7695336  76.4253852  21.0743143  53.2267109  76.0310962  21.1885510
  34.3097705  73.0952022  14.2759796  34.9968745  72.7813752  13.6880811
  34.1545833  73.9993387  14.0027047  39.1132427  67.9842219  18.7044819
  39.0290616  67.3767889  17.9695229  38.2915133  68.4751237  18.7054316
  46.1869711  81.4229383  17.9177987  46.1139882  82.2284355  18.4297292
  45.7447104  81.6221349  17.0926009  49.2856141  66.4695782  14.0715014
  49.7824840  65.7165745  13.7516085  48.5143122  66.5060099  13.5058224
  57.1385898  72.1736148  15.7133306  57.1275774  73.0560863  15.3427239
  56.2703278  71.8207699  15.5187843  48.6468395  81.3216217  20.0736146
  49.3596367  81.9563682  20.0012047  48.1558423  81.4180083  19.2576148
  45.8691109  68.6113165  13.7986699  45.4988897  68.0584206  14.4867604
  46.3650202  68.0071299  13.2461699  43.6980308  79.0710661  20.8941717
  44.3989768  79.7047143  21.0471111  43.2275423  79.4125392  20.1337356
  51.7275136  63.4365376  16.2194373  50.8138215  63.6669603  16.3876580
  52.1568237  63.5203820  17.0708406  51.4981594  71.6255268  18.7194267
  50.8453044  71.8731175  18.0646720  51.8761974  70.8119406  18.3856744
  47.5469167  72.3675079  25.2060304  46.8709804  72.2669208  25.8762679
  48.3696801  72.2114293  25.6696301  39.2948026  78.6047016  17.8272819
  39.8801463  77.8590703  17.9600724  39.0972865  78.9150972  18.7109483
  33.8865681  71.1752616  16.5477263  33.9249780  70.6416206  17.3414381
  33.3805974  70.6487821  15.9288240  46.2891950  83.6742006  19.4417920
  46.8410258  83.8373628  20.2067005  46.6298143  84.2646444  18.7697945
  41.2656443  66.0217156  20.0439805  41.3297770  66.8831987  19.6317203
  41.2023563  65.4091158  19.3112163  40.7408716  68.0940289  23.6912839
  41.3680754  67.7117366  24.3050364  39.8836635  67.8754491  24.0568532
  51.1402824  78.5003264  25.2966575  51.6842728  79.1133222  24.8021529
  50.5589669  79.0582842  25.8133588  37.5174258  69.9016718   9.6231194
  37.8127700  68.9927396   9.5698248  36.6162294  69.8804457   9.3012196
  41.0468505  67.9772714  15.6058743  40.3255091  68.5908682  15.4666216
  41.8361761  68.5130479  15.5275389  51.4895246  79.4233002  18.0561152
  50.5425581  79.3038353  17.9839479  51.8378019  78.5355500  18.1387414
  43.8494819  65.3127141  21.8799394  44.3729221  65.5589438  22.6425704
  43.6307152  66.1447176  21.4602532  39.2462100  67.5830816   9.7470519
  38.9174806  66.7028194   9.5645625  39.6001471  67.5278484  10.6346908
  42.3603923  67.8703785  10.1145997  42.6999996  68.3989707   9.3924605
  42.8076044  68.2084191  10.8904563  45.0547364  66.2540836  19.5649065
  44.7144184  65.4548649  19.9669745  44.3486370  66.5542547  18.9925898
  45.7063836  63.3390149  18.0176388  46.5289905  62.8650627  17.8955278
  45.9501899  64.1180632  18.5175074  44.3472070  66.3678407   8.3139290
  45.0680433  66.7459660   7.8103006  43.7237374  67.0867284   8.4174268
  48.4903193  67.0723556   9.2497622  48.7066808  67.9548194   8.9486450
  48.0097260  66.6809769   8.5203264  43.2302415  70.0309269  15.8268367
  43.0846995  70.3449572  16.7192648  42.7527618  70.6494169  15.2739265
  45.0898797  67.0211817  15.8749256  45.0760366  66.1252910  15.5381554
  45.8071226  67.0282481  16.5087542  46.9424928  67.4549157  17.9202384
  46.6842706  68.3766228  17.9186714  46.4109969  67.0579592  18.6102848
  37.7048077  72.5714614  18.7656028  37.1601545  73.3474422  18.8976302
  38.5827427  72.9185418  18.6075149  44.4935693  65.9026197  11.1436826
  44.6151605  64.9742844  11.3427714  44.2037736  65.9164883  10.2315142
  47.3626884  63.5881108  14.2803546  47.3848581  63.6520441  13.3255526
  47.7794943  62.7485616  14.4744052  38.4914099  71.6984510  21.6586185
  37.7495835  71.8467145  22.2450815  38.1706843  71.9592775  20.7952934
  46.4357761  81.2400488  21.4566575  46.7444888  80.9949635  22.3289274
  47.2333243  81.4447127  20.9685445  38.9370712  79.5849939  13.6896579
  39.7628732  79.2853710  13.3095223  38.5864764  78.8157561  14.1386368
  43.9052245  78.9376407  15.7594253  43.2832255  78.2747112  15.4596481
  44.5757112  78.9637539  15.0767901  37.1379317  77.5036265  14.6485513
  36.3011226  77.0758439  14.4669514  37.1102963  77.6968708  15.5856304
  43.9776773  67.4158195  25.3526759  44.0264928  68.2920318  24.9704528
  44.5199287  66.8735588  24.7798402  54.4631619  77.9599318  24.6327896
  53.6727162  77.9423457  24.0932395  54.2264973  78.4987612  25.3876933
  54.5829494  74.8091784  21.9460624  54.6327499  74.6441792  22.8876147
  54.4743417  73.9419043  21.5558505  51.8733256  70.7922712  23.2619931
  52.7743119  70.6529177  22.9703929  51.9481231  70.9577167  24.2018109
  46.2076061  68.1689567  22.1073118  45.3379371  68.4623133  21.8355706
  46.4435542  68.7530012  22.8280381  56.0847690  77.2288726  22.1902646
  55.7932499  77.5918706  23.0266107  55.4719822  76.5155734  22.0115978
  54.3334879  72.3521341  20.6582704  54.8089000  72.5448987  19.8501555
  53.4100444  72.4080526  20.4126088  41.2218385  73.5145508  10.2413782
  40.9764427  72.6107838  10.4393992  41.3914300  73.5162658   9.2993260
  48.9115095  64.3869184  19.6238538  49.4297039  65.1230211  19.2985026
  48.5570228  64.6933177  20.4585297  40.4914033  69.2473865   7.7399944
  39.7983278  69.3218220   7.0839980  40.2465785  68.4834209   8.2621461
  49.1627689  60.8069467  15.1439434  49.4429443  60.1392656  15.7699861
  49.9478296  60.9998562  14.6314098  53.0336548  69.2287101  18.8911010
  53.9853971  69.3285198  18.9123234  52.8639998  68.4365369  19.4009094
  51.0550927  66.3142684  19.0770411  50.4600859  66.5947697  18.3816899
  50.7700624  66.8036585  19.8487152  55.5124626  72.4493220  18.0053309
  55.4800946  71.5109221  18.1912993  56.1225249  72.5277257  17.2719134
  55.6619114  69.2404264  18.0511592  55.1458163  68.4562720  17.8641521
  56.5459063  68.9122980  18.2158112  53.3229841  62.9845279  14.0107405
  53.1254662  62.6760368  14.8950737  53.9329547  63.7106918  14.1405335
  59.4116472  71.6517090  17.7433797  58.6849636  71.5173055  17.1350289
  58.9963759  71.9593918  18.5490515  47.2346649  75.3707019  25.5081170
  48.1549658  75.5485618  25.7021217  47.1996232  74.4263065  25.3560870
  36.4528814  70.5645613  14.4334445  36.1331598  69.7110921  14.1408819
  35.9062242  70.7794191  15.1892412  40.2308721  73.2808054  18.1503951
  40.4494731  74.2125162  18.1691985  40.6434495  72.9216029  18.9358755
  47.1512939  63.7876139  10.1379640  46.3413668  63.4423224  10.5134886
  47.8397356  63.4783683  10.7267251  49.0803488  62.8654186  11.7603936
  49.6334526  63.2849640  12.4193960  49.3173574  61.9389934  11.8026892
  45.1036587  68.8541260  27.5406700  45.0033314  69.8035617  27.4718791
  44.8858129  68.5259499  26.6682770  36.3217074  74.1848525  16.4027567
  35.6280545  73.7702477  15.8897521  37.0690065  74.2269061  15.8060985
  52.4582295  64.9754711  11.2682601  51.8780964  65.6339515  10.8860653
  52.1918227  64.1532056  10.8570018  50.9085861  64.3759769  13.4703921
  51.4085639  64.4876304  12.6618240  51.5521469  64.0720822  14.1104729
  44.9667857  72.2838399  26.3571762  44.4834939  73.0838759  26.5635651
  45.0528796  72.2946344  25.4039206  38.2353816  74.1166778  14.2793581
  38.2124505  74.2154466  13.3275464  38.5454453  74.9631929  14.6010748
  40.8941194  76.1742933  18.3940196  41.8484448  76.1426876  18.3270127
  40.6953718  75.7133557  19.2090422  41.4840576  74.7444049  20.9610993
  42.3033465  75.2388128  20.9845831  41.7577384  73.8276018  20.9328561
  51.2407173  67.1354802  10.3238949  50.3533028  67.4204452  10.1059144
  51.6561162  66.9748565   9.4766226  54.5921709  67.1601323  14.0393288
  55.3682099  67.6497775  14.3117905  53.8669843  67.5859377  14.4965158
  57.0294267  67.8728942  15.0967229  57.6238758  67.6324678  14.3860537
  57.1020851  67.1536073  15.7240765  39.2491423  81.7162553  15.4110394
  39.1145891  80.9562954  14.8448392  38.8323485  82.4403453  14.9439183
  42.4060549  82.6131870  15.6228836  42.2892933  83.5577302  15.5207527
  41.5852995  82.3105431  16.0114636  36.7375491  69.0782183  21.6603191
  37.3834354  68.5681137  22.1490416  36.5292642  69.8150865  22.2346616
  49.2628883  76.1463031  27.1595331  50.1320043  76.3203683  26.7981966
  48.7835634  76.9657448  27.0371060  45.2579101  63.3422228   7.4127087
  45.2457771  64.2864068   7.5695358  46.1502523  63.1592373   7.1186548
  43.4315063  83.2660132  18.8384765  44.3342310  83.2983742  19.1551260
  43.2052433  82.3360583  18.8531101  49.0731221  59.9365005  11.6673024
  48.3063616  59.3823491  11.8129706  49.4841926  60.0086873  12.5287175
  41.0772982  66.2249800  25.7578205  41.9404443  65.8686605  25.9681529
  40.5038392  65.8863695  26.4453609  57.3666004  85.3684650  24.0249648
  56.5899338  85.9278570  24.0152513  58.0056567  85.8541433  24.5464518
  54.3573740  85.3309751  24.3882925  53.7272400  86.0126032  24.6218322
  54.2509828  85.2192833  23.4436064  53.6354482  79.6330517  26.7508176
  53.2421428  79.0796716  27.4255821  54.4520623  79.9441096  27.1414694
  56.5522443  81.0488396  24.3428433  57.2932157  81.6495549  24.2632895
  56.7840366  80.3066034  23.7846475  51.6963781  86.2344763  22.6206663
  51.5817297  85.3330021  22.9213761  50.8408299  86.4808460  22.2691479
  58.3773900  80.8312290  21.5675729  57.7301815  81.5302239  21.4740206
  59.1474916  81.2648434  21.9351978  54.2187060  84.1778129  21.6191825
  53.6824417  83.7268867  22.2713421  53.6303769  84.3124038  20.8762289
  49.9526181  83.3134137  18.7044819  49.8684370  82.7059806  17.9695229
  49.1308888  83.8043155  18.7054316  58.3862922  87.6966997  25.2060304
  57.7103559  87.5961126  25.8762679  59.2090555  87.5406210  25.6696301
  52.1050198  81.3509074  20.0439805  52.1691524  82.2123905  19.6317203
  52.0417318  80.7383076  19.3112163  51.5802470  83.4232206  23.6912839
  52.2074509  83.0409284  24.3050364  50.7230389  83.2046408  24.0568532
  54.6888573  80.6419059  21.8799394  55.2122975  80.8881355  22.6425704
  54.4700907  81.4739093  21.4602532  49.3307853  87.0276427  21.6586185
  48.5889589  87.1759063  22.2450815  49.0100597  87.2884693  20.7952934
  54.8170527  82.7450112  25.3526759  54.8658683  83.6212235  24.9704528
  55.3593042  82.2027506  24.7798402  57.0469816  83.4981485  22.1073118
  56.1773125  83.7915051  21.8355706  57.2829296  84.0821930  22.8280381
  55.9430341  84.1833178  27.5406700  55.8427068  85.1327534  27.4718791
  55.7251883  83.8551416  26.6682770  55.8061611  87.6130316  26.3571762
  55.3228693  88.4130676  26.5635651  55.8922550  87.6238261  25.4039206
  47.5769245  84.4074101  21.6603191  48.2228109  83.8973055  22.1490416
  47.3686396  85.1442783  22.2346616  51.9166736  81.5541718  25.7578205
  52.7798198  81.1978523  25.9681529  51.3432147  81.2155613  26.4453609
  26.2574357  25.1948873  10.9439470  25.8138211  24.4085252  10.6260374
  26.9191571  25.3828024  10.2783361  28.3555595  25.4751673   8.9720871
  28.3374070  26.2960554   8.4801140  29.2775515  25.3505748   9.1971012
  24.8128649  22.9895803   9.8144379  25.3456986  22.2284091   9.5843687
  24.2842730  22.6969454  10.5568534  34.2056327  21.9640769   5.7930709
  34.3992217  22.8686579   6.0389984  34.1056945  21.5048188   6.6269294
  29.2671436  22.1147511  11.3671589  29.1156942  21.8858063  10.4501673
  29.2576115  23.0718113  11.3802934  30.9763643  25.1466634   9.4448071
  30.9176189  24.4625854   8.7778654  31.3783161  25.8885624   8.9928697
  30.9781050  23.1106218   7.6762051  30.0907829  22.7732140   7.7988450
  31.5479601  22.3789249   7.9130816  26.9680887  27.6694504   6.7981453
  27.6808859  28.3041969   6.7257354  26.4770915  27.7658370   5.9821454
  25.8681659  18.7153366  11.9305611  25.1922296  18.6147496  12.6007986
  26.6909293  18.5592580  12.3941608  24.6104442  30.0220294   6.1663227
  25.1622750  30.1851915   6.9312312  24.9510636  30.6124732   5.4943252
  29.4615317  24.8481551  12.0211881  30.0055221  25.4611509  11.5266836
  28.8802161  25.4061130  12.5378894  24.7570254  27.5878775   8.1811881
  25.0657380  27.3427922   9.0534581  25.5545736  27.7925414   7.6930751
  32.7844111  24.3077605  11.3573203  31.9939655  24.2901744  10.8177702
  32.5477465  24.8465899  12.1122239  32.9041986  21.1570072   8.6705931
  32.9539991  20.9920079   9.6121454  32.7955909  20.2897331   8.2803812
  34.4060183  23.5767013   8.9147953  34.1144991  23.9396994   9.7511414
  33.7932314  22.8634021   8.7361285  25.5559141  21.7185307  12.2326477
  26.4762151  21.8963906  12.4266523  25.5208724  20.7741352  12.0806176
  23.2880349  18.6316686  13.0817069  22.8047431  19.4317046  13.2880958
  23.3741288  18.6424631  12.1284513  27.5841375  22.4941318  13.8840638
  28.4532535  22.6681970  13.5227273  27.1048127  23.3135735  13.7616367
  39.2433851  34.2029944   3.2885912  39.8812261  34.0836691   2.5849252
  39.1254694  35.1510788   3.3473865  36.0523557  34.1557372   3.2247437
  35.7142069  34.0398437   2.3367972  36.9213325  33.7548537   3.2048443
  36.5343340  35.3092224   9.1833643  36.5231981  34.9145022   8.3114146
  36.6963980  34.5758296   9.7767414  29.4574805  37.5044040   2.0528549
  30.2496097  37.1634865   1.6374848  29.6971455  37.6139015   2.9730702
  37.4909932  39.6763816  -5.4741207  36.8397911  40.2617897  -5.8607193
  38.2854294  40.2070011  -5.4146170  33.2550601  38.0929336   8.1312827
  32.9640467  38.9974966   8.0159493  33.8907586  38.1345863   8.8456896
  34.1806808  35.4706184   4.7214186  34.7770380  35.2462207   4.0071149
  34.2381780  34.7290930   5.3239634  38.7975119  31.9281398   0.3639120
  39.5838209  31.5100821   0.0129537  39.0613824  32.8327490   0.5320769
  44.1983547  31.8656631   1.2672099  44.9308718  31.2955848   1.5009928
  43.4422902  31.4778231   1.7078605  35.8159666  34.2883873  -1.5364559
  35.4517873  33.7614494  -0.8251637  36.6726782  33.8982342  -1.7098073
  41.7208967  25.5778205   5.7266708  41.3892292  26.4473616   5.5027923
  41.1254580  25.2614489   6.4060738  38.2140486  37.7790751   5.1262620
  37.9141209  38.6815790   5.0178428  37.8691546  37.5122934   5.9783773
  31.6652968  34.2304548   1.1599325  30.7403464  34.0980762   1.3677016
  31.9137381  35.0098767   1.6569267  41.6137630  30.2973291   2.8060058
  40.7054508  30.2288700   2.5118819  41.5625226  30.7745236   3.6341883
  29.0261779  33.8737822   1.9943114  29.1554160  34.1272300   2.9082526
  28.3459230  34.4665530   1.6747769  33.1961266  44.5435071  -1.9066412
  33.1185296  45.4942897  -1.8277931  32.5922910  44.1980944  -1.2491486
  35.6878496  31.7162937  10.7494955  34.9111830  32.2756857  10.7397820
  36.3269059  32.2019720  11.2709825  43.4799277  28.4989730   4.5837932
  42.8373657  28.7922263   3.9377726  42.9754205  28.3842650   5.3891128
  33.9424868  34.5248390  10.3112922  34.6839553  35.0633434  10.0347746
  33.2361854  35.1514679  10.4684474  39.4180208  36.6677531   8.9085083
  39.8263564  36.2259941   8.1639716  38.6957469  36.0930158   9.1619276
  35.7711278  31.6050137   6.2818640  36.6172473  32.0289551   6.4253289
  35.7109916  30.9483762   6.9757203  39.7409023  37.2278721   2.6637372
  39.1117885  37.3924435   1.9613440  39.3534685  37.6420331   3.4348336
  43.6198254  38.1633159   0.0181736  42.9349293  38.5432061  -0.5321231
  43.7042104  38.7728486   0.7513684  38.9210723  29.2654506   7.9399814
  38.6771655  30.0196566   7.4034090  39.1970654  29.6439853   8.7747061
  40.8749186  35.8093118   6.6177080  41.0866081  36.4524878   5.9411461
  40.8278934  34.9755435   6.1499010  38.4775415  28.4210939   3.5213652
  37.6159894  28.7192192   3.8130389  38.5037850  28.6381338   2.5894684
  35.2936984  36.9653129  -0.0712543  35.7575330  37.2440832  -0.8607920
  35.0293783  36.0636574  -0.2539452  32.1861065  36.5124611   2.8667221
  32.7562423  36.9411879   2.2284705  32.7769177  36.2307196   3.5651406
  32.6786232  31.6788038  11.1128232  32.0484893  32.3604319  11.3463629
  32.5722320  31.5671120  10.1681370  41.9895014  38.6865074   4.7899437
  42.8112458  38.2845261   4.5082119  41.9857417  38.5833308   5.7415553
  35.7551617  38.2349117   6.9460147  35.8196050  38.6969524   7.7818319
  35.0462541  37.6046482   7.0742457  26.2568907  31.5990325   4.4709147
  26.5076946  32.4837335   4.7366723  26.7928456  31.4194926   3.6984239
  50.0801007  35.0303822   1.1384408  49.3264715  34.4611220   0.9828413
  50.2148548  34.9966487   2.0855043  35.4699635  39.9017224  -3.1860872
  35.3345310  40.7468760  -2.7576024  36.0109448  40.1036502  -3.9494938
  31.9566975  25.9808804  13.4753483  31.5633920  25.4275003  14.1501127
  32.7733115  26.2919383  13.8660000  30.7323917  40.5358419  -0.5310194
  30.9090546  41.4576383  -0.7189210  31.5280751  40.2216838  -0.1015814
  34.8734936  27.3966683  11.0673739  35.6144649  27.9973837  10.9878202
  35.1052859  26.6544321  10.5091782  30.0176274  32.5823051   9.3451969
  29.9029789  31.6808308   9.6459068  29.1620791  32.8286747   8.9936786
  37.0968111  40.5240791  10.9439470  36.6531966  39.7377170  10.6260374
  37.7585325  40.7119941  10.2783361  31.8555233  42.0536593   5.4700148
  32.4062658  41.9253656   4.6977142  31.0166709  42.3531482   5.1195041
  39.1949350  40.8043591   8.9720871  39.1767825  41.6252472   8.4801140
  40.1169270  40.6797666   9.1971012  35.6522404  38.3187720   9.8144379
  36.1850741  37.5576009   9.5843687  35.1236485  38.0261372  10.5568534
  38.8192099  23.4247786   5.3438021  38.4756368  24.3149428   5.2677132
  39.1871061  23.2349444   4.4807606  37.8988639  25.7952441   3.3087254
  37.3953435  25.7582577   2.4955060  38.1919246  26.7045184   3.3683911
  43.7576656  36.1688752  -4.2136370  42.9806098  35.8299912  -4.6581208
  44.4368137  36.1741375  -4.8881405  37.0175116  37.4473713  -2.6736809
  36.4896478  36.7126472  -2.9863571  36.5162619  38.2248389  -2.9196840
  41.9967962  35.6422733   2.4430238  41.3391637  36.3321995   2.5310366
  42.8008362  36.0319165   2.7864224  40.8073421  33.9967106   0.4934179
  41.3205303  34.6297098   0.9955889  41.4574645  33.3968302   0.1277540
  38.0695795  43.9751430  -6.7505149  37.3957494  44.2783127  -6.1420192
  38.4561617  44.7780511  -7.0999692  37.2854252  31.4716562   2.7392520
  36.3676813  31.6931509   2.5814208  37.7014396  31.5462872   1.8804227
  38.0689300  32.8707977  -2.1304800  38.8161119  33.3829374  -2.4397678
  38.3380889  32.5492030  -1.2700406  41.5735217  38.9773107  -1.3786678
  41.1197545  38.1364017  -1.3221487  40.9429184  39.6134506  -1.0411898
  40.5168137  29.9065094  -0.1486010  39.7790894  29.3942480   0.1824232
  40.7694911  29.4665475  -0.9602734  40.0168157  40.8149604  -0.4436860
  40.3091131  41.3754661  -1.1624494  40.5266777  41.1078165   0.3116299
  34.8900844  32.9795139   0.9531950  34.9449454  32.0268975   0.8774427
  34.0792046  33.1354578   1.4373248  34.9801782  41.5929955   0.6456593
  34.9377961  41.8190802  -0.2834874  35.8964481  41.3593330   0.7942395
  38.4267416  32.0614023   7.5437223  38.7816803  32.2885496   8.4031688
  39.0739547  32.3932400   6.9214478  44.1565153  35.1832459  -1.7513448
  44.0183051  35.3734055  -2.6792259  43.8001371  35.9451841  -1.2945397
  32.3207279  29.1690554   4.3283564  32.9606658  29.0279313   3.6306527
  31.4884809  28.8825067   3.9522166  44.1834532  37.2508986   3.2597823
  44.6171039  37.1584275   4.1080877  44.8966113  37.2266486   2.6217839
  33.0967583  38.4692984   0.4418556  33.8908181  37.9743304   0.2401131
  32.3859275  37.9410847   0.0786262  37.9162427  40.8511080   4.7930924
  37.9699449  41.4202016   5.5608640  37.0477208  41.0212965   4.4284961
  30.7960821  30.5528636   6.2755375  31.4683874  30.3445998   5.6268024
  29.9690607  30.3550722   5.8360607  45.0450082  37.2932686   5.7930709
  45.2385972  38.1978497   6.0389984  44.9450700  36.8340105   6.6269294
  36.6986393  27.1790577   8.2921036  36.0514308  27.8780527   8.1985512
  37.4687408  27.6126721   8.6597284  40.1065190  37.4439429  11.3671589
  39.9550697  37.2149981  10.4501673  40.0969870  38.4010031  11.3802934
  36.8750527  35.0171342   6.3517856  37.8042587  35.1682501   6.1786823
  36.4541557  35.1055363   5.4966502  35.6738859  39.0422006   4.1216393
  35.5349944  38.6740791   4.9942331  34.8853455  39.5569646   3.9500351
  36.2687011  44.1431103  -4.5358070  36.4438766  43.6719146  -3.7212447
  35.5819799  44.7696869  -4.3076809  37.2244074  38.4203609   1.5105231
  36.8893906  38.3804379   2.4062881  36.7248019  37.7548325   1.0375641
  31.1988318  33.8271239   7.0357812  31.0608116  33.0951478   7.6369351
  32.1093241  33.7380139   6.7542000  33.8270618  33.5391198   6.5241492
  34.5370237  32.8984390   6.4828110  33.7839927  33.7904093   7.4467673
  41.8157397  40.4758552   9.4448071  41.7569943  39.7917772   8.7778654
  42.2176915  41.2177542   8.9928697  32.5399552  30.5256416   8.3437131
  32.0036909  30.0747155   8.9958728  31.9516261  30.6602325   7.6007596
  30.8348096  47.2920465   2.2381790  31.0744694  47.9238990   2.9160809
  29.9917292  46.9408505   2.5247149  41.8174804  38.4398136   7.6762051
  40.9301583  38.1024057   7.7988450  42.3873355  37.7081167   7.9130816
  28.2738674  29.6612424   5.4290126  28.1896862  29.0538093   4.6940536
  27.4521380  30.1521442   5.4299622  35.3475958  43.0999588   4.6423294
  35.2746129  43.9054559   5.1542599  34.9053351  43.2991554   3.8171315
  35.1365737  42.3371358  -1.8473884  34.3533259  42.8793038  -1.7535660
  35.8358483  42.8545338  -1.4479643  46.2992145  33.8506353   2.4378612
  46.2882021  34.7331068   2.0672546  45.4309524  33.4977904   2.2433149
  37.8074641  42.9986422   6.7981453  38.5202613  43.6333887   6.7257354
  37.3164670  43.0950288   5.9821454  39.5292168  36.9037675  -1.6301256
  38.5948447  37.0239137  -1.7996551  39.7068837  36.0010141  -1.8941246
  42.9164720  32.7454994  -1.0951222  43.3825172  33.5782986  -1.1690919
  43.3672220  32.2799975  -0.3905963  32.8586555  40.7480865   7.6187023
  33.5596014  41.3817348   7.7716418  32.3881670  41.0895597   6.8582663
  40.9840951  39.0898815  -4.0965070  41.2600795  38.9755410  -3.1871195
  40.1145449  38.6916300  -4.1352896  40.8881382  25.1135581   2.9439680
  39.9744462  25.3439808   3.1121887  41.3174484  25.1974025   3.7953712
  40.6587841  33.3025473   5.4439574  40.0059291  33.5501380   4.7892027
  41.0368221  32.4889611   5.1102051  37.6195015  43.3385166  -0.4532256
  37.8017409  42.5206822   0.0095496  38.4428001  43.5552858  -0.8907366
  37.9537180  42.2653351  -3.1917207  38.4824947  41.7545806  -3.8047045
  38.2165400  41.9495881  -2.3271674  36.7075414  34.0445284  11.9305611
  36.0316051  33.9439413  12.6007986  37.5303048  33.8884498  12.3941608
  28.4554273  40.2817220   4.5518126  29.0407710  39.5360908   4.6846030
  28.2579111  40.5921177   5.4354790  31.3092928  43.3168468  -0.4319431
  30.6403303  43.8014595  -0.9155391  31.1705798  43.5637688   0.4823947
  35.4498197  45.3512211   6.1663227  36.0016505  45.5143833   6.9312312
  35.7904390  45.9416649   5.4943252  30.4262690  27.6987361   6.7685112
  30.4904016  28.5602192   6.3562509  30.3629810  27.0861363   6.0357470
  29.9014962  29.7710494  10.4158146  30.5287001  29.3887571  11.0295670
  29.0442881  29.5524696  10.7813838  40.3009071  40.1773469  12.0211881
  40.8448975  40.7903427  11.5266836  39.7195916  40.7353047  12.5378894
  38.5866584  43.2994187   3.1526909  38.4617723  42.4983927   2.6437855
  39.2445675  43.7940380   2.6640879  40.6501492  41.1003207   4.7806459
  39.7031828  40.9808558   4.7084786  40.9984265  40.2125705   4.8632721
  33.0101066  26.9897346   8.6044701  33.5335468  27.2359642   9.3671010
  32.7913399  27.8217381   8.1847838  37.6547926  40.8955923   0.9810811
  37.5072888  39.9672631   1.1618381  38.4801419  40.9176014   0.4967887
  41.2582047  41.7184482   2.0675684  42.1828595  41.5127343   1.9300135
  41.0897351  41.4700883   2.9765026  34.2153611  27.9311041   6.2894372
  33.8750431  27.1318854   6.6915051  33.5092617  28.2312752   5.7171205
  34.8670083  25.0160353   4.7421695  35.6896152  24.5420832   4.6200585
  35.1108146  25.7950837   5.2420381  32.3908661  31.7079474   2.5513673
  32.2453242  32.0219777   3.4437955  31.9133865  32.3264374   1.9984572
  34.2505044  28.6982022   2.5994563  34.2366613  27.8023115   2.2626861
  34.9677472  28.7052686   3.2332849  36.1031175  29.1319362   4.6447690
  35.8448953  30.0536433   4.6432021  35.5716215  28.7349797   5.3348154
  41.0477364  42.2370149  -2.5762224  41.2214241  41.6716572  -3.3288372
  41.5406255  43.0371044  -2.7582734  26.8654324  34.2484818   5.4901334
  26.3207792  35.0244626   5.6221609  27.7433673  34.5955623   5.3320456
  46.9016755  35.0006572  -0.9571925  47.3447901  34.2513898  -1.3552801
  46.0243265  34.9916709  -1.3398193  42.0352536  41.5536914  -5.4765326
  42.7303441  42.1743606  -5.2578012  42.3775686  40.7032265  -5.2012948
  27.6520345  33.3754715   8.3831491  26.9102081  33.5237350   8.9696122
  27.3313090  33.6362980   7.5198241  43.9343959  39.0036619  -3.9477995
  44.4595283  39.3423892  -4.6728675  43.8466312  38.0683635  -4.1314861
  35.5964008  42.9170693   8.1811881  35.9051134  42.6719840   9.0534581
  36.3939490  43.1217331   7.6930751  35.6184620  45.0708603   0.4117258
  35.1789610  44.5784981   1.1050115  36.3692737  44.5281570   0.1709333
  28.0976959  41.2620143   0.4141886  28.9234979  40.9623915   0.0340529
  27.7471011  40.4927766   0.8631675  33.0658492  40.6146612   2.4839559
  32.4438501  39.9517317   2.1841787  33.7363359  40.6407744   1.8013207
  26.2985564  39.1806470   1.3730819  25.4617472  38.7528644   1.1914821
  26.2709210  39.3738913   2.3101611  33.1383020  29.0928400  12.0772066
  33.1871175  29.9690523  11.6949835  33.6805534  28.5505793  11.5043709
  43.6237865  39.6369523  11.3573203  42.8333409  39.6193662  10.8177702
  43.3871220  40.1757817  12.1122239  43.7435740  36.4861989   8.6705931
  43.7933745  36.3211997   9.6121454  43.6349664  35.6189248   8.2803812
  41.0339503  32.4692917   9.9865238  41.9349366  32.3299382   9.6949236
  41.1087477  32.6347372  10.9263415  35.3682308  29.8459772   8.8318424
  34.4985618  30.1393338   8.5601013  35.6041789  30.4300217   9.5525688
  45.2453937  38.9058931   8.9147953  44.9538746  39.2688911   9.7511414
  44.6326069  38.1925939   8.7361285  46.4449620  36.4711811   1.4350523
  47.2796511  36.9101615   1.5988083  46.5808748  35.9950464   0.6158769
  43.4941126  34.0291545   7.3828011  43.9695247  34.2219192   6.5746862
  42.5706691  34.0850731   7.1371394  38.0721342  26.0639389   6.3483845
  38.5903286  26.8000416   6.0230333  37.7176475  26.3703382   7.1830604
  42.1942794  30.9057306   5.6156316  43.1460217  31.0055403   5.6368540
  42.0246245  30.1135574   6.1254401  40.2157174  27.9912889   5.8015717
  39.6207106  28.2717901   5.1062206  39.9306871  28.4806790   6.5732458
  39.3464664  41.9435816  -5.4381650  40.2795338  41.8781377  -5.2348775
  39.2587877  42.7792082  -5.8967118  41.9752681  41.2601686  -8.4777703
  41.8966313  40.9261550  -7.5841945  42.7962348  41.7523454  -8.4786230
  44.6730872  34.1263425   4.7298616  44.6407192  33.1879426   4.9158300
  45.2831496  34.2047462   3.9964441  44.8225361  30.9174469   4.7756899
  44.3064409  30.1332925   4.5886828  45.7065309  30.5893185   4.9403419
  42.4836088  24.6615484   0.7352712  42.2860909  24.3530572   1.6196044
  43.0935793  25.3877123   0.8650642  50.4907422  35.1879432   3.8704653
  51.2210811  34.9264720   4.4312356  49.8814368  34.4508154   3.9106721
  48.5722719  33.3287295   4.4679104  47.8455883  33.1943260   3.8595595
  48.1570006  33.6364123   5.2735822  36.3952896  37.0477224  12.2326477
  37.3155905  37.2255823  12.4266523  36.3602479  36.1033270  12.0806176
  29.3914968  34.9578259   4.8749258  29.6100978  35.8895367   4.8937292
  29.8040742  34.5986233   5.6604062  34.2642834  30.5311465  14.2652007
  34.1639560  31.4805822  14.1964098  34.0464376  30.2029704  13.3928077
  25.4823321  35.8618730   3.1272873  24.7886792  35.4472682   2.6142828
  26.2296312  35.9039266   2.5306292  34.1274104  33.9608604  13.0817069
  33.6441185  34.7608964  13.2880958  34.2135043  33.9716548  12.1284513
  30.0547441  37.8513138   5.1185502  31.0090695  37.8197081   5.0515434
  29.8559965  37.3903762   5.9335728  30.6446823  36.4214254   7.6856300
  31.4639712  36.9158333   7.7091137  30.9183631  35.5046223   7.6573868
  43.7527956  28.8371528   0.7638595  44.5288346  29.3267980   1.0363212
  43.0276090  29.2629582   1.2210464  46.1900514  29.5499147   1.8212535
  46.7845005  29.3094883   1.1105844  46.2627098  28.8306277   2.4486072
  28.4097670  43.3932758   2.1355700  28.2752138  42.6333159   1.5693698
  27.9929732  44.1173658   1.6684489  40.3754443  34.3279543  -2.7365454
  40.3189645  34.7848094  -3.5757822  40.9282786  33.5670227  -2.9142611
  44.1859249  30.1169274  -1.9115335  43.9296183  29.7165910  -1.0807127
  43.5612117  30.8313068  -2.0365196  48.4971587  32.8565348   0.5955957
  47.9371145  32.9258537   1.3687519  47.8915090  32.6806332  -0.1244547
  31.5666796  44.2902075   2.3474143  31.4499180  45.2347507   2.2452833
  30.7459242  43.9875636   2.7359942  41.4543330  39.0152211  -6.8069264
  42.2888934  38.5833409  -6.9891790  41.2927673  38.8434224  -5.8792370
  25.8981737  30.7552388   8.3848497  26.5440601  30.2451342   8.8735722
  25.6898889  31.4921070   8.9591922  38.4235130  37.8233236  13.8840638
  39.2926289  37.9973888  13.5227273  37.9441881  38.6427653  13.7616367
  32.5921310  44.9430337   5.5630071  33.4948557  44.9753947   5.8796566
  32.3658680  44.0130788   5.5776407  34.3474912  43.6961323   2.2240150
  33.3970543  43.6963185   2.1104522  34.6507398  42.9494058   1.7076185
  30.2379228  27.9020005  12.4823511  31.1010690  27.5456810  12.6926836
  29.6644639  27.5633900  13.1698916  50.0827605  49.5321862   3.2885912
  50.7206015  49.4128609   2.5849252  49.9648448  50.4802706   3.3473865
  46.8917312  49.4849290   3.2247437  46.5535823  49.3690354   2.3367972
  47.7607080  49.0840455   3.2048443  42.7504127  51.3384766  -0.7855672
  42.1868992  51.2474703  -1.5539384  42.6356522  50.5184671  -0.3053179
  47.3737095  50.6384141   9.1833643  47.3625735  50.2436940   8.3114146
  47.5357734  49.9050214   9.7767414  40.2968559  52.8335958   2.0528549
  41.0889851  52.4926782   1.6374848  40.5365209  52.9430933   2.9730702
  44.0944356  53.4221253   8.1312827  43.8034222  54.3266884   8.0159493
  44.7301340  53.4637781   8.8456896  45.0200563  50.7998102   4.7214186
  45.6164135  50.5754124   4.0071149  45.0775534  50.0582847   5.3239634
  49.6368874  47.2573316   0.3639120  50.4231963  46.8392739   0.0129537
  49.9007578  48.1619408   0.5320769  55.0377301  47.1948549   1.2672099
  55.7702473  46.6247766   1.5009928  54.2816657  46.8070149   1.7078605
  46.6553421  49.6175790  -1.5364559  46.2911628  49.0906411  -0.8251637
  47.5120537  49.2274259  -1.7098073  52.5602721  40.9070123   5.7266708
  52.2286046  41.7765534   5.5027923  51.9648335  40.5906407   6.4060738
  49.0534241  53.1082669   5.1262620  48.7534964  54.0107708   5.0178428
  48.7085300  52.8414852   5.9783773  42.5046722  49.5596466   1.1599325
  41.5797219  49.4272680   1.3677016  42.7531136  50.3390685   1.6569267
  52.4531385  45.6265209   2.8060058  51.5448262  45.5580617   2.5118819
  52.4018980  46.1037154   3.6341883  39.8655533  49.2029739   1.9943114
  39.9947915  49.4564218   2.9082526  39.1852985  49.7957447   1.6747769
  46.5272250  47.0454855  10.7494955  45.7505585  47.6048775  10.7397820
  47.1662814  47.5311638  11.2709825  54.3193031  43.8281647   4.5837932
  53.6767411  44.1214181   3.9377726  53.8147960  43.7134568   5.3891128
  44.7818623  49.8540308  10.3112922  45.5233307  50.3925352  10.0347746
  44.0755608  50.4806597  10.4684474  50.2573962  51.9969448   8.9085083
  50.6657318  51.5551859   8.1639716  49.5351224  51.4222076   9.1619276
  46.6105032  46.9342055   6.2818640  47.4566228  47.3581469   6.4253289
  46.5503670  46.2775679   6.9757203  50.5802777  52.5570639   2.6637372
  49.9511639  52.7216353   1.9613440  50.1928439  52.9712249   3.4348336
  49.7604478  44.5946424   7.9399814  49.5165410  45.3488484   7.4034090
  50.0364408  44.9731771   8.7747061  51.7142941  51.1385036   6.6177080
  51.9259836  51.7816796   5.9411461  51.6672689  50.3047352   6.1499010
  49.3169170  43.7502857   3.5213652  48.4553649  44.0484110   3.8130389
  49.3431604  43.9673255   2.5894684  46.1330739  52.2945047  -0.0712543
  46.5969084  52.5732750  -0.8607920  45.8687537  51.3928492  -0.2539452
  43.0254820  51.8416529   2.8667221  43.5956177  52.2703797   2.2284705
  43.6162932  51.5599113   3.5651406  45.0699625  48.4168199  -3.2622978
  45.7723668  48.8689243  -2.7949051  44.7380253  47.7752018  -2.6343084
  43.5179987  47.0079956  11.1128232  42.8878647  47.6896237  11.3463629
  43.4116074  46.8963038  10.1681370  38.8124959  46.6751752   2.0394156
  38.0224013  46.9309281   1.5634267  39.3036206  47.4900090   2.1446197
  52.8288768  54.0156991   4.7899437  53.6506212  53.6137179   4.5082119
  52.8251171  53.9125225   5.7415553  40.7639704  47.0396331  -1.0022367
  39.9670868  47.1515026  -0.4838872  40.5365297  47.3782984  -1.8681477
  46.5945372  53.5641035   6.9460147  46.6589804  54.0261442   7.7818319
  45.8856296  52.9338400   7.0742457  37.0962662  46.9282243   4.4709147
  37.3470700  47.8129253   4.7366723  37.6322210  46.7486844   3.6984239
  42.7960729  41.3100722  13.4753483  42.4027675  40.7566921  14.1501127
  43.6126870  41.6211300  13.8660000  39.7622787  52.7484580  -2.6132947
  40.2747308  53.5427830  -2.4627383  40.4145500  52.0510871  -2.6799346
  45.7128690  42.7258601  11.0673739  46.4538404  43.3265754  10.9878202
  45.9446613  41.9836239  10.5091782  40.8570028  47.9114968   9.3451969
  40.7423543  47.0100226   9.6459068  40.0014546  48.1578665   8.9936786
  47.9361866  55.8532709  10.9439470  47.4925720  55.0669087  10.6260374
  48.5979080  56.0411859  10.2783361  42.6948987  57.3828510   5.4700148
  43.2456412  57.2545574   4.6977142  41.8560463  57.6823399   5.1195041
  50.0343104  56.1335509   8.9720871  50.0161579  56.9544390   8.4801140
  50.9563024  56.0089584   9.1971012  46.4916158  53.6479638   9.8144379
  47.0244495  52.8867926   9.5843687  45.9630239  53.3553290  10.5568534
  49.6585853  38.7539704   5.3438021  49.3150123  39.6441346   5.2677132
  50.0264816  38.5641362   4.4807606  37.7271704  51.0773234  -1.8373377
  38.5646926  51.4870243  -2.0539669  37.9049971  50.1372677  -1.8673183
  47.2083247  43.5898016  -1.0904305  46.3524843  43.2004866  -1.2698667
  47.6210199  43.6689977  -1.9504520  48.7382394  41.1244359   3.3087254
  48.2347189  41.0874494   2.4955060  49.0313000  42.0337102   3.3683911
  44.9825279  41.2083089   2.3153436  45.8478276  41.0125898   1.9559326
  45.0502788  40.9793441   3.2422793  52.8361717  50.9714651   2.4430238
  52.1785391  51.6613912   2.5310366  53.6402116  51.3611083   2.7864224
  42.5887599  43.4385297  -0.3130197  43.1631350  43.2160478  -1.0457004
  43.1758581  43.5073991   0.4398404  51.6467176  49.3259024   0.4934179
  52.1599057  49.9589016   0.9955889  52.2968400  48.7260219   0.1277540
  44.8910266  40.3126546  -1.5855128  44.2374679  39.9975563  -2.2098513
  44.8490740  39.6902286  -0.8595305  48.1248007  46.8008479   2.7392520
  47.2070568  47.0223426   2.5814208  48.5408150  46.8754790   1.8804227
  51.3561891  45.2357011  -0.1486010  50.6184648  44.7234397   0.1824232
  51.6088665  44.7957393  -0.9602734  51.4573519  38.0133263   0.4455759
  51.7632396  37.1530627   0.1581674  52.1826124  38.6050883   0.2454753
  37.7497875  48.4163950  -1.1662643  37.5522275  47.8233310  -1.8911577
  37.1944539  48.1116160  -0.4486704  45.7294599  48.3087056   0.9531950
  45.7843208  47.3560893   0.8774427  44.9185801  48.4646495   1.4373248
  43.6686958  46.9264116  -1.2877671  42.8554824  47.2258287  -0.8812479
  44.1645953  46.5319805  -0.5703189  49.2661170  47.3905940   7.5437223
  49.6210558  47.6177414   8.4031688  49.9133301  47.7224317   6.9214478
  43.1601033  44.4982472   4.3283564  43.8000413  44.3571231   3.6306527
  42.3278564  44.2116985   3.9522166  43.9361337  53.7984902   0.4418556
  44.7301936  53.3035222   0.2401131  43.2253030  53.2702765   0.0786262
  48.7556182  56.1802997   4.7930924  48.8093204  56.7493934   5.5608640
  47.8870963  56.3504883   4.4284961  40.2444101  47.9427984  -3.4821691
  39.3141689  47.8812439  -3.2651729  40.3401573  47.4203936  -4.2785050
  40.1629650  44.4682797  -0.8943449  40.4236467  45.3828130  -1.0034289
  40.9846822  44.0007239  -0.7446837  41.6354575  45.8820554   6.2755375
  42.3077628  45.6737916   5.6268024  40.8084362  45.6842640   5.8360607
  55.8843836  52.6224604   5.7930709  56.0779726  53.5270415   6.0389984
  55.7844454  52.1632023   6.6269294  47.5380147  42.5082495   8.2921036
  46.8908062  43.2072444   8.1985512  48.3081162  42.9418639   8.6597284
  50.9458945  52.7731347  11.3671589  50.7944451  52.5441898  10.4501673
  50.9363624  53.7301948  11.3802934  47.7144281  50.3463260   6.3517856
  48.6436341  50.4974419   6.1786823  47.2935311  50.4347280   5.4966502
  46.5132613  54.3713924   4.1216393  46.3743699  54.0032708   4.9942331
  45.7247209  54.8861563   3.9500351  48.0637828  53.7495527   1.5105231
  47.7287661  53.7096297   2.4062881  47.5641774  53.0840243   1.0375641
  42.0382072  49.1563157   7.0357812  41.9001870  48.4243395   7.6369351
  42.9486996  49.0672057   6.7542000  44.6664373  48.8683116   6.5241492
  45.3763991  48.2276308   6.4828110  44.6233681  49.1196011   7.4467673
  52.6551152  55.8050469   9.4448071  52.5963698  55.1209689   8.7778654
  53.0570670  56.5469459   8.9928697  43.3793307  45.8548334   8.3437131
  42.8430664  45.4039072   8.9958728  42.7910015  45.9894243   7.6007596
  52.6568559  53.7690053   7.6762051  51.7695338  53.4315975   7.7988450
  53.2267110  53.0373084   7.9130816  34.3097706  50.1014145   1.0005102
  34.9968746  49.7875875   0.4126117  34.1545835  51.0055510   0.7272354
  39.1132428  44.9904342   5.4290126  39.0290617  44.3830011   4.6940536
  38.2915135  45.4813360   5.4299622  46.1869712  58.4291506   4.6423294
  46.1139884  59.2346477   5.1542599  45.7447105  58.6283471   3.8171315
  49.2856142  43.4757905   0.7960321  49.7824842  42.7227867   0.4761391
  48.5143123  43.5122222   0.2303530  57.1385899  49.1798271   2.4378612
  57.1275776  50.0622986   2.0672546  56.2703279  48.8269821   2.2433149
  48.6468396  58.3278340   6.7981453  49.3596368  58.9625804   6.7257354
  48.1558424  58.4242206   5.9821454  45.8691111  45.6175288   0.5232006
  45.4988898  45.0646328   1.2112911  46.3650203  45.0133422  -0.0292994
  43.6980309  56.0772783   7.6187023  44.3989769  56.7109266   7.7716418
  43.2275424  56.4187515   6.8582663  51.7275137  40.4427499   2.9439680
  50.8138217  40.6731725   3.1121887  52.1568238  40.5265943   3.7953712
  51.4981595  48.6317391   5.4439574  50.8453046  48.8793298   4.7892027
  51.8761975  47.8181529   5.1102051  47.5469168  49.3737202  11.9305611
  46.8709805  49.2731331  12.6007986  48.3696802  49.2176415  12.3941608
  39.2948027  55.6109138   4.5518126  39.8801464  54.8652826   4.6846030
  39.0972866  55.9213095   5.4354790  33.8865682  48.1814738   3.2722569
  33.9249782  47.6478329   4.0659687  33.3805975  47.6549944   2.6533546
  46.2891951  60.6804129   6.1663227  46.8410259  60.8435751   6.9312312
  46.6298145  61.2708567   5.4943252  41.2656444  43.0279279   6.7685112
  41.3297771  43.8894110   6.3562509  41.2023565  42.4153281   6.0357470
  40.7408717  45.1002411  10.4158146  41.3680756  44.7179489  11.0295670
  39.8836636  44.8816613  10.7813838  51.1402826  55.5065387  12.0211881
  51.6842729  56.1195345  11.5266836  50.5589670  56.0644965  12.5378894
  37.5174260  46.9078841  -3.6523499  37.8127701  45.9989519  -3.7056446
  36.6162295  46.8866580  -3.9742497  41.0468507  44.9834837   2.3304049
  40.3255092  45.5970805   2.1911523  41.8361762  45.5192602   2.2520695
  51.4895247  56.4295125   4.7806459  50.5425582  56.3100476   4.7084786
  51.8378020  55.5417623   4.8632721  43.8494820  42.3189264   8.6044701
  44.3729222  42.5651560   9.3671010  43.6307153  43.1509298   8.1847838
  39.2462101  44.5892938  -3.5284174  38.9174807  43.7090317  -3.7109068
  39.6001472  44.5340607  -2.6407785  42.3603924  44.8765908  -3.1608696
  42.6999997  45.4051829  -3.8830088  42.8076045  45.2146314  -2.3850130
  45.0547365  43.2602959   6.2894372  44.7144186  42.4610772   6.6915051
  44.3486372  43.5604670   5.7171205  45.7063837  40.3452271   4.7421695
  46.5289906  39.8712749   4.6200585  45.9501901  41.1242755   5.2420381
  44.3472072  43.3740530  -4.9615404  45.0680434  43.7521782  -5.4651687
  43.7237376  44.0929406  -4.8580426  48.4903194  44.0785679  -4.0257071
  48.7066809  44.9610316  -4.3268243  48.0097262  43.6871892  -4.7551429
  43.2302416  47.0371392   2.5513673  43.0846997  47.3511695   3.4437955
  42.7527619  47.6556292   1.9984572  45.0898799  44.0273940   2.5994563
  45.0760367  43.1315033   2.2626861  45.8071227  44.0344603   3.2332849
  46.9424929  44.4611280   4.6447690  46.6842707  45.3828351   4.6432021
  46.4109970  44.0641714   5.3348154  37.7048078  49.5776736   5.4901334
  37.1601546  50.3536544   5.6221609  38.5827428  49.9247541   5.3320456
  44.4935695  42.9088320  -2.1317867  44.6151606  41.9804966  -1.9326980
  44.2037737  42.9227006  -3.0439552  47.3626885  40.5943230   1.0048853
  47.3848582  40.6582564   0.0500832  47.7794944  39.7547739   1.1989359
  38.4914100  48.7046632   8.3831491  37.7495836  48.8529268   8.9696122
  38.1706844  48.9654898   7.5198241  46.4357763  58.2462611   8.1811881
  46.7444889  58.0011757   9.0534581  47.2333245  58.4509249   7.6930751
  38.9370714  56.5912061   0.4141886  39.7628733  56.2915833   0.0340529
  38.5864766  55.8219684   0.8631675  43.9052247  55.9438529   2.4839559
  43.2832256  55.2809234   2.1841787  44.5757114  55.9699661   1.8013207
  37.1379319  54.5098388   1.3730819  36.3011227  54.0820562   1.1914821
  37.1102964  54.7030831   2.3101611  43.9776774  44.4220317  12.0772066
  44.0264930  45.2982440  11.6949835  44.5199288  43.8797710  11.5043709
  54.4631620  54.9661441  11.3573203  53.6727164  54.9485579  10.8177702
  54.2264974  55.5049734  12.1122239  54.5829495  51.8153907   8.6705931
  54.6327500  51.6503914   9.6121454  54.4743418  50.9481166   8.2803812
  51.8733257  47.7984835   9.9865238  52.7743120  47.6591300   9.6949236
  51.9481232  47.9639290  10.9263415  46.2076063  45.1751690   8.8318424
  45.3379372  45.4685256   8.5601013  46.4435543  45.7592135   9.5525688
  56.0847692  54.2350849   8.9147953  55.7932500  54.5980829   9.7511414
  55.4719823  53.5217857   8.7361285  54.3334880  49.3583463   7.3828011
  54.8089002  49.5511109   6.5746862  53.4100445  49.4142649   7.1371394
  41.2218387  50.5207630  -3.0340911  40.9764429  49.6169960  -2.8360701
  41.3914301  50.5224781  -3.9761433  48.9115096  41.3931307   6.3483845
  49.4297040  42.1292334   6.0230333  48.5570229  41.6995300   7.1830604
  40.4914034  46.2535988  -5.5354750  39.7983279  46.3280343  -6.1914714
  40.2465786  45.4896332  -5.0133233  49.1627691  37.8131589   1.8684741
  49.4429444  37.1454778   2.4945168  49.9478298  38.0060685   1.3559405
  53.0336549  46.2349223   5.6156316  53.9853972  46.3347321   5.6368540
  52.8639999  45.4427492   6.1254401  51.0550928  43.3204806   5.8015717
  50.4600861  43.6009819   5.1062206  50.7700625  43.8098707   6.5732458
  55.5124627  49.4555343   4.7298616  55.4800947  48.5171344   4.9158300
  56.1225250  49.5339380   3.9964441  55.6619115  46.2466386   4.7756899
  55.1458164  45.4624843   4.5886828  56.5459064  45.9185103   4.9403419
  53.3229842  39.9907402   0.7352712  53.1254663  39.6822490   1.6196044
  53.9329548  40.7169041   0.8650642  59.4116474  48.6579212   4.4679104
  58.6849637  48.5235177   3.8595595  58.9963761  48.9656041   5.2735822
  47.2346650  52.3769142  12.2326477  48.1549660  52.5547741  12.4266523
  47.1996233  51.4325187  12.0806176  36.4528815  47.5707736   1.1579752
  36.1331600  46.7173044   0.8654126  35.9062243  47.7856314   1.9137719
  40.2308723  50.2870177   4.8749258  40.4494732  51.2187285   4.8937292
  40.6434497  49.9278151   5.6604062  47.1512941  40.7938262  -3.1375054
  46.3413669  40.4485347  -2.7619807  47.8397357  40.4845806  -2.5487442
  49.0803489  39.8716309  -1.5150757  49.6334527  40.2911762  -0.8560734
  49.3173575  38.9452057  -1.4727801  45.1036588  45.8603382  14.2652007
  45.0033315  46.8097739  14.1964098  44.8858130  45.5321621  13.3928077
  36.3217075  51.1910647   3.1272873  35.6280547  50.7764600   2.6142828
  37.0690066  51.2331184   2.5306292  52.4582296  41.9816834  -2.0072093
  51.8780965  42.6401638  -2.3894040  52.1918229  41.1594179  -2.4184675
  50.9085862  41.3821892   0.1949228  51.4085641  41.4938426  -0.6136453
  51.5521470  41.0782945   0.8350036  44.9667858  49.2900521  13.0817069
  44.4834940  50.0900881  13.2880958  45.0528797  49.3008466  12.1284513
  38.2353818  51.1228901   1.0038888  38.2124506  51.2216588   0.0520771
  38.5454454  51.9694052   1.3256054  40.8941196  53.1805056   5.1185502
  41.8484449  53.1488998   5.0515434  40.6953719  52.7195680   5.9335728
  41.4840578  51.7506172   7.6856300  42.3033467  52.2450251   7.7091137
  41.7577385  50.8338140   7.6573868  51.2407174  44.1416924  -2.9515744
  50.3533029  44.4266575  -3.1695550  51.6561163  43.9810688  -3.7988467
  54.5921710  44.1663445   0.7638595  55.3682100  44.6559898   1.0363212
  53.8669844  44.5921500   1.2210464  57.0294269  44.8791065   1.8212535
  57.6238759  44.6386801   1.1105844  57.1020852  44.1598195   2.4486072
  39.2491424  58.7224675   2.1355700  39.1145892  57.9625076   1.5693698
  38.8323487  59.4465575   1.6684489  42.4060550  59.6193993   2.3474143
  42.2892934  60.5639425   2.2452833  41.5852997  59.3167554   2.7359942
  36.7375492  46.0844306   8.3848497  37.3834356  45.5743260   8.8735722
  36.5292643  46.8212988   8.9591922  49.2628884  53.1525153  13.8840638
  50.1320044  53.3265806  13.5227273  48.7835636  53.9719570  13.7616367
  45.2579102  40.3484351  -5.8627607  45.2457772  41.2926190  -5.7059336
  46.1502524  40.1654496  -6.1568145  43.4315064  60.2722254   5.5630071
  44.3342311  60.3045865   5.8796566  43.2052434  59.3422705   5.5776407
  49.0731222  36.9427127  -1.6081670  48.3063618  36.3885614  -1.4624987
  49.4841927  37.0148996  -0.7467518  41.0772983  43.2311923  12.4823511
  41.9404445  42.8748728  12.6926836  40.5038394  42.8925818  13.1698916
  57.3666005  62.3746772  10.7494955  56.5899339  62.9340692  10.7397820
  58.0056568  62.8603555  11.2709825  54.3573741  62.3371874  11.1128232
  53.7272402  63.0188155  11.3463629  54.2509829  62.2254955  10.1681370
  53.6354484  56.6392640  13.4753483  53.2421429  56.0858838  14.1501127
  54.4520624  56.9503218  13.8660000  56.5522445  58.0550519  11.0673739
  57.2932158  58.6557672  10.9878202  56.7840368  57.3128157  10.5091782
  51.6963783  63.2406886   9.3451969  51.5817298  62.3392143   9.6459068
  50.8408300  63.4870583   8.9936786  58.3773901  57.8374412   8.2921036
  57.7301817  58.5364362   8.1985512  59.1474917  58.2710556   8.6597284
  54.2187061  61.1840252   8.3437131  53.6824418  60.7330990   8.9958728
  53.6303770  61.3186160   7.6007596  49.9526183  60.3196259   5.4290126
  49.8684371  59.7121929   4.6940536  49.1308889  60.8105278   5.4299622
  58.3862923  64.7029119  11.9305611  57.7103560  64.6023249  12.6007986
  59.2090557  64.5468333  12.3941608  52.1050199  58.3571197   6.7685112
  52.1691525  59.2186027   6.3562509  52.0417319  57.7445198   6.0357470
  51.5802471  60.4294329  10.4158146  52.2074510  60.0471406  11.0295670
  50.7230390  60.2108531  10.7813838  54.6888575  57.6481181   8.6044701
  55.2122977  57.8943478   9.3671010  54.4700908  58.4801216   8.1847838
  49.3307854  64.0338550   8.3831491  48.5889590  64.1821185   8.9696122
  49.0100599  64.2946816   7.5198241  54.8170529  59.7512235  12.0772066
  54.8658684  60.6274358  11.6949835  55.3593043  59.2089628  11.5043709
  57.0469817  60.5043607   8.8318424  56.1773127  60.7977174   8.5601013
  57.2829297  61.0884052   9.5525688  55.9430343  61.1895300  14.2652007
  55.8427069  62.1389657  14.1964098  55.7251885  60.8613539  13.3928077
  55.8061613  64.6192439  13.0817069  55.3228694  65.4192799  13.2880958
  55.8922552  64.6300384  12.1284513  47.5769246  61.4136224   8.3848497
  48.2228110  60.9035178   8.8735722  47.3686398  62.1504905   8.9591922
  51.9166737  58.5603841  12.4823511  52.7798199  58.2040646  12.6926836
  51.3432148  58.2217735  13.1698916  47.9361867  32.8594831  -2.3315224
  47.4925721  32.0731210  -2.6494319  48.5979081  33.0473982  -2.9971333
  50.0343105  33.1397631  -4.3033822  50.0161581  33.9606512  -4.7953553
  50.9563025  33.0151706  -4.0783681  46.4916159  30.6541761  -3.4610314
  47.0244496  29.8930049  -3.6911006  45.9630241  30.3615412  -2.7186159
  50.9458946  29.7793469  -1.9083104  50.7944453  29.5504021  -2.8253020
  50.9363626  30.7364071  -1.8951759  52.6551153  32.8112592  -3.8306622
  52.5963699  32.1271812  -4.4976039  53.0570671  33.5531582  -4.2825996
  52.6568560  30.7752176  -5.5992643  51.7695339  30.4378098  -5.4766244
  53.2267111  30.0435207  -5.3623877  48.6468397  35.3340462  -6.4773241
  49.3596369  35.9687927  -6.5497339  48.1558426  35.4304328  -7.2933239
  47.5469170  26.3799324  -1.3449082  46.8709807  26.2793454  -0.6746707
  48.3696803  26.2238538  -0.8813085  46.2891952  37.6866252  -7.1091466
  46.8410260  37.8497873  -6.3442381  46.6298146  38.2770689  -7.7811442
  51.1402827  32.5127509  -1.2542812  51.6842731  33.1257467  -1.7487857
  50.5589672  33.0707088  -0.7375799  46.4357764  35.2524733  -5.0942812
  46.7444890  35.0073880  -4.2220113  47.2333246  35.4571372  -5.5823942
  54.4631621  31.9723563  -1.9181491  53.6727165  31.9547702  -2.4576991
  54.2264976  32.5111857  -1.1632454  54.5829496  28.8216030  -4.6048762
  54.6327501  28.6566037  -3.6633239  54.4743420  27.9543289  -4.9950881
  56.0847693  31.2412971  -4.3606741  55.7932501  31.6042952  -3.5243280
  55.4719824  30.5279979  -4.5393409  47.2346651  29.3831265  -1.0428216
  48.1549661  29.5609864  -0.8488170  47.1996234  28.4387310  -1.1948517
  44.9667859  26.2962644  -0.1937625  44.4834941  27.0963004   0.0126264
  45.0528798  26.3070589  -1.1470181  49.2628885  30.1587276   0.6085944
  50.1320045  30.3327928   0.2472579  48.7835637  30.9781693   0.4861674
  57.3666006  39.3808895  -2.5259738  56.5899340  39.9402815  -2.5356874
  58.0056569  39.8665678  -2.0044868  54.3573742  39.3433996  -2.1626461
  53.7272403  40.0250277  -1.9291065  54.2509830  39.2317078  -3.1073323
  53.6354485  33.6454762   0.1998790  53.2421431  33.0920961   0.8746434
  54.4520625  33.9565341   0.5905307  56.5522446  35.0612641  -2.2080954
  57.2932159  35.6619794  -2.2876491  56.7840369  34.3190279  -2.7662911
  51.6963784  40.2469009  -3.9302724  51.5817299  39.3454266  -3.6295625
  50.8408302  40.4932705  -4.2817908  58.3773903  34.8436535  -4.9833657
  57.7301818  35.5426485  -5.0769181  59.1474918  35.2772679  -4.6157409
  54.2187063  38.1902374  -4.9317562  53.6824420  37.7393113  -4.2795966
  53.6303771  38.3248283  -5.6747098  49.9526184  37.3258382  -7.8464567
  49.8684373  36.7184051  -8.5814158  49.1308890  37.8167400  -7.8455071
  58.3862924  41.7091242  -1.3449082  57.7103561  41.6085371  -0.6746707
  59.2090558  41.5530456  -0.8813085  52.1050200  35.3633319  -6.5069582
  52.1691527  36.2248150  -6.9192184  52.0417320  34.7507321  -7.2397223
  51.5802473  37.4356452  -2.8596548  52.2074511  37.0533529  -2.2459023
  50.7230392  37.2170654  -2.4940855  54.6888576  34.6543304  -4.6709992
  55.2122978  34.9005600  -3.9083683  54.4700909  35.4863339  -5.0906855
  49.3307856  41.0400673  -4.8923202  48.5889592  41.1883308  -4.3058572
  49.0100600  41.3008938  -5.7556453  54.8170530  36.7574358  -1.1982628
  54.8658685  37.6336480  -1.5804858  55.3593044  36.2151751  -1.7710985
  57.0469818  37.5105730  -4.4436269  56.1773128  37.8039296  -4.7153681
  57.2829299  38.0946175  -3.7229006  55.9430344  38.1957423   0.9897314
  55.8427071  39.1451780   0.9209405  55.7251886  37.8675662   0.1173384
  55.8061614  41.6254562  -0.1937625  55.3228696  42.4254922   0.0126264
  55.8922553  41.6362506  -1.1470181  47.5769248  38.4198346  -4.8906196
  48.2228111  37.9097300  -4.4018971  47.3686399  39.1567028  -4.3162771
  51.9166739  35.5665963  -0.7931182  52.7798200  35.2102768  -0.5827857
  51.3432149  35.2279858  -0.1055778   6.7225987  65.6887659  27.6893792
   5.9689695  65.1195057  27.5337796   6.8573528  65.6550324  28.6364427
   0.7990132  65.8416296  24.7995935   0.6608031  66.0317892  23.8717125
   0.4426351  66.6035679  25.2563986   0.8259512  67.9092823  29.8107207
   1.2596018  67.8168112  30.6590261   1.5391092  67.8850323  29.1727223
   1.6875061  67.9516523  32.3440092   1.8810951  68.8562334  32.5899367
   1.5875679  67.4923943  33.1778677   2.9417124  64.5090190  28.9887996
   2.9307001  65.3914905  28.6181929   2.0734504  64.1561741  28.7942533
   3.5441734  65.6590409  25.5937459   3.9872880  64.9097735  25.1956582
   2.6668245  65.6500546  25.2111191   0.3860720  67.1445826  35.2215315
   0.4358725  66.9795834  36.1630838   0.2774643  66.2773085  34.8313196
   1.8878917  69.5642768  35.4657336   1.5963725  69.9272749  36.3020797
   1.2751048  68.8509776  35.2870668   3.0874599  67.1295648  27.9859907
   3.9221490  67.5685452  28.1497467   3.2233728  66.6534301  27.1668152
   1.3155852  64.7847262  31.2808000   1.2832172  63.8463263  31.4667683
   1.9256475  64.8631299  30.5473824   1.4650340  61.5758306  31.3266283
   0.9489389  60.7916762  31.1396212   2.3490289  61.2477022  31.4912802
   7.1332402  65.8463269  30.4214036   7.8635790  65.5848557  30.9821740
   6.5239347  65.1091991  30.4616104   5.2147699  63.9871132  31.0188488
   4.4880862  63.8527097  30.4104979   4.7994986  64.2947960  31.8245206
   2.8325494  60.2082984  28.3721919   3.4269985  59.9678720  27.6615227
   2.9052077  59.4890115  28.9995455   5.1396566  63.5149185  27.1465340
   4.5796124  63.5842374  27.9196902   4.5340070  63.3390169  26.4264837
   9.2027701  71.5653960  32.2776091   8.8711026  72.4349371  32.0537306
   8.6073314  71.2490244  32.9570122  10.9618011  74.4865485  31.1347315
  10.3192391  74.7798018  30.4887110  10.4572939  74.3718405  31.9400512
   6.3010833  69.4123541  31.8947405   5.9575102  70.3025183  31.8186515
   6.6689795  69.2225199  31.0316990   5.3807373  71.7828196  29.8596638
   4.8772169  71.7458331  29.0464443   5.6737980  72.6920939  29.9193295
   1.5335246  70.9710383  24.9654256   0.8799658  70.6559400  24.3410871
   1.4915720  70.3486123  25.6914079   8.0998498  68.6717100  26.9965143
   8.4057375  67.8114464  26.7091058   8.8251103  69.2634721  26.7964136
   8.3700116  71.1011336  29.4949063   7.4563196  71.3315563  29.6631270
   8.7993218  71.1849780  30.3463096   2.3488817  71.0036108  31.2931078
   3.1714886  70.5296586  31.1709969   2.5926880  71.7826592  31.7929765
   4.0051865  71.2527068  27.5558236   4.0273561  71.3166401  26.6010216
   4.4219924  70.4131576  27.7498743   5.5540076  72.0515144  32.8993228
   6.0722020  72.7876171  32.5739717   5.1995209  72.3579137  33.7339987
   5.8052670  68.4715426  28.4194125   6.0854424  67.8038615  29.0454551
   6.5903277  68.6644522  27.9068789   9.9654822  70.6491239  27.2862095
   9.7679643  70.3406327  28.1705427  10.5754527  71.3752878  27.4160025
   3.7937920  71.4522099  23.4134330   2.9838648  71.1069184  23.7889576
   4.4822337  71.1429643  24.0021942   5.7228468  70.5300146  25.0358627
   6.2759507  70.9495599  25.6948650   5.9598555  69.6035894  25.0781583
   9.1007275  72.6400671  24.5437291   8.5205944  73.2985475  24.1615343
   8.8343208  71.8178016  24.1324709   7.5510842  72.0405729  26.7458611
   8.0510620  72.1522263  25.9372930   8.1946450  71.7366782  27.3859420
  13.6719248  75.5374902  28.3721919  14.2663739  75.2970638  27.6615227
  13.7445832  74.8182032  28.9995455   5.7156201  67.6010964  24.9427714
   4.9488597  67.0469451  25.0884396   6.1266906  67.6732833  25.8041865
   6.7225988  42.6949782  14.4139099   5.9689696  42.1257180  14.2583103
   6.8573529  42.6612446  15.3609733   0.7990133  42.8478418  11.5241242
   0.6608032  43.0380014  10.5962431   0.4426352  43.6097801  11.9809293
   0.8259513  44.9154945  16.5352514   1.2596020  44.8230235  17.3835568
   1.5391094  44.8912446  15.8972530   1.6875063  44.9578646  19.0685399
   1.8810953  45.8624457  19.3144674   1.5875681  44.4986065  19.9023984
   2.9417126  41.5152313  15.7133303   2.9307002  42.3977028  15.3427236
   2.0734505  41.1623863  15.5187840   3.5441736  42.6652532  12.3182766
   3.9872882  41.9159857  11.9201889   2.6668246  42.6562668  11.9356498
   0.3860721  44.1507949  21.9460621   0.4358726  43.9857957  22.8876144
   0.2774645  43.2835208  21.5558502   1.8878918  46.5704891  22.1902643
   1.5963726  46.9334871  23.0266104   1.2751049  45.8571899  22.0115975
   3.0874600  44.1357770  14.7105213   3.9221492  44.5747574  14.8742774
   3.2233729  43.6596424  13.8913459   1.3155853  41.7909385  18.0053306
   1.2832173  40.8525386  18.1912990   1.9256477  41.8693422  17.2719131
   1.4650342  38.5820428  18.0511589   0.9489390  37.7978885  17.8641518
   2.3490290  38.2539145  18.2158109   7.1332403  42.8525392  17.1459343
   7.8635791  42.5910680  17.7067046   6.5239348  42.1154114  17.1861411
   5.2147700  40.9933254  17.7433794   4.4880864  40.8589219  17.1350286
   4.7994987  41.3010083  18.5490512   2.8325495  37.2145107  15.0967226
   3.4269986  36.9740843  14.3860534   2.9052079  36.4952237  15.7240762
   5.1396568  40.5211307  13.8710647   4.5796126  40.5904497  14.6442209
   4.5340071  40.3452292  13.1510143   6.7252586  57.1967821  16.5640603
   7.3630996  57.0774569  15.8603943   6.6073429  58.1448665  16.6228555
   3.5342292  57.1495249  16.5002127   3.1960804  57.0336314  15.6122662
   4.4032061  56.7486415  16.4803134   4.0162075  58.3030101  22.4588333
   4.0050716  57.9082899  21.5868837   4.1782715  57.5696174  23.0522104
   0.7369337  61.0867213  21.4067517   0.4459203  61.9912844  21.2914183
   1.3726321  61.1283741  22.1211586   1.6625543  58.4644062  17.9968877
   2.2589116  58.2400084  17.2825839   1.7200515  57.7228807  18.5994324
   6.2793855  54.9219275  13.6393811   7.0656944  54.5038698  13.2884228
   6.5432559  55.8265367  13.8075459  11.6802282  54.8594508  14.5426789
  12.4127454  54.2893725  14.7764619  10.9241637  54.4716109  14.9833295
   9.2027702  48.5716083  19.0021398   8.8711027  49.4411494  18.7782613
   8.6073316  48.2552367  19.6815428   5.6959222  60.7728629  18.4017311
   5.3959945  61.6753667  18.2933118   5.3510281  60.5060812  19.2538463
   9.0956365  53.2911169  16.0814748   8.1873243  53.2226577  15.7873509
   9.0443961  53.7683114  16.9096573   3.1697231  54.7100814  24.0249645
   2.3930565  55.2694734  24.0152510   3.8087794  55.1957597  24.5464515
  10.9618012  51.4927607  17.8592622  10.3192392  51.7860140  17.2132416
  10.4572940  51.3780527  18.6645818   1.4243604  57.5186268  23.5867612
   2.1658288  58.0571312  23.3102436   0.7180589  58.1452556  23.7439164
   6.8998943  59.6615408  22.1839774   7.3082299  59.2197819  21.4394406
   6.1776205  59.0868036  22.4373967   3.2530013  54.5988015  19.5573331
   4.0991208  55.0227428  19.7007980   3.1928651  53.9421639  20.2511894
   7.2227758  60.2216599  15.9392063   6.5936620  60.3862313  15.2368130
   6.8353420  60.6358208  16.7103027  11.1016990  61.1571037  13.2936426
  10.4168028  61.5369938  12.7433460  11.1860839  61.7666363  14.0268374
   6.4029459  52.2592383  21.2154504   6.1590390  53.0134444  20.6788780
   6.6789389  52.6377731  22.0501751   8.3567921  58.8030996  19.8931770
   8.5684817  59.4462756  19.2166151   8.3097670  57.9693312  19.4253700
   5.9594150  51.4148816  16.7968342   5.0978629  51.7130070  17.0885080
   5.9856585  51.6319215  15.8649375   9.4713749  61.6802951  18.0654127
  10.2931193  61.2783138  17.7836809   9.4676152  61.5771185  19.0170243
   3.2370353  61.2286994  20.2214838   3.3014785  61.6907402  21.0573010
   2.5281277  60.5984359  20.3497148  17.5619742  58.0241700  14.4139099
  16.8083451  57.4549098  14.2583103  17.6967284  57.9904364  15.3609733
   2.3553671  50.3904561  24.3428430   3.0963384  50.9911714  24.2632892
   2.5871594  49.6482199  23.7846472   4.5786847  63.5178668  24.2194160
   4.1350701  62.7315047  23.9015065   5.2404060  63.7057819  23.5538051
   6.6768085  63.7981468  22.2475561   6.6586560  64.6190349  21.7555831
   7.5988005  63.6735543  22.4725703   3.1341139  61.3125598  23.0899070
   3.6669476  60.5513886  22.8598378   2.6055220  61.0199250  23.8323224
   6.3010834  46.4185664  18.6192711   5.9575103  47.3087305  18.5431822
   6.6689797  46.2287321  17.7562296   3.8508228  51.2543976  12.1850385
   2.9949824  50.8650826  12.0056024   4.2635179  51.3335936  11.3250170
   5.3807374  48.7890319  16.5841945   4.8772170  48.7520454  15.7709750
   5.6737981  49.6983062  16.6438601   1.6250260  48.8729049  15.5908126
   2.4903257  48.6771857  15.2314016   1.6927769  48.6439400  16.5177483
   9.4786698  58.6360611  15.7184928   8.8210372  59.3259872  15.8065057
  10.2827097  59.0257043  16.0618914   8.2892157  56.9904983  13.7688870
   8.8024038  57.6234975  14.2710580   8.9393380  56.3906179  13.4032230
   1.5335247  47.9772505  11.6899563   0.8799659  47.6621523  11.0656177
   1.4915721  47.3548246  12.4159386   4.7672987  54.4654439  16.0147210
   3.8495549  54.6869386  15.8568898   5.1833131  54.5400749  15.1558918
   7.9986872  52.9002971  13.1268680   7.2609629  52.3880357  13.4578922
   8.2513646  52.4603353  12.3151957   8.0998500  45.6779223  13.7210449
   8.4057376  44.8176586  13.4336364   8.8251104  46.2696843  13.5209443
   5.9086151  55.0551900  20.8191913   6.2635539  55.2823373  21.6786379
   6.5558282  55.3870277  20.1969168  11.6383888  58.1770336  11.5241242
  11.5001786  58.3671932  10.5962431  11.2820107  58.9389719  11.9809293
  11.6653267  60.2446863  16.5352514  12.0989774  60.1522152  17.3835568
  12.3784848  60.2204364  15.8972530   5.3981162  63.8448957  18.0685614
   5.4518185  64.4139894  18.8363330   4.5295944  64.0150842  17.7039651
  12.5268817  60.2870564  19.0685399  12.7204707  61.1916374  19.3144674
  12.4269435  59.8277983  19.9023984   4.1805128  50.1728454  21.5675726
   3.5333043  50.8718404  21.4740203   4.9506143  50.6064598  21.9351974
   7.5883926  60.4377306  24.6426280   7.4369432  60.2087858  23.7256363
   7.5788605  61.3947908  24.6557625   4.3569262  58.0109219  19.6272546
   5.2861322  58.1620379  19.4541513   3.9360292  58.0993240  18.7721192
   1.3089354  56.5329076  19.7996182   2.0188972  55.8922268  19.7582801
   1.2658662  56.7841971  20.7222363   9.2976132  63.4696429  22.7202761
   9.2388679  62.7855649  22.0533344   9.6995651  64.2115419  22.2683387
   9.2993540  61.4336013  20.9516741   8.4120318  61.0961935  21.0743140
   9.8692091  60.7019044  21.1885506   5.9281123  51.1403865  14.0715011
   6.4249822  50.3873827  13.7516081   5.1568104  51.1768181  13.5058221
  13.7810880  56.8444230  15.7133303  13.7700756  57.7268946  15.3427236
  12.9128260  56.4915781  15.5187840   5.2893377  65.9924299  20.0736143
   6.0021349  66.6271764  20.0012044   4.7983405  66.0888165  19.2576145
   2.5116092  53.2821248  13.7986696   2.1413879  52.7292288  14.4867601
   3.0075184  52.6779381  13.2461696  10.3983455  55.7392871  12.1803469
  10.8643907  56.5720863  12.1063771  10.8490955  55.2737853  12.8848727
   8.3700118  48.1073458  16.2194370   7.4563197  48.3377685  16.3876577
   8.7993219  48.1911902  17.0708402   8.1406576  56.2963350  18.7194264
   7.4878026  56.5439258  18.0646717   8.5186956  55.4827488  18.3856741
   4.1894149  57.0383161  25.2060301   3.5134786  56.9377291  25.8762676
   5.0121783  56.8822375  25.6696298   7.7827806  63.1711346  25.2966572
   8.3267710  63.7841305  24.8021526   7.2014651  63.7290925  25.8133585
   8.1320228  64.0941084  18.0561149   7.1850563  63.9746436  17.9839476
   8.4803001  63.2063582  18.1387411   0.4919801  49.9835223  21.8799391
   1.0154203  50.2297520  22.6425701   0.2732134  50.8155258  21.4602529
   8.7400783  64.7122359  15.3430374   9.6647330  64.5065221  15.2054826
   8.5716086  64.4638761  16.2519716   1.6972346  50.9248918  19.5649062
   1.3569166  50.1256731  19.9669742   0.9911352  51.2250629  18.9925895
   2.3488818  48.0098231  18.0176385   3.1714887  47.5358709  17.8955275
   2.5926881  48.7888715  18.5175071   1.7323780  51.6919899  15.8749253
   1.7185348  50.7960993  15.5381551   2.4496208  51.6990563  16.5087539
   3.5849910  52.1257240  17.9202380   3.3267688  53.0474310  17.9186711
   3.0534951  51.7287674  18.6102845   4.0051866  48.2589190  14.2803543
   4.0273563  48.3228523  13.3255523   4.4219925  47.4193699  14.4744049
  14.3835490  57.9944450  12.3182766  14.8266636  57.2451775  11.9201889
  13.5062000  57.9854586  11.9356498   3.0782743  65.9108570  21.4566572
   3.3869870  65.6657717  22.3289271   3.8758225  66.1155209  20.9685442
   0.6201755  52.0866277  25.3526756   0.6689910  52.9628400  24.9704525
   1.1624269  51.5443670  24.7798399  11.1056601  62.6307400  24.6327893
  10.3152144  62.6131539  24.0932392  10.8689955  63.1695694  25.3876929
  11.2254476  59.4799867  21.9460621  11.2752481  59.3149874  22.8876144
  11.1168399  58.6127126  21.5558502   8.5158238  55.4630795  23.2619928
   9.4168101  55.3237260  22.9703926   8.5906213  55.6285250  24.2018106
   2.8501043  52.8397650  22.1073114   1.9804353  53.1331216  21.8355703
   3.0860524  53.4238095  22.8280378  12.7272673  61.8996808  22.1902643
  12.4357481  62.2626789  23.0266104  12.1144804  61.1863817  22.0115975
  13.9268355  59.4649688  14.7105213  14.7615246  59.9039492  14.8742774
  14.0627484  58.9888341  13.8913459  10.9759861  57.0229423  20.6582701
  11.4513982  57.2157069  19.8501552  10.0525426  57.0788609  20.4126085
   5.5540077  49.0577266  19.6238535   6.0722021  49.7938293  19.2985023
   5.1995210  49.3641260  20.4585294   5.8052671  45.4777549  15.1439431
   6.0854425  44.8100738  15.7699858   6.5903278  45.6706645  14.6314095
   9.6761530  53.8995183  18.8911007  10.6278953  53.9993281  18.9123231
   9.5064980  53.1073452  19.4009091   7.6975909  50.9850766  19.0770407
   7.1025841  51.2655779  18.3816896   7.4125606  51.4744667  19.8487149
  12.1549608  57.1201303  18.0053306  12.1225928  56.1817303  18.1912990
  12.7650231  57.1985339  17.2719131  12.3044096  53.9112346  18.0511589
  11.7883145  53.1270803  17.8641518  13.1884045  53.5831063  18.2158109
   9.9654823  47.6553362  14.0107402   9.7679644  47.3468450  14.8950734
  10.5754529  48.3815001  14.1405332  17.9726157  58.1817309  17.1459343
  18.7029546  57.9202598  17.7067046  17.3633103  57.4446031  17.1861411
  16.0541455  56.3225172  17.7433794  15.3274618  56.1881137  17.1350286
  15.6388741  56.6302001  18.5490512   3.8771631  60.0415102  25.5081167
   4.7974640  60.2193701  25.7021214   3.8421214  59.0971147  25.3560866
   3.7937921  48.4584222  10.1379637   2.9838650  48.1131307  10.5134883
   4.4822338  48.1491765  10.7267248   5.7228470  47.5362269  11.7603933
   6.2759508  47.9557722  12.4193956   5.9598556  46.6098017  11.8026889
   1.7461569  53.5249342  27.5406697   1.6458296  54.4743699  27.4718788
   1.5283111  53.1967581  26.6682767   9.1007277  49.6462794  11.2682598
   8.5205946  50.3047598  10.8860650   8.8343209  48.8240138  10.8570015
   7.5510843  49.0467851  13.4703918   8.0510621  49.1584386  12.6618237
   8.1946451  48.7428904  14.1104726   1.6092839  56.9546481  26.3571759
   1.1259921  57.7546841  26.5635648   1.6953778  56.9654426  25.4039203
   7.8832155  51.8062884  10.3238946   6.9958010  52.0912535  10.1059141
   8.2986144  51.6456647   9.4766223  11.2346691  51.8309405  14.0393285
  12.0107081  52.3205858  14.3117902  10.5094825  52.2567459  14.4965155
  13.6719249  52.5437024  15.0967226  14.2663740  52.3032760  14.3860534
  13.7445833  51.8244155  15.7240762  11.6677984  53.1107152  11.3639356
  11.4114919  52.7103788  12.1947563  11.0430852  53.8250946  11.2389495
  15.9790322  55.8503225  13.8710647  15.4189880  55.9196414  14.6442209
  15.3733826  55.6744210  13.1510143   5.9053865  60.8171113  27.1595328
   6.7745025  60.9911765  26.7981963   5.4260616  61.6365530  27.0371057
   5.7156203  44.6073087  11.6673020   4.9488598  44.0531574  11.8129703
   6.1266908  44.6794956  12.5287172  17.5646341  72.5259739  16.5640603
  18.2024751  72.4066486  15.8603943  17.4467184  73.4740583  16.6228555
  14.3736047  72.4787167  16.5002127  14.0354558  72.3628232  15.6122662
  15.2425815  72.0778332  16.4803134  14.8555830  73.6322019  22.4588333
  14.8444471  73.2374817  21.5868837  15.0176469  72.8988092  23.0522104
  12.5019298  73.7935979  17.9968877  13.0982870  73.5692002  17.2825839
  12.5594269  73.0520725  18.5994324  17.1187609  70.2511193  13.6393811
  17.9050698  69.8330616  13.2884228  17.3826313  71.1557285  13.8075459
  22.5196036  70.1886426  14.5426789  23.2521208  69.6185643  14.7764619
  21.7635392  69.8008027  14.9833295  20.0421457  63.9008000  19.0021398
  19.7104781  64.7703411  18.7782613  19.4467070  63.5844284  19.6815428
  19.9350120  68.6203086  16.0814748  19.0266997  68.5518495  15.7873509
  19.8837716  69.0975031  16.9096573  14.0090986  70.0392732  24.0249645
  13.2324320  70.5986652  24.0152510  14.6481549  70.5249515  24.5464515
  21.8011766  66.8219525  17.8592622  21.1586147  67.1152058  17.2132416
  21.2966695  66.7072445  18.6645818  12.2637358  72.8478185  23.5867612
  13.0052042  73.3863229  23.3102436  11.5574343  73.4744474  23.7439164
  17.7392698  74.9907326  22.1839774  18.1476054  74.5489736  21.4394406
  17.0169959  74.4159953  22.4373967  14.0923768  69.9279933  19.5573331
  14.9384963  70.3519346  19.7007980  14.0322405  69.2713557  20.2511894
  18.0621512  75.5508516  15.9392063  17.4330375  75.7154231  15.2368130
  17.6747174  75.9650126  16.7103027  21.9410744  76.4862954  13.2936426
  21.2561782  76.8661856  12.7433460  22.0254594  77.0958281  14.0268374
  17.2423213  67.5884301  21.2154504  16.9984145  68.3426361  20.6788780
  17.5183144  67.9669649  22.0501751  19.1961676  74.1322913  19.8931770
  19.4078571  74.7754673  19.2166151  19.1491424  73.2985230  19.4253700
  16.7987905  66.7440734  16.7968342  15.9372384  67.0421988  17.0885080
  16.8250339  66.9611133  15.8649375  10.9998722  70.0017834  24.3882922
  10.3697382  70.6834114  24.6218319  10.8934810  69.8900915  23.4436060
  20.3107504  77.0094869  18.0654127  21.1324947  76.6075056  17.7836809
  20.3069907  76.9063103  19.0170243  28.4013497  73.3533617  14.4139099
  27.6477205  72.7841015  14.2583103  28.5361038  73.3196282  15.3609733
  10.2779465  64.3038599  26.7508173   9.8846410  63.7504798  27.4255817
  11.0945605  64.6149178  27.1414691  13.1947425  65.7196478  24.3428430
  13.9357139  66.3203632  24.2632892  13.4265348  64.9774116  23.7846472
   8.3388764  70.9052846  22.6206659   8.2242279  70.0038103  22.9213758
   7.4833281  71.1516542  22.2691476  17.1404588  61.7477581  18.6192711
  16.7968858  62.6379223  18.5431822  17.5083551  61.5579239  17.7562296
  14.6901982  66.5835893  12.1850385  13.8343579  66.1942744  12.0056024
  15.1028934  66.6627854  11.3250170  16.2201129  64.1182237  16.5841945
  15.7165924  64.0812372  15.7709750  16.5131736  65.0274979  16.6438601
  12.4644015  64.2020966  15.5908126  13.3297011  64.0063775  15.2314016
  12.5321524  63.9731318  16.5177483  20.3180452  73.9652528  15.7184928
  19.6604127  74.6551790  15.8065057  21.1220851  74.3548960  16.0618914
  19.1285911  72.3196901  13.7688870  19.6417793  72.9526893  14.2710580
  19.7787135  71.7198097  13.4032230  12.3729001  63.3064423  11.6899563
  11.7193414  62.9913440  11.0656177  12.3309476  62.6840164  12.4159386
  15.6066742  69.7946357  16.0147210  14.6889303  70.0161304  15.8568898
  16.0226885  69.8692667  15.1558918  18.8380627  68.2294889  13.1268680
  18.1003384  67.7172275  13.4578922  19.0907400  67.7895270  12.3151957
  18.9392254  61.0071141  13.7210449  19.2451131  60.1468504  13.4336364
  19.6644859  61.5988761  13.5209443  16.7479905  70.3843818  20.8191913
  17.1029293  70.6115291  21.6786379  17.3952037  70.7162195  20.1969168
  22.4777642  73.5062254  11.5241242  22.3395541  73.6963850  10.5962431
  22.1213861  74.2681637  11.9809293  10.6419769  67.4920349  17.6038254
  11.2819148  67.3509108  16.9061217   9.8097299  67.2054862  17.2276856
  22.5047022  75.5738781  16.5352514  22.9383529  75.4814070  17.3835568
  23.2178603  75.5496281  15.8972530   9.1173310  68.8758431  19.5510065
   9.7896364  68.6675793  18.9022714   8.2903097  68.6780517  19.1115298
  23.3662572  75.6162481  19.0685399  23.5598462  76.5208292  19.3144674
  23.2663190  75.1569900  19.9023984  15.0198882  65.5020372  21.5675726
  14.3726797  66.2010322  21.4740203  15.7899898  65.9356516  21.9351974
  18.4277680  75.7669224  24.6426280  18.2763187  75.5379776  23.7256363
  18.4182360  76.7239826  24.6557625  15.1963017  73.3401137  19.6272546
  16.1255077  73.4912297  19.4541513  14.7754047  73.4285158  18.7721192
   9.5200808  72.1501034  20.3112503   9.3820605  71.4181273  20.9124042
  10.4305731  72.0609934  20.0296690  12.1483108  71.8620993  19.7996182
  12.8582727  71.2214186  19.7582801  12.1052416  72.1133888  20.7222363
  10.8612042  68.8486211  21.6191822  10.3249399  68.3976950  22.2713418
  10.2728751  68.9832120  20.8762286  20.1387294  76.7627931  20.9516741
  19.2514073  76.4253852  21.0743140  20.7085845  76.0310962  21.1885506
   6.5951163  67.9842219  18.7044816   6.5109352  67.3767889  17.9695226
   5.7733870  68.4751237  18.7054312  16.7674877  66.4695782  14.0715011
  17.2643577  65.7165745  13.7516081  15.9961859  66.5060099  13.5058221
  24.6204635  72.1736148  15.7133303  24.6094511  73.0560863  15.3427236
  23.7522014  71.8207699  15.5187840  13.3509846  68.6113165  13.7986696
  12.9807634  68.0584206  14.4867601  13.8468938  68.0071299  13.2461696
  21.2377209  71.0684789  12.1803469  21.7037662  71.9012781  12.1063771
  21.6884710  70.6029771  12.8848727  19.2093872  63.4365376  16.2194370
  18.2956952  63.6669603  16.3876577  19.6386974  63.5203820  17.0708402
  18.9800331  71.6255268  18.7194264  18.3271781  71.8731175  18.0646717
  19.3580710  70.8119406  18.3856741  15.0287904  72.3675079  25.2060301
  14.3528541  72.2669208  25.8762676  15.8515537  72.2114293  25.6696298
   8.7475180  66.0217156  20.0439802   8.8116506  66.8831987  19.6317200
   8.6842300  65.4091158  19.3112160   8.2227452  68.0940289  23.6912836
   8.8499491  67.7117366  24.3050360   7.3655371  67.8754491  24.0568529
  11.3313555  65.3127141  21.8799391  11.8547957  65.5589438  22.6425701
  11.1125889  66.1447176  21.4602529  12.5366101  66.2540836  19.5649062
  12.1962921  65.4548649  19.9669742  11.8305107  66.5542547  18.9925895
  13.1882572  63.3390149  18.0176385  14.0108642  62.8650627  17.8955275
  13.4320636  64.1180632  18.5175071  12.5717534  67.0211817  15.8749253
  12.5579103  66.1252910  15.5381551  13.2889962  67.0282481  16.5087539
  14.4243665  67.4549157  17.9202380  14.1661443  68.3766228  17.9186711
  13.8928705  67.0579592  18.6102845  14.8445620  63.5881108  14.2803543
  14.8667317  63.6520441  13.3255523  15.2613679  62.7485616  14.4744049
  25.2229245  73.3236367  12.3182766  25.6660391  72.5743693  11.9201889
  24.3455755  73.3146504  11.9356498   5.9732835  71.6984510  21.6586182
   5.2314571  71.8467145  22.2450812   5.6525579  71.9592775  20.7952931
  11.4595509  67.4158195  25.3526756  11.5083665  68.2920318  24.9704525
  12.0018024  66.8735588  24.7798399  21.9450355  77.9599318  24.6327893
  21.1545899  77.9423457  24.0932392  21.7083710  78.4987612  25.3876929
  22.0648230  74.8091784  21.9460621  22.1146235  74.6441792  22.8876144
  21.9562154  73.9419043  21.5558502  19.3551993  70.7922712  23.2619928
  20.2561855  70.6529177  22.9703926  19.4299967  70.9577167  24.2018106
  13.6894798  68.1689567  22.1073114  12.8198107  68.4623133  21.8355703
  13.9254278  68.7530012  22.8280378  23.5666427  77.2288726  22.1902643
  23.2751235  77.5918706  23.0266104  22.9538558  76.5155734  22.0115975
  24.7662109  74.7941606  14.7105213  25.6009001  75.2331410  14.8742774
  24.9021238  74.3180259  13.8913459  21.8153615  72.3521341  20.6582701
  22.2907737  72.5448987  19.8501552  20.8919181  72.4080526  20.4126085
  16.3933832  64.3869184  19.6238535  16.9115776  65.1230211  19.2985023
  16.0388965  64.6933177  20.4585294  16.6446426  60.8069467  15.1439431
  16.9248180  60.1392656  15.7699858  17.4297033  60.9998562  14.6314095
  20.5155284  69.2287101  18.8911007  21.4672707  69.3285198  18.9123231
  20.3458735  68.4365369  19.4009091  18.5369664  66.3142684  19.0770407
  17.9419596  66.5947697  18.3816896  18.2519360  66.8036585  19.8487149
  22.9943362  72.4493220  18.0053306  22.9619682  71.5109221  18.1912990
  23.6043986  72.5277257  17.2719131  23.1437851  69.2404264  18.0511589
  22.6276899  68.4562720  17.8641518  24.0277799  68.9122980  18.2158109
  20.8048577  62.9845279  14.0107402  20.6073399  62.6760368  14.8950734
  21.4148283  63.7106918  14.1405332  28.8119912  73.5109227  17.1459343
  29.5423300  73.2494515  17.7067046  28.2026857  72.7737949  17.1861411
  26.8935209  71.6517090  17.7433794  26.1668373  71.5173055  17.1350286
  26.4782496  71.9593918  18.5490512  14.7165385  75.3707019  25.5081167
  15.6368395  75.5485618  25.7021214  14.6814968  74.4263065  25.3560866
  14.6331676  63.7876139  10.1379637  13.8232404  63.4423224  10.5134883
  15.3216093  63.4783683  10.7267248  16.5622224  62.8654186  11.7603933
  17.1153263  63.2849640  12.4193956  16.7992310  61.9389934  11.8026889
  12.5855323  68.8541260  27.5406697  12.4852050  69.8035617  27.4718788
  12.3676865  68.5259499  26.6682767  19.9401031  64.9754711  11.2682598
  19.3599700  65.6339515  10.8860650  19.6736964  64.1532056  10.8570015
  18.3904598  64.3759769  13.4703918  18.8904376  64.4876304  12.6618237
  19.0340205  64.0720822  14.1104726  12.4486593  72.2838399  26.3571759
  11.9653675  73.0838759  26.5635648  12.5347532  72.2946344  25.4039203
  18.7225909  67.1354802  10.3238946  17.8351764  67.4204452  10.1059141
  19.1379898  66.9748565   9.4766223  22.0740445  67.1601323  14.0393285
  22.8500835  67.6497775  14.3117902  21.3488579  67.5859377  14.4965155
  24.5113004  67.8728942  15.0967226  25.1057495  67.6324678  14.3860534
  24.5839588  67.1536073  15.7240762  22.5071739  68.4399070  11.3639356
  22.2508673  68.0395705  12.1947563  21.8824607  69.1542863  11.2389495
  26.8184077  71.1795143  13.8710647  26.2583635  71.2488332  14.6442209
  26.2127580  71.0036127  13.1510143   4.2194227  69.0782183  21.6603187
   4.8653091  68.5681137  22.1490413   4.0111378  69.8150865  22.2346613
  16.7447619  76.1463031  27.1595328  17.6138779  76.3203683  26.7981963
  16.2654371  76.9657448  27.0371057  16.5549957  59.9365005  11.6673020
  15.7882353  59.3823491  11.8129703  16.9660662  60.0086873  12.5287172
   8.5591718  66.2249800  25.7578202   9.4223180  65.8686605  25.9681526
   7.9857129  65.8863695  26.4453606  30.8815211  79.2299918  19.0021398
  30.5498536  80.0995329  18.7782613  30.2860824  78.9136202  19.6815428
  32.6405521  82.1511442  17.8592622  31.9979901  82.4443976  17.2132416
  32.1360449  82.0364363  18.6645818  27.9798343  77.0769499  18.6192711
  27.6362612  77.9671141  18.5431822  28.3477306  76.8871157  17.7562296
  27.0594883  79.4474154  16.5841945  26.5559679  79.4104289  15.7709750
  27.3525490  80.3566897  16.6438601  23.2122756  78.6356341  11.6899563
  22.5587168  78.3205358  11.0656177  23.1703230  78.0132081  12.4159386
  29.7786009  76.3363058  13.7210449  30.0844885  75.4760422  13.4336364
  30.5038613  76.9280678  13.5209443  30.0487627  78.7657294  16.2194370
  29.1350706  78.9961521  16.3876577  30.4780728  78.8495738  17.0708402
  24.0276327  78.6682066  18.0176385  24.8502396  78.1942544  17.8955275
  24.2714390  79.4472550  18.5175071  25.6839375  78.9173026  14.2803543
  25.7061072  78.9812359  13.3255523  26.1007434  78.0777534  14.4744049
  27.2327586  79.7161102  19.6238535  27.7509530  80.4522129  19.2985023
  26.8782719  80.0225095  20.4585294  27.4840180  76.1361384  15.1439431
  27.7641934  75.4684573  15.7699858  28.2690787  76.3290480  14.6314095
  31.6442332  78.3137197  14.0107402  31.4467153  78.0052285  14.8950734
  32.2542038  79.0398836  14.1405332  25.4725430  79.1168057  10.1379637
  24.6626159  78.7715142  10.5134883  26.1609847  78.8075601  10.7267248
  27.4015979  78.1946104  11.7603933  27.9547017  78.6141557  12.4193956
  27.6386065  77.2681852  11.8026889  30.7794786  80.3046629  11.2682598
  30.1993455  80.9631433  10.8860650  30.5130718  79.4823974  10.8570015
  29.2298352  79.7051687  13.4703918  29.7298130  79.8168221  12.6618237
  29.8733960  79.4012740  14.1104726  35.3506758  83.2020860  15.0967226
  35.9451249  82.9616596  14.3860534  35.4233342  82.4827990  15.7240762
  27.3943712  75.2656922  11.6673020  26.6276107  74.7115409  11.8129703
  27.8054417  75.3378791  12.5287172   4.5786848  40.5240791  10.9439467
   4.1350702  39.7377170  10.6260371   5.2404062  40.7119941  10.2783358
   6.6768086  40.8043591   8.9720868   6.6586561  41.6252472   8.4801137
   7.5988006  40.6797666   9.1971009   3.1341140  38.3187720   9.8144376
   3.6669477  37.5576009   9.5843684   2.6055221  38.0261372  10.5568531
  12.5268818  37.2932686   5.7930706  12.7204708  38.1978497   6.0389980
  12.4269436  36.8340105   6.6269291   7.5883927  37.4439429  11.3671586
   7.4369433  37.2149981  10.4501670   7.5788606  38.4010031  11.3802931
   9.2976134  40.4758552   9.4448068   9.2388680  39.7917772   8.7778651
   9.6995652  41.2177542   8.9928694   9.2993541  38.4398136   7.6762048
   8.4120320  38.1024057   7.7988447   9.8692092  37.7081167   7.9130813
   5.2893378  42.9986422   6.7981450   6.0021350  43.6333887   6.7257351
   4.7983406  43.0950288   5.9821451   4.1894150  34.0445284  11.9305608
   3.5134787  33.9439413  12.6007983   5.0121784  33.8884498  12.3941605
   7.7827808  40.1773469  12.0211878   8.3267712  40.7903427  11.5266833
   7.2014652  40.7353047  12.5378891   3.0782745  42.9170693   8.1811878
   3.3869871  42.6719840   9.0534578   3.8758227  43.1217331   7.6930748
  11.1056602  39.6369523  11.3573199  10.3152146  39.6193662  10.8177699
  10.8689956  40.1757817  12.1122236  11.2254477  36.4861989   8.6705928
  11.2752482  36.3211997   9.6121451  11.1168400  35.6189248   8.2803809
  12.7272674  38.9058931   8.9147950  12.4357482  39.2688911   9.7511411
  12.1144805  38.1925939   8.7361282   3.8771632  37.0477224  12.2326474
   4.7974642  37.2255823  12.4266520   3.8421215  36.1033270  12.0806173
   1.6092840  33.9608604  13.0817066   1.1259922  34.7608964  13.2880955
   1.6953779  33.9716548  12.1284510   5.9053866  37.8233236  13.8840635
   6.7745026  37.9973888  13.5227270   5.4260618  38.6427653  13.7616364
  17.5646342  49.5321862   3.2885909  18.2024752  49.4128609   2.5849249
  17.4467185  50.4802706   3.3473861  14.3736048  49.4849290   3.2247434
  14.0354560  49.3690354   2.3367969  15.2425816  49.0840455   3.2048440
  14.8555831  50.6384141   9.1833640  14.8444472  50.2436940   8.3114143
  15.0176471  49.9050214   9.7767411  11.5763092  53.4221253   8.1312824
  11.2852958  54.3266884   8.0159490  12.2120077  53.4637781   8.8456893
  12.5019299  50.7998102   4.7214183  13.0982871  50.5754124   4.0071146
  12.5594271  50.0582847   5.3239631  17.1187610  47.2573316   0.3639117
  17.9050700  46.8392739   0.0129534  17.3826315  48.1619408   0.5320766
  22.5196038  47.1948549   1.2672096  23.2521209  46.6247766   1.5009925
  21.7635393  46.8070149   1.7078601  20.0421458  40.9070123   5.7266704
  19.7104783  41.7765534   5.5027919  19.4467071  40.5906407   6.4060735
  16.5352977  53.1082669   5.1262617  16.2353700  54.0107708   5.0178424
  16.1904037  52.8414852   5.9783770  19.9350121  45.6265209   2.8060055
  19.0266999  45.5580617   2.5118816  19.8837717  46.1037154   3.6341880
  14.0090987  47.0454855  10.7494952  13.2324321  47.6048775  10.7397816
  14.6481550  47.5311638  11.2709822  21.8011768  43.8281647   4.5837928
  21.1586148  44.1214181   3.9377723  21.2966696  43.7134568   5.3891125
  12.2637359  49.8540308  10.3112919  13.0052044  50.3925352  10.0347742
  11.5574345  50.4806597  10.4684471  17.7392699  51.9969448   8.9085080
  18.1476055  51.5551859   8.1639713  17.0169960  51.4222076   9.1619273
  14.0923769  46.9342055   6.2818637  14.9384964  47.3581469   6.4253286
  14.0322407  46.2775679   6.9757200  18.0621514  52.5570639   2.6637369
  17.4330376  52.7216353   1.9613437  17.6747176  52.9712249   3.4348333
  21.9410745  53.4925077   0.0181733  21.2561784  53.8723978  -0.5321234
  22.0254595  54.1020404   0.7513681  17.2423214  44.5946424   7.9399811
  16.9984146  45.3488484   7.4034087  17.5183145  44.9731771   8.7747058
  19.1961677  51.1385036   6.6177076  19.4078572  51.7816796   5.9411458
  19.1491425  50.3047352   6.1499007  16.7987906  43.7502857   3.5213649
  15.9372385  44.0484110   3.8130386  16.8250341  43.9673255   2.5894681
  10.9998723  47.0079956  11.1128229  10.3697384  47.6896237  11.3463626
  10.8934811  46.8963038  10.1681367  20.3107505  54.0156991   4.7899434
  21.1324949  53.6137179   4.5082115  20.3069908  53.9125225   5.7415550
  14.0764108  53.5641035   6.9460144  14.1408541  54.0261442   7.7818316
  13.3675032  52.9338400   7.0742454  28.4013498  50.3595740   1.1384405
  27.6477206  49.7903138   0.9828410  28.5361039  50.3258404   2.0855040
  10.2779466  41.3100722  13.4753480   9.8846411  40.7566921  14.1501124
  11.0945606  41.6211300  13.8659997  13.1947427  42.7258601  11.0673736
  13.9357140  43.3265754  10.9878199  13.4265350  41.9836239  10.5091779
   8.3388765  47.9114968   9.3451966   8.2242280  47.0100226   9.6459065
   7.4833283  48.1578665   8.9936783  15.4180603  55.8532709  10.9439467
  14.9744457  55.0669087  10.6260371  16.0797816  56.0411859  10.2783358
  17.5161841  56.1335509   8.9720868  17.4980316  56.9544390   8.4801137
  18.4381761  56.0089584   9.1971009  13.9734895  53.6479638   9.8144376
  14.5063232  52.8867926   9.5843684  13.4448976  53.3553290  10.5568531
  17.1404590  38.7539704   5.3438018  16.7968859  39.6441346   5.2677129
  17.5083552  38.5641362   4.4807603  16.2201130  41.1244359   3.3087251
  15.7165926  41.0874494   2.4955057  16.5131737  42.0337102   3.3683908
  20.3180453  50.9714651   2.4430235  19.6604128  51.6613912   2.5310363
  21.1220853  51.3611083   2.7864221  19.1285912  49.3259024   0.4934176
  19.6417794  49.9589016   0.9955886  19.7787136  48.7260219   0.1277536
  15.6066743  46.8008479   2.7392517  14.6889304  47.0223426   2.5814205
  16.0226887  46.8754790   1.8804224  18.8380628  45.2357011  -0.1486013
  18.1003385  44.7234397   0.1824229  19.0907402  44.7957393  -0.9602737
  16.7479907  47.3905940   7.5437220  17.1029294  47.6177414   8.4031685
  17.3952038  47.7224317   6.9214475  22.4777644  50.5124376  -1.7513451
  22.3395542  50.7025972  -2.6792262  22.1213862  51.2743759  -1.2945400
  10.6419770  44.4982472   4.3283561  11.2819149  44.3571231   3.6306524
   9.8097300  44.2116985   3.9522163  22.5047023  52.5800903   3.2597820
  22.9383530  52.4876192   4.1080874  23.2178604  52.5558404   2.6217836
  16.2374918  56.1802997   4.7930921  16.2911940  56.7493934   5.5608637
  15.3689700  56.3504883   4.4284958   9.1173312  45.8820554   6.2755372
   9.7896365  45.6737916   5.6268021   8.2903098  45.6842640   5.8360604
  23.3662573  52.6224604   5.7930706  23.5598463  53.5270415   6.0389980
  23.2663191  52.1632023   6.6269291  15.0198884  42.5082495   8.2921033
  14.3726799  43.2072444   8.1985509  15.7899899  42.9418639   8.6597281
  18.4277681  52.7731347  11.3671586  18.2763188  52.5441898  10.4501670
  18.4182361  53.7301948  11.3802931  15.1963018  50.3463260   6.3517853
  16.1255078  50.4974419   6.1786820  14.7754048  50.4347280   5.4966499
   9.5200809  49.1563157   7.0357809   9.3820607  48.4243395   7.6369348
  10.4305732  49.0672057   6.7541997  12.1483109  48.8683116   6.5241489
  12.8582728  48.2276308   6.4828107  12.1052418  49.1196011   7.4467670
  20.1369888  55.8050469   9.4448068  20.0782434  55.1209689   8.7778651
  20.5389407  56.5469459   8.9928694  10.8612043  45.8548334   8.3437128
  10.3249400  45.4039072   8.9958725  10.2728752  45.9894243   7.6007593
  20.1387295  53.7690053   7.6762048  19.2514074  53.4315975   7.7988447
  20.7085846  53.0373084   7.9130813   6.5951165  44.9904342   5.4290123
   6.5109353  44.3830011   4.6940533   5.7733871  45.4813360   5.4299619
  24.6204636  49.1798271   2.4378609  24.6094512  50.0622986   2.0672542
  23.7522015  48.8269821   2.2433146  16.1287132  58.3278340   6.7981450
  16.8415105  58.9625804   6.7257351  15.6377161  58.4242206   5.9821451
  21.2377211  48.0746912  -1.0951225  21.7037663  48.9074903  -1.1690922
  21.6884711  47.6091893  -0.3905966  19.2093873  40.4427499   2.9439677
  18.2956953  40.6731725   3.1121884  19.6386975  40.5265943   3.7953709
  18.9800332  48.6317391   5.4439571  18.3271782  48.8793298   4.7892023
  19.3580712  47.8181529   5.1102048  15.0287905  49.3737202  11.9305608
  14.3528542  49.2731331  12.6007983  15.8515539  49.2176415  12.3941605
   8.7475181  43.0279279   6.7685109   8.8116507  43.8894110   6.3562506
   8.6842301  42.4153281   6.0357467   8.2227453  45.1002411  10.4158143
   8.8499492  44.7179489  11.0295667   7.3655372  44.8816613  10.7813835
  18.6221562  55.5065387  12.0211878  19.1661466  56.1195345  11.5266833
  18.0408407  56.0644965  12.5378891  18.9713983  56.4295125   4.7806456
  18.0244319  56.3100476   4.7084783  19.3196756  55.5417623   4.8632717
  11.3313557  42.3189264   8.6044698  11.8547959  42.5651560   9.3671007
  11.1125890  43.1509298   8.1847835  19.5794539  57.0476400   2.0675681
  20.5041086  56.8419261   1.9300132  19.4109842  56.7992801   2.9765023
  12.5366102  43.2602959   6.2894368  12.1962922  42.4610772   6.6915048
  11.8305108  43.5604670   5.7171202  13.1882574  40.3452271   4.7421691
  14.0108643  39.8712749   4.6200582  13.4320637  41.1242755   5.2420378
  12.5717535  44.0273940   2.5994560  12.5579104  43.1315033   2.2626858
  13.2889963  44.0344603   3.2332846  14.4243666  44.4611280   4.6447687
  14.1661444  45.3828351   4.6432018  13.8928706  44.0641714   5.3348151
  25.2229246  50.3298490  -0.9571928  25.6660392  49.5805815  -1.3552805
  24.3455756  50.3208626  -1.3398196   5.9732836  48.7046632   8.3831488
   5.2314572  48.8529268   8.9696119   5.6525581  48.9654898   7.5198238
  13.9176499  58.2462611   8.1811878  14.2263625  58.0011757   9.0534578
  14.7151981  58.4509249   7.6930748  11.4595511  44.4220317  12.0772062
  11.5083666  45.2982440  11.6949832  12.0018025  43.8797710  11.5043706
  21.9450356  54.9661441  11.3573199  21.1545900  54.9485579  10.8177699
  21.7083711  55.5049734  12.1122236  22.0648231  51.8153907   8.6705928
  22.1146236  51.6503914   9.6121451  21.9562155  50.9481166   8.2803809
  19.3551994  47.7984835   9.9865235  20.2561857  47.6591300   9.6949233
  19.4299968  47.9639290  10.9263412  13.6894799  45.1751690   8.8318421
  12.8198109  45.4685256   8.5601010  13.9254280  45.7592135   9.5525685
  23.5666428  54.2350849   8.9147950  23.2751237  54.5980829   9.7511411
  22.9538560  53.5217857   8.7361282  24.7662111  51.8003728   1.4350520
  25.6009002  52.2393532   1.5988080  24.9021239  51.3242382   0.6158766
  21.8153617  49.3583463   7.3828008  22.2907738  49.5511109   6.5746859
  20.8919182  49.4142649   7.1371391  16.3933833  41.3931307   6.3483841
  16.9115777  42.1292334   6.0230330  16.0388966  41.6995300   7.1830601
  20.5155286  46.2349223   5.6156313  21.4672708  46.3347321   5.6368537
  20.3458736  45.4427492   6.1254398  18.5369665  43.3204806   5.8015714
  17.9419597  43.6009819   5.1062203  18.2519362  43.8098707   6.5732455
  22.9943363  49.4555343   4.7298613  22.9619683  48.5171344   4.9158297
  23.6043987  49.5339380   3.9964438  23.1437852  46.2466386   4.7756896
  22.6276900  45.4624843   4.5886825  24.0277800  45.9185103   4.9403415
  20.8048579  39.9907402   0.7352709  20.6073400  39.6822490   1.6196041
  21.4148284  40.7169041   0.8650639  28.8119913  50.5171350   3.8704650
  29.5423302  50.2556638   4.4312353  28.2026859  49.7800072   3.9106718
  26.8935210  48.6579212   4.4679101  26.1668374  48.5235177   3.8595592
  26.4782497  48.9656041   5.2735819  14.7165387  52.3769142  12.2326474
  15.6368396  52.5547741  12.4266520  14.6814970  51.4325187  12.0806173
  12.5855325  45.8603382  14.2652004  12.4852051  46.8097739  14.1964095
  12.3676867  45.5321621  13.3928074  12.4486595  49.2900521  13.0817066
  11.9653676  50.0900881  13.2880955  12.5347534  49.3008466  12.1284510
   8.9659314  51.7506172   7.6856297   9.7852203  52.2450251   7.7091134
   9.2396122  50.8338140   7.6573865  22.0740447  44.1663445   0.7638592
  22.8500837  44.6559898   1.0363209  21.3488581  44.5921500   1.2210461
  24.5113005  44.8791065   1.8212532  25.1057496  44.6386801   1.1105841
  24.5839589  44.1598195   2.4486069  22.5071740  45.4461192  -1.9115338
  22.2508674  45.0457828  -1.0807130  21.8824608  46.1604986  -2.0365199
  26.8184078  48.1857265   0.5955954  26.2583636  48.2550455   1.3687516
  26.2127581  48.0098250  -0.1244550   4.2194228  46.0844306   8.3848494
   4.8653092  45.5743260   8.8735719   4.0111380  46.8212988   8.9591919
  16.7447621  53.1525153  13.8840635  17.6138780  53.3265806  13.5227270
  16.2654372  53.9719570  13.7616364   8.5591719  43.2311923  12.4823508
   9.4223181  42.8748728  12.6926833   7.9857130  42.8925818  13.1698913
  28.4040096  64.8613779   3.2885909  29.0418506  64.7420527   2.5849249
  28.2860939  65.8094623   3.3473861  25.2129803  64.8141207   3.2247434
  24.8748314  64.6982272   2.3367969  26.0819571  64.4132373   3.2048440
  25.6949586  65.9676059   9.1833640  25.6838226  65.5728857   8.3114143
  25.8570225  65.2342132   9.7767411  22.4156847  68.7513171   8.1312824
  22.1246713  69.6558802   8.0159490  23.0513831  68.7929699   8.8456893
  23.3413054  66.1290019   4.7214183  23.9376626  65.9046042   4.0071146
  23.3988025  65.3874765   5.3239631  27.9581365  62.5865233   0.3639117
  28.7444454  62.1684656   0.0129534  28.2220069  63.4911325   0.5320766
  33.3589792  62.5240466   1.2672096  34.0914964  61.9539683   1.5009925
  32.6029148  62.1362067   1.7078601  30.8815212  56.2362040   5.7266704
  30.5498537  57.1057451   5.5027919  30.2860826  55.9198324   6.4060735
  27.3746732  68.4374586   5.1262617  27.0747455  69.3399625   5.0178424
  27.0297791  68.1706770   5.9783770  30.7743876  60.9557127   2.8060055
  29.8660753  60.8872535   2.5118816  30.7231471  61.4329072   3.6341880
  24.8484741  62.3746772  10.7494952  24.0718076  62.9340692  10.7397816
  25.4875305  62.8603555  11.2709822  32.6405522  59.1573565   4.5837928
  31.9979902  59.4506098   3.9377723  32.1360451  59.0426485   5.3891125
  23.1031114  65.1832226  10.3112919  23.8445798  65.7217270  10.0347742
  22.3968099  65.8098514  10.4684471  28.5786453  67.3261366   8.9085080
  28.9869809  66.8843777   8.1639713  27.8563715  66.7513994   9.1619273
  24.9317523  62.2633973   6.2818637  25.7778719  62.6873386   6.4253286
  24.8716161  61.6067597   6.9757200  28.9015268  67.8862557   2.6637369
  28.2724131  68.0508271   1.9613437  28.5140930  68.3004166   3.4348333
  28.0816969  59.9238341   7.9399811  27.8377901  60.6780402   7.4034087
  28.3576899  60.3023689   8.7747058  30.0355432  66.4676954   6.6177076
  30.2472327  67.1108713   5.9411458  29.9885180  65.6339270   6.1499007
  27.6381661  59.0794774   3.5213649  26.7766140  59.3776028   3.8130386
  27.6644095  59.2965173   2.5894681  21.8392478  62.3371874  11.1128229
  21.2091138  63.0188155  11.3463626  21.7328565  62.2254955  10.1681367
  31.1501260  69.3448909   4.7899434  31.9718703  68.9429096   4.5082115
  31.1463662  69.2417143   5.7415550  24.9157863  68.8932952   6.9460144
  24.9802295  69.3553360   7.7818316  24.2068787  68.2630317   7.0742454
  21.1173220  56.6392640  13.4753480  20.7240166  56.0858838  14.1501124
  21.9339361  56.9503218  13.8659997  24.0341181  58.0550519  11.0673736
  24.7750895  58.6557672  10.9878199  24.2659104  57.3128157  10.5091779
  19.1782519  63.2406886   9.3451966  19.0636034  62.3392143   9.6459065
  18.3227037  63.4870583   8.9936783  26.2574357  71.1824626  10.9439467
  25.8138211  70.3961005  10.6260371  26.9191571  71.3703777  10.2783358
  28.3555595  71.4627426   8.9720868  28.3374070  72.2836307   8.4801137
  29.2775515  71.3381501   9.1971009  24.8128649  68.9771556   9.8144376
  25.3456986  68.2159844   9.5843684  24.2842730  68.6845208  10.5568531
  27.9798344  54.0831622   5.3438018  27.6362614  54.9733263   5.2677129
  28.3477307  53.8933279   4.4807603  25.5295738  58.9189934  -1.0904308
  24.6737334  58.5296784  -1.2698670  25.9422690  58.9981894  -1.9504523
  27.0594885  56.4536277   3.3087251  26.5559680  56.4166412   2.4955057
  27.3525491  57.3629020   3.3683908  23.3037770  56.5375007   2.3153433
  24.1690767  56.3417815   1.9559323  23.3715279  56.3085358   3.2422790
  31.1574208  66.3006569   2.4430235  30.4997882  66.9905830   2.5310363
  31.9614607  66.6903001   2.7864221  29.9679667  64.6550941   0.4934176
  30.4811548  65.2880933   0.9955886  30.6180891  64.0552137   0.1277536
  23.2122757  55.6418463  -1.5855131  22.5587170  55.3267481  -2.2098516
  23.1703231  55.0194204  -0.8595308  26.4460498  62.1300397   2.7392517
  25.5283059  62.3515344   2.5814205  26.8620641  62.2046707   1.8804224
  29.6774383  60.5648929  -0.1486013  28.9397139  60.0526315   0.1824229
  29.9301156  60.1249310  -0.9602737  29.7786010  53.3425181   0.4455756
  30.0844887  52.4822544   0.1581671  30.5038615  53.9342801   0.2454750
  27.5873661  62.7197858   7.5437220  27.9423049  62.9469331   8.4031685
  28.2345792  63.0516235   6.9214475  21.4813524  59.8274389   4.3283561
  22.1212904  59.6863148   3.6306524  20.6491055  59.5408903   3.9522163
  27.0768673  71.5094915   4.7930921  27.1305695  72.0785851   5.5608637
  26.2083454  71.6796800   4.4284958  19.9567066  61.2112471   6.2755372
  20.6290119  61.0029833   5.6268021  19.1296853  61.0134557   5.8360604
  34.2056327  67.9516522   5.7930706  34.3992217  68.8562332   6.0389980
  34.1056945  67.4923941   6.6269291  25.8592638  57.8374412   8.2921033
  25.2120553  58.5364362   8.1985509  26.6293653  58.2710556   8.6597281
  29.2671436  68.1023264  11.3671586  29.1156942  67.8733816  10.4501670
  29.2576115  69.0593866  11.3802931  26.0356772  65.6755177   6.3517853
  26.9648832  65.8266337   6.1786820  25.6147802  65.7639198   5.4966499
  20.3594563  64.4855074   7.0357809  20.2214361  63.7535313   7.6369348
  21.2699487  64.3963974   6.7541997  22.9876864  64.1975034   6.5241489
  23.6976482  63.5568226   6.4828107  22.9446172  64.4487928   7.4467670
  30.9763643  71.1342387   9.4448068  30.9176189  70.4501607   8.7778651
  31.3783161  71.8761377   8.9928694  21.7005798  61.1840252   8.3437128
  21.1643155  60.7330990   8.9958725  21.1122506  61.3186160   7.6007593
  30.9781050  69.0981971   7.6762048  30.0907829  68.7607893   7.7988447
  31.5479601  68.3665002   7.9130813  17.4344919  60.3196259   5.4290123
  17.3503108  59.7121929   4.6940533  16.6127626  60.8105278   5.4299619
  27.6068633  58.8049823   0.7960318  28.1037333  58.0519785   0.4761388
  26.8355615  58.8414139   0.2303527  35.4598390  64.5090188   2.4378609
  35.4488267  65.3914904   2.0672542  34.5915770  64.1561739   2.2433146
  26.9680887  73.6570257   6.7981450  27.6808859  74.2917722   6.7257351
  26.4770915  73.7534123   5.9821451  24.1903602  60.9467206   0.5232002
  23.8201389  60.3938246   1.2112908  24.6862694  60.3425339  -0.0292998
  30.0487628  55.7719416   2.9439677  29.1350708  56.0023643   3.1121884
  30.4780729  55.8557860   3.7953709  29.8194086  63.9609308   5.4439571
  29.1665537  64.2085216   4.7892023  30.1974466  63.1473446   5.1102048
  25.8681659  64.7029119  11.9305608  25.1922296  64.6023249  12.6007983
  26.6909293  64.5468333  12.3941605  19.5868935  58.3571197   6.7685109
  19.6510262  59.2186027   6.3562506  19.5236056  57.7445198   6.0357467
  19.0621208  60.4294329  10.4158143  19.6893247  60.0471406  11.0295667
  18.2049127  60.2108531  10.7813835  29.4615317  70.8357304  12.0211878
  30.0055221  71.4487263  11.5266833  28.8802161  71.3936883  12.5378891
  29.8107738  71.7587042   4.7806456  28.8638073  71.6392394   4.7084783
  30.1590511  70.8709540   4.8632717  22.1707311  57.6481181   8.6044698
  22.6941713  57.8943478   9.3671007  21.9519645  58.4801216   8.1847835
  23.3759856  58.5894876   6.2894368  23.0356677  57.7902689   6.6915048
  22.6698863  58.8896587   5.7171202  24.0276328  55.6744189   4.7421691
  24.8502397  55.2004667   4.6200582  24.2714392  56.4534673   5.2420378
  23.4111290  59.3565857   2.5994560  23.3972858  58.4606951   2.2626858
  24.1283718  59.3636521   3.2332846  25.2637420  59.7903198   4.6447687
  25.0055198  60.7120268   4.6432018  24.7322461  59.3933632   5.3348151
  25.6839376  55.9235148   1.0048850  25.7061073  55.9874481   0.0500829
  26.1007435  55.0839657   1.1989356  16.8126591  64.0338550   8.3831488
  16.0708327  64.1821185   8.9696119  16.4919335  64.2946816   7.5198238
  24.7570254  73.5754528   8.1811878  25.0657380  73.3303675   9.0534578
  25.5545736  73.7801167   7.6930748  22.2989265  59.7512235  12.0772062
  22.3477421  60.6274358  11.6949832  22.8411779  59.2089628  11.5043706
  32.7844111  70.2953358  11.3573199  31.9939655  70.2777497  10.8177699
  32.5477465  70.8341652  12.1122236  32.9041986  67.1445825   8.6705928
  32.9539991  66.9795832   9.6121451  32.7955909  66.2773084   8.2803809
  30.1945748  63.1276753   9.9865235  31.0955611  62.9883218   9.6949233
  30.2693723  63.2931208  10.9263412  24.5288554  60.5043607   8.8318421
  23.6591863  60.7977174   8.5601010  24.7648034  61.0884052   9.5525685
  34.4060183  69.5642766   8.9147950  34.1144991  69.9272747   9.7511411
  33.7932314  68.8509774   8.7361282  32.6547371  64.6875381   7.3828008
  33.1301493  64.8803027   6.5746859  31.7312936  64.7434567   7.1371391
  27.2327587  56.7223224   6.3483841  27.7509531  57.4584251   6.0230330
  26.8782720  57.0287218   7.1830601  27.4840182  53.1423507   1.8684738
  27.7641935  52.4746696   2.4945165  28.2690789  53.3352603   1.3559402
  31.3549040  61.5641141   5.6156313  32.3066463  61.6639239   5.6368537
  31.1852490  60.7719409   6.1254398  29.3763419  58.6496724   5.8015714
  28.7813352  58.9301737   5.1062203  29.0913116  59.1390625   6.5732455
  33.8337118  64.7847261   4.7298613  33.8013438  63.8463261   4.9158297
  34.4437741  64.8631297   3.9964438  33.9831606  61.5758304   4.7756896
  33.4670655  60.7916761   4.5886825  34.8671555  61.2477021   4.9403415
  31.6442333  55.3199320   0.7352709  31.4467154  55.0114408   1.6196041
  32.2542039  56.0460959   0.8650639  37.7328965  63.9871130   4.4679101
  37.0062128  63.8527095   3.8595592  37.3176252  64.2947959   5.2735819
  25.5559141  67.7061060  12.2326474  26.4762151  67.8839659  12.4266520
  25.5208724  66.7617105  12.0806173  25.4725432  56.1230180  -3.1375057
  24.6626160  55.7777265  -2.7619811  26.1609848  55.8137723  -2.5487445
  27.4015980  55.2008226  -1.5150760  27.9547018  55.6203680  -0.8560737
  27.6386066  54.2743975  -1.4727804  23.4249079  61.1895300  14.2652004
  23.3245806  62.1389657  14.1964095  23.2070621  60.8613539  13.3928074
  30.7794787  57.3108752  -2.0072096  30.1993456  57.9693556  -2.3894043
  30.5130720  56.4886096  -2.4184678  29.2298353  56.7113809   0.1949225
  29.7298132  56.8230344  -0.6136457  29.8733961  56.4074862   0.8350033
  23.2880349  64.6192439  13.0817066  22.8047431  65.4192799  13.2880955
  23.3741288  64.6300384  12.1284510  19.8053069  67.0798090   7.6856297
  20.6245958  67.5742168   7.7091134  20.0789876  66.1630058   7.6573865
  29.5619665  59.4708842  -2.9515747  28.6745520  59.7558493  -3.1695553
  29.9773654  59.3102605  -3.7988471  32.9134201  59.4955363   0.7638592
  33.6894591  59.9851815   1.0363209  32.1882335  59.9213417   1.2210461
  35.3506760  60.2082982   1.8212532  35.9451250  59.9678718   1.1105841
  35.4233343  59.4890113   2.4486069  15.0587983  61.4136224   8.3848494
  15.7046847  60.9035178   8.8735719  14.8505134  62.1504905   8.9591919
  27.5841375  68.4817071  13.8840635  28.4532535  68.6557723  13.5227270
  27.1048127  69.3011488  13.7616364  27.3943713  52.2719045  -1.6081673
  26.6276109  51.7177532  -1.4624991  27.8054418  52.3440914  -0.7467521
  19.3985474  58.5603841  12.4823508  20.2616936  58.2040646  12.6926833
  18.8250885  58.2217735  13.1698913  35.6878496  77.7038690  10.7494952
  34.9111830  78.2632610  10.7397816  36.3269059  78.1895473  11.2709822
  32.6786232  77.6663791  11.1128229  32.0484893  78.3480072  11.3463626
  32.5722320  77.5546873  10.1681367  31.9566975  71.9684557  13.4753480
  31.5633920  71.4150756  14.1501124  32.7733115  72.2795136  13.8659997
  34.8734936  73.3842436  11.0673736  35.6144649  73.9849590  10.9878199
  35.1052859  72.6420074  10.5091779  30.0176274  78.5698804   9.3451966
  29.9029789  77.6684061   9.6459065  29.1620791  78.8162500   8.9936783
  36.6986393  73.1666330   8.2921033  36.0514308  73.8656280   8.1985509
  37.4687408  73.6002474   8.6597281  32.5399552  76.5132169   8.3437128
  32.0036909  76.0622908   8.9958725  31.9516261  76.6478078   7.6007593
  28.2738674  75.6488177   5.4290123  28.1896862  75.0413846   4.6940533
  27.4521380  76.1397195   5.4299619  36.7075414  80.0321037  11.9305608
  36.0316051  79.9315166  12.6007983  37.5303048  79.8760251  12.3941605
  30.4262690  73.6863114   6.7685109  30.4904016  74.5477945   6.3562506
  30.3629810  73.0737116   6.0357467  29.9014962  75.7586247  10.4158143
  30.5287001  75.3763324  11.0295667  29.0442881  75.5400449  10.7813835
  33.0101066  72.9773099   8.6044698  33.5335468  73.2235395   9.3671007
  32.7913399  73.8093134   8.1847835  27.6520345  79.3630468   8.3831488
  26.9102081  79.5113103   8.9696119  27.3313090  79.6238733   7.5198238
  33.1383020  75.0804153  12.0772062  33.1871175  75.9566276  11.6949832
  33.6805534  74.5381546  11.5043706  35.3682308  75.8335525   8.8318421
  34.4985618  76.1269091   8.5601010  35.6041789  76.4175970   9.5525685
  34.2642834  76.5187218  14.2652004  34.1639560  77.4681575  14.1964095
  34.0464376  76.1905457  13.3928074  34.1274104  79.9484357  13.0817066
  33.6441185  80.7484717  13.2880955  34.2135043  79.9592302  12.1284510
  25.8981737  76.7428141   8.3848494  26.5440601  76.2327095   8.8735719
  25.6898889  77.4796823   8.9591919  30.2379228  73.8895758  12.4823508
  31.1010690  73.5332563  12.6926833  29.6644639  73.5509653  13.1698913
  26.2574358  48.1886749  -2.3315227  25.8138212  47.4023127  -2.6494322
  26.9191572  48.3765899  -2.9971336  28.3555596  48.4689549  -4.3033825
  28.3374072  49.2898430  -4.7953556  29.2775516  48.3443624  -4.0783684
  24.8128650  45.9833678  -3.4610317  25.3456987  45.2221966  -3.6911009
  24.2842732  45.6907330  -2.7186163  34.2056329  44.9578644  -7.4823988
  34.3992219  45.8624455  -7.2364713  34.1056947  44.4986063  -6.6485403
  29.2671437  45.1085387  -1.9083107  29.1156944  44.8795939  -2.8253024
  29.2576117  46.0655988  -1.8951762  30.9763644  48.1404510  -3.8306625
  30.9176190  47.4563730  -4.4976042  31.3783162  48.8823500  -4.2825999
  30.9781051  46.1044094  -5.5992646  30.0907830  45.7670015  -5.4766247
  31.5479602  45.3727125  -5.3623880  26.9680888  50.6632380  -6.4773244
  27.6808860  51.2979845  -6.5497342  26.4770917  50.7596246  -7.2933242
  25.8681661  41.7091242  -1.3449086  25.1922298  41.6085371  -0.6746710
  26.6909294  41.5530456  -0.8813088  29.4615318  47.8419427  -1.2542815
  30.0055222  48.4549385  -1.7487860  28.8802163  48.3999005  -0.7375802
  24.7570255  50.5816651  -5.0942815  25.0657381  50.3365798  -4.2220116
  25.5545737  50.7863289  -5.5823945  32.7844112  47.3015481  -1.9181494
  31.9939656  47.2839620  -2.4576994  32.5477467  47.8403775  -1.1632457
  32.9041987  44.1507947  -4.6048765  32.9539992  43.9857955  -3.6633243
  32.7955911  43.2835206  -4.9950885  34.4060184  46.5704889  -4.3606744
  34.1144992  46.9334869  -3.5243283  33.7932315  45.8571897  -4.5393412
  25.5559142  44.7123182  -1.0428220  26.4762152  44.8901781  -0.8488173
  25.5208725  43.7679228  -1.1948520  23.2880350  41.6254562  -0.1937628
  22.8047432  42.4254922   0.0126261  23.3741289  41.6362506  -1.1470184
  27.5841376  45.4879194   0.6085941  28.4532536  45.6619846   0.2472576
  27.1048128  46.3073610   0.4861671  35.6878497  54.7100813  -2.5259742
  34.9111831  55.2694733  -2.5356877  36.3269060  55.1957596  -2.0044871
  32.6786233  54.6725914  -2.1626465  32.0484894  55.3542195  -1.9291068
  32.5722321  54.5608996  -3.1073326  31.9566976  48.9746680   0.1998786
  31.5633922  48.4212878   0.8746431  32.7733116  49.2857258   0.5905304
  34.8734937  50.3904559  -2.2080957  35.6144650  50.9911712  -2.2876494
  35.1052860  49.6482197  -2.7662914  30.0176275  55.5760926  -3.9302727
  29.9029790  54.6746183  -3.6295628  29.1620793  55.8224623  -4.2817911
  36.6986394  50.1728453  -4.9833660  36.0514309  50.8718402  -5.0769184
  37.4687409  50.6064596  -4.6157412  32.5399554  53.5194292  -4.9317565
  32.0036911  53.0685030  -4.2795969  31.9516262  53.6540201  -5.6747101
  28.2738675  52.6550300  -7.8464571  28.1896864  52.0475969  -8.5814161
  27.4521381  53.1459318  -7.8455074  36.7075415  57.0383160  -1.3449086
  36.0316052  56.9377289  -0.6746710  37.5303049  56.8822373  -0.8813088
  30.4262691  50.6925237  -6.5069585  30.4904018  51.5540068  -6.9192187
  30.3629811  50.0799238  -7.2397226  29.9014964  52.7648369  -2.8596551
  30.5287003  52.3825447  -2.2459026  29.0442883  52.5462571  -2.4940858
  33.0101067  49.9835222  -4.6709995  33.5335469  50.2297518  -3.9083686
  32.7913400  50.8155256  -5.0906858  27.6520347  56.3692590  -4.8923205
  26.9102083  56.5175226  -4.3058575  27.3313091  56.6300856  -5.7556456
  33.1383021  52.0866275  -1.1982631  33.1871176  52.9628398  -1.5804861
  33.6805535  51.5443668  -1.7710988  35.3682309  52.8397648  -4.4436272
  34.4985619  53.1331214  -4.7153684  35.6041790  53.4238093  -3.7229009
  34.2642835  53.5249340   0.9897311  34.1639562  54.4743697   0.9209402
  34.0464377  53.1967579   0.1173381  34.1274105  56.9546479  -0.1937628
  33.6441187  57.7546839   0.0126261  34.2135044  56.9654424  -1.1470184
  25.8981739  53.7490264  -4.8906199  26.5440602  53.2389218  -4.4018974
  25.6898890  54.4858946  -4.3162774  30.2379230  50.8957881  -0.7931185
  31.1010691  50.5394686  -0.5827860  29.6644640  50.5571776  -0.1055781
  83.8359041  83.8359041  83.8359041 109.4712190 109.4712190 109.4712190
