default_name
    35
  18.3590000 -33.8240000  39.2700000  18.8540000 -32.5930000  38.5580000
  18.8030000 -31.3520000  39.2210000  19.2610000 -30.1740000  38.6120000
  19.1660000 -28.8880000  39.3340000  20.0540000 -28.7980000  40.3990000
  20.0700000 -27.6530000  41.1540000  20.9670000 -27.6100000  42.2220000
  21.0350000 -26.4740000  43.0310000  20.2080000 -25.3800000  42.7710000
  19.3140000 -25.4240000  41.7030000  18.5340000 -24.3180000  41.5050000
  19.2450000 -26.5630000  40.8960000  18.3200000 -26.6500000  39.7650000
  17.5650000 -25.7260000  39.4680000  18.3200000 -27.9040000  38.9760000
  17.4520000 -27.9710000  37.9010000  19.7620000 -30.2500000  37.3080000
  19.8220000 -31.4750000  36.6370000  19.3750000 -32.6590000  37.2480000
  19.4570000 -33.9660000  36.4890000  18.2320000 -34.4590000  36.1510000
  20.0720000 -34.9640000  37.1870000  20.1520000 -33.8550000  35.3220000
  18.4210000 -33.6690000  40.3570000  17.3140000 -34.0160000  38.9860000
  18.9800000 -34.6860000  38.9860000  18.3940000 -31.3050000  40.2410000
  21.6200000 -28.4710000  42.4270000  21.7410000 -26.4410000  43.8740000
  20.2620000 -24.4850000  43.4080000  18.4070000 -23.7030000  42.2010000
  17.0940000 -28.7960000  37.6400000  20.1120000 -29.3360000  36.8050000
  20.2260000 -31.5130000  35.6140000
