; FAD_GMX.itp created by acpype (v: 2023.10.27) on Fri Sep 25 09:30:46 2026

[ atomtypes ]
;name   bond_type     mass     charge   ptype   sigma         epsilon       Amb
 p5       p5          0.00000  0.00000   A     3.69402e-01   9.60228e-01 ; 2.07  0.2295
 o        o           0.00000  0.00000   A     3.04812e-01   6.12119e-01 ; 1.71  0.1463
 os       os          0.00000  0.00000   A     3.15610e-01   3.03758e-01 ; 1.77  0.0726
 c3       c3          0.00000  0.00000   A     3.39771e-01   4.51035e-01 ; 1.91  0.1078
 c5       c5          0.00000  0.00000   A     3.39771e-01   4.51035e-01 ; 1.91  0.1078
 oh       oh          0.00000  0.00000   A     3.24287e-01   3.89112e-01 ; 1.82  0.0930
 na       na          0.00000  0.00000   A     3.20581e-01   8.54373e-01 ; 1.80  0.2042
 cc       cc          0.00000  0.00000   A     3.31521e-01   4.13379e-01 ; 1.86  0.0988
 nd       nd          0.00000  0.00000   A     3.38417e-01   3.93714e-01 ; 1.90  0.0941
 ca       ca          0.00000  0.00000   A     3.31521e-01   4.13379e-01 ; 1.86  0.0988
 nv       nv          0.00000  0.00000   A     3.36813e-01   4.68608e-01 ; 1.89  0.1120
 nb       nb          0.00000  0.00000   A     3.38417e-01   3.93714e-01 ; 1.90  0.0941
 nc       nc          0.00000  0.00000   A     3.38417e-01   3.93714e-01 ; 1.90  0.0941
 c        c           0.00000  0.00000   A     3.31521e-01   4.13379e-01 ; 1.86  0.0988
 ns       ns          0.00000  0.00000   A     3.26995e-01   4.91202e-01 ; 1.84  0.1174
 cd       cd          0.00000  0.00000   A     3.31521e-01   4.13379e-01 ; 1.86  0.0988
 h1       h1          0.00000  0.00000   A     2.42200e-01   8.70272e-02 ; 1.36  0.0208
 ho       ho          0.00000  0.00000   A     5.37925e-02   1.96648e-02 ; 0.30  0.0047
 h2       h2          0.00000  0.00000   A     2.24382e-01   8.70272e-02 ; 1.26  0.0208
 h5       h5          0.00000  0.00000   A     2.44730e-01   6.73624e-02 ; 1.37  0.0161
 hn       hn          0.00000  0.00000   A     1.10650e-01   4.18400e-02 ; 0.62  0.0100
 ha       ha          0.00000  0.00000   A     2.62548e-01   6.73624e-02 ; 1.47  0.0161
 hc       hc          0.00000  0.00000   A     2.60018e-01   8.70272e-02 ; 1.46  0.0208

[ moleculetype ]
;name            nrexcl
 FAD              3

[ atoms ]
;   nr  type  resi  res  atom  cgnr     charge      mass       ; qtot   bond_type
     1   p5     1   MOL    P1    1     1.639801     30.97000 ; qtot 1.640
     2    o     1   MOL    O1    2    -0.903500     16.00000 ; qtot 0.736
     3    o     1   MOL    O2    3    -0.903500     16.00000 ; qtot -0.167
     4   os     1   MOL    O3    4    -0.590200     16.00000 ; qtot -0.757
     5   c3     1   MOL    C1    5     0.190400     12.01000 ; qtot -0.567
     6   c5     1   MOL    C2    6     0.086100     12.01000 ; qtot -0.481
     7   os     1   MOL    O4    7    -0.437600     16.00000 ; qtot -0.918
     8   c5     1   MOL    C3    8     0.093100     12.01000 ; qtot -0.825
     9   oh     1   MOL    O5    9    -0.613800     16.00000 ; qtot -1.439
    10   c5     1   MOL    C4   10     0.071100     12.01000 ; qtot -1.368
    11   oh     1   MOL    O6   11    -0.585800     16.00000 ; qtot -1.954
    12   c5     1   MOL    C5   12     0.217800     12.01000 ; qtot -1.736
    13   na     1   MOL    N1   13    -0.266000     14.01000 ; qtot -2.002
    14   cc     1   MOL    C6   14     0.462700     12.01000 ; qtot -1.539
    15   nd     1   MOL    N2   15    -0.581100     14.01000 ; qtot -2.120
    16   ca     1   MOL    C7   16    -0.195200     12.01000 ; qtot -2.316
    17   ca     1   MOL    C8   17     0.702200     12.01000 ; qtot -1.613
    18   nv     1   MOL    N3   18    -0.929500     14.01000 ; qtot -2.543
    19   nb     1   MOL    N4   19    -0.799000     14.01000 ; qtot -3.342
    20   ca     1   MOL    C9   20     0.646900     12.01000 ; qtot -2.695
    21   nb     1   MOL    N5   21    -0.722000     14.01000 ; qtot -3.417
    22   ca     1   MOL   C10   22     0.440800     12.01000 ; qtot -2.976
    23   nc     1   MOL    N6   23    -0.414400     14.01000 ; qtot -3.391
    24    c     1   MOL   C11   24     0.851900     12.01000 ; qtot -2.539
    25    o     1   MOL    O7   25    -0.623500     16.00000 ; qtot -3.162
    26   ns     1   MOL    N7   26    -0.623500     14.01000 ; qtot -3.786
    27    c     1   MOL   C12   27     0.614000     12.01000 ; qtot -3.172
    28    o     1   MOL    O8   28    -0.625500     16.00000 ; qtot -3.797
    29   cd     1   MOL   C13   29     0.267800     12.01000 ; qtot -3.529
    30   nc     1   MOL    N8   30    -0.527000     14.01000 ; qtot -4.056
    31   ca     1   MOL   C14   31     0.265600     12.01000 ; qtot -3.791
    32   ca     1   MOL   C15   32    -0.131300     12.01000 ; qtot -3.922
    33   ca     1   MOL   C16   33    -0.122300     12.01000 ; qtot -4.044
    34   c3     1   MOL   C17   34    -0.042800     12.01000 ; qtot -4.087
    35   ca     1   MOL   C18   35    -0.000300     12.01000 ; qtot -4.088
    36   c3     1   MOL   C19   36    -0.078800     12.01000 ; qtot -4.166
    37   ca     1   MOL   C20   37    -0.152000     12.01000 ; qtot -4.318
    38   ca     1   MOL   C21   38     0.009400     12.01000 ; qtot -4.309
    39   na     1   MOL    N9   39    -0.057100     14.01000 ; qtot -4.366
    40   cd     1   MOL   C22   40     0.087400     12.01000 ; qtot -4.279
    41   c3     1   MOL   C23   41    -0.026700     12.01000 ; qtot -4.305
    42   c3     1   MOL   C24   42     0.152100     12.01000 ; qtot -4.153
    43   oh     1   MOL    O9   43    -0.630800     16.00000 ; qtot -4.784
    44   c3     1   MOL   C25   44     0.090100     12.01000 ; qtot -4.694
    45   oh     1   MOL   O10   45    -0.638800     16.00000 ; qtot -5.333
    46   c3     1   MOL   C26   46     0.098100     12.01000 ; qtot -5.235
    47   oh     1   MOL   O11   47    -0.610800     16.00000 ; qtot -5.845
    48   c3     1   MOL   C27   48     0.165400     12.01000 ; qtot -5.680
    49   os     1   MOL   O12   49    -0.596200     16.00000 ; qtot -6.276
    50   p5     1   MOL    P2   50     1.601800     30.97000 ; qtot -4.674
    51    o     1   MOL   O13   51    -0.869000     16.00000 ; qtot -5.543
    52    o     1   MOL   O14   52    -0.869000     16.00000 ; qtot -6.412
    53   os     1   MOL   O15   53    -0.818800     16.00000 ; qtot -7.231
    54   h1     1   MOL    H1   54     0.047700      1.00800 ; qtot -7.184
    55   h1     1   MOL    H2   55     0.047700      1.00800 ; qtot -7.136
    56   h1     1   MOL    H3   56     0.065700      1.00800 ; qtot -7.070
    57   h1     1   MOL    H4   57     0.138700      1.00800 ; qtot -6.931
    58   ho     1   MOL    H5   58     0.393000      1.00800 ; qtot -6.538
    59   h1     1   MOL    H6   59     0.169700      1.00800 ; qtot -6.369
    60   ho     1   MOL    H7   60     0.398000      1.00800 ; qtot -5.971
    61   h2     1   MOL    H8   61     0.079700      1.00800 ; qtot -5.891
    62   h5     1   MOL    H9   62     0.176800      1.00800 ; qtot -5.714
    63   hn     1   MOL   H10   63     0.413800      1.00800 ; qtot -5.300
    64   hn     1   MOL   H11   64     0.413800      1.00800 ; qtot -4.887
    65   h5     1   MOL   H12   65     0.029100      1.00800 ; qtot -4.858
    66   hn     1   MOL   H13   66     0.327500      1.00800 ; qtot -4.530
    67   ha     1   MOL   H14   67     0.139000      1.00800 ; qtot -4.391
    68   hc     1   MOL   H15   68     0.038033      1.00800 ; qtot -4.353
    69   hc     1   MOL   H16   69     0.038033      1.00800 ; qtot -4.315
    70   hc     1   MOL   H17   70     0.038033      1.00800 ; qtot -4.277
    71   hc     1   MOL   H18   71     0.064700      1.00800 ; qtot -4.212
    72   hc     1   MOL   H19   72     0.064700      1.00800 ; qtot -4.148
    73   hc     1   MOL   H20   73     0.064700      1.00800 ; qtot -4.083
    74   ha     1   MOL   H21   74     0.246000      1.00800 ; qtot -3.837
    75   h1     1   MOL   H22   75     0.106700      1.00800 ; qtot -3.730
    76   h1     1   MOL   H23   76     0.106700      1.00800 ; qtot -3.623
    77   h1     1   MOL   H24   77     0.083700      1.00800 ; qtot -3.540
    78   ho     1   MOL   H25   78     0.456000      1.00800 ; qtot -3.084
    79   h1     1   MOL   H26   79     0.086700      1.00800 ; qtot -2.997
    80   ho     1   MOL   H27   80     0.462000      1.00800 ; qtot -2.535
    81   h1     1   MOL   H28   81     0.058700      1.00800 ; qtot -2.476
    82   ho     1   MOL   H29   82     0.422000      1.00800 ; qtot -2.054
    83   h1     1   MOL   H30   83     0.027200      1.00800 ; qtot -2.027
    84   h1     1   MOL   H31   84     0.027200      1.00800 ; qtot -2.000

[ bonds ]
;   ai     aj funct   r             k
     1      2   1    1.4885e-01    4.7951e+05 ;     P1 - O1    
     1      3   1    1.4885e-01    4.7951e+05 ;     P1 - O2    
     1      4   1    1.6182e-01    3.2434e+05 ;     P1 - O3    
     1     53   1    1.6182e-01    3.2434e+05 ;     P1 - O15   
     4      5   1    1.4273e-01    2.3620e+05 ;     O3 - C1    
     5      6   1    1.5372e-01    1.9049e+05 ;     C1 - C2    
     5     54   1    1.0969e-01    2.8804e+05 ;     C1 - H1    
     5     55   1    1.0969e-01    2.8804e+05 ;     C1 - H2    
     6      7   1    1.4346e-01    2.3063e+05 ;     C2 - O4    
     6      8   1    1.5483e-01    1.8418e+05 ;     C2 - C3    
     6     56   1    1.0972e-01    2.8768e+05 ;     C2 - H3    
     7     12   1    1.4346e-01    2.3063e+05 ;     O4 - C5    
     8      9   1    1.4194e-01    2.4241e+05 ;     C3 - O5    
     8     10   1    1.5483e-01    1.8418e+05 ;     C3 - C4    
     8     57   1    1.0972e-01    2.8768e+05 ;     C3 - H4    
     9     58   1    9.7250e-02    4.4811e+05 ;     O5 - H5    
    10     11   1    1.4194e-01    2.4241e+05 ;     C4 - O6    
    10     12   1    1.5483e-01    1.8418e+05 ;     C4 - C5    
    10     59   1    1.0972e-01    2.8768e+05 ;     C4 - H6    
    11     60   1    9.7250e-02    4.4811e+05 ;     O6 - H7    
    12     13   1    1.4571e-01    2.1790e+05 ;     C5 - N1    
    12     61   1    1.0955e-01    2.8977e+05 ;     C5 - H8    
    13     14   1    1.3803e-01    2.8075e+05 ;     N1 - C6    
    13     22   1    1.3858e-01    2.7557e+05 ;     N1 - C10   
    14     15   1    1.3158e-01    3.5122e+05 ;     C6 - N2    
    14     62   1    1.0820e-01    3.0708e+05 ;     C6 - H9    
    15     16   1    1.3864e-01    2.7501e+05 ;     N2 - C7    
    16     17   1    1.3986e-01    2.9644e+05 ;     C7 - C8    
    16     22   1    1.3986e-01    2.9644e+05 ;     C7 - C10   
    17     18   1    1.3744e-01    2.8644e+05 ;     C8 - N3    
    17     19   1    1.3392e-01    3.2341e+05 ;     C8 - N4    
    18     63   1    1.0114e-01    3.9961e+05 ;     N3 - H10   
    18     64   1    1.0114e-01    3.9961e+05 ;     N3 - H11   
    19     20   1    1.3392e-01    3.2341e+05 ;     N4 - C9    
    20     21   1    1.3392e-01    3.2341e+05 ;     C9 - N5    
    20     65   1    1.0880e-01    2.9923e+05 ;     C9 - H12   
    21     22   1    1.3392e-01    3.2341e+05 ;     N5 - C10   
    23     24   1    1.3744e-01    2.8644e+05 ;     N6 - C11   
    23     40   1    1.3171e-01    3.4961e+05 ;     N6 - C22   
    24     25   1    1.2190e-01    4.9421e+05 ;    C11 - O7    
    24     26   1    1.3798e-01    2.8122e+05 ;    C11 - N7    
    26     27   1    1.3798e-01    2.8122e+05 ;     N7 - C12   
    26     66   1    1.0132e-01    3.9630e+05 ;     N7 - H13   
    27     28   1    1.2190e-01    4.9421e+05 ;    C12 - O8    
    27     29   1    1.4728e-01    2.3273e+05 ;    C12 - C13   
    29     30   1    1.3171e-01    3.4961e+05 ;    C13 - N8    
    29     40   1    1.4279e-01    2.6902e+05 ;    C13 - C22   
    30     31   1    1.3852e-01    2.7614e+05 ;     N8 - C14   
    31     32   1    1.3986e-01    2.9644e+05 ;    C14 - C15   
    31     38   1    1.3986e-01    2.9644e+05 ;    C14 - C21   
    32     33   1    1.3986e-01    2.9644e+05 ;    C15 - C16   
    32     67   1    1.0860e-01    3.0183e+05 ;    C15 - H14   
    33     34   1    1.5147e-01    2.0410e+05 ;    C16 - C17   
    33     35   1    1.3986e-01    2.9644e+05 ;    C16 - C18   
    34     68   1    1.0962e-01    2.8891e+05 ;    C17 - H15   
    34     69   1    1.0962e-01    2.8891e+05 ;    C17 - H16   
    34     70   1    1.0962e-01    2.8891e+05 ;    C17 - H17   
    35     36   1    1.5147e-01    2.0410e+05 ;    C18 - C19   
    35     37   1    1.3986e-01    2.9644e+05 ;    C18 - C20   
    36     71   1    1.0962e-01    2.8891e+05 ;    C19 - H18   
    36     72   1    1.0962e-01    2.8891e+05 ;    C19 - H19   
    36     73   1    1.0962e-01    2.8891e+05 ;    C19 - H20   
    37     38   1    1.3986e-01    2.9644e+05 ;    C20 - C21   
    37     74   1    1.0860e-01    3.0183e+05 ;    C20 - H21   
    38     39   1    1.3858e-01    2.7557e+05 ;    C21 - N9    
    39     40   1    1.3830e-01    2.7819e+05 ;     N9 - C22   
    39     41   1    1.4639e-01    2.1321e+05 ;     N9 - C23   
    41     42   1    1.5354e-01    1.9154e+05 ;    C23 - C24   
    41     75   1    1.0969e-01    2.8804e+05 ;    C23 - H22   
    41     76   1    1.0969e-01    2.8804e+05 ;    C23 - H23   
    42     43   1    1.4242e-01    2.3861e+05 ;    C24 - O9    
    42     44   1    1.5354e-01    1.9154e+05 ;    C24 - C25   
    42     77   1    1.0969e-01    2.8804e+05 ;    C24 - H24   
    43     78   1    9.7250e-02    4.4811e+05 ;     O9 - H25   
    44     45   1    1.4242e-01    2.3861e+05 ;    C25 - O10   
    44     46   1    1.5354e-01    1.9154e+05 ;    C25 - C26   
    44     79   1    1.0969e-01    2.8804e+05 ;    C25 - H26   
    45     80   1    9.7250e-02    4.4811e+05 ;    O10 - H27   
    46     47   1    1.4242e-01    2.3861e+05 ;    C26 - O11   
    46     48   1    1.5354e-01    1.9154e+05 ;    C26 - C27   
    46     81   1    1.0969e-01    2.8804e+05 ;    C26 - H28   
    47     82   1    9.7250e-02    4.4811e+05 ;    O11 - H29   
    48     49   1    1.4273e-01    2.3620e+05 ;    C27 - O12   
    48     83   1    1.0969e-01    2.8804e+05 ;    C27 - H30   
    48     84   1    1.0969e-01    2.8804e+05 ;    C27 - H31   
    49     50   1    1.6182e-01    3.2434e+05 ;    O12 - P2    
    50     51   1    1.4885e-01    4.7951e+05 ;     P2 - O13   
    50     52   1    1.4885e-01    4.7951e+05 ;     P2 - O14   
    50     53   1    1.6182e-01    3.2434e+05 ;     P2 - O15   

[ pairs ]
;   ai     aj    funct
     1      6      1 ;     P1 - C2    
     1     49      1 ;     P1 - O12   
     1     51      1 ;     P1 - O13   
     1     52      1 ;     P1 - O14   
     1     54      1 ;     P1 - H1    
     1     55      1 ;     P1 - H2    
     2      5      1 ;     O1 - C1    
     2     50      1 ;     O1 - P2    
     3      5      1 ;     O2 - C1    
     3     50      1 ;     O2 - P2    
     4      7      1 ;     O3 - O4    
     4      8      1 ;     O3 - C3    
     4     50      1 ;     O3 - P2    
     4     56      1 ;     O3 - H3    
     5      9      1 ;     C1 - O5    
     5     10      1 ;     C1 - C4    
     5     12      1 ;     C1 - C5    
     5     57      1 ;     C1 - H4    
     6     11      1 ;     C2 - O6    
     6     13      1 ;     C2 - N1    
     6     58      1 ;     C2 - H5    
     6     59      1 ;     C2 - H6    
     6     61      1 ;     C2 - H8    
     7      9      1 ;     O4 - O5    
     7     11      1 ;     O4 - O6    
     7     14      1 ;     O4 - C6    
     7     22      1 ;     O4 - C10   
     7     54      1 ;     O4 - H1    
     7     55      1 ;     O4 - H2    
     7     57      1 ;     O4 - H4    
     7     59      1 ;     O4 - H6    
     8     13      1 ;     C3 - N1    
     8     54      1 ;     C3 - H1    
     8     55      1 ;     C3 - H2    
     8     60      1 ;     C3 - H7    
     8     61      1 ;     C3 - H8    
     9     11      1 ;     O5 - O6    
     9     12      1 ;     O5 - C5    
     9     56      1 ;     O5 - H3    
     9     59      1 ;     O5 - H6    
    10     14      1 ;     C4 - C6    
    10     22      1 ;     C4 - C10   
    10     56      1 ;     C4 - H3    
    10     58      1 ;     C4 - H5    
    11     13      1 ;     O6 - N1    
    11     57      1 ;     O6 - H4    
    11     61      1 ;     O6 - H8    
    12     15      1 ;     C5 - N2    
    12     16      1 ;     C5 - C7    
    12     21      1 ;     C5 - N5    
    12     56      1 ;     C5 - H3    
    12     57      1 ;     C5 - H4    
    12     60      1 ;     C5 - H7    
    12     62      1 ;     C5 - H9    
    13     17      1 ;     N1 - C8    
    13     20      1 ;     N1 - C9    
    13     59      1 ;     N1 - H6    
    14     17      1 ;     C6 - C8    
    14     21      1 ;     C6 - N5    
    14     61      1 ;     C6 - H8    
    15     18      1 ;     N2 - N3    
    15     19      1 ;     N2 - N4    
    15     21      1 ;     N2 - N5    
    16     20      1 ;     C7 - C9    
    16     62      1 ;     C7 - H9    
    16     63      1 ;     C7 - H10   
    16     64      1 ;     C7 - H11   
    17     21      1 ;     C8 - N5    
    17     65      1 ;     C8 - H12   
    18     20      1 ;     N3 - C9    
    18     22      1 ;     N3 - C10   
    19     22      1 ;     N4 - C10   
    19     63      1 ;     N4 - H10   
    19     64      1 ;     N4 - H11   
    22     61      1 ;    C10 - H8    
    22     62      1 ;    C10 - H9    
    22     65      1 ;    C10 - H12   
    23     27      1 ;     N6 - C12   
    23     30      1 ;     N6 - N8    
    23     38      1 ;     N6 - C21   
    23     41      1 ;     N6 - C23   
    23     66      1 ;     N6 - H13   
    24     28      1 ;    C11 - O8    
    24     29      1 ;    C11 - C13   
    24     39      1 ;    C11 - N9    
    25     27      1 ;     O7 - C12   
    25     40      1 ;     O7 - C22   
    25     66      1 ;     O7 - H13   
    26     30      1 ;     N7 - N8    
    26     40      1 ;     N7 - C22   
    27     31      1 ;    C12 - C14   
    27     39      1 ;    C12 - N9    
    28     30      1 ;     O8 - N8    
    28     40      1 ;     O8 - C22   
    28     66      1 ;     O8 - H13   
    29     32      1 ;    C13 - C15   
    29     38      1 ;    C13 - C21   
    29     41      1 ;    C13 - C23   
    29     66      1 ;    C13 - H13   
    30     33      1 ;     N8 - C16   
    30     37      1 ;     N8 - C20   
    30     39      1 ;     N8 - N9    
    30     67      1 ;     N8 - H14   
    31     34      1 ;    C14 - C17   
    31     35      1 ;    C14 - C18   
    31     40      1 ;    C14 - C22   
    31     41      1 ;    C14 - C23   
    31     74      1 ;    C14 - H21   
    32     36      1 ;    C15 - C19   
    32     37      1 ;    C15 - C20   
    32     39      1 ;    C15 - N9    
    32     68      1 ;    C15 - H15   
    32     69      1 ;    C15 - H16   
    32     70      1 ;    C15 - H17   
    33     38      1 ;    C16 - C21   
    33     71      1 ;    C16 - H18   
    33     72      1 ;    C16 - H19   
    33     73      1 ;    C16 - H20   
    33     74      1 ;    C16 - H21   
    34     36      1 ;    C17 - C19   
    34     37      1 ;    C17 - C20   
    34     67      1 ;    C17 - H14   
    35     39      1 ;    C18 - N9    
    35     67      1 ;    C18 - H14   
    35     68      1 ;    C18 - H15   
    35     69      1 ;    C18 - H16   
    35     70      1 ;    C18 - H17   
    36     38      1 ;    C19 - C21   
    36     74      1 ;    C19 - H21   
    37     40      1 ;    C20 - C22   
    37     41      1 ;    C20 - C23   
    37     71      1 ;    C20 - H18   
    37     72      1 ;    C20 - H19   
    37     73      1 ;    C20 - H20   
    38     42      1 ;    C21 - C24   
    38     67      1 ;    C21 - H14   
    38     75      1 ;    C21 - H22   
    38     76      1 ;    C21 - H23   
    39     43      1 ;     N9 - O9    
    39     44      1 ;     N9 - C25   
    39     74      1 ;     N9 - H21   
    39     77      1 ;     N9 - H24   
    40     42      1 ;    C22 - C24   
    40     75      1 ;    C22 - H22   
    40     76      1 ;    C22 - H23   
    41     45      1 ;    C23 - O10   
    41     46      1 ;    C23 - C26   
    41     78      1 ;    C23 - H25   
    41     79      1 ;    C23 - H26   
    42     47      1 ;    C24 - O11   
    42     48      1 ;    C24 - C27   
    42     80      1 ;    C24 - H27   
    42     81      1 ;    C24 - H28   
    43     45      1 ;     O9 - O10   
    43     46      1 ;     O9 - C26   
    43     75      1 ;     O9 - H22   
    43     76      1 ;     O9 - H23   
    43     79      1 ;     O9 - H26   
    44     49      1 ;    C25 - O12   
    44     75      1 ;    C25 - H22   
    44     76      1 ;    C25 - H23   
    44     78      1 ;    C25 - H25   
    44     82      1 ;    C25 - H29   
    44     83      1 ;    C25 - H30   
    44     84      1 ;    C25 - H31   
    45     47      1 ;    O10 - O11   
    45     48      1 ;    O10 - C27   
    45     77      1 ;    O10 - H24   
    45     81      1 ;    O10 - H28   
    46     50      1 ;    C26 - P2    
    46     77      1 ;    C26 - H24   
    46     80      1 ;    C26 - H27   
    47     49      1 ;    O11 - O12   
    47     79      1 ;    O11 - H26   
    47     83      1 ;    O11 - H30   
    47     84      1 ;    O11 - H31   
    48     51      1 ;    C27 - O13   
    48     52      1 ;    C27 - O14   
    48     53      1 ;    C27 - O15   
    48     79      1 ;    C27 - H26   
    48     82      1 ;    C27 - H29   
    49     81      1 ;    O12 - H28   
    50     83      1 ;     P2 - H30   
    50     84      1 ;     P2 - H31   
    53      5      1 ;    O15 - C1    
    54     56      1 ;     H1 - H3    
    55     56      1 ;     H2 - H3    
    56     57      1 ;     H3 - H4    
    57     58      1 ;     H4 - H5    
    57     59      1 ;     H4 - H6    
    59     60      1 ;     H6 - H7    
    59     61      1 ;     H6 - H8    
    75     77      1 ;    H22 - H24   
    76     77      1 ;    H23 - H24   
    77     78      1 ;    H24 - H25   
    77     79      1 ;    H24 - H26   
    79     80      1 ;    H26 - H27   
    79     81      1 ;    H26 - H28   
    81     82      1 ;    H28 - H29   
    81     83      1 ;    H28 - H30   
    81     84      1 ;    H28 - H31   

[ angles ]
;   ai     aj     ak    funct   theta         cth
     1      4      5      1    1.1970e+02    4.7396e+02 ;     P1 - O3     - C1    
     1     53     50      1    1.2552e+02    3.1062e+02 ;     P1 - O15    - P2    
     2      1      3      1    1.1829e+02    8.6826e+02 ;     O1 - P1     - O2    
     2      1      4      1    1.1544e+02    8.3931e+02 ;     O1 - P1     - O3    
     2      1     53      1    1.1544e+02    8.3931e+02 ;     O1 - P1     - O15   
     3      1      4      1    1.1544e+02    8.3931e+02 ;     O2 - P1     - O3    
     3      1     53      1    1.1544e+02    8.3931e+02 ;     O2 - P1     - O15   
     4      1     53      1    1.0172e+02    8.6123e+02 ;     O3 - P1     - O15   
     4      5      6      1    1.0752e+02    6.4785e+02 ;     O3 - C1     - C2    
     4      5     54      1    1.1034e+02    4.7028e+02 ;     O3 - C1     - H1    
     4      5     55      1    1.1034e+02    4.7028e+02 ;     O3 - C1     - H2    
     5      6      7      1    1.0897e+02    6.4224e+02 ;     C1 - C2     - O4    
     5      6      8      1    1.1360e+02    4.9647e+02 ;     C1 - C2     - C3    
     5      6     56      1    1.0924e+02    3.6242e+02 ;     C1 - C2     - H3    
     6      5     54      1    1.0938e+02    3.6217e+02 ;     C2 - C1     - H1    
     6      5     55      1    1.0938e+02    3.6217e+02 ;     C2 - C1     - H2    
     6      7     12      1    1.0926e+02    7.4986e+02 ;     C2 - O4     - C5    
     6      8      9      1    1.1162e+02    6.3455e+02 ;     C2 - C3     - O5    
     6      8     10      1    1.0383e+02    5.1748e+02 ;     C2 - C3     - C4    
     6      8     57      1    1.1117e+02    3.5690e+02 ;     C2 - C3     - H4    
     7      6      8      1    1.0614e+02    6.4793e+02 ;     O4 - C2     - C3    
     7      6     56      1    1.0846e+02    4.7229e+02 ;     O4 - C2     - H3    
     7     12     10      1    1.0614e+02    6.4793e+02 ;     O4 - C5     - C4    
     7     12     13      1    1.0927e+02    7.0124e+02 ;     O4 - C5     - N1    
     7     12     61      1    1.0947e+02    4.7028e+02 ;     O4 - C5     - H8    
     8      6     56      1    1.1117e+02    3.5690e+02 ;     C3 - C2     - H3    
     8      9     58      1    1.0717e+02    5.4727e+02 ;     C3 - O5     - H5    
     8     10     11      1    1.1162e+02    6.3455e+02 ;     C3 - C4     - O6    
     8     10     12      1    1.0383e+02    5.1748e+02 ;     C3 - C4     - C5    
     8     10     59      1    1.1117e+02    3.5690e+02 ;     C3 - C4     - H6    
     9      8     10      1    1.1162e+02    6.3455e+02 ;     O5 - C3     - C4    
     9      8     57      1    1.1027e+02    4.7254e+02 ;     O5 - C3     - H4    
    10      8     57      1    1.1117e+02    3.5690e+02 ;     C4 - C3     - H4    
    10     11     60      1    1.0717e+02    5.4727e+02 ;     C4 - O6     - H7    
    10     12     13      1    1.1485e+02    5.3714e+02 ;     C4 - C5     - N1    
    10     12     61      1    1.1053e+02    3.5798e+02 ;     C4 - C5     - H8    
    11     10     12      1    1.1162e+02    6.3455e+02 ;     O6 - C4     - C5    
    11     10     59      1    1.1027e+02    4.7254e+02 ;     O6 - C4     - H6    
    12     10     59      1    1.1117e+02    3.5690e+02 ;     C5 - C4     - H6    
    12     13     14      1    1.2654e+02    6.3128e+02 ;     C5 - N1     - C6    
    12     13     22      1    1.2776e+02    6.2718e+02 ;     C5 - N1     - C10   
    13     12     61      1    1.0616e+02    4.0911e+02 ;     N1 - C5     - H8    
    13     14     15      1    1.1201e+02    6.4408e+02 ;     N1 - C6     - N2    
    13     14     62      1    1.2178e+02    4.0024e+02 ;     N1 - C6     - H9    
    13     22     16      1    1.2031e+02    5.6752e+02 ;     N1 - C10    - C7    
    13     22     21      1    1.2710e+02    5.9856e+02 ;     N1 - C10    - N5    
    14     13     22      1    1.1732e+02    6.7354e+02 ;     C6 - N1     - C10   
    14     15     16      1    1.0545e+02    7.2626e+02 ;     C6 - N2     - C7    
    15     14     62      1    1.2562e+02    4.0886e+02 ;     N2 - C6     - H9    
    15     16     17      1    1.2100e+02    5.6576e+02 ;     N2 - C7     - C8    
    15     16     22      1    1.2100e+02    5.6576e+02 ;     N2 - C7     - C10   
    16     17     18      1    1.2094e+02    5.6827e+02 ;     C7 - C8     - N3    
    16     17     19      1    1.2294e+02    5.7045e+02 ;     C7 - C8     - N4    
    16     22     21      1    1.2294e+02    5.7045e+02 ;     C7 - C10    - N5    
    17     16     22      1    1.2002e+02    5.3279e+02 ;     C8 - C7     - C10   
    17     18     63      1    1.1673e+02    4.8292e+02 ;     C8 - N3     - H10   
    17     18     64      1    1.1673e+02    4.8292e+02 ;     C8 - N3     - H11   
    17     19     20      1    1.1724e+02    6.9580e+02 ;     C8 - N4     - C9    
    18     17     19      1    1.1677e+02    6.2727e+02 ;     N3 - C8     - N4    
    19     20     21      1    1.2730e+02    6.0886e+02 ;     N4 - C9     - N5    
    19     20     65      1    1.1579e+02    4.1974e+02 ;     N4 - C9     - H12   
    20     21     22      1    1.1724e+02    6.9580e+02 ;     C9 - N5     - C10   
    21     20     65      1    1.1579e+02    4.1974e+02 ;     N5 - C9     - H12   
    23     24     25      1    1.2401e+02    7.2877e+02 ;     N6 - C11    - O7    
    23     24     26      1    1.1635e+02    6.1932e+02 ;     N6 - C11    - N7    
    23     40     29      1    1.2070e+02    5.7287e+02 ;     N6 - C22    - C13   
    23     40     39      1    1.1302e+02    6.4024e+02 ;     N6 - C22    - N9    
    24     23     40      1    1.2034e+02    6.8283e+02 ;    C11 - N6     - C22   
    24     26     27      1    1.2805e+02    6.4618e+02 ;    C11 - N7     - C12   
    24     26     66      1    1.1726e+02    4.8007e+02 ;    C11 - N7     - H13   
    25     24     26      1    1.2305e+02    7.2977e+02 ;     O7 - C11    - N7    
    26     27     28      1    1.2305e+02    7.2977e+02 ;     N7 - C12    - O8    
    26     27     29      1    1.1220e+02    5.7245e+02 ;     N7 - C12    - C13   
    27     26     66      1    1.1726e+02    4.8007e+02 ;    C12 - N7     - H13   
    27     29     30      1    1.2168e+02    5.5974e+02 ;    C12 - C13    - N8    
    27     29     40      1    1.2551e+02    5.0225e+02 ;    C12 - C13    - C22   
    28     27     29      1    1.2371e+02    6.5530e+02 ;     O8 - C12    - C13   
    29     30     31      1    1.0417e+02    7.3069e+02 ;    C13 - N8     - C14   
    29     40     39      1    1.1802e+02    5.6735e+02 ;    C13 - C22    - N9    
    30     29     40      1    1.2070e+02    5.7287e+02 ;     N8 - C13    - C22   
    30     31     32      1    1.2187e+02    5.6400e+02 ;     N8 - C14    - C15   
    30     31     38      1    1.2187e+02    5.6400e+02 ;     N8 - C14    - C21   
    31     32     33      1    1.2002e+02    5.3279e+02 ;    C14 - C15    - C16   
    31     32     67      1    1.1988e+02    3.7572e+02 ;    C14 - C15    - H14   
    31     38     37      1    1.2002e+02    5.3279e+02 ;    C14 - C21    - C20   
    31     38     39      1    1.2031e+02    5.6752e+02 ;    C14 - C21    - N9    
    32     31     38      1    1.2002e+02    5.3279e+02 ;    C15 - C14    - C21   
    32     33     34      1    1.2083e+02    5.0827e+02 ;    C15 - C16    - C17   
    32     33     35      1    1.2002e+02    5.3279e+02 ;    C15 - C16    - C18   
    33     32     67      1    1.1988e+02    3.7572e+02 ;    C16 - C15    - H14   
    33     34     68      1    1.1063e+02    3.6493e+02 ;    C16 - C17    - H15   
    33     34     69      1    1.1063e+02    3.6493e+02 ;    C16 - C17    - H16   
    33     34     70      1    1.1063e+02    3.6493e+02 ;    C16 - C17    - H17   
    33     35     36      1    1.2083e+02    5.0827e+02 ;    C16 - C18    - C19   
    33     35     37      1    1.2002e+02    5.3279e+02 ;    C16 - C18    - C20   
    34     33     35      1    1.2083e+02    5.0827e+02 ;    C17 - C16    - C18   
    35     36     71      1    1.1063e+02    3.6493e+02 ;    C18 - C19    - H18   
    35     36     72      1    1.1063e+02    3.6493e+02 ;    C18 - C19    - H19   
    35     36     73      1    1.1063e+02    3.6493e+02 ;    C18 - C19    - H20   
    35     37     38      1    1.2002e+02    5.3279e+02 ;    C18 - C20    - C21   
    35     37     74      1    1.1988e+02    3.7572e+02 ;    C18 - C20    - H21   
    36     35     37      1    1.2083e+02    5.0827e+02 ;    C19 - C18    - C20   
    37     38     39      1    1.2031e+02    5.6752e+02 ;    C20 - C21    - N9    
    38     37     74      1    1.1988e+02    3.7572e+02 ;    C21 - C20    - H21   
    38     39     40      1    1.0877e+02    6.9881e+02 ;    C21 - N9     - C22   
    38     39     41      1    1.2050e+02    6.4408e+02 ;    C21 - N9     - C23   
    39     41     42      1    1.1263e+02    5.4392e+02 ;     N9 - C23    - C24   
    39     41     75      1    1.0876e+02    4.0250e+02 ;     N9 - C23    - H22   
    39     41     76      1    1.0876e+02    4.0250e+02 ;     N9 - C23    - H23   
    40     39     41      1    1.2550e+02    6.3170e+02 ;    C22 - N9     - C23   
    41     42     43      1    1.0966e+02    6.4258e+02 ;    C23 - C24    - O9    
    41     42     44      1    1.1263e+02    5.0099e+02 ;    C23 - C24    - C25   
    41     42     77      1    1.0959e+02    3.6217e+02 ;    C23 - C24    - H24   
    42     41     75      1    1.0959e+02    3.6217e+02 ;    C24 - C23    - H22   
    42     41     76      1    1.0959e+02    3.6217e+02 ;    C24 - C23    - H23   
    42     43     78      1    1.0739e+02    5.4501e+02 ;    C24 - O9     - H25   
    42     44     45      1    1.0966e+02    6.4258e+02 ;    C24 - C25    - O10   
    42     44     46      1    1.1263e+02    5.0099e+02 ;    C24 - C25    - C26   
    42     44     79      1    1.0959e+02    3.6217e+02 ;    C24 - C25    - H26   
    43     42     44      1    1.0966e+02    6.4258e+02 ;     O9 - C24    - C25   
    43     42     77      1    1.1038e+02    4.7103e+02 ;     O9 - C24    - H24   
    44     42     77      1    1.0959e+02    3.6217e+02 ;    C25 - C24    - H24   
    44     45     80      1    1.0739e+02    5.4501e+02 ;    C25 - O10    - H27   
    44     46     47      1    1.0966e+02    6.4258e+02 ;    C25 - C26    - O11   
    44     46     48      1    1.1263e+02    5.0099e+02 ;    C25 - C26    - C27   
    44     46     81      1    1.0959e+02    3.6217e+02 ;    C25 - C26    - H28   
    45     44     46      1    1.0966e+02    6.4258e+02 ;    O10 - C25    - C26   
    45     44     79      1    1.1038e+02    4.7103e+02 ;    O10 - C25    - H26   
    46     44     79      1    1.0959e+02    3.6217e+02 ;    C26 - C25    - H26   
    46     47     82      1    1.0739e+02    5.4501e+02 ;    C26 - O11    - H29   
    46     48     49      1    1.0762e+02    6.4802e+02 ;    C26 - C27    - O12   
    46     48     83      1    1.0959e+02    3.6217e+02 ;    C26 - C27    - H30   
    46     48     84      1    1.0959e+02    3.6217e+02 ;    C26 - C27    - H31   
    47     46     48      1    1.0966e+02    6.4258e+02 ;    O11 - C26    - C27   
    47     46     81      1    1.1038e+02    4.7103e+02 ;    O11 - C26    - H28   
    48     46     81      1    1.0959e+02    3.6217e+02 ;    C27 - C26    - H28   
    48     49     50      1    1.1970e+02    4.7396e+02 ;    C27 - O12    - P2    
    49     48     83      1    1.1034e+02    4.7028e+02 ;    O12 - C27    - H30   
    49     48     84      1    1.1034e+02    4.7028e+02 ;    O12 - C27    - H31   
    49     50     51      1    1.1544e+02    8.3931e+02 ;    O12 - P2     - O13   
    49     50     52      1    1.1544e+02    8.3931e+02 ;    O12 - P2     - O14   
    49     50     53      1    1.0172e+02    8.6123e+02 ;    O12 - P2     - O15   
    51     50     52      1    1.1829e+02    8.6826e+02 ;    O13 - P2     - O14   
    51     50     53      1    1.1544e+02    8.3931e+02 ;    O13 - P2     - O15   
    52     50     53      1    1.1544e+02    8.3931e+02 ;    O14 - P2     - O15   
    54      5     55      1    1.0855e+02    2.9824e+02 ;     H1 - C1     - H2    
    63     18     64      1    1.1528e+02    3.8794e+02 ;    H10 - N3     - H11   
    68     34     69      1    1.0773e+02    2.9957e+02 ;    H15 - C17    - H16   
    68     34     70      1    1.0773e+02    2.9957e+02 ;    H15 - C17    - H17   
    69     34     70      1    1.0773e+02    2.9957e+02 ;    H16 - C17    - H17   
    71     36     72      1    1.0773e+02    2.9957e+02 ;    H18 - C19    - H19   
    71     36     73      1    1.0773e+02    2.9957e+02 ;    H18 - C19    - H20   
    72     36     73      1    1.0773e+02    2.9957e+02 ;    H19 - C19    - H20   
    75     41     76      1    1.0855e+02    2.9824e+02 ;    H22 - C23    - H23   
    83     48     84      1    1.0855e+02    2.9824e+02 ;    H30 - C27    - H31   

[ dihedrals ] ; propers
; for gromacs 4.5 or higher, using funct 9
;    i      j      k      l   func   phase     kd      pn
     1      4      5      6      9     0.00   1.60247   3 ;     P1-    O3-    C1-    C2
     1      4      5      6      9   180.00  16.52680   1 ;     P1-    O3-    C1-    C2
     1      4      5     54      9     0.00   0.00000   0 ;     P1-    O3-    C1-    H1
     1      4      5     55      9     0.00   0.00000   0 ;     P1-    O3-    C1-    H2
     1     53     50     49      9     0.00   3.34720   2 ;     P1-   O15-    P2-   O12
     1     53     50     51      9     0.00   3.34720   2 ;     P1-   O15-    P2-   O13
     1     53     50     52      9     0.00   3.34720   2 ;     P1-   O15-    P2-   O14
     2      1      4      5      9     0.00   2.30120   3 ;     O1-    P1-    O3-    C1
     2      1      4      5      9     0.00   3.34720   2 ;     O1-    P1-    O3-    C1
     2      1     53     50      9     0.00   3.34720   2 ;     O1-    P1-   O15-    P2
     3      1      4      5      9     0.00   2.30120   3 ;     O2-    P1-    O3-    C1
     3      1      4      5      9     0.00   3.34720   2 ;     O2-    P1-    O3-    C1
     3      1     53     50      9     0.00   3.34720   2 ;     O2-    P1-   O15-    P2
     4      1     53     50      9     0.00   3.34720   2 ;     O3-    P1-   O15-    P2
     4      5      6      7      9     0.00   1.25520   2 ;     O3-    C1-    C2-    O4
     4      5      6      7      9   180.00   2.55224   1 ;     O3-    C1-    C2-    O4
     4      5      6      7      9   180.00   2.92880   3 ;     O3-    C1-    C2-    O4
     4      5      6      8      9     0.00   0.65084   3 ;     O3-    C1-    C2-    C3
     4      5      6     56      9     0.00   0.00000   0 ;     O3-    C1-    C2-    H3
     4      5      6     56      9     0.00   1.04600   1 ;     O3-    C1-    C2-    H3
     5      6      7     12      9     0.00   0.33472   2 ;     C1-    C2-    O4-    C5
     5      6      7     12      9     0.00   3.13800   3 ;     C1-    C2-    O4-    C5
     5      6      7     12      9   180.00   3.68192   1 ;     C1-    C2-    O4-    C5
     5      6      8      9      9     0.00   0.75312   3 ;     C1-    C2-    C3-    O5
     5      6      8     10      9     0.00   2.17568   3 ;     C1-    C2-    C3-    C4
     5      6      8     57      9     0.00   0.65084   3 ;     C1-    C2-    C3-    H4
     6      7     12     10      9     0.00   0.33472   2 ;     C2-    O4-    C5-    C4
     6      7     12     10      9     0.00   3.13800   3 ;     C2-    O4-    C5-    C4
     6      7     12     10      9   180.00   3.68192   1 ;     C2-    O4-    C5-    C4
     6      7     12     13      9     0.00   1.60247   3 ;     C2-    O4-    C5-    N1
     6      7     12     13      9     0.00   2.71960   2 ;     C2-    O4-    C5-    N1
     6      7     12     61      9     0.00   1.60387   3 ;     C2-    O4-    C5-    H8
     6      8      9     58      9     0.00   0.25104   3 ;     C2-    C3-    O5-    H5
     6      8     10     11      9     0.00   0.75312   3 ;     C2-    C3-    C4-    O6
     6      8     10     12      9     0.00   2.17568   3 ;     C2-    C3-    C4-    C5
     6      8     10     59      9     0.00   0.65084   3 ;     C2-    C3-    C4-    H6
     7      6      5     54      9     0.00   0.00000   0 ;     O4-    C2-    C1-    H1
     7      6      5     54      9     0.00   1.04600   1 ;     O4-    C2-    C1-    H1
     7      6      5     55      9     0.00   0.00000   0 ;     O4-    C2-    C1-    H2
     7      6      5     55      9     0.00   1.04600   1 ;     O4-    C2-    C1-    H2
     7      6      8      9      9     0.00   2.46856   1 ;     O4-    C2-    C3-    O5
     7      6      8      9      9     0.00   3.30536   3 ;     O4-    C2-    C3-    O5
     7      6      8      9      9     0.00   5.27184   2 ;     O4-    C2-    C3-    O5
     7      6      8     10      9     0.00   0.65084   3 ;     O4-    C2-    C3-    C4
     7      6      8     57      9     0.00   0.00000   0 ;     O4-    C2-    C3-    H4
     7      6      8     57      9     0.00   1.04600   1 ;     O4-    C2-    C3-    H4
     7     12     10      8      9     0.00   0.65084   3 ;     O4-    C5-    C4-    C3
     7     12     10     11      9     0.00   2.46856   1 ;     O4-    C5-    C4-    O6
     7     12     10     11      9     0.00   3.30536   3 ;     O4-    C5-    C4-    O6
     7     12     10     11      9     0.00   5.27184   2 ;     O4-    C5-    C4-    O6
     7     12     10     59      9     0.00   0.00000   0 ;     O4-    C5-    C4-    H6
     7     12     10     59      9     0.00   1.04600   1 ;     O4-    C5-    C4-    H6
     7     12     13     14      9     0.00   0.83680   3 ;     O4-    C5-    N1-    C6
     7     12     13     14      9     0.00   6.13653   2 ;     O4-    C5-    N1-    C6
     7     12     13     14      9     0.00   9.99976   1 ;     O4-    C5-    N1-    C6
     7     12     13     22      9     0.00   0.00000   0 ;     O4-    C5-    N1-   C10
     8      6      5     54      9     0.00   0.65084   3 ;     C3-    C2-    C1-    H1
     8      6      5     55      9     0.00   0.65084   3 ;     C3-    C2-    C1-    H2
     8      6      7     12      9     0.00   0.33472   2 ;     C3-    C2-    O4-    C5
     8      6      7     12      9     0.00   3.13800   3 ;     C3-    C2-    O4-    C5
     8      6      7     12      9   180.00   3.68192   1 ;     C3-    C2-    O4-    C5
     8     10     11     60      9     0.00   0.25104   3 ;     C3-    C4-    O6-    H7
     8     10     12     13      9     0.00   0.65084   3 ;     C3-    C4-    C5-    N1
     8     10     12     61      9     0.00   0.65084   3 ;     C3-    C4-    C5-    H8
     9      8      6     56      9     0.00   0.00000   0 ;     O5-    C3-    C2-    H3
     9      8      6     56      9     0.00   1.04600   1 ;     O5-    C3-    C2-    H3
     9      8     10     11      9     0.00   4.18400   1 ;     O5-    C3-    C4-    O6
     9      8     10     11      9     0.00   6.02496   3 ;     O5-    C3-    C4-    O6
     9      8     10     12      9     0.00   0.75312   3 ;     O5-    C3-    C4-    C5
     9      8     10     59      9     0.00   0.00000   0 ;     O5-    C3-    C4-    H6
     9      8     10     59      9     0.00   1.04600   1 ;     O5-    C3-    C4-    H6
    10      8      6     56      9     0.00   0.65084   3 ;     C4-    C3-    C2-    H3
    10      8      9     58      9     0.00   0.25104   3 ;     C4-    C3-    O5-    H5
    10     12     13     14      9     0.00   0.00000   0 ;     C4-    C5-    N1-    C6
    10     12     13     22      9     0.00   0.00000   0 ;     C4-    C5-    N1-   C10
    11     10      8     57      9     0.00   0.00000   0 ;     O6-    C4-    C3-    H4
    11     10      8     57      9     0.00   1.04600   1 ;     O6-    C4-    C3-    H4
    11     10     12     13      9     0.00   0.65084   3 ;     O6-    C4-    C5-    N1
    11     10     12     61      9     0.00   0.65084   3 ;     O6-    C4-    C5-    H8
    12      7      6     56      9     0.00   1.41001   3 ;     C5-    O4-    C2-    H3
    12     10      8     57      9     0.00   0.65084   3 ;     C5-    C4-    C3-    H4
    12     10     11     60      9     0.00   0.25104   3 ;     C5-    C4-    O6-    H7
    12     13     14     15      9   180.00   7.11280   2 ;     C5-    N1-    C6-    N2
    12     13     14     62      9   180.00   7.11280   2 ;     C5-    N1-    C6-    H9
    12     13     22     16      9   180.00   1.25520   2 ;     C5-    N1-   C10-    C7
    12     13     22     21      9   180.00   1.25520   2 ;     C5-    N1-   C10-    N5
    13     12     10     59      9     0.00   0.65084   3 ;     N1-    C5-    C4-    H6
    13     14     15     16      9   180.00  19.87400   2 ;     N1-    C6-    N2-    C7
    13     22     16     15      9   180.00  15.16700   2 ;     N1-   C10-    C7-    N2
    13     22     16     17      9   180.00  15.16700   2 ;     N1-   C10-    C7-    C8
    13     22     21     20      9   180.00  20.08320   2 ;     N1-   C10-    N5-    C9
    14     13     12     61      9     0.00   0.00000   0 ;     C6-    N1-    C5-    H8
    14     13     22     16      9   180.00   2.56479   2 ;     C6-    N1-   C10-    C7
    14     13     22     21      9   180.00   1.25520   2 ;     C6-    N1-   C10-    N5
    14     15     16     17      9   180.00  20.08320   2 ;     C6-    N2-    C7-    C8
    14     15     16     22      9   180.00  20.08320   2 ;     C6-    N2-    C7-   C10
    15     14     13     22      9   180.00   7.11280   2 ;     N2-    C6-    N1-   C10
    15     16     17     18      9   180.00  15.16700   2 ;     N2-    C7-    C8-    N3
    15     16     17     19      9   180.00  15.16700   2 ;     N2-    C7-    C8-    N4
    15     16     22     21      9   180.00  15.16700   2 ;     N2-    C7-   C10-    N5
    16     15     14     62      9   180.00  19.87400   2 ;     C7-    N2-    C6-    H9
    16     17     18     63      9   180.00   4.39320   2 ;     C7-    C8-    N3-   H10
    16     17     18     64      9   180.00   4.39320   2 ;     C7-    C8-    N3-   H11
    16     17     19     20      9   180.00  20.08320   2 ;     C7-    C8-    N4-    C9
    16     22     21     20      9   180.00  20.08320   2 ;     C7-   C10-    N5-    C9
    17     16     22     21      9   180.00  15.16700   2 ;     C8-    C7-   C10-    N5
    17     19     20     21      9   180.00  20.08320   2 ;     C8-    N4-    C9-    N5
    17     19     20     65      9   180.00  20.08320   2 ;     C8-    N4-    C9-   H12
    18     17     16     22      9   180.00  15.16700   2 ;     N3-    C8-    C7-   C10
    18     17     19     20      9   180.00  20.08320   2 ;     N3-    C8-    N4-    C9
    19     17     16     22      9   180.00  15.16700   2 ;     N4-    C8-    C7-   C10
    19     17     18     63      9   180.00   4.39320   2 ;     N4-    C8-    N3-   H10
    19     17     18     64      9   180.00   4.39320   2 ;     N4-    C8-    N3-   H11
    19     20     21     22      9   180.00  20.08320   2 ;     N4-    C9-    N5-   C10
    22     13     12     61      9     0.00   0.00000   0 ;    C10-    N1-    C5-    H8
    22     13     14     62      9   180.00   7.11280   2 ;    C10-    N1-    C6-    H9
    22     21     20     65      9   180.00  20.08320   2 ;    C10-    N5-    C9-   H12
    23     24     26     27      9   180.00  10.46000   2 ;     N6-   C11-    N7-   C12
    23     24     26     66      9   180.00  10.46000   2 ;     N6-   C11-    N7-   H13
    23     40     29     27      9   180.00  16.73600   2 ;     N6-   C22-   C13-   C12
    23     40     29     30      9   180.00  16.73600   2 ;     N6-   C22-   C13-    N8
    23     40     39     38      9   180.00   7.11280   2 ;     N6-   C22-    N9-   C21
    23     40     39     41      9   180.00   7.11280   2 ;     N6-   C22-    N9-   C23
    24     23     40     29      9   180.00  19.87400   2 ;    C11-    N6-   C22-   C13
    24     23     40     39      9   180.00  19.87400   2 ;    C11-    N6-   C22-    N9
    24     26     27     28      9   180.00  10.46000   2 ;    C11-    N7-   C12-    O8
    24     26     27     29      9   180.00  10.46000   2 ;    C11-    N7-   C12-   C13
    25     24     23     40      9   180.00  16.73600   2 ;     O7-   C11-    N6-   C22
    25     24     26     27      9   180.00  10.46000   2 ;     O7-   C11-    N7-   C12
    25     24     26     66      9     0.00   8.36800   1 ;     O7-   C11-    N7-   H13
    25     24     26     66      9   180.00  10.46000   2 ;     O7-   C11-    N7-   H13
    26     24     23     40      9   180.00  16.73600   2 ;     N7-   C11-    N6-   C22
    26     27     29     30      9   180.00  12.02900   2 ;     N7-   C12-   C13-    N8
    26     27     29     40      9   180.00  12.02900   2 ;     N7-   C12-   C13-   C22
    27     29     30     31      9   180.00  19.87400   2 ;    C12-   C13-    N8-   C14
    27     29     40     39      9   180.00  16.73600   2 ;    C12-   C13-   C22-    N9
    28     27     26     66      9     0.00   8.36800   1 ;     O8-   C12-    N7-   H13
    28     27     26     66      9   180.00  10.46000   2 ;     O8-   C12-    N7-   H13
    28     27     29     30      9   180.00  12.02900   2 ;     O8-   C12-   C13-    N8
    28     27     29     40      9   180.00  12.02900   2 ;     O8-   C12-   C13-   C22
    29     27     26     66      9   180.00  10.46000   2 ;    C13-   C12-    N7-   H13
    29     30     31     32      9   180.00  20.08320   2 ;    C13-    N8-   C14-   C15
    29     30     31     38      9   180.00  20.08320   2 ;    C13-    N8-   C14-   C21
    29     40     39     38      9   180.00   7.11280   2 ;    C13-   C22-    N9-   C21
    29     40     39     41      9   180.00   7.11280   2 ;    C13-   C22-    N9-   C23
    30     29     40     39      9   180.00  16.73600   2 ;     N8-   C13-   C22-    N9
    30     31     32     33      9   180.00  15.16700   2 ;     N8-   C14-   C15-   C16
    30     31     32     67      9   180.00  15.16700   2 ;     N8-   C14-   C15-   H14
    30     31     38     37      9   180.00  15.16700   2 ;     N8-   C14-   C21-   C20
    30     31     38     39      9   180.00  15.16700   2 ;     N8-   C14-   C21-    N9
    31     30     29     40      9   180.00  19.87400   2 ;    C14-    N8-   C13-   C22
    31     32     33     34      9   180.00  15.16700   2 ;    C14-   C15-   C16-   C17
    31     32     33     35      9   180.00  15.16700   2 ;    C14-   C15-   C16-   C18
    31     38     37     35      9   180.00  15.16700   2 ;    C14-   C21-   C20-   C18
    31     38     37     74      9   180.00  15.16700   2 ;    C14-   C21-   C20-   H21
    31     38     39     40      9   180.00   1.25520   2 ;    C14-   C21-    N9-   C22
    31     38     39     41      9   180.00   1.25520   2 ;    C14-   C21-    N9-   C23
    32     31     38     37      9   180.00  15.16700   2 ;    C15-   C14-   C21-   C20
    32     31     38     39      9   180.00  15.16700   2 ;    C15-   C14-   C21-    N9
    32     33     34     68      9     0.00   0.00000   0 ;    C15-   C16-   C17-   H15
    32     33     34     69      9     0.00   0.00000   0 ;    C15-   C16-   C17-   H16
    32     33     34     70      9     0.00   0.00000   0 ;    C15-   C16-   C17-   H17
    32     33     35     36      9   180.00  15.16700   2 ;    C15-   C16-   C18-   C19
    32     33     35     37      9   180.00  15.16700   2 ;    C15-   C16-   C18-   C20
    33     32     31     38      9   180.00  15.16700   2 ;    C16-   C15-   C14-   C21
    33     35     36     71      9     0.00   0.00000   0 ;    C16-   C18-   C19-   H18
    33     35     36     72      9     0.00   0.00000   0 ;    C16-   C18-   C19-   H19
    33     35     36     73      9     0.00   0.00000   0 ;    C16-   C18-   C19-   H20
    33     35     37     38      9   180.00  15.16700   2 ;    C16-   C18-   C20-   C21
    33     35     37     74      9   180.00  15.16700   2 ;    C16-   C18-   C20-   H21
    34     33     32     67      9   180.00  15.16700   2 ;    C17-   C16-   C15-   H14
    34     33     35     36      9   180.00  15.16700   2 ;    C17-   C16-   C18-   C19
    34     33     35     37      9   180.00  15.16700   2 ;    C17-   C16-   C18-   C20
    35     33     32     67      9   180.00  15.16700   2 ;    C18-   C16-   C15-   H14
    35     33     34     68      9     0.00   0.00000   0 ;    C18-   C16-   C17-   H15
    35     33     34     69      9     0.00   0.00000   0 ;    C18-   C16-   C17-   H16
    35     33     34     70      9     0.00   0.00000   0 ;    C18-   C16-   C17-   H17
    35     37     38     39      9   180.00  15.16700   2 ;    C18-   C20-   C21-    N9
    36     35     37     38      9   180.00  15.16700   2 ;    C19-   C18-   C20-   C21
    36     35     37     74      9   180.00  15.16700   2 ;    C19-   C18-   C20-   H21
    37     35     36     71      9     0.00   0.00000   0 ;    C20-   C18-   C19-   H18
    37     35     36     72      9     0.00   0.00000   0 ;    C20-   C18-   C19-   H19
    37     35     36     73      9     0.00   0.00000   0 ;    C20-   C18-   C19-   H20
    37     38     39     40      9   180.00   1.25520   2 ;    C20-   C21-    N9-   C22
    37     38     39     41      9   180.00   1.25520   2 ;    C20-   C21-    N9-   C23
    38     31     32     67      9   180.00  15.16700   2 ;    C21-   C14-   C15-   H14
    38     39     41     42      9     0.00   0.00000   0 ;    C21-    N9-   C23-   C24
    38     39     41     75      9     0.00   0.00000   0 ;    C21-    N9-   C23-   H22
    38     39     41     76      9     0.00   0.00000   0 ;    C21-    N9-   C23-   H23
    39     38     37     74      9   180.00  15.16700   2 ;     N9-   C21-   C20-   H21
    39     41     42     43      9     0.00   0.65084   3 ;     N9-   C23-   C24-    O9
    39     41     42     44      9     0.00   0.65084   3 ;     N9-   C23-   C24-   C25
    39     41     42     77      9     0.00   0.65084   3 ;     N9-   C23-   C24-   H24
    40     39     41     42      9     0.00   0.00000   0 ;    C22-    N9-   C23-   C24
    40     39     41     75      9     0.00   0.00000   0 ;    C22-    N9-   C23-   H22
    40     39     41     76      9     0.00   0.00000   0 ;    C22-    N9-   C23-   H23
    41     42     43     78      9     0.00   0.25104   3 ;    C23-   C24-    O9-   H25
    41     42     44     45      9     0.00   0.75312   3 ;    C23-   C24-   C25-   O10
    41     42     44     46      9     0.00   2.17568   3 ;    C23-   C24-   C25-   C26
    41     42     44     79      9     0.00   0.65084   3 ;    C23-   C24-   C25-   H26
    42     44     45     80      9     0.00   0.25104   3 ;    C24-   C25-   O10-   H27
    42     44     46     47      9     0.00   0.75312   3 ;    C24-   C25-   C26-   O11
    42     44     46     48      9     0.00   2.17568   3 ;    C24-   C25-   C26-   C27
    42     44     46     81      9     0.00   0.65084   3 ;    C24-   C25-   C26-   H28
    43     42     41     75      9     0.00   0.00000   0 ;     O9-   C24-   C23-   H22
    43     42     41     75      9     0.00   1.04600   1 ;     O9-   C24-   C23-   H22
    43     42     41     76      9     0.00   0.00000   0 ;     O9-   C24-   C23-   H23
    43     42     41     76      9     0.00   1.04600   1 ;     O9-   C24-   C23-   H23
    43     42     44     45      9     0.00   4.18400   1 ;     O9-   C24-   C25-   O10
    43     42     44     45      9     0.00   6.02496   3 ;     O9-   C24-   C25-   O10
    43     42     44     46      9     0.00   0.75312   3 ;     O9-   C24-   C25-   C26
    43     42     44     79      9     0.00   0.00000   0 ;     O9-   C24-   C25-   H26
    43     42     44     79      9     0.00   1.04600   1 ;     O9-   C24-   C25-   H26
    44     42     41     75      9     0.00   0.65084   3 ;    C25-   C24-   C23-   H22
    44     42     41     76      9     0.00   0.65084   3 ;    C25-   C24-   C23-   H23
    44     42     43     78      9     0.00   0.25104   3 ;    C25-   C24-    O9-   H25
    44     46     47     82      9     0.00   0.25104   3 ;    C25-   C26-   O11-   H29
    44     46     48     49      9     0.00   0.65084   3 ;    C25-   C26-   C27-   O12
    44     46     48     83      9     0.00   0.65084   3 ;    C25-   C26-   C27-   H30
    44     46     48     84      9     0.00   0.65084   3 ;    C25-   C26-   C27-   H31
    45     44     42     77      9     0.00   0.00000   0 ;    O10-   C25-   C24-   H24
    45     44     42     77      9     0.00   1.04600   1 ;    O10-   C25-   C24-   H24
    45     44     46     47      9     0.00   4.18400   1 ;    O10-   C25-   C26-   O11
    45     44     46     47      9     0.00   6.02496   3 ;    O10-   C25-   C26-   O11
    45     44     46     48      9     0.00   0.75312   3 ;    O10-   C25-   C26-   C27
    45     44     46     81      9     0.00   0.00000   0 ;    O10-   C25-   C26-   H28
    45     44     46     81      9     0.00   1.04600   1 ;    O10-   C25-   C26-   H28
    46     44     42     77      9     0.00   0.65084   3 ;    C26-   C25-   C24-   H24
    46     44     45     80      9     0.00   0.25104   3 ;    C26-   C25-   O10-   H27
    46     48     49     50      9     0.00   1.60247   3 ;    C26-   C27-   O12-    P2
    46     48     49     50      9   180.00  16.52680   1 ;    C26-   C27-   O12-    P2
    47     46     44     79      9     0.00   0.00000   0 ;    O11-   C26-   C25-   H26
    47     46     44     79      9     0.00   1.04600   1 ;    O11-   C26-   C25-   H26
    47     46     48     49      9     0.00   0.65084   3 ;    O11-   C26-   C27-   O12
    47     46     48     83      9     0.00   0.00000   0 ;    O11-   C26-   C27-   H30
    47     46     48     83      9     0.00   1.04600   1 ;    O11-   C26-   C27-   H30
    47     46     48     84      9     0.00   0.00000   0 ;    O11-   C26-   C27-   H31
    47     46     48     84      9     0.00   1.04600   1 ;    O11-   C26-   C27-   H31
    48     46     44     79      9     0.00   0.65084   3 ;    C27-   C26-   C25-   H26
    48     46     47     82      9     0.00   0.25104   3 ;    C27-   C26-   O11-   H29
    48     49     50     51      9     0.00   2.30120   3 ;    C27-   O12-    P2-   O13
    48     49     50     51      9     0.00   3.34720   2 ;    C27-   O12-    P2-   O13
    48     49     50     52      9     0.00   2.30120   3 ;    C27-   O12-    P2-   O14
    48     49     50     52      9     0.00   3.34720   2 ;    C27-   O12-    P2-   O14
    48     49     50     53      9     0.00  14.72768   2 ;    C27-   O12-    P2-   O15
    49     48     46     81      9     0.00   0.00000   0 ;    O12-   C27-   C26-   H28
    49     48     46     81      9     0.00   1.04600   1 ;    O12-   C27-   C26-   H28
    50     49     48     83      9     0.00   0.00000   0 ;     P2-   O12-   C27-   H30
    50     49     48     84      9     0.00   0.00000   0 ;     P2-   O12-   C27-   H31
    53      1      4      5      9     0.00  14.72768   2 ;    O15-    P1-    O3-    C1
    54      5      6     56      9     0.00   0.65084   3 ;     H1-    C1-    C2-    H3
    55      5      6     56      9     0.00   0.65084   3 ;     H2-    C1-    C2-    H3
    56      6      8     57      9     0.00   0.65084   3 ;     H3-    C2-    C3-    H4
    57      8      9     58      9     0.00   0.51463   3 ;     H4-    C3-    O5-    H5
    57      8     10     59      9     0.00   0.65084   3 ;     H4-    C3-    C4-    H6
    59     10     11     60      9     0.00   0.51463   3 ;     H6-    C4-    O6-    H7
    59     10     12     61      9     0.00   0.65084   3 ;     H6-    C4-    C5-    H8
    75     41     42     77      9     0.00   0.65084   3 ;    H22-   C23-   C24-   H24
    76     41     42     77      9     0.00   0.65084   3 ;    H23-   C23-   C24-   H24
    77     42     43     78      9     0.00   0.51463   3 ;    H24-   C24-    O9-   H25
    77     42     44     79      9     0.00   0.65084   3 ;    H24-   C24-   C25-   H26
    79     44     45     80      9     0.00   0.51463   3 ;    H26-   C25-   O10-   H27
    79     44     46     81      9     0.00   0.65084   3 ;    H26-   C25-   C26-   H28
    81     46     47     82      9     0.00   0.51463   3 ;    H28-   C26-   O11-   H29
    81     46     48     83      9     0.00   0.65084   3 ;    H28-   C26-   C27-   H30
    81     46     48     84      9     0.00   0.65084   3 ;    H28-   C26-   C27-   H31

[ dihedrals ] ; impropers
; treated as propers in GROMACS to use correct AMBER analytical function
;    i      j      k      l   func   phase     kd      pn
    12     22     13     14      4   180.00   4.60240   2 ;     C5-   C10-    N1-    C6
    16     13     22     21      4   180.00  43.93200   2 ;     C7-    N1-   C10-    N5
    16     19     17     18      4   180.00  43.93200   2 ;     C7-    N4-    C8-    N3
    17     22     16     15      4   180.00  43.93200   2 ;     C8-   C10-    C7-    N2
    17     63     18     64      4   180.00   4.60240   2 ;     C8-   H10-    N3-   H11
    23     26     24     25      4   180.00  43.93200   2 ;     N6-    N7-   C11-    O7
    24     27     26     66      4   180.00   4.60240   2 ;    C11-   C12-    N7-   H13
    27     40     29     30      4   180.00  43.93200   2 ;    C12-   C22-   C13-    N8
    29     26     27     28      4   180.00  43.93200   2 ;    C13-    N7-   C12-    O8
    29     39     40     23      4   180.00  43.93200   2 ;    C13-    N9-   C22-    N6
    31     33     32     67      4   180.00   4.60240   2 ;    C14-   C16-   C15-   H14
    31     37     38     39      4   180.00  43.93200   2 ;    C14-   C20-   C21-    N9
    32     35     33     34      4   180.00   4.60240   2 ;    C15-   C18-   C16-   C17
    32     38     31     30      4   180.00  43.93200   2 ;    C15-   C21-   C14-    N8
    35     38     37     74      4   180.00   4.60240   2 ;    C18-   C21-   C20-   H21
    36     33     35     37      4   180.00   4.60240   2 ;    C19-   C16-   C18-   C20
    41     38     39     40      4   180.00   4.60240   2 ;    C23-   C21-    N9-   C22
    62     13     14     15      4   180.00  43.93200   2 ;     H9-    N1-    C6-    N2
    65     19     20     21      4   180.00  43.93200   2 ;    H12-    N4-    C9-    N5
