; FAD_GMX.top created by acpype (v: 2023.10.27) on Fri Sep 25 09:30:46 2026

[ defaults ]
; nbfunc        comb-rule       gen-pairs       fudgeLJ fudgeQQ
1               2               yes             0.5     0.8333333333

; Include FAD_GMX.itp topology
#include "FAD_GMX.itp"

; Ligand position restraints
#ifdef POSRES_LIG
#include "posre_FAD.itp"
#endif

[ system ]
 FAD

[ molecules ]
; Compound        nmols
 FAD              1     
