MOL
    84
  24.5260000  35.3410000 -18.8620000  23.7150000  34.1340000 -18.4350000
  25.6520000  35.9380000 -18.1090000  23.4420000  36.4520000 -19.1040000
  22.0840000  36.0870000 -19.2980000  21.1890000  37.0890000 -18.5640000
  19.8440000  36.8320000 -18.9740000  21.2280000  36.8730000 -17.0360000
  21.3870000  38.1070000 -16.3300000  19.8780000  36.2470000 -16.7340000
  19.3440000  36.6250000 -15.5130000  18.9940000  36.8070000 -17.8200000
  17.8380000  35.9740000 -18.2090000  17.6490000  34.6140000 -18.2770000
  16.3770000  34.3610000 -18.7610000  15.8300000  35.5670000 -19.0440000
  14.6140000  35.9280000 -19.6110000  13.7770000  34.9850000 -20.0980000
  14.3480000  37.2620000 -19.7660000  15.2080000  38.2530000 -19.3960000
  16.4400000  37.9260000 -18.8490000  16.7160000  36.5770000 -18.6670000
  33.8590000  33.1960000 -17.8800000  35.0780000  33.7890000 -17.9440000
  35.2520000  34.4500000 -18.9180000  36.0250000  33.6480000 -16.9400000
  35.7300000  32.8220000 -15.8340000  36.5430000  32.6100000 -14.8790000
  34.5000000  32.1870000 -15.8170000  34.1760000  31.3420000 -14.7850000
  32.8760000  30.8680000 -14.6560000  32.5150000  30.3930000 -13.3860000
  31.1840000  30.3370000 -13.0130000  30.8720000  29.5740000 -11.7310000
  30.1630000  30.7540000 -13.9070000  28.7330000  30.5990000 -13.5030000
  30.4830000  31.2560000 -15.1950000  31.8810000  31.2900000 -15.5590000
  32.3140000  31.8300000 -16.7580000  33.5540000  32.4110000 -16.8160000
  31.3090000  32.0890000 -17.8230000  30.8600000  33.5260000 -17.8540000
  30.4400000  33.7530000 -16.5420000  29.7380000  33.5350000 -18.9090000
  30.2820000  33.0130000 -20.1390000  29.1980000  34.8870000 -19.2820000
  28.9020000  35.6470000 -18.1420000  27.9050000  34.6360000 -20.0670000
  27.4150000  35.8970000 -20.3880000  26.0470000  36.0170000 -21.1600000
  25.8630000  37.5290000 -21.2350000  26.2860000  35.4000000 -22.5710000
  25.0070000  35.1470000 -20.3740000  21.9170000  35.1050000 -18.9080000
  21.8530000  36.0940000 -20.3430000  21.5250000  38.0790000 -18.7910000
  22.0540000  36.2660000 -16.7300000  20.6630000  38.7090000 -16.5640000
  19.9610000  35.1810000 -16.6960000  19.2440000  37.5900000 -15.4880000
  18.5930000  37.7350000 -17.4680000  18.3430000  33.8980000 -18.0110000
  13.9860000  34.0310000 -19.9760000  12.9580000  35.2520000 -20.5750000
  14.9440000  39.2420000 -19.5220000  36.8890000  34.1170000 -16.9980000
  33.2460000  30.0840000 -12.7270000  31.7830000  29.3610000 -11.2120000
  30.3770000  28.6570000 -11.9730000  30.2370000  30.1680000 -11.1080000
  28.6840000  30.2100000 -12.5070000  28.2440000  29.9240000 -14.1740000
  28.2470000  31.5520000 -13.5390000  29.7500000  31.5820000 -15.8430000
  30.4560000  31.4670000 -17.6490000  31.7690000  31.8710000 -18.7640000
  31.5660000  34.2850000 -18.1200000  29.7980000  33.0720000 -16.2850000
  28.9450000  32.9690000 -18.4670000  30.9900000  33.5970000 -20.4530000
  29.9220000  35.4290000 -19.8540000  28.2460000  35.1780000 -17.6020000
  27.1990000  34.1030000 -19.4650000  28.0790000  34.0440000 -20.9410000
