FAD_GMX.gro created by acpype (v: 2023.10.27) on Fri Sep 25 09:30:46 2026
 84
    1  MOL   P1    1   2.453   3.534  -1.886
    1  MOL   O1    2   2.372   3.413  -1.843
    1  MOL   O2    3   2.565   3.594  -1.811
    1  MOL   O3    4   2.344   3.645  -1.910
    1  MOL   C1    5   2.208   3.609  -1.930
    1  MOL   C2    6   2.119   3.709  -1.856
    1  MOL   O4    7   1.984   3.683  -1.897
    1  MOL   C3    8   2.123   3.687  -1.704
    1  MOL   O5    9   2.139   3.811  -1.633
    1  MOL   C4   10   1.988   3.625  -1.673
    1  MOL   O6   11   1.934   3.663  -1.551
    1  MOL   C5   12   1.899   3.681  -1.782
    1  MOL   N1   13   1.784   3.597  -1.821
    1  MOL   C6   14   1.765   3.461  -1.828
    1  MOL   N2   15   1.638   3.436  -1.876
    1  MOL   C7   16   1.583   3.557  -1.904
    1  MOL   C8   17   1.461   3.593  -1.961
    1  MOL   N3   18   1.378   3.498  -2.010
    1  MOL   N4   19   1.435   3.726  -1.977
    1  MOL   C9   20   1.521   3.825  -1.940
    1  MOL   N5   21   1.644   3.793  -1.885
    1  MOL  C10   22   1.672   3.658  -1.867
    1  MOL   N6   23   3.386   3.320  -1.788
    1  MOL  C11   24   3.508   3.379  -1.794
    1  MOL   O7   25   3.525   3.445  -1.892
    1  MOL   N7   26   3.603   3.365  -1.694
    1  MOL  C12   27   3.573   3.282  -1.583
    1  MOL   O8   28   3.654   3.261  -1.488
    1  MOL  C13   29   3.450   3.219  -1.582
    1  MOL   N8   30   3.418   3.134  -1.479
    1  MOL  C14   31   3.288   3.087  -1.466
    1  MOL  C15   32   3.252   3.039  -1.339
    1  MOL  C16   33   3.118   3.034  -1.301
    1  MOL  C17   34   3.087   2.957  -1.173
    1  MOL  C18   35   3.016   3.075  -1.391
    1  MOL  C19   36   2.873   3.060  -1.350
    1  MOL  C20   37   3.048   3.126  -1.520
    1  MOL  C21   38   3.188   3.129  -1.556
    1  MOL   N9   39   3.231   3.183  -1.676
    1  MOL  C22   40   3.355   3.241  -1.682
    1  MOL  C23   41   3.131   3.209  -1.782
    1  MOL  C24   42   3.086   3.353  -1.785
    1  MOL   O9   43   3.044   3.375  -1.654
    1  MOL  C25   44   2.974   3.353  -1.891
    1  MOL  O10   45   3.028   3.301  -2.014
    1  MOL  C26   46   2.920   3.489  -1.928
    1  MOL  O11   47   2.890   3.565  -1.814
    1  MOL  C27   48   2.791   3.464  -2.007
    1  MOL  O12   49   2.742   3.590  -2.039
    1  MOL   P2   50   2.605   3.602  -2.116
    1  MOL  O13   51   2.586   3.753  -2.123
    1  MOL  O14   52   2.629   3.540  -2.257
    1  MOL  O15   53   2.501   3.515  -2.037
    1  MOL   H1   54   2.192   3.510  -1.891
    1  MOL   H2   55   2.185   3.609  -2.034
    1  MOL   H3   56   2.152   3.808  -1.879
    1  MOL   H4   57   2.205   3.627  -1.673
    1  MOL   H5   58   2.066   3.871  -1.656
    1  MOL   H6   59   1.996   3.518  -1.670
    1  MOL   H7   60   1.924   3.759  -1.549
    1  MOL   H8   61   1.859   3.774  -1.747
    1  MOL   H9   62   1.834   3.390  -1.801
    1  MOL  H10   63   1.399   3.403  -1.998
    1  MOL  H11   64   1.296   3.525  -2.058
    1  MOL  H12   65   1.494   3.924  -1.952
    1  MOL  H13   66   3.689   3.412  -1.700
    1  MOL  H14   67   3.325   3.008  -1.273
    1  MOL  H15   68   3.178   2.936  -1.121
    1  MOL  H16   69   3.038   2.866  -1.197
    1  MOL  H17   70   3.024   3.017  -1.111
    1  MOL  H18   71   2.868   3.021  -1.251
    1  MOL  H19   72   2.824   2.992  -1.417
    1  MOL  H20   73   2.825   3.155  -1.354
    1  MOL  H21   74   2.975   3.158  -1.584
    1  MOL  H22   75   3.046   3.147  -1.765
    1  MOL  H23   76   3.177   3.187  -1.876
    1  MOL  H24   77   3.157   3.428  -1.812
    1  MOL  H25   78   2.980   3.307  -1.629
    1  MOL  H26   79   2.895   3.297  -1.847
    1  MOL  H27   80   3.099   3.360  -2.045
    1  MOL  H28   81   2.992   3.543  -1.985
    1  MOL  H29   82   2.825   3.518  -1.760
    1  MOL  H30   83   2.720   3.410  -1.947
    1  MOL  H31   84   2.808   3.404  -2.094
   47.86200    21.17000    22.92600
